<LesHouchesEvents version="3.0">
<header>
<!--
#*********************************************************************
#                                                                    *
#                        MadGraph5_aMC@NLO                           *
#                                                                    *
#                           Going Beyond                             *
#                                                                    *
#                   http://madgraph.hep.uiuc.edu                     *
#                   http://madgraph.phys.ucl.ac.be                   *
#                   http://amcatnlo.cern.ch                          *
#                                                                    *
#                     The MadGraph5_aMC@NLO team                     *
#                                                                    *
#....................................................................*
#                                                                    *
# This file contains all the information necessary to reproduce      *
# the events generated:                                              *
#                                                                    *
# 1. software version                                                *
# 2. proc_card          : code generation info including model       *
# 3. param_card         : model primary parameters in the LH format  *
# 4. run_card           : running parameters (collider and cuts)     *
# 5. pythia_card        : present only if pythia has been run        *
# 6. pgs_card           : present only if pgs has been run           *
# 7. delphes_cards      : present only if delphes has been run       *
#                                                                    *
#                                                                    *
#*********************************************************************
-->
<MGVersion>
#5.2.2.3
</MGVersion>
<MG5ProcCard>
#************************************************************
#*                     MadGraph5_aMC@NLO                    *
#*                                                          *
#*                *                       *                 *
#*                  *        * *        *                   *
#*                    * * * * 5 * * * *                     *
#*                  *        * *        *                   *
#*                *                       *                 *
#*                                                          *
#*                                                          *
#*         VERSION 2.2.3                 2015-02-10         *
#*                                                          *
#*    The MadGraph5_aMC@NLO Development Team - Find us at   *
#*    https://server06.fynu.ucl.ac.be/projects/madgraph     *
#*                                                          *
#************************************************************
#*                                                          *
#*               Command File for MadGraph5_aMC@NLO         *
#*                                                          *
#*     run as ./bin/mg5_aMC  filename                       *
#*                                                          *
#************************************************************
set group_subprocesses Auto
set ignore_six_quark_processes False
set loop_optimized_output True
set gauge unitary
set complex_mass_scheme False
import model sm
define p = g u c d s u~ c~ d~ s~
define j = g u c d s u~ c~ d~ s~
define l+ = e+ mu+
define l- = e- mu-
define vl = ve vm vt
define vl~ = ve~ vm~ vt~
import model Zprime_UFO
generate p p > zph, zph > j j
add process p p > zph, zph > b b~
output Dijet_signal
</MG5ProcCard>
<MGProcCard>
#*********************************************************************
#                        MadGraph/MadEvent                           *
#                   http://madgraph.hep.uiuc.edu                     *
#                                                                    *
#                          proc_card.dat                             *
#*********************************************************************
#                                                                    *
#            This Files is generated by MADGRAPH 5                   *
#                                                                    *
# WARNING: This Files is generated for MADEVENT (compatibility issue)*
#          This files is NOT a valid MG4 proc_card.dat               *
#          Running this in MG4 will NEVER reproduce the result of MG5*
#                                                                    *
#*********************************************************************
#*********************************************************************
# Process(es) requested : mg2 input                                  *
#*********************************************************************
# Begin PROCESS # This is TAG. Do not modify this line
p p > zph , zph > j j           #Process
# Be carefull the coupling are here in MG5 convention
          
end_coup           # End the couplings input

done               # this tells MG there are no more procs
# End PROCESS  # This is TAG. Do not modify this line
#*********************************************************************
# Model information                                                  *
#*********************************************************************
# Begin MODEL  # This is TAG. Do not modify this line
Zprime_UFO
# End   MODEL  # This is TAG. Do not modify this line
#*********************************************************************
# Start multiparticle definitions                                    *
#*********************************************************************
# Begin MULTIPARTICLES # This is TAG. Do not modify this line

# End  MULTIPARTICLES # This is TAG. Do not modify this line
</MGProcCard>
<MGRunCard>
#*********************************************************************
#                       MadGraph5_aMC@NLO                            *
#                                                                    *
#                     run_card.dat MadEvent                          *
#                                                                    *
#  This file is used to set the parameters of the run.               *
#                                                                    *
#  Some notation/conventions:                                        *
#                                                                    *
#   Lines starting with a '# ' are info or comments                  *
#                                                                    *
#   mind the format:   value    = variable     ! comment             *
#*********************************************************************
#
#*******************                                                 
# Running parameters
#*******************                                                 
#                                                                    
#*********************************************************************
# Tag name for the run (one word)                                    *
#*********************************************************************
  tag_1     = run_tag ! name of the run 
#*********************************************************************
# Run to generate the grid pack                                      *
#*********************************************************************
  .false.     = gridpack  !True = setting up the grid pack
#*********************************************************************
# Number of events and rnd seed                                      *
# Warning: Do not generate more than 1M events in a single run       *
# If you want to run Pythia, avoid more than 50k events in a run.    *
#*********************************************************************
  2000 = nevents ! Number of unweighted events requested 
 2379 = iseed   ! rnd seed (0=assigned automatically=default))
#*********************************************************************
# Collider type and energy                                           *
# lpp: 0=No PDF, 1=proton, -1=antiproton, 2=photon from proton,      *
#                                         3=photon from electron     *
#*********************************************************************
        1     = lpp1    ! beam 1 type 
        1     = lpp2    ! beam 2 type
     4000     = ebeam1  ! beam 1 total energy in GeV
     4000     = ebeam2  ! beam 2 total energy in GeV
#*********************************************************************
# Beam polarization from -100 (left-handed) to 100 (right-handed)    *
#*********************************************************************
        0     = polbeam1 ! beam polarization for beam 1
        0     = polbeam2 ! beam polarization for beam 2
#*********************************************************************
# PDF CHOICE: this automatically fixes also alpha_s and its evol.    *
#*********************************************************************
 'nn23lo1'    = pdlabel     ! PDF set                                     
 230000    = lhaid     ! if pdlabel=lhapdf, this is the lhapdf number
#*********************************************************************
# Renormalization and factorization scales                           *
#*********************************************************************
 F        = fixed_ren_scale  ! if .true. use fixed ren scale
 F        = fixed_fac_scale  ! if .true. use fixed fac scale
 91.1880  = scale            ! fixed ren scale
 91.1880  = dsqrt_q2fact1    ! fixed fact scale for pdf1
 91.1880  = dsqrt_q2fact2    ! fixed fact scale for pdf2
 1        = scalefact        ! scale factor for event-by-event scales
#*********************************************************************
# Matching - Warning! ickkw > 1 is still beta
#*********************************************************************
 0        = ickkw            ! 0 no matching, 1 MLM, 2 CKKW matching
 1        = highestmult      ! for ickkw=2, highest mult group
 1        = ktscheme         ! for ickkw=1, 1 Durham kT, 2 Pythia pTE
 1        = alpsfact         ! scale factor for QCD emission vx
 F        = chcluster        ! cluster only according to channel diag
 T        = pdfwgt           ! for ickkw=1, perform pdf reweighting
 5        = asrwgtflavor     ! highest quark flavor for a_s reweight
 T        = clusinfo         ! include clustering tag in output
 3.0      = lhe_version       ! Change the way clustering information pass to shower.        
#*********************************************************************
#**********************************************************
#
#**********************************************************
# Automatic ptj and mjj cuts if xqcut > 0
# (turn off for VBF and single top processes)
#**********************************************************
   T  = auto_ptj_mjj  ! Automatic setting of ptj and mjj
#**********************************************************
#                                                                    
#**********************************
# BW cutoff (M+/-bwcutoff*Gamma)
#**********************************
  15  = bwcutoff      ! (M+/-bwcutoff*Gamma)
#**********************************************************
# Apply pt/E/eta/dr/mij cuts on decay products or not
# (note that etmiss/ptll/ptheavy/ht/sorted cuts always apply)
#**********************************************************
   T  = cut_decays    ! Cut decay products 
#*************************************************************
# Number of helicities to sum per event (0 = all helicities)
# 0 gives more stable result, but longer run time (needed for
# long decay chains e.g.).
# Use >=2 if most helicities contribute, e.g. pure QCD.
#*************************************************************
   0  = nhel          ! Number of helicities used per event
#*******************                                                 
# Standard Cuts
#*******************                                                 
#                                                                    
#*********************************************************************
# Minimum and maximum pt's (for max, -1 means no cut)                *
#*********************************************************************
 20  = ptj       ! minimum pt for the jets 
  0  = ptb       ! minimum pt for the b 
 10  = pta       ! minimum pt for the photons 
 10  = ptl       ! minimum pt for the charged leptons 
  0  = misset    ! minimum missing Et (sum of neutrino's momenta)
  0  = ptheavy   ! minimum pt for one heavy final state
 1.0 = ptonium   ! minimum pt for the quarkonium states
 -1  = ptjmax    ! maximum pt for the jets
 -1  = ptbmax    ! maximum pt for the b
 -1  = ptamax    ! maximum pt for the photons
 -1  = ptlmax    ! maximum pt for the charged leptons
 -1  = missetmax ! maximum missing Et (sum of neutrino's momenta)
#*********************************************************************
# Minimum and maximum E's (in the center of mass frame)              *
#*********************************************************************
  0  = ej     ! minimum E for the jets 
  0  = eb     ! minimum E for the b 
  0  = ea     ! minimum E for the photons 
  0  = el     ! minimum E for the charged leptons 
 -1   = ejmax ! maximum E for the jets
 -1   = ebmax ! maximum E for the b
 -1   = eamax ! maximum E for the photons
 -1   = elmax ! maximum E for the charged leptons
#*********************************************************************
# Maximum and minimum absolute rapidity (for max, -1 means no cut)   *
#*********************************************************************
   5  = etaj    ! max rap for the jets 
  -1  = etab    ! max rap for the b
 2.5  = etaa    ! max rap for the photons 
 2.5  = etal    ! max rap for the charged leptons 
 0.6  = etaonium ! max rap for the quarkonium states
   0  = etajmin ! min rap for the jets
   0  = etabmin ! min rap for the b
   0  = etaamin ! min rap for the photons
   0  = etalmin ! main rap for the charged leptons
#*********************************************************************
# Minimum and maximum DeltaR distance                                *
#*********************************************************************
 0.4 = drjj    ! min distance between jets 
 0   = drbb    ! min distance between b's 
 0.4 = drll    ! min distance between leptons 
 0.4 = draa    ! min distance between gammas 
 0   = drbj    ! min distance between b and jet 
 0.4 = draj    ! min distance between gamma and jet 
 0.4 = drjl    ! min distance between jet and lepton 
 0   = drab    ! min distance between gamma and b 
 0   = drbl    ! min distance between b and lepton 
 0.4 = dral    ! min distance between gamma and lepton 
 -1  = drjjmax ! max distance between jets
 -1  = drbbmax ! max distance between b's
 -1  = drllmax ! max distance between leptons
 -1  = draamax ! max distance between gammas
 -1  = drbjmax ! max distance between b and jet
 -1  = drajmax ! max distance between gamma and jet
 -1  = drjlmax ! max distance between jet and lepton
 -1  = drabmax ! max distance between gamma and b
 -1  = drblmax ! max distance between b and lepton
 -1  = dralmax ! maxdistance between gamma and lepton
#*********************************************************************
# Minimum and maximum invariant mass for pairs                       *
# WARNING: for four lepton final state mmll cut require to have      *
#          different lepton masses for each flavor!                  *           
#*********************************************************************
 0   = mmjj    ! min invariant mass of a jet pair 
 0   = mmbb    ! min invariant mass of a b pair 
 0   = mmaa    ! min invariant mass of gamma gamma pair
 0   = mmll    ! min invariant mass of l+l- (same flavour) lepton pair
 -1  = mmjjmax ! max invariant mass of a jet pair
 -1  = mmbbmax ! max invariant mass of a b pair
 -1  = mmaamax ! max invariant mass of gamma gamma pair
 -1  = mmllmax ! max invariant mass of l+l- (same flavour) lepton pair
#*********************************************************************
# Minimum and maximum invariant mass for all letpons                 *
#*********************************************************************
 0   = mmnl    ! min invariant mass for all letpons (l+- and vl) 
 -1  = mmnlmax ! max invariant mass for all letpons (l+- and vl) 
#*********************************************************************
# Minimum and maximum pt for 4-momenta sum of leptons                *
#*********************************************************************
 0   = ptllmin  ! Minimum pt for 4-momenta sum of leptons(l and vl)
 -1  = ptllmax  ! Maximum pt for 4-momenta sum of leptons(l and vl)
#*********************************************************************
# Inclusive cuts                                                     *
#*********************************************************************
 0  = xptj ! minimum pt for at least one jet  
 0  = xptb ! minimum pt for at least one b 
 0  = xpta ! minimum pt for at least one photon 
 0  = xptl ! minimum pt for at least one charged lepton 
#*********************************************************************
# Control the pt's of the jets sorted by pt                          *
#*********************************************************************
 0   = ptj1min ! minimum pt for the leading jet in pt
 0   = ptj2min ! minimum pt for the second jet in pt
 0   = ptj3min ! minimum pt for the third jet in pt
 0   = ptj4min ! minimum pt for the fourth jet in pt
 -1  = ptj1max ! maximum pt for the leading jet in pt 
 -1  = ptj2max ! maximum pt for the second jet in pt
 -1  = ptj3max ! maximum pt for the third jet in pt
 -1  = ptj4max ! maximum pt for the fourth jet in pt
 0   = cutuse  ! reject event if fails any (0) / all (1) jet pt cuts
#*********************************************************************
# Control the pt's of leptons sorted by pt                           *
#*********************************************************************
 0   = ptl1min ! minimum pt for the leading lepton in pt
 0   = ptl2min ! minimum pt for the second lepton in pt
 0   = ptl3min ! minimum pt for the third lepton in pt
 0   = ptl4min ! minimum pt for the fourth lepton in pt
 -1  = ptl1max ! maximum pt for the leading lepton in pt 
 -1  = ptl2max ! maximum pt for the second lepton in pt
 -1  = ptl3max ! maximum pt for the third lepton in pt
 -1  = ptl4max ! maximum pt for the fourth lepton in pt
#*********************************************************************
# Control the Ht(k)=Sum of k leading jets                            *
#*********************************************************************
 0   = htjmin ! minimum jet HT=Sum(jet pt)
 -1  = htjmax ! maximum jet HT=Sum(jet pt)
 0   = ihtmin  !inclusive Ht for all partons (including b)
 -1  = ihtmax  !inclusive Ht for all partons (including b)
 0   = ht2min ! minimum Ht for the two leading jets
 0   = ht3min ! minimum Ht for the three leading jets
 0   = ht4min ! minimum Ht for the four leading jets
 -1  = ht2max ! maximum Ht for the two leading jets
 -1  = ht3max ! maximum Ht for the three leading jets
 -1  = ht4max ! maximum Ht for the four leading jets
#***********************************************************************
# Photon-isolation cuts, according to hep-ph/9801442                   *
# When ptgmin=0, all the other parameters are ignored                  *
# When ptgmin>0, pta and draj are not going to be used                 *
#***********************************************************************
   0 = ptgmin ! Min photon transverse momentum
 0.4 = R0gamma ! Radius of isolation code
 1.0 = xn ! n parameter of eq.(3.4) in hep-ph/9801442
 1.0 = epsgamma ! epsilon_gamma parameter of eq.(3.4) in hep-ph/9801442
 .true. = isoEM ! isolate photons from EM energy (photons and leptons)
#*********************************************************************
# WBF cuts                                                           *
#*********************************************************************
 0   = xetamin ! minimum rapidity for two jets in the WBF case  
 0   = deltaeta ! minimum rapidity for two jets in the WBF case 
#*********************************************************************
# KT DURHAM CUT                                                      *
#*********************************************************************
 -1    =  ktdurham        
 0.4  =  dparameter 
#*********************************************************************
# maximal pdg code for quark to be considered as a light jet         *
# (otherwise b cuts are applied)                                     *
#*********************************************************************
 4 = maxjetflavor    ! Maximum jet pdg code
#*********************************************************************
# Jet measure cuts                                                   *
#*********************************************************************
 0   = xqcut   ! minimum kt jet measure between partons
#*********************************************************************
#
#*********************************************************************
# Store info for systematics studies                                 *
# WARNING: If use_syst is T, matched Pythia output is                *
#          meaningful ONLY if plotted taking matchscale              *
#          reweighting into account!                                 *
#*********************************************************************
   F  = use_syst      ! Enable systematics studies
#
#**************************************
# Parameter of the systematics study
#  will be used by SysCalc (if installed)
#**************************************                                  
#
0.5 1 2 = sys_scalefact  # factorization/renormalization scale factor
0.5 1 2 = sys_alpsfact  # \alpha_s emission scale factors
30 50 = sys_matchscale # variation of merging scale
# PDF sets and number of members (0 or none for all members).
CT10nlo.LHgrid = sys_pdf # matching scales
# MSTW2008nlo68cl.LHgrid 1  = sys_pdf
</MGRunCard>
<slha>
######################################################################
## PARAM_CARD AUTOMATICALY GENERATED BY MG5 FOLLOWING UFO MODEL   ####
######################################################################
##                                                                  ##
##  Width set on Auto will be computed following the information    ##
##        present in the decay.py files of the model.               ##
##        See  arXiv:1402.1178 for more details.                    ##
##                                                                  ##
######################################################################

###################################
## INFORMATION FOR CKMBLOCK
###################################
Block ckmblock 
    1 2.277360e-01 # cabi 

###################################
## INFORMATION FOR FRBLOCK
###################################
Block frblock 
    1 1.200000e+00 # gz 

###################################
## INFORMATION FOR MASS
###################################
Block mass 
    1 5.040000e-03 # MD 
    2 2.550000e-03 # MU 
    3 1.010000e-01 # MS 
    4 1.270000e+00 # MC 
    5 4.700000e+00 # MB 
    6 1.720000e+02 # MT 
   11 5.110000e-04 # Me 
   13 1.056600e-01 # MM 
   15 1.777000e+00 # MTA 
   23 9.118760e+01 # MZ 
   25 1.200000e+02 # MH 
  10030 3.400000e+03 # MZph 
  10031 3.000000e+02 # MZpl 
## Dependent parameters, given by model restrictions.
## Those values should be edited following the 
## analytical expression. MG5 ignores those values 
## but they are important for interfacing the output of MG5
## to external program such as Pythia.
  12 0.000000 # ve : 0.0 
  14 0.000000 # vm : 0.0 
  16 0.000000 # vt : 0.0 
  21 0.000000 # g : 0.0 
  22 0.000000 # a : 0.0 
  24 79.824360 # w+ : cmath.sqrt(MZ__exp__2/2. + cmath.sqrt(MZ__exp__4/4. - (aEW*cmath.pi*MZ__exp__2)/(Gf*sqrt__2))) 

###################################
## INFORMATION FOR SMINPUTS
###################################
Block sminputs 
    1 1.279000e+02 # aEWM1 
    2 1.166370e-05 # Gf 
    3 1.184000e-01 # aS 

###################################
## INFORMATION FOR YUKAWA
###################################
Block yukawa 
    1 5.040000e-03 # ymdo 
    2 2.550000e-03 # ymup 
    3 1.010000e-01 # yms 
    4 1.270000e+00 # ymc 
    5 4.700000e+00 # ymb 
    6 1.720000e+02 # ymt 
   11 5.110000e-04 # yme 
   13 1.056600e-01 # ymm 
   15 1.777000e+00 # ymtau 

###################################
## INFORMATION FOR DECAY
###################################
DECAY   6 1.508336e+00 # WT 
DECAY  23 2.495200e+00 # WZ 
DECAY  24 2.085000e+00 # WW 
DECAY  25 5.753088e-03 # WH 
## Dependent parameters, given by model restrictions.
## Those values should be edited following the 
## analytical expression. MG5 ignores those values 
## but they are important for interfacing the output of MG5
## to external program such as Pythia.
DECAY  1 0.000000 # d : 0.0 
DECAY  2 0.000000 # u : 0.0 
DECAY  3 0.000000 # s : 0.0 
DECAY  4 0.000000 # c : 0.0 
DECAY  5 0.000000 # b : 0.0 
DECAY  11 0.000000 # e- : 0.0 
DECAY  12 0.000000 # ve : 0.0 
DECAY  13 0.000000 # mu- : 0.0 
DECAY  14 0.000000 # vm : 0.0 
DECAY  15 0.000000 # ta- : 0.0 
DECAY  16 0.000000 # vt : 0.0 
DECAY  21 0.000000 # g : 0.0 
DECAY  22 0.000000 # a : 0.0 
DECAY  10030 0.308725 # zph : (gz__exp__2*MZph*(5 + cmath.sqrt(1 - (4*MT__exp__2)/MZph__exp__2)))/(144.*cmath.pi) 
DECAY  10031 0.132629 # zpl : (5*gz__exp__2*MZpl)/(144.*cmath.pi) 
#===========================================================
# QUANTUM NUMBERS OF NEW STATE(S) (NON SM PDG CODE)
#===========================================================

Block QNUMBERS 10030  # zph 
        1 0  # 3 times electric charge
        2 3  # number of spin states (2S+1)
        3 1  # colour rep (1: singlet, 3: triplet, 8: octet)
        4 0  # Particle/Antiparticle distinction (0=own anti)
Block QNUMBERS 10031  # zpl 
        1 0  # 3 times electric charge
        2 3  # number of spin states (2S+1)
        3 1  # colour rep (1: singlet, 3: triplet, 8: octet)
        4 0  # Particle/Antiparticle distinction (0=own anti)
</slha>
## END BANNER##
<MGGenerationInfo>
#  Number of Events        :         4153
#  Integrated weight (pb)  :  0.49077E-03
#  Max wgt                 :  0.19485E-06
#  Average wgt             :  0.11817E-06
</MGGenerationInfo>
</header>
<init>
     2212     2212  0.40000000000E+04  0.40000000000E+04 0 0  247000  247000 2   1
  0.49073458608E-03  0.11341181562E-05  0.19485070000E-06   0
</init>
<event>
 5   0  0.1948507E-06  0.3398821E+04  0.7818609E-02  0.8138196E-01
       -2   -1    0    0    0  501  0.00000000000E+00  0.00000000000E+00  0.31135007918E+04  0.31135007918E+04  0.25500000920E-02 0.  1.
        2   -1    0    0  501    0  0.00000000000E+00  0.00000000000E+00 -0.92757169432E+03  0.92757169432E+03  0.25500000920E-02 0. -1.
    10030    2    1    2    0    0  0.00000000000E+00  0.00000000000E+00  0.21859290975E+04  0.40410724862E+04  0.33988205041E+04 0.  0.
        1    1    3    3  502    0 -0.78877798996E+03  0.12546614312E+04  0.20817711210E+04  0.25554093654E+04  0.50400001928E-02 0. -1.
       -1    1    3    3    0  502  0.78877798996E+03 -0.12546614312E+04  0.10415797652E+03  0.14856631208E+04  0.50400001928E-02 0.  1.
</event>
<event>
 5   0  0.6134625E-07  0.3021594E+04  0.7818609E-02  0.8237591E-01
        1   -1    0    0  501    0  0.00000000000E+00  0.00000000000E+00  0.17506773927E+04  0.17506773927E+04  0.50400001928E-02 0. -1.
       -1   -1    0    0    0  501  0.00000000000E+00  0.00000000000E+00 -0.13037851890E+04  0.13037851890E+04  0.50400001928E-02 0.  1.
    10030    2    1    2    0    0  0.00000000000E+00  0.00000000000E+00  0.44689220366E+03  0.30544625817E+04  0.30215937882E+04 0.  0.
        5    1    3    3  502    0  0.54295349137E+01  0.82629664292E+03 -0.10551005616E+04  0.13401697307E+04  0.46999998093E+01 0.  1.
       -5    1    3    3    0  502 -0.54295349137E+01 -0.82629664292E+03  0.15019927653E+04  0.17142928510E+04  0.46999998093E+01 0. -1.
</event>
<event>
 5   0  0.1948507E-06  0.4063396E+04  0.7818609E-02  0.7991878E-01
        2   -1    0    0  501    0  0.00000000000E+00  0.00000000000E+00  0.25919536809E+04  0.25919536809E+04  0.25500000920E-02 0. -1.
       -2   -1    0    0    0  501  0.00000000000E+00  0.00000000000E+00 -0.15925429580E+04  0.15925429580E+04  0.25500000920E-02 0.  1.
    10030    2    1    2    0    0  0.00000000000E+00  0.00000000000E+00  0.99941072281E+03  0.41844966389E+04  0.40633964030E+04 0.  0.
        1    1    3    3  502    0  0.31023139725E+03  0.40830333219E+03 -0.15248046508E+04  0.16087213413E+04  0.50400001928E-02 0.  1.
       -1    1    3    3    0  502 -0.31023139725E+03 -0.40830333219E+03  0.25242153736E+04  0.25757752975E+04  0.50400001928E-02 0. -1.
</event>
<event>
 5   0  0.1339844E-06  0.3346396E+04  0.7818609E-02  0.8151189E-01
       -2   -1    0    0    0  501  0.00000000000E+00  0.00000000000E+00  0.16613927540E+04  0.16613927540E+04  0.25500000920E-02 0.  1.
        2   -1    0    0  501    0  0.00000000000E+00  0.00000000000E+00 -0.16850875674E+04  0.16850875674E+04  0.25500000920E-02 0. -1.
    10030    2    1    2    0    0  0.00000000000E+00  0.00000000000E+00 -0.23694813342E+02  0.33464803214E+04  0.33463964346E+04 0.  0.
        3    1    3    3  502    0 -0.21040046042E+03  0.38311626661E+03 -0.16269872209E+04  0.16846761868E+04  0.10100000352E+00 0. -1.
       -3    1    3    3    0  502  0.21040046042E+03 -0.38311626661E+03  0.16032924075E+04  0.16618041346E+04  0.10100000352E+00 0.  1.
</event>
<event>
 5   0  0.1948507E-06  0.3408471E+04  0.7818609E-02  0.8135830E-01
       -2   -1    0    0    0  501  0.00000000000E+00  0.00000000000E+00  0.15922104575E+04  0.15922104575E+04  0.25500000920E-02 0.  1.
        2   -1    0    0  501    0  0.00000000000E+00  0.00000000000E+00 -0.18241425594E+04  0.18241425594E+04  0.25500000920E-02 0. -1.
    10030    2    1    2    0    0  0.00000000000E+00  0.00000000000E+00 -0.23193210192E+03  0.34163530169E+04  0.34084711288E+04 0.  0.
        1    1    3    3  502    0  0.15164640376E+03  0.40792286580E+03  0.15355763593E+04  0.15960552784E+04  0.50400001928E-02 0.  1.
       -1    1    3    3    0  502 -0.15164640376E+03 -0.40792286580E+03 -0.17675084613E+04  0.18202977385E+04  0.50400001928E-02 0. -1.
</event>
<event>
 5   0  0.1339844E-06  0.3415105E+04  0.7818609E-02  0.8134209E-01
       -2   -1    0    0    0  501  0.00000000000E+00  0.00000000000E+00  0.11499263545E+04  0.11499263545E+04  0.25500000920E-02 0.  1.
        2   -1    0    0  501    0  0.00000000000E+00  0.00000000000E+00 -0.25355843319E+04  0.25355843319E+04  0.25500000920E-02 0. -1.
    10030    2    1    2    0    0  0.00000000000E+00  0.00000000000E+00 -0.13856579774E+04  0.36855106864E+04  0.34151048284E+04 0.  0.
        3    1    3    3  502    0 -0.54720921466E+03  0.34668464233E+02 -0.24379976473E+04  0.24988942285E+04  0.10100000352E+00 0. -1.
       -3    1    3    3    0  502  0.54720921466E+03 -0.34668464233E+02  0.10523396699E+04  0.11866164579E+04  0.10100000352E+00 0.  1.
</event>
<event>
 5   0  0.6134625E-07  0.3405875E+04  0.7818609E-02  0.8136466E-01
        1   -1    0    0  501    0  0.00000000000E+00  0.00000000000E+00  0.25745113536E+04  0.25745113536E+04  0.50400001928E-02 0. -1.
       -1   -1    0    0    0  501  0.00000000000E+00  0.00000000000E+00 -0.11264259429E+04  0.11264259429E+04  0.50400001928E-02 0.  1.
    10030    2    1    2    0    0  0.00000000000E+00  0.00000000000E+00  0.14480854107E+04  0.37009372965E+04  0.34058751469E+04 0.  0.
        1    1    3    3  502    0  0.15375622069E+04  0.68988042089E+03  0.99013220420E+03  0.19545829010E+04  0.50400001928E-02 0. -1.
       -1    1    3    3    0  502 -0.15375622069E+04 -0.68988042089E+03  0.45795320654E+03  0.17463543955E+04  0.50400001928E-02 0.  1.
</event>
<event>
 5   0  0.6134625E-07  0.3423635E+04  0.7818609E-02  0.8132130E-01
        1   -1    0    0  501    0  0.00000000000E+00  0.00000000000E+00  0.29491569350E+04  0.29491569350E+04  0.50400001928E-02 0. -1.
       -1   -1    0    0    0  501  0.00000000000E+00  0.00000000000E+00 -0.99361250038E+03  0.99361250039E+03  0.50400001928E-02 0.  1.
    10030    2    1    2    0    0  0.00000000000E+00  0.00000000000E+00  0.19555444346E+04  0.39427694354E+04  0.34236350251E+04 0.  0.
        1    1    3    3  502    0  0.15251214373E+04  0.38290297373E+03  0.19864442044E+03  0.15849510061E+04  0.50400001928E-02 0. -1.
       -1    1    3    3    0  502 -0.15251214373E+04 -0.38290297373E+03  0.17569000142E+04  0.23578184293E+04  0.50400001928E-02 0.  1.
</event>
<event>
 5   0  0.1948507E-06  0.3397325E+04  0.7818609E-02  0.8138563E-01
       -2   -1    0    0    0  501  0.00000000000E+00  0.00000000000E+00  0.22940908944E+04  0.22940908944E+04  0.25500000920E-02 0.  1.
        2   -1    0    0  501    0  0.00000000000E+00  0.00000000000E+00 -0.12577771512E+04  0.12577771512E+04  0.25500000920E-02 0. -1.
    10030    2    1    2    0    0  0.00000000000E+00  0.00000000000E+00  0.10363137432E+04  0.35518680457E+04  0.33973254833E+04 0.  0.
        1    1    3    3  502    0 -0.15675469536E+04 -0.15976868505E+03 -0.14531772426E+03  0.15823548039E+04  0.50400001928E-02 0. -1.
       -1    1    3    3    0  502  0.15675469536E+04  0.15976868505E+03  0.11816314675E+04  0.19695132418E+04  0.50400001928E-02 0.  1.
</event>
<event>
 5   0  0.1911477E-06  0.2901159E+04  0.7818609E-02  0.8272533E-01
       -2   -1    0    0    0  501  0.00000000000E+00  0.00000000000E+00  0.14780565806E+04  0.14780565806E+04  0.25500000920E-02 0. -1.
        2   -1    0    0  501    0  0.00000000000E+00  0.00000000000E+00 -0.14236133558E+04  0.14236133558E+04  0.25500000920E-02 0.  1.
    10030    2    1    2    0    0  0.00000000000E+00  0.00000000000E+00  0.54443224766E+02  0.29016699363E+04  0.29011591399E+04 0.  0.
        5    1    3    3  502    0  0.61109463694E+02 -0.68008139409E+03 -0.12528138338E+04  0.14268180196E+04  0.46999998093E+01 0.  1.
       -5    1    3    3    0  502 -0.61109463694E+02  0.68008139409E+03  0.13072570585E+04  0.14748519167E+04  0.46999998093E+01 0. -1.
</event>
<event>
 5   0  0.1948507E-06  0.3377337E+04  0.7818609E-02  0.8143491E-01
        2   -1    0    0  501    0  0.00000000000E+00  0.00000000000E+00  0.18186394081E+04  0.18186394081E+04  0.25500000920E-02 0. -1.
       -2   -1    0    0    0  501  0.00000000000E+00  0.00000000000E+00 -0.15679858990E+04  0.15679858990E+04  0.25500000920E-02 0.  1.
    10030    2    1    2    0    0  0.00000000000E+00  0.00000000000E+00  0.25065350905E+03  0.33866253071E+04  0.33773367894E+04 0.  0.
        1    1    3    3  502    0 -0.14337018126E+04  0.38516384342E+03 -0.68171519903E+03  0.16335812457E+04  0.50400001928E-02 0.  1.
       -1    1    3    3    0  502  0.14337018126E+04 -0.38516384342E+03  0.93236870807E+03  0.17530440615E+04  0.50400001928E-02 0. -1.
</event>
<event>
 5   0  0.1911477E-06  0.3286938E+04  0.7818609E-02  0.8166227E-01
        2   -1    0    0  501    0  0.00000000000E+00  0.00000000000E+00  0.92806818170E+03  0.92806818171E+03  0.25500000920E-02 0.  1.
       -2   -1    0    0    0  501  0.00000000000E+00  0.00000000000E+00 -0.29103369397E+04  0.29103369397E+04  0.25500000920E-02 0. -1.
    10030    2    1    2    0    0  0.00000000000E+00  0.00000000000E+00 -0.19822687580E+04  0.38384051214E+04  0.32869384611E+04 0.  0.
        5    1    3    3  502    0 -0.99224275658E+03  0.11062408707E+04 -0.17148059036E+03  0.14959084981E+04  0.46999998093E+01 0.  1.
       -5    1    3    3    0  502  0.99224275658E+03 -0.11062408707E+04 -0.18107881676E+04  0.23424966233E+04  0.46999998093E+01 0. -1.
</event>
<event>
 5   0  0.1911477E-06  0.2933022E+04  0.7818609E-02  0.8263120E-01
       -2   -1    0    0    0  501  0.00000000000E+00  0.00000000000E+00  0.18260345455E+04  0.18260345455E+04  0.25500000920E-02 0.  1.
        2   -1    0    0  501    0  0.00000000000E+00  0.00000000000E+00 -0.11777730891E+04  0.11777730891E+04  0.25500000920E-02 0. -1.
    10030    2    1    2    0    0  0.00000000000E+00  0.00000000000E+00  0.64826145648E+03  0.30038076346E+04  0.29330218870E+04 0.  0.
        5    1    3    3  502    0 -0.13616940517E+04 -0.23101106093E+03  0.82903552979E+03  0.16108689582E+04  0.46999998093E+01 0.  1.
       -5    1    3    3    0  502  0.13616940517E+04  0.23101106093E+03 -0.18077407331E+03  0.13929386764E+04  0.46999998093E+01 0. -1.
</event>
<event>
 5   0  0.6134625E-07  0.3385026E+04  0.7818609E-02  0.8141591E-01
        1   -1    0    0  501    0  0.00000000000E+00  0.00000000000E+00  0.19605015980E+04  0.19605015980E+04  0.50400001928E-02 0. -1.
       -1   -1    0    0    0  501  0.00000000000E+00  0.00000000000E+00 -0.14611565454E+04  0.14611565454E+04  0.50400001928E-02 0.  1.
    10030    2    1    2    0    0  0.00000000000E+00  0.00000000000E+00  0.49934505260E+03  0.34216581434E+04  0.33850256969E+04 0.  0.
        3    1    3    3  502    0  0.45753760008E+03  0.13464548838E+04 -0.67803861256E+03  0.15754420903E+04  0.10100000352E+00 0.  1.
       -3    1    3    3    0  502 -0.45753760008E+03 -0.13464548838E+04  0.11773836652E+04  0.18462160531E+04  0.10100000352E+00 0. -1.
</event>
<event>
 5   0  0.6134625E-07  0.3418949E+04  0.7818609E-02  0.8133271E-01
       -1   -1    0    0    0  501  0.00000000000E+00  0.00000000000E+00  0.12960310753E+04  0.12960310753E+04  0.50400001928E-02 0.  1.
        1   -1    0    0  501    0  0.00000000000E+00  0.00000000000E+00 -0.22548095321E+04  0.22548095321E+04  0.50400001928E-02 0. -1.
    10030    2    1    2    0    0  0.00000000000E+00  0.00000000000E+00 -0.95877845678E+03  0.35508406074E+04  0.34189490915E+04 0.  0.
        5    1    3    3  502    0 -0.61716116284E+02 -0.83638676257E+03  0.10676819291E+04  0.13576886562E+04  0.46999998093E+01 0.  1.
       -5    1    3    3    0  502  0.61716116284E+02  0.83638676257E+03 -0.20264603858E+04  0.21931519512E+04  0.46999998093E+01 0. -1.
</event>
<event>
 5   0  0.6134625E-07  0.3577249E+04  0.7818609E-02  0.8095723E-01
       -3   -1    0    0    0  501  0.00000000000E+00  0.00000000000E+00  0.12622861460E+04  0.12622861501E+04  0.10100000352E+00 0.  1.
        3   -1    0    0  501    0  0.00000000000E+00  0.00000000000E+00 -0.25344314927E+04  0.25344314947E+04  0.10100000352E+00 0. -1.
    10030    2    1    2    0    0  0.00000000000E+00  0.00000000000E+00 -0.12721453467E+04  0.37967176448E+04  0.35772490955E+04 0.  0.
        5    1    3    3  502    0 -0.62399499932E+03  0.87030736147E+02  0.11406088233E+04  0.13030559029E+04  0.46999998093E+01 0.  1.
       -5    1    3    3    0  502  0.62399499932E+03 -0.87030736147E+02 -0.24127541700E+04  0.24936617419E+04  0.46999998093E+01 0. -1.
</event>
<event>
 5   0  0.6134625E-07  0.3405611E+04  0.7818609E-02  0.8136530E-01
       -1   -1    0    0    0  501  0.00000000000E+00  0.00000000000E+00  0.16131638348E+04  0.16131638348E+04  0.50400001928E-02 0.  1.
        1   -1    0    0  501    0  0.00000000000E+00  0.00000000000E+00 -0.17974288165E+04  0.17974288165E+04  0.50400001928E-02 0. -1.
    10030    2    1    2    0    0  0.00000000000E+00  0.00000000000E+00 -0.18426498167E+03  0.34105926513E+04  0.34056113474E+04 0.  0.
        1    1    3    3  502    0 -0.80397057961E+03  0.51963094182E+03  0.13181752208E+04  0.16291012619E+04  0.50400001928E-02 0.  1.
       -1    1    3    3    0  502  0.80397057961E+03 -0.51963094182E+03 -0.15024402025E+04  0.17814913894E+04  0.50400001928E-02 0. -1.
</event>
<event>
 5   0  0.6134625E-07  0.3376251E+04  0.7818609E-02  0.8143760E-01
        1   -1    0    0  501    0  0.00000000000E+00  0.00000000000E+00  0.15653303654E+04  0.15653303654E+04  0.50400001928E-02 0. -1.
       -1   -1    0    0    0  501  0.00000000000E+00  0.00000000000E+00 -0.18205535466E+04  0.18205535466E+04  0.50400001928E-02 0.  1.
    10030    2    1    2    0    0  0.00000000000E+00  0.00000000000E+00 -0.25522318121E+03  0.33858839121E+04  0.33762510265E+04 0.  0.
        1    1    3    3  502    0  0.15131815417E+04  0.44014896146E+03  0.47935756160E+03  0.16471894725E+04  0.50400001928E-02 0. -1.
       -1    1    3    3    0  502 -0.15131815417E+04 -0.44014896146E+03 -0.73458074281E+03  0.17386944396E+04  0.50400001928E-02 0.  1.
</event>
<event>
 5   0  0.6134625E-07  0.3410239E+04  0.7818609E-02  0.8135398E-01
        1   -1    0    0  501    0  0.00000000000E+00  0.00000000000E+00  0.19542572587E+04  0.19542572588E+04  0.50400001928E-02 0.  1.
       -1   -1    0    0    0  501  0.00000000000E+00  0.00000000000E+00 -0.14877429633E+04  0.14877429633E+04  0.50400001928E-02 0. -1.
    10030    2    1    2    0    0  0.00000000000E+00  0.00000000000E+00  0.46651429548E+03  0.34420002220E+04  0.34102389858E+04 0.  0.
        3    1    3    3  502    0 -0.78290307632E+02  0.70919473722E+03  0.17963399727E+04  0.19328538111E+04  0.10100000352E+00 0.  1.
       -3    1    3    3    0  502  0.78290307632E+02 -0.70919473722E+03 -0.13298256772E+04  0.15091464109E+04  0.10100000352E+00 0. -1.
</event>
<event>
 5   0  0.1948507E-06  0.3394035E+04  0.7818609E-02  0.8139372E-01
       -2   -1    0    0    0  501  0.00000000000E+00  0.00000000000E+00  0.17209663973E+04  0.17209663973E+04  0.25500000920E-02 0. -1.
        2   -1    0    0  501    0  0.00000000000E+00  0.00000000000E+00 -0.16734015372E+04  0.16734015372E+04  0.25500000920E-02 0.  1.
    10030    2    1    2    0    0  0.00000000000E+00  0.00000000000E+00  0.47564860102E+02  0.33943679345E+04  0.33940346579E+04 0.  0.
        1    1    3    3  502    0  0.87595747153E+02 -0.12493508607E+04  0.11690224785E+04  0.17132320751E+04  0.50400001928E-02 0. -1.
       -1    1    3    3    0  502 -0.87595747153E+02  0.12493508607E+04 -0.11214576184E+04  0.16811358594E+04  0.50400001928E-02 0.  1.
</event>
<event>
 5   0  0.6146388E-07  0.2702301E+04  0.7818609E-02  0.8334259E-01
       -1   -1    0    0    0  501  0.00000000000E+00  0.00000000000E+00  0.86759731101E+03  0.86759731103E+03  0.50400001928E-02 0.  1.
        1   -1    0    0  501    0  0.00000000000E+00  0.00000000000E+00 -0.21042111732E+04  0.21042111732E+04  0.50400001928E-02 0. -1.
    10030    2    1    2    0    0  0.00000000000E+00  0.00000000000E+00 -0.12366138621E+04  0.29718084842E+04  0.27023012087E+04 0.  0.
        4    1    3    3  502    0  0.57797667556E+03  0.64012363985E+03 -0.17621297358E+04  0.19618659818E+04  0.12699999809E+01 0. -1.
       -4    1    3    3    0  502 -0.57797667556E+03 -0.64012363985E+03  0.52551587366E+03  0.10099425024E+04  0.12699999809E+01 0.  1.
</event>
<event>
 5   0  0.6134625E-07  0.3393903E+04  0.7818609E-02  0.8139404E-01
       -1   -1    0    0    0  501  0.00000000000E+00  0.00000000000E+00  0.16071735961E+04  0.16071735961E+04  0.50400001928E-02 0.  1.
        1   -1    0    0  501    0  0.00000000000E+00  0.00000000000E+00 -0.17917445241E+04  0.17917445241E+04  0.50400001928E-02 0. -1.
    10030    2    1    2    0    0  0.00000000000E+00  0.00000000000E+00 -0.18457092805E+03  0.33989181202E+04  0.33939030570E+04 0.  0.
        1    1    3    3  502    0  0.13219354360E+04 -0.10331912925E+04 -0.34691880994E+03  0.17132863755E+04  0.50400001928E-02 0. -1.
       -1    1    3    3    0  502 -0.13219354360E+04  0.10331912925E+04  0.16234788188E+03  0.16856317447E+04  0.50400001928E-02 0.  1.
</event>
<event>
 5   0  0.1797075E-06  0.3401287E+04  0.7818609E-02  0.8137590E-01
       -2   -1    0    0    0  501  0.00000000000E+00  0.00000000000E+00  0.12672407962E+04  0.12672407962E+04  0.25500000920E-02 0.  1.
        2   -1    0    0  501    0  0.00000000000E+00  0.00000000000E+00 -0.22822722720E+04  0.22822722720E+04  0.25500000920E-02 0. -1.
    10030    2    1    2    0    0  0.00000000000E+00  0.00000000000E+00 -0.10150314758E+04  0.35495130682E+04  0.34012871276E+04 0.  0.
        2    1    3    3  502    0  0.48700752337E+03 -0.40606664889E+02  0.11923860987E+04  0.12886465138E+04  0.25500000920E-02 0.  1.
       -2    1    3    3    0  502 -0.48700752337E+03  0.40606664889E+02 -0.22074175745E+04  0.22608665545E+04  0.25500000920E-02 0. -1.
</event>
<event>
 5   0  0.6134625E-07  0.3435759E+04  0.7818609E-02  0.8129185E-01
        1   -1    0    0  501    0  0.00000000000E+00  0.00000000000E+00  0.19656062117E+04  0.19656062117E+04  0.50400001928E-02 0. -1.
       -1   -1    0    0    0  501  0.00000000000E+00  0.00000000000E+00 -0.15013743501E+04  0.15013743501E+04  0.50400001928E-02 0.  1.
    10030    2    1    2    0    0  0.00000000000E+00  0.00000000000E+00  0.46423186165E+03  0.34669805618E+04  0.34357594495E+04 0.  0.
        3    1    3    3  502    0 -0.41765087275E+03  0.38770939242E+01  0.19135904067E+04  0.19586412480E+04  0.10100000352E+00 0. -1.
       -3    1    3    3    0  502  0.41765087275E+03 -0.38770939242E+01 -0.14493585451E+04  0.15083393139E+04  0.10100000352E+00 0.  1.
</event>
<event>
 5   0  0.6134625E-07  0.3386215E+04  0.7818609E-02  0.8141298E-01
        1   -1    0    0  501    0  0.00000000000E+00  0.00000000000E+00  0.14641872266E+04  0.14641872266E+04  0.50400001928E-02 0. -1.
       -1   -1    0    0    0  501  0.00000000000E+00  0.00000000000E+00 -0.19578186751E+04  0.19578186751E+04  0.50400001928E-02 0.  1.
    10030    2    1    2    0    0  0.00000000000E+00  0.00000000000E+00 -0.49363144855E+03  0.34220059017E+04  0.33862150529E+04 0.  0.
        5    1    3    3  502    0 -0.12703118997E+04  0.58599528988E+03 -0.12105771252E+04  0.18500275318E+04  0.46999998093E+01 0.  1.
       -5    1    3    3    0  502  0.12703118997E+04 -0.58599528988E+03  0.71694567669E+03  0.15719783699E+04  0.46999998093E+01 0. -1.
</event>
<event>
 5   0  0.1339844E-06  0.3254973E+04  0.7818609E-02  0.8174448E-01
        2   -1    0    0  501    0  0.00000000000E+00  0.00000000000E+00  0.23661429544E+04  0.23661429544E+04  0.25500000920E-02 0. -1.
       -2   -1    0    0    0  501  0.00000000000E+00  0.00000000000E+00 -0.11194216649E+04  0.11194216649E+04  0.25500000920E-02 0.  1.
    10030    2    1    2    0    0  0.00000000000E+00  0.00000000000E+00  0.12467212894E+04  0.34855646193E+04  0.32549726177E+04 0.  0.
        3    1    3    3  502    0  0.25781228637E+03  0.13795378460E+04  0.15058287253E+04  0.20584246413E+04  0.10100000352E+00 0. -1.
       -3    1    3    3    0  502 -0.25781228637E+03 -0.13795378460E+04 -0.25910743590E+03  0.14271399781E+04  0.10100000352E+00 0.  1.
</event>
<event>
 5   0  0.6146388E-07  0.2852325E+04  0.7818609E-02  0.8287205E-01
        1   -1    0    0  501    0  0.00000000000E+00  0.00000000000E+00  0.18085741943E+04  0.18085741943E+04  0.50400001928E-02 0. -1.
       -1   -1    0    0    0  501  0.00000000000E+00  0.00000000000E+00 -0.11246092349E+04  0.11246092349E+04  0.50400001928E-02 0.  1.
    10030    2    1    2    0    0  0.00000000000E+00  0.00000000000E+00  0.68396495941E+03  0.29331834292E+04  0.28523248349E+04 0.  0.
        4    1    3    3  502    0 -0.14140339893E+04 -0.15108291388E+03  0.23113312197E+03  0.14407436631E+04  0.12699999809E+01 0.  1.
       -4    1    3    3    0  502  0.14140339893E+04  0.15108291388E+03  0.45283183744E+03  0.14924397662E+04  0.12699999809E+01 0. -1.
</event>
<event>
 5   0  0.1797075E-06  0.3530372E+04  0.7818609E-02  0.8106630E-01
        2   -1    0    0  501    0  0.00000000000E+00  0.00000000000E+00  0.31689949217E+04  0.31689949217E+04  0.25500000920E-02 0.  1.
       -2   -1    0    0    0  501  0.00000000000E+00  0.00000000000E+00 -0.98323965285E+03  0.98323965285E+03  0.25500000920E-02 0. -1.
    10030    2    1    2    0    0  0.00000000000E+00  0.00000000000E+00  0.21857552688E+04  0.41522345745E+04  0.35303719162E+04 0.  0.
        2    1    3    3  502    0  0.16837108544E+04 -0.86252999910E+01  0.17162628293E+04  0.24042701047E+04  0.25500000920E-02 0.  1.
       -2    1    3    3    0  502 -0.16837108544E+04  0.86252999910E+01  0.46949243949E+03  0.17479644698E+04  0.25500000920E-02 0. -1.
</event>
<event>
 5   0  0.6218695E-07  0.3220093E+04  0.7818609E-02  0.8183531E-01
        1   -1    0    0  501    0  0.00000000000E+00  0.00000000000E+00  0.92142762704E+03  0.92142762706E+03  0.50400001928E-02 0.  1.
       -1   -1    0    0    0  501  0.00000000000E+00  0.00000000000E+00 -0.28132977541E+04  0.28132977541E+04  0.50400001928E-02 0. -1.
    10030    2    1    2    0    0  0.00000000000E+00  0.00000000000E+00 -0.18918701271E+04  0.37347253812E+04  0.32200933364E+04 0.  0.
        2    1    3    3  502    0 -0.66359770499E+03 -0.14657502713E+04 -0.87766809611E+03  0.18327812360E+04  0.25500000920E-02 0.  1.
       -2    1    3    3    0  502  0.66359770499E+03  0.14657502713E+04 -0.10142020310E+04  0.19019441452E+04  0.25500000920E-02 0. -1.
</event>
<event>
 5   0  0.1339844E-06  0.3180319E+04  0.7818609E-02  0.8194034E-01
       -2   -1    0    0    0  501  0.00000000000E+00  0.00000000000E+00  0.20386833313E+04  0.20386833313E+04  0.25500000920E-02 0.  1.
        2   -1    0    0  501    0  0.00000000000E+00  0.00000000000E+00 -0.12403141114E+04  0.12403141114E+04  0.25500000920E-02 0. -1.
    10030    2    1    2    0    0  0.00000000000E+00  0.00000000000E+00  0.79836921992E+03  0.32789974427E+04  0.31803192950E+04 0.  0.
        3    1    3    3  502    0 -0.50931526756E+03  0.38472218727E+03 -0.11024373095E+04  0.12738843098E+04  0.10100000352E+00 0. -1.
       -3    1    3    3    0  502  0.50931526756E+03 -0.38472218727E+03  0.19008065294E+04  0.20051131329E+04  0.10100000352E+00 0.  1.
</event>
<event>
 5   0  0.1339844E-06  0.2766876E+04  0.7818609E-02  0.8313626E-01
       -2   -1    0    0    0  501  0.00000000000E+00  0.00000000000E+00  0.11081148580E+04  0.11081148580E+04  0.25500000920E-02 0. -1.
        2   -1    0    0  501    0  0.00000000000E+00  0.00000000000E+00 -0.17271682545E+04  0.17271682545E+04  0.25500000920E-02 0.  1.
    10030    2    1    2    0    0  0.00000000000E+00  0.00000000000E+00 -0.61905339648E+03  0.28352831124E+04  0.27668760760E+04 0.  0.
        3    1    3    3  502    0  0.94744145101E+02  0.13718871997E+04 -0.46442563245E+03  0.14514620629E+04  0.10100000352E+00 0. -1.
       -3    1    3    3    0  502 -0.94744145101E+02 -0.13718871997E+04 -0.15462776403E+03  0.13838210496E+04  0.10100000352E+00 0.  1.
</event>
<event>
 5   0  0.6218695E-07  0.3454355E+04  0.7818609E-02  0.8124693E-01
       -1   -1    0    0    0  501  0.00000000000E+00  0.00000000000E+00  0.13716281481E+04  0.13716281481E+04  0.50400001928E-02 0. -1.
        1   -1    0    0  501    0  0.00000000000E+00  0.00000000000E+00 -0.21748907252E+04  0.21748907252E+04  0.50400001928E-02 0.  1.
    10030    2    1    2    0    0  0.00000000000E+00  0.00000000000E+00 -0.80326257704E+03  0.35465188733E+04  0.34543545491E+04 0.  0.
        2    1    3    3  502    0 -0.10384710499E+04  0.87596287776E+03 -0.14965794336E+04  0.20212577979E+04  0.25500000920E-02 0.  1.
       -2    1    3    3    0  502  0.10384710499E+04 -0.87596287776E+03  0.69331685651E+03  0.15252610754E+04  0.25500000920E-02 0. -1.
</event>
<event>
 5   0  0.1339844E-06  0.3279870E+04  0.7818609E-02  0.8168036E-01
       -2   -1    0    0    0  501  0.00000000000E+00  0.00000000000E+00  0.26847799376E+04  0.26847799376E+04  0.25500000920E-02 0.  1.
        2   -1    0    0  501    0  0.00000000000E+00  0.00000000000E+00 -0.10017160776E+04  0.10017160776E+04  0.25500000920E-02 0. -1.
    10030    2    1    2    0    0  0.00000000000E+00  0.00000000000E+00  0.16830638601E+04  0.36864960152E+04  0.32798702586E+04 0.  0.
        3    1    3    3  502    0 -0.13266578397E+03  0.64512265872E+02  0.26773071690E+04  0.26813682570E+04  0.10100000352E+00 0.  1.
       -3    1    3    3    0  502  0.13266578397E+03 -0.64512265872E+02 -0.99424330891E+03  0.10051277581E+04  0.10100000352E+00 0. -1.
</event>
<event>
 5   0  0.1948507E-06  0.3421113E+04  0.7818609E-02  0.8132744E-01
       -2   -1    0    0    0  501  0.00000000000E+00  0.00000000000E+00  0.20676061578E+04  0.20676061578E+04  0.25500000920E-02 0.  1.
        2   -1    0    0  501    0  0.00000000000E+00  0.00000000000E+00 -0.14151645720E+04  0.14151645720E+04  0.25500000920E-02 0. -1.
    10030    2    1    2    0    0  0.00000000000E+00  0.00000000000E+00  0.65244158585E+03  0.34827707298E+04  0.34211126747E+04 0.  0.
        1    1    3    3  502    0 -0.54961249854E+03  0.10421614407E+04  0.15886629161E+04  0.19778837751E+04  0.50400001928E-02 0.  1.
       -1    1    3    3    0  502  0.54961249854E+03 -0.10421614407E+04 -0.93622133022E+03  0.15048869546E+04  0.50400001928E-02 0. -1.
</event>
<event>
 5   0  0.6134625E-07  0.3144087E+04  0.7818609E-02  0.8203742E-01
       -1   -1    0    0    0  501  0.00000000000E+00  0.00000000000E+00  0.17742990652E+04  0.17742990652E+04  0.50400001928E-02 0. -1.
        1   -1    0    0  501    0  0.00000000000E+00  0.00000000000E+00 -0.13928437440E+04  0.13928437440E+04  0.50400001928E-02 0.  1.
    10030    2    1    2    0    0  0.00000000000E+00  0.00000000000E+00  0.38145532115E+03  0.31671428092E+04  0.31440873735E+04 0.  0.
        3    1    3    3  502    0  0.95592542054E+03  0.11527431547E+03 -0.10610592497E+04  0.14328043548E+04  0.10100000352E+00 0.  1.
       -3    1    3    3    0  502 -0.95592542054E+03 -0.11527431547E+03  0.14425145708E+04  0.17343384545E+04  0.10100000352E+00 0. -1.
</event>
<event>
 5   0  0.1339844E-06  0.3035972E+04  0.7818609E-02  0.8233533E-01
       -2   -1    0    0    0  501  0.00000000000E+00  0.00000000000E+00  0.15372879409E+04  0.15372879409E+04  0.25500000920E-02 0. -1.
        2   -1    0    0  501    0  0.00000000000E+00  0.00000000000E+00 -0.14989266884E+04  0.14989266884E+04  0.25500000920E-02 0.  1.
    10030    2    1    2    0    0  0.00000000000E+00  0.00000000000E+00  0.38361252500E+02  0.30362146292E+04  0.30359722807E+04 0.  0.
        3    1    3    3  502    0 -0.13466208887E+04 -0.63803869799E+03 -0.27032601165E+03  0.15144495241E+04  0.10100000352E+00 0. -1.
       -3    1    3    3    0  502  0.13466208887E+04  0.63803869799E+03  0.30868726415E+03  0.15217651052E+04  0.10100000352E+00 0.  1.
</event>
<event>
 5   0  0.6146388E-07  0.3416649E+04  0.7818609E-02  0.8133832E-01
       -1   -1    0    0    0  501  0.00000000000E+00  0.00000000000E+00  0.13818857867E+04  0.13818857867E+04  0.50400001928E-02 0.  1.
        1   -1    0    0  501    0  0.00000000000E+00  0.00000000000E+00 -0.21118774241E+04  0.21118774241E+04  0.50400001928E-02 0. -1.
    10030    2    1    2    0    0  0.00000000000E+00  0.00000000000E+00 -0.72999163735E+03  0.34937632108E+04  0.34166494673E+04 0.  0.
        4    1    3    3  502    0  0.48186323954E+03 -0.26028752796E+03 -0.20196739507E+04  0.20926123049E+04  0.12699999809E+01 0. -1.
       -4    1    3    3    0  502 -0.48186323954E+03  0.26028752796E+03  0.12896823133E+04  0.14011509059E+04  0.12699999809E+01 0.  1.
</event>
<event>
 5   0  0.6146388E-07  0.3311518E+04  0.7818609E-02  0.8159971E-01
        1   -1    0    0  501    0  0.00000000000E+00  0.00000000000E+00  0.29410012811E+04  0.29410012811E+04  0.50400001928E-02 0. -1.
       -1   -1    0    0    0  501  0.00000000000E+00  0.00000000000E+00 -0.93217819869E+03  0.93217819871E+03  0.50400001928E-02 0.  1.
    10030    2    1    2    0    0  0.00000000000E+00  0.00000000000E+00  0.20088230824E+04  0.38731794799E+04  0.33115176440E+04 0.  0.
        4    1    3    3  502    0 -0.10436183686E+04 -0.10968059033E+03 -0.49358564969E+03  0.11596540595E+04  0.12699999809E+01 0.  1.
       -4    1    3    3    0  502  0.10436183686E+04  0.10968059033E+03  0.25024087321E+04  0.27135254203E+04  0.12699999809E+01 0. -1.
</event>
<event>
 5   0  0.6134625E-07  0.3012233E+04  0.7818609E-02  0.8240246E-01
       -1   -1    0    0    0  501  0.00000000000E+00  0.00000000000E+00  0.12979390854E+04  0.12979390854E+04  0.50400001928E-02 0. -1.
        1   -1    0    0  501    0  0.00000000000E+00  0.00000000000E+00 -0.17476838945E+04  0.17476838946E+04  0.50400001928E-02 0.  1.
    10030    2    1    2    0    0  0.00000000000E+00  0.00000000000E+00 -0.44974480911E+03  0.30456229800E+04  0.30122332152E+04 0.  0.
        3    1    3    3  502    0 -0.98422860373E+03 -0.11379377636E+04 -0.29476847484E+03  0.15331329891E+04  0.10100000352E+00 0. -1.
       -3    1    3    3    0  502  0.98422860373E+03  0.11379377636E+04 -0.15497633428E+03  0.15124899909E+04  0.10100000352E+00 0.  1.
</event>
<event>
 5   0  0.1880301E-06  0.3219795E+04  0.7818609E-02  0.8183609E-01
        2   -1    0    0  501    0  0.00000000000E+00  0.00000000000E+00  0.91096438291E+03  0.91096438291E+03  0.25500000920E-02 0. -1.
       -2   -1    0    0    0  501  0.00000000000E+00  0.00000000000E+00 -0.28450829350E+04  0.28450829350E+04  0.25500000920E-02 0.  1.
    10030    2    1    2    0    0  0.00000000000E+00  0.00000000000E+00 -0.19341185521E+04  0.37560473179E+04  0.32197945402E+04 0.  0.
        4    1    3    3  502    0  0.14863516488E+04 -0.23617786174E+02 -0.24609006718E+03  0.15067717006E+04  0.12699999809E+01 0. -1.
       -4    1    3    3    0  502 -0.14863516488E+04  0.23617786174E+02 -0.16880284849E+04  0.22492756173E+04  0.12699999809E+01 0.  1.
</event>
<event>
 5   0  0.1880301E-06  0.3429079E+04  0.7818609E-02  0.8130806E-01
       -2   -1    0    0    0  501  0.00000000000E+00  0.00000000000E+00  0.11729492914E+04  0.11729492914E+04  0.25500000920E-02 0.  1.
        2   -1    0    0  501    0  0.00000000000E+00  0.00000000000E+00 -0.25061997733E+04  0.25061997733E+04  0.25500000920E-02 0. -1.
    10030    2    1    2    0    0  0.00000000000E+00  0.00000000000E+00 -0.13332504819E+04  0.36791490647E+04  0.34290787382E+04 0.  0.
        4    1    3    3  502    0 -0.16404452883E+04  0.18752440063E+03 -0.17096403251E+03  0.16599567639E+04  0.12699999809E+01 0. -1.
       -4    1    3    3    0  502  0.16404452883E+04 -0.18752440063E+03 -0.11622864494E+04  0.20191923009E+04  0.12699999809E+01 0.  1.
</event>
<event>
 5   0  0.1911477E-06  0.3389748E+04  0.7818609E-02  0.8140427E-01
        2   -1    0    0  501    0  0.00000000000E+00  0.00000000000E+00  0.11336466530E+04  0.11336466530E+04  0.25500000920E-02 0.  1.
       -2   -1    0    0    0  501  0.00000000000E+00  0.00000000000E+00 -0.25339448074E+04  0.25339448074E+04  0.25500000920E-02 0. -1.
    10030    2    1    2    0    0  0.00000000000E+00  0.00000000000E+00 -0.14002981544E+04  0.36675914604E+04  0.33897481026E+04 0.  0.
        5    1    3    3  502    0 -0.87126401495E+03 -0.13334277084E+04 -0.73499824277E+02  0.15945390404E+04  0.46999998093E+01 0.  1.
       -5    1    3    3    0  502  0.87126401495E+03  0.13334277084E+04 -0.13267983301E+04  0.20730524200E+04  0.46999998093E+01 0. -1.
</event>
<event>
 5   0  0.6134625E-07  0.3502510E+04  0.7818609E-02  0.8113195E-01
       -1   -1    0    0    0  501  0.00000000000E+00  0.00000000000E+00  0.12286392939E+04  0.12286392939E+04  0.50400001928E-02 0. -1.
        1   -1    0    0  501    0  0.00000000000E+00  0.00000000000E+00 -0.24961706844E+04  0.24961706844E+04  0.50400001928E-02 0.  1.
    10030    2    1    2    0    0  0.00000000000E+00  0.00000000000E+00 -0.12675313905E+04  0.37248099783E+04  0.35025096072E+04 0.  0.
        3    1    3    3  502    0 -0.38387531210E+02  0.11005449367E+04 -0.20818888230E+04  0.23551929521E+04  0.10100000352E+00 0.  1.
       -3    1    3    3    0  502  0.38387531210E+02 -0.11005449367E+04  0.81435743246E+03  0.13696170261E+04  0.10100000352E+00 0. -1.
</event>
<event>
 5   0  0.6134625E-07  0.2583272E+04  0.7818609E-02  0.8373906E-01
        1   -1    0    0  501    0  0.00000000000E+00  0.00000000000E+00  0.10041686252E+04  0.10041686252E+04  0.50400001928E-02 0. -1.
       -1   -1    0    0    0  501  0.00000000000E+00  0.00000000000E+00 -0.16613976990E+04  0.16613976990E+04  0.50400001928E-02 0.  1.
    10030    2    1    2    0    0  0.00000000000E+00  0.00000000000E+00 -0.65722907379E+03  0.26655663243E+04  0.25832719125E+04 0.  0.
        3    1    3    3  502    0 -0.44469650947E+03  0.12024201727E+04 -0.49096129058E+03  0.13728118066E+04  0.10100000352E+00 0.  1.
       -3    1    3    3    0  502  0.44469650947E+03 -0.12024201727E+04 -0.16626778321E+03  0.12927545177E+04  0.10100000352E+00 0. -1.
</event>
<event>
 5   0  0.1797075E-06  0.3392586E+04  0.7818609E-02  0.8139728E-01
        2   -1    0    0  501    0  0.00000000000E+00  0.00000000000E+00  0.25777949821E+04  0.25777949821E+04  0.25500000920E-02 0. -1.
       -2   -1    0    0    0  501  0.00000000000E+00  0.00000000000E+00 -0.11162294805E+04  0.11162294805E+04  0.25500000920E-02 0.  1.
    10030    2    1    2    0    0  0.00000000000E+00  0.00000000000E+00  0.14615655016E+04  0.36940244626E+04  0.33925864787E+04 0.  0.
        2    1    3    3  502    0 -0.42550496135E+03 -0.16257662265E+04  0.47954220226E+03  0.17476072268E+04  0.25500000920E-02 0.  1.
       -2    1    3    3    0  502  0.42550496135E+03  0.16257662265E+04  0.98202329934E+03  0.19464172358E+04  0.25500000920E-02 0. -1.
</event>
<event>
 5   0  0.1339844E-06  0.3367828E+04  0.7818609E-02  0.8145848E-01
       -2   -1    0    0    0  501  0.00000000000E+00  0.00000000000E+00  0.26010652482E+04  0.26010652482E+04  0.25500000920E-02 0. -1.
        2   -1    0    0  501    0  0.00000000000E+00  0.00000000000E+00 -0.10901556848E+04  0.10901556848E+04  0.25500000920E-02 0.  1.
    10030    2    1    2    0    0  0.00000000000E+00  0.00000000000E+00  0.15109095634E+04  0.36912209330E+04  0.33678278263E+04 0.  0.
        3    1    3    3  502    0 -0.11504196119E+04 -0.50220099403E+00  0.21032083510E+04  0.23972798989E+04  0.10100000352E+00 0. -1.
       -3    1    3    3    0  502  0.11504196119E+04  0.50220099403E+00 -0.59229878762E+03  0.12939410341E+04  0.10100000352E+00 0.  1.
</event>
<event>
 5   0  0.1948507E-06  0.3401355E+04  0.7818609E-02  0.8137574E-01
       -2   -1    0    0    0  501  0.00000000000E+00  0.00000000000E+00  0.11213498735E+04  0.11213498735E+04  0.25500000920E-02 0. -1.
        2   -1    0    0  501    0  0.00000000000E+00  0.00000000000E+00 -0.25793059669E+04  0.25793059669E+04  0.25500000920E-02 0.  1.
    10030    2    1    2    0    0  0.00000000000E+00  0.00000000000E+00 -0.14579560934E+04  0.37006558404E+04  0.34013552708E+04 0.  0.
        1    1    3    3  502    0  0.28078202659E+03 -0.49483893939E+03 -0.24726908874E+04  0.25373025730E+04  0.50400001928E-02 0.  1.
       -1    1    3    3    0  502 -0.28078202659E+03  0.49483893939E+03  0.10147347940E+04  0.11633532673E+04  0.50400001928E-02 0. -1.
</event>
<event>
 5   0  0.1797075E-06  0.3402571E+04  0.7818609E-02  0.8137276E-01
        2   -1    0    0  501    0  0.00000000000E+00  0.00000000000E+00  0.19306626900E+04  0.19306626900E+04  0.25500000920E-02 0. -1.
       -2   -1    0    0    0  501  0.00000000000E+00  0.00000000000E+00 -0.14991596416E+04  0.14991596416E+04  0.25500000920E-02 0.  1.
    10030    2    1    2    0    0  0.00000000000E+00  0.00000000000E+00  0.43150304834E+03  0.34298223316E+04  0.34025705497E+04 0.  0.
        2    1    3    3  502    0  0.10037669570E+04  0.12921667109E+02 -0.11688056828E+04  0.15407211940E+04  0.25500000920E-02 0.  1.
       -2    1    3    3    0  502 -0.10037669570E+04 -0.12921667109E+02  0.16003087311E+04  0.18891011377E+04  0.25500000920E-02 0. -1.
</event>
<event>
 5   0  0.1339844E-06  0.3374718E+04  0.7818609E-02  0.8144139E-01
        2   -1    0    0  501    0  0.00000000000E+00  0.00000000000E+00  0.14461054714E+04  0.14461054714E+04  0.25500000920E-02 0.  1.
       -2   -1    0    0    0  501  0.00000000000E+00  0.00000000000E+00 -0.19688604804E+04  0.19688604804E+04  0.25500000920E-02 0. -1.
    10030    2    1    2    0    0  0.00000000000E+00  0.00000000000E+00 -0.52275500899E+03  0.34149659518E+04  0.33747177145E+04 0.  0.
        3    1    3    3  502    0  0.12382516753E+04 -0.97653944475E+03 -0.86877228528E+03  0.18004615498E+04  0.10100000352E+00 0. -1.
       -3    1    3    3    0  502 -0.12382516753E+04  0.97653944475E+03  0.34601727629E+03  0.16145044020E+04  0.10100000352E+00 0.  1.
</event>
<event>
 5   0  0.6134625E-07  0.3510096E+04  0.7818609E-02  0.8111401E-01
        1   -1    0    0  501    0  0.00000000000E+00  0.00000000000E+00  0.24991153554E+04  0.24991153554E+04  0.50400001928E-02 0. -1.
       -1   -1    0    0    0  501  0.00000000000E+00  0.00000000000E+00 -0.12325136811E+04  0.12325136811E+04  0.50400001928E-02 0.  1.
    10030    2    1    2    0    0  0.00000000000E+00  0.00000000000E+00  0.12666016743E+04  0.37316290365E+04  0.35100962187E+04 0.  0.
        3    1    3    3  502    0 -0.16282708668E+03  0.15334262252E+04  0.15242156969E+04  0.21682117399E+04  0.10100000352E+00 0.  1.
       -3    1    3    3    0  502  0.16282708668E+03 -0.15334262252E+04 -0.25761402260E+03  0.15634172965E+04  0.10100000352E+00 0. -1.
</event>
<event>
 5   0  0.1911477E-06  0.3381013E+04  0.7818609E-02  0.8142582E-01
        2   -1    0    0  501    0  0.00000000000E+00  0.00000000000E+00  0.13238998397E+04  0.13238998397E+04  0.25500000920E-02 0.  1.
       -2   -1    0    0    0  501  0.00000000000E+00  0.00000000000E+00 -0.21586316415E+04  0.21586316415E+04  0.25500000920E-02 0. -1.
    10030    2    1    2    0    0  0.00000000000E+00  0.00000000000E+00 -0.83473180179E+03  0.34825314812E+04  0.33810129158E+04 0.  0.
        5    1    3    3  502    0 -0.77374583906E+03  0.85054589563E+03 -0.16938001571E+04  0.20472156717E+04  0.46999998093E+01 0. -1.
       -5    1    3    3    0  502  0.77374583906E+03 -0.85054589563E+03  0.85906835532E+03  0.14353158096E+04  0.46999998093E+01 0.  1.
</event>
<event>
 5   0  0.6134625E-07  0.3251121E+04  0.7818609E-02  0.8175445E-01
        1   -1    0    0  501    0  0.00000000000E+00  0.00000000000E+00  0.22150671971E+04  0.22150671971E+04  0.50400001928E-02 0. -1.
       -1   -1    0    0    0  501  0.00000000000E+00  0.00000000000E+00 -0.11929419991E+04  0.11929419991E+04  0.50400001928E-02 0.  1.
    10030    2    1    2    0    0  0.00000000000E+00  0.00000000000E+00  0.10221251979E+04  0.34080091962E+04  0.32511208469E+04 0.  0.
        5    1    3    3  502    0 -0.42247027798E+03 -0.60407989764E+03  0.20297803371E+04  0.21594962295E+04  0.46999998093E+01 0. -1.
       -5    1    3    3    0  502  0.42247027798E+03  0.60407989764E+03 -0.10076551391E+04  0.12485129667E+04  0.46999998093E+01 0.  1.
</event>
<event>
 5   0  0.6134625E-07  0.3355901E+04  0.7818609E-02  0.8148815E-01
        1   -1    0    0  501    0  0.00000000000E+00  0.00000000000E+00  0.23907759416E+04  0.23907759416E+04  0.50400001928E-02 0. -1.
       -1   -1    0    0    0  501  0.00000000000E+00  0.00000000000E+00 -0.11776588268E+04  0.11776588268E+04  0.50400001928E-02 0.  1.
    10030    2    1    2    0    0  0.00000000000E+00  0.00000000000E+00  0.12131171148E+04  0.35684347684E+04  0.33559013040E+04 0.  0.
        1    1    3    3  502    0  0.15917396450E+04 -0.19092220251E+03  0.79772610883E+02  0.16051324103E+04  0.50400001928E-02 0.  1.
       -1    1    3    3    0  502 -0.15917396450E+04  0.19092220251E+03  0.11333445039E+04  0.19633023582E+04  0.50400001928E-02 0. -1.
</event>
<event>
 5   0  0.6134625E-07  0.3412449E+04  0.7818609E-02  0.8134858E-01
        3   -1    0    0  501    0  0.00000000000E+00  0.00000000000E+00  0.15989749977E+04  0.15989750009E+04  0.10100000352E+00 0.  1.
       -3   -1    0    0    0  501  0.00000000000E+00  0.00000000000E+00 -0.18206679471E+04  0.18206679499E+04  0.10100000352E+00 0. -1.
    10030    2    1    2    0    0  0.00000000000E+00  0.00000000000E+00 -0.22169294945E+03  0.34196429508E+04  0.34124492885E+04 0.  0.
        3    1    3    3  502    0 -0.15712768554E+04 -0.35998661337E+03 -0.67122222940E+03  0.17461502254E+04  0.10100000352E+00 0.  1.
       -3    1    3    3    0  502  0.15712768554E+04  0.35998661337E+03  0.44952927995E+03  0.16734927254E+04  0.10100000352E+00 0. -1.
</event>
<event>
 5   0  0.1339844E-06  0.3390748E+04  0.7818609E-02  0.8140181E-01
       -2   -1    0    0    0  501  0.00000000000E+00  0.00000000000E+00  0.16399830248E+04  0.16399830248E+04  0.25500000920E-02 0. -1.
        2   -1    0    0  501    0  0.00000000000E+00  0.00000000000E+00 -0.17526355124E+04  0.17526355124E+04  0.25500000920E-02 0.  1.
    10030    2    1    2    0    0  0.00000000000E+00  0.00000000000E+00 -0.11265248758E+03  0.33926185372E+04  0.33907476987E+04 0.  0.
        3    1    3    3  502    0  0.13476363876E+04 -0.98334834219E+03 -0.35847743813E+03  0.17063422515E+04  0.10100000352E+00 0.  1.
       -3    1    3    3    0  502 -0.13476363876E+04  0.98334834219E+03  0.24582495056E+03  0.16862762857E+04  0.10100000352E+00 0. -1.
</event>
<event>
 5   0  0.6134625E-07  0.3558161E+04  0.7818609E-02  0.8100143E-01
        1   -1    0    0  501    0  0.00000000000E+00  0.00000000000E+00  0.16272382138E+04  0.16272382138E+04  0.50400001928E-02 0. -1.
       -1   -1    0    0    0  501  0.00000000000E+00  0.00000000000E+00 -0.19450915156E+04  0.19450915156E+04  0.50400001928E-02 0.  1.
    10030    2    1    2    0    0  0.00000000000E+00  0.00000000000E+00 -0.31785330186E+03  0.35723297294E+04  0.35581608977E+04 0.  0.
        1    1    3    3  502    0 -0.80194403416E+03 -0.72910281534E+03 -0.15753678394E+04  0.19121948067E+04  0.50400001928E-02 0.  1.
       -1    1    3    3    0  502  0.80194403416E+03  0.72910281534E+03  0.12575145376E+04  0.16601349227E+04  0.50400001928E-02 0. -1.
</event>
<event>
 5   0  0.6134625E-07  0.3320896E+04  0.7818609E-02  0.8157599E-01
       -1   -1    0    0    0  501  0.00000000000E+00  0.00000000000E+00  0.17796051041E+04  0.17796051041E+04  0.50400001928E-02 0. -1.
        1   -1    0    0  501    0  0.00000000000E+00  0.00000000000E+00 -0.15492697505E+04  0.15492697505E+04  0.50400001928E-02 0.  1.
    10030    2    1    2    0    0  0.00000000000E+00  0.00000000000E+00  0.23033535359E+03  0.33288748547E+04  0.33208964788E+04 0.  0.
        3    1    3    3  502    0 -0.24510251440E+03 -0.13913754190E+03 -0.15251174520E+04  0.15509409243E+04  0.10100000352E+00 0.  1.
       -3    1    3    3    0  502  0.24510251440E+03  0.13913754190E+03  0.17554528055E+04  0.17779339304E+04  0.10100000352E+00 0. -1.
</event>
<event>
 5   0  0.6218695E-07  0.3246064E+04  0.7818609E-02  0.8176757E-01
       -1   -1    0    0    0  501  0.00000000000E+00  0.00000000000E+00  0.11853385282E+04  0.11853385282E+04  0.50400001928E-02 0.  1.
        1   -1    0    0  501    0  0.00000000000E+00  0.00000000000E+00 -0.22223461675E+04  0.22223461675E+04  0.50400001928E-02 0. -1.
    10030    2    1    2    0    0  0.00000000000E+00  0.00000000000E+00 -0.10370076393E+04  0.34076846957E+04  0.32460637919E+04 0.  0.
        2    1    3    3  502    0 -0.11452160696E+04  0.27214475415E+02  0.68851347215E+03  0.13365295639E+04  0.25500000920E-02 0.  1.
       -2    1    3    3    0  502  0.11452160696E+04 -0.27214475415E+02 -0.17255211114E+04  0.20711551318E+04  0.25500000920E-02 0. -1.
</event>
<event>
 5   0  0.6134625E-07  0.3120701E+04  0.7818609E-02  0.8210080E-01
       -1   -1    0    0    0  501  0.00000000000E+00  0.00000000000E+00  0.15470987848E+04  0.15470987848E+04  0.50400001928E-02 0. -1.
        1   -1    0    0  501    0  0.00000000000E+00  0.00000000000E+00 -0.15737153662E+04  0.15737153662E+04  0.50400001928E-02 0.  1.
    10030    2    1    2    0    0  0.00000000000E+00  0.00000000000E+00 -0.26616581426E+02  0.31208141511E+04  0.31207006462E+04 0.  0.
        3    1    3    3  502    0  0.57484133160E+03  0.99867386819E+03  0.10388236354E+04  0.15514337264E+04  0.10100000352E+00 0. -1.
       -3    1    3    3    0  502 -0.57484133160E+03 -0.99867386819E+03 -0.10654402169E+04  0.15693804247E+04  0.10100000352E+00 0.  1.
</event>
<event>
 5   0  0.1880301E-06  0.3196143E+04  0.7818609E-02  0.8189837E-01
        2   -1    0    0  501    0  0.00000000000E+00  0.00000000000E+00  0.13320991367E+04  0.13320991367E+04  0.25500000920E-02 0. -1.
       -2   -1    0    0    0  501  0.00000000000E+00  0.00000000000E+00 -0.19171487340E+04  0.19171487340E+04  0.25500000920E-02 0.  1.
    10030    2    1    2    0    0  0.00000000000E+00  0.00000000000E+00 -0.58504959733E+03  0.32492478707E+04  0.31961427837E+04 0.  0.
        4    1    3    3  502    0  0.66659184938E+03 -0.62689960397E+03  0.10393898409E+04  0.13848034739E+04  0.12699999809E+01 0. -1.
       -4    1    3    3    0  502 -0.66659184938E+03  0.62689960397E+03 -0.16244394383E+04  0.18644443968E+04  0.12699999809E+01 0.  1.
</event>
<event>
 5   0  0.1948507E-06  0.3454150E+04  0.7818609E-02  0.8124743E-01
        2   -1    0    0  501    0  0.00000000000E+00  0.00000000000E+00  0.22150052410E+04  0.22150052410E+04  0.25500000920E-02 0.  1.
       -2   -1    0    0    0  501  0.00000000000E+00  0.00000000000E+00 -0.13466277403E+04  0.13466277403E+04  0.25500000920E-02 0. -1.
    10030    2    1    2    0    0  0.00000000000E+00  0.00000000000E+00  0.86837750069E+03  0.35616329813E+04  0.34541496797E+04 0.  0.
        1    1    3    3  502    0  0.15498601726E+03  0.79554644442E+03  0.20067261428E+04  0.21642237922E+04  0.50400001928E-02 0.  1.
       -1    1    3    3    0  502 -0.15498601726E+03 -0.79554644442E+03 -0.11383486421E+04  0.13974091891E+04  0.50400001928E-02 0. -1.
</event>
<event>
 5   0  0.6146388E-07  0.3522668E+04  0.7818609E-02  0.8108439E-01
       -1   -1    0    0    0  501  0.00000000000E+00  0.00000000000E+00  0.13611188837E+04  0.13611188837E+04  0.50400001928E-02 0.  1.
        1   -1    0    0  501    0  0.00000000000E+00  0.00000000000E+00 -0.22792259994E+04  0.22792259994E+04  0.50400001928E-02 0. -1.
    10030    2    1    2    0    0  0.00000000000E+00  0.00000000000E+00 -0.91810711575E+03  0.36403448831E+04  0.35226680502E+04 0.  0.
        4    1    3    3  502    0 -0.48521596005E+03 -0.10585210700E+04  0.90660456972E+03  0.14757489089E+04  0.12699999809E+01 0.  1.
       -4    1    3    3    0  502  0.48521596005E+03  0.10585210700E+04 -0.18247116855E+04  0.21645959742E+04  0.12699999809E+01 0. -1.
</event>
<event>
 5   0  0.1797075E-06  0.3572591E+04  0.7818609E-02  0.8096799E-01
       -2   -1    0    0    0  501  0.00000000000E+00  0.00000000000E+00  0.14255894947E+04  0.14255894947E+04  0.25500000920E-02 0. -1.
        2   -1    0    0  501    0  0.00000000000E+00  0.00000000000E+00 -0.22382680171E+04  0.22382680171E+04  0.25500000920E-02 0.  1.
    10030    2    1    2    0    0  0.00000000000E+00  0.00000000000E+00 -0.81267852247E+03  0.36638575118E+04  0.35725908646E+04 0.  0.
        2    1    3    3  502    0 -0.42209058518E+03  0.29402953936E+03 -0.21606643764E+04  0.22210547898E+04  0.25500000920E-02 0.  1.
       -2    1    3    3    0  502  0.42209058518E+03 -0.29402953936E+03  0.13479858539E+04  0.14428027220E+04  0.25500000920E-02 0. -1.
</event>
<event>
 5   0  0.6134625E-07  0.3266244E+04  0.7818609E-02  0.8171538E-01
        1   -1    0    0  501    0  0.00000000000E+00  0.00000000000E+00  0.17635625562E+04  0.17635625562E+04  0.50400001928E-02 0.  1.
       -1   -1    0    0    0  501  0.00000000000E+00  0.00000000000E+00 -0.15123289559E+04  0.15123289559E+04  0.50400001928E-02 0. -1.
    10030    2    1    2    0    0  0.00000000000E+00  0.00000000000E+00  0.25123360036E+03  0.32758915121E+04  0.32662435422E+04 0.  0.
        3    1    3    3  502    0 -0.12918302848E+04  0.81844221284E+03 -0.44914975954E+03  0.15938659470E+04  0.10100000352E+00 0.  1.
       -3    1    3    3    0  502  0.12918302848E+04 -0.81844221284E+03  0.70038335991E+03  0.16820255650E+04  0.10100000352E+00 0. -1.
</event>
<event>
 5   0  0.1797075E-06  0.3408162E+04  0.7818609E-02  0.8135906E-01
       -2   -1    0    0    0  501  0.00000000000E+00  0.00000000000E+00  0.13610342851E+04  0.13610342851E+04  0.25500000920E-02 0. -1.
        2   -1    0    0  501    0  0.00000000000E+00  0.00000000000E+00 -0.21335923063E+04  0.21335923063E+04  0.25500000920E-02 0.  1.
    10030    2    1    2    0    0  0.00000000000E+00  0.00000000000E+00 -0.77255802116E+03  0.34946265913E+04  0.34081621318E+04 0.  0.
        2    1    3    3  502    0 -0.16698386588E+04  0.25310287330E+03 -0.15365319820E+03  0.16958866460E+04  0.25500000920E-02 0. -1.
       -2    1    3    3    0  502  0.16698386588E+04 -0.25310287330E+03 -0.61890482296E+03  0.17987399453E+04  0.25500000920E-02 0.  1.
</event>
<event>
 5   0  0.6218695E-07  0.3294647E+04  0.7818609E-02  0.8164259E-01
       -1   -1    0    0    0  501  0.00000000000E+00  0.00000000000E+00  0.20320483344E+04  0.20320483344E+04  0.50400001928E-02 0.  1.
        1   -1    0    0  501    0  0.00000000000E+00  0.00000000000E+00 -0.13354383262E+04  0.13354383262E+04  0.50400001928E-02 0. -1.
    10030    2    1    2    0    0  0.00000000000E+00  0.00000000000E+00  0.69661000820E+03  0.33674866607E+04  0.32946473114E+04 0.  0.
        2    1    3    3  502    0 -0.40431908773E+03  0.15460199423E+04  0.75717856230E+03  0.17683243373E+04  0.25500000920E-02 0.  1.
       -2    1    3    3    0  502  0.40431908773E+03 -0.15460199423E+04 -0.60568554094E+02  0.15991623234E+04  0.25500000920E-02 0. -1.
</event>
<event>
 5   0  0.6218695E-07  0.3412969E+04  0.7818609E-02  0.8134731E-01
        1   -1    0    0  501    0  0.00000000000E+00  0.00000000000E+00  0.12494123990E+04  0.12494123990E+04  0.50400001928E-02 0.  1.
       -1   -1    0    0    0  501  0.00000000000E+00  0.00000000000E+00 -0.23307671545E+04  0.23307671545E+04  0.50400001928E-02 0. -1.
    10030    2    1    2    0    0  0.00000000000E+00  0.00000000000E+00 -0.10813547555E+04  0.35801795536E+04  0.34129690196E+04 0.  0.
        2    1    3    3  502    0  0.45320127499E+03  0.16374235905E+04 -0.70832587801E+03  0.18407262045E+04  0.25500000920E-02 0.  1.
       -2    1    3    3    0  502 -0.45320127499E+03 -0.16374235905E+04 -0.37302887748E+03  0.17394533491E+04  0.25500000920E-02 0. -1.
</event>
<event>
 5   0  0.6218695E-07  0.3384420E+04  0.7818609E-02  0.8141741E-01
       -1   -1    0    0    0  501  0.00000000000E+00  0.00000000000E+00  0.13076318254E+04  0.13076318254E+04  0.50400001928E-02 0. -1.
        1   -1    0    0  501    0  0.00000000000E+00  0.00000000000E+00 -0.21898933191E+04  0.21898933191E+04  0.50400001928E-02 0.  1.
    10030    2    1    2    0    0  0.00000000000E+00  0.00000000000E+00 -0.88226149371E+03  0.34975251445E+04  0.33844197129E+04 0.  0.
        2    1    3    3  502    0  0.83327871140E+03  0.14121810997E+04 -0.88632030752E+01  0.16397217525E+04  0.25500000920E-02 0. -1.
       -2    1    3    3    0  502 -0.83327871140E+03 -0.14121810997E+04 -0.87339829064E+03  0.18578033920E+04  0.25500000920E-02 0.  1.
</event>
<event>
 5   0  0.1797075E-06  0.3392518E+04  0.7818609E-02  0.8139745E-01
        2   -1    0    0  501    0  0.00000000000E+00  0.00000000000E+00  0.22329179058E+04  0.22329179058E+04  0.25500000920E-02 0. -1.
       -2   -1    0    0    0  501  0.00000000000E+00  0.00000000000E+00 -0.12885802595E+04  0.12885802595E+04  0.25500000920E-02 0.  1.
    10030    2    1    2    0    0  0.00000000000E+00  0.00000000000E+00  0.94433764632E+03  0.35214981653E+04  0.33925176105E+04 0.  0.
        2    1    3    3  502    0  0.57468489914E+03 -0.30260336110E+03  0.20987359858E+04  0.21969351983E+04  0.25500000920E-02 0. -1.
       -2    1    3    3    0  502 -0.57468489914E+03  0.30260336110E+03 -0.11543983394E+04  0.13245629670E+04  0.25500000920E-02 0.  1.
</event>
<event>
 5   0  0.6134625E-07  0.3395852E+04  0.7818609E-02  0.8138925E-01
       -1   -1    0    0    0  501  0.00000000000E+00  0.00000000000E+00  0.10747921138E+04  0.10747921138E+04  0.50400001928E-02 0. -1.
        1   -1    0    0  501    0  0.00000000000E+00  0.00000000000E+00 -0.26823351678E+04  0.26823351678E+04  0.50400001928E-02 0.  1.
    10030    2    1    2    0    0  0.00000000000E+00  0.00000000000E+00 -0.16075430539E+04  0.37571272816E+04  0.33958519903E+04 0.  0.
        5    1    3    3  502    0 -0.92717881165E+03  0.13557844203E+04 -0.12797992484E+04  0.20822392152E+04  0.46999998093E+01 0.  1.
       -5    1    3    3    0  502  0.92717881165E+03 -0.13557844203E+04 -0.32774380552E+03  0.16748880664E+04  0.46999998093E+01 0. -1.
</event>
<event>
 5   0  0.1911477E-06  0.3391425E+04  0.7818609E-02  0.8140014E-01
        2   -1    0    0  501    0  0.00000000000E+00  0.00000000000E+00  0.17778209769E+04  0.17778209769E+04  0.25500000920E-02 0. -1.
       -2   -1    0    0    0  501  0.00000000000E+00  0.00000000000E+00 -0.16173959374E+04  0.16173959374E+04  0.25500000920E-02 0.  1.
    10030    2    1    2    0    0  0.00000000000E+00  0.00000000000E+00  0.16042503951E+03  0.33952169143E+04  0.33914247304E+04 0.  0.
        5    1    3    3  502    0 -0.21936104209E+02 -0.15014444673E+04  0.86887613918E+03  0.17348730548E+04  0.46999998093E+01 0. -1.
       -5    1    3    3    0  502  0.21936104209E+02  0.15014444673E+04 -0.70845109967E+03  0.16603438595E+04  0.46999998093E+01 0.  1.
</event>
<event>
 5   0  0.1339844E-06  0.3369044E+04  0.7818609E-02  0.8145546E-01
        2   -1    0    0  501    0  0.00000000000E+00  0.00000000000E+00  0.30751454131E+04  0.30751454131E+04  0.25500000920E-02 0.  1.
       -2   -1    0    0    0  501  0.00000000000E+00  0.00000000000E+00 -0.92275759646E+03  0.92275759646E+03  0.25500000920E-02 0. -1.
    10030    2    1    2    0    0  0.00000000000E+00  0.00000000000E+00  0.21523878166E+04  0.39979030095E+04  0.33690436567E+04 0.  0.
        3    1    3    3  502    0 -0.56715519854E+03  0.14214525344E+04  0.19114372447E+04  0.24486291425E+04  0.10100000352E+00 0.  1.
       -3    1    3    3    0  502  0.56715519854E+03 -0.14214525344E+04  0.24095057194E+03  0.15492738671E+04  0.10100000352E+00 0. -1.
</event>
<event>
 5   0  0.1880301E-06  0.3415365E+04  0.7818609E-02  0.8134146E-01
        2   -1    0    0  501    0  0.00000000000E+00  0.00000000000E+00  0.16015846199E+04  0.16015846199E+04  0.25500000920E-02 0.  1.
       -2   -1    0    0    0  501  0.00000000000E+00  0.00000000000E+00 -0.18208089099E+04  0.18208089099E+04  0.25500000920E-02 0. -1.
    10030    2    1    2    0    0  0.00000000000E+00  0.00000000000E+00 -0.21922429005E+03  0.34223935298E+04  0.34153650146E+04 0.  0.
        4    1    3    3  502    0  0.49563133907E+03  0.30165031777E+03 -0.17190102999E+04  0.18142881145E+04  0.12699999809E+01 0. -1.
       -4    1    3    3    0  502 -0.49563133907E+03 -0.30165031777E+03  0.14997860098E+04  0.16081054153E+04  0.12699999809E+01 0.  1.
</event>
<event>
 5   0  0.6146388E-07  0.3417314E+04  0.7818609E-02  0.8133670E-01
        1   -1    0    0  501    0  0.00000000000E+00  0.00000000000E+00  0.14375772197E+04  0.14375772198E+04  0.50400001928E-02 0. -1.
       -1   -1    0    0    0  501  0.00000000000E+00  0.00000000000E+00 -0.20308540388E+04  0.20308540388E+04  0.50400001928E-02 0.  1.
    10030    2    1    2    0    0  0.00000000000E+00  0.00000000000E+00 -0.59327681910E+03  0.34684312586E+04  0.34173144443E+04 0.  0.
        4    1    3    3  502    0 -0.11003313476E+03  0.71526193605E+03 -0.18676287576E+04  0.20029342767E+04  0.12699999809E+01 0.  1.
       -4    1    3    3    0  502  0.11003313476E+03 -0.71526193605E+03  0.12743519385E+04  0.14654969819E+04  0.12699999809E+01 0. -1.
</event>
<event>
 5   0  0.1911477E-06  0.3373990E+04  0.7818609E-02  0.8144320E-01
       -2   -1    0    0    0  501  0.00000000000E+00  0.00000000000E+00  0.21790999399E+04  0.21790999399E+04  0.25500000920E-02 0. -1.
        2   -1    0    0  501    0  0.00000000000E+00  0.00000000000E+00 -0.13060216781E+04  0.13060216781E+04  0.25500000920E-02 0.  1.
    10030    2    1    2    0    0  0.00000000000E+00  0.00000000000E+00  0.87307826181E+03  0.34851216181E+04  0.33739897809E+04 0.  0.
        5    1    3    3  502    0  0.95876212761E+03 -0.18747150225E+03  0.18571795092E+04  0.20984537643E+04  0.46999998093E+01 0. -1.
       -5    1    3    3    0  502 -0.95876212761E+03  0.18747150225E+03 -0.98410124741E+03  0.13866678538E+04  0.46999998093E+01 0.  1.
</event>
<event>
 5   0  0.6134625E-07  0.3416121E+04  0.7818609E-02  0.8133961E-01
       -1   -1    0    0    0  501  0.00000000000E+00  0.00000000000E+00  0.13629531026E+04  0.13629531026E+04  0.50400001928E-02 0.  1.
        1   -1    0    0  501    0  0.00000000000E+00  0.00000000000E+00 -0.21405512367E+04  0.21405512367E+04  0.50400001928E-02 0. -1.
    10030    2    1    2    0    0  0.00000000000E+00  0.00000000000E+00 -0.77759813405E+03  0.35035043393E+04  0.34161211626E+04 0.  0.
        5    1    3    3  502    0 -0.90511152167E+03 -0.14356963930E+04 -0.19153058837E+03  0.17079686929E+04  0.46999998093E+01 0. -1.
       -5    1    3    3    0  502  0.90511152167E+03  0.14356963930E+04 -0.58606754569E+03  0.17955356464E+04  0.46999998093E+01 0.  1.
</event>
<event>
 5   0  0.1797075E-06  0.3386637E+04  0.7818609E-02  0.8141194E-01
       -2   -1    0    0    0  501  0.00000000000E+00  0.00000000000E+00  0.11817762469E+04  0.11817762469E+04  0.25500000920E-02 0. -1.
        2   -1    0    0  501    0  0.00000000000E+00  0.00000000000E+00 -0.24262861180E+04  0.24262861180E+04  0.25500000920E-02 0.  1.
    10030    2    1    2    0    0  0.00000000000E+00  0.00000000000E+00 -0.12445098711E+04  0.36080623648E+04  0.33866368582E+04 0.  0.
        2    1    3    3  502    0  0.46730384602E+00  0.10492359802E+04  0.79371403615E+03  0.13156284930E+04  0.25500000920E-02 0. -1.
       -2    1    3    3    0  502 -0.46730384602E+00 -0.10492359802E+04 -0.20382239072E+04  0.22924338718E+04  0.25500000920E-02 0.  1.
</event>
<event>
 5   0  0.6218695E-07  0.3399805E+04  0.7818609E-02  0.8137954E-01
        1   -1    0    0  501    0  0.00000000000E+00  0.00000000000E+00  0.21724173194E+04  0.21724173195E+04  0.50400001928E-02 0.  1.
       -1   -1    0    0    0  501  0.00000000000E+00  0.00000000000E+00 -0.13301624215E+04  0.13301624215E+04  0.50400001928E-02 0. -1.
    10030    2    1    2    0    0  0.00000000000E+00  0.00000000000E+00  0.84225489798E+03  0.35025797409E+04  0.33998046309E+04 0.  0.
        2    1    3    3  502    0 -0.55107943642E+03  0.37091444430E+03 -0.11909110755E+04  0.13636477771E+04  0.25500000920E-02 0. -1.
       -2    1    3    3    0  502  0.55107943642E+03 -0.37091444430E+03  0.20331659735E+04  0.21389319638E+04  0.25500000920E-02 0.  1.
</event>
<event>
 5   0  0.1339844E-06  0.3400377E+04  0.7818609E-02  0.8137814E-01
       -2   -1    0    0    0  501  0.00000000000E+00  0.00000000000E+00  0.12727667870E+04  0.12727667870E+04  0.25500000920E-02 0.  1.
        2   -1    0    0  501    0  0.00000000000E+00  0.00000000000E+00 -0.22711476300E+04  0.22711476300E+04  0.25500000920E-02 0. -1.
    10030    2    1    2    0    0  0.00000000000E+00  0.00000000000E+00 -0.99838084302E+03  0.35439144170E+04  0.34003771978E+04 0.  0.
        3    1    3    3  502    0 -0.15201642162E+03 -0.16805990094E+04 -0.71560757130E+03  0.18329255929E+04  0.10100000352E+00 0. -1.
       -3    1    3    3    0  502  0.15201642162E+03  0.16805990094E+04 -0.28277327172E+03  0.17109888241E+04  0.10100000352E+00 0.  1.
</event>
<event>
 5   0  0.1339844E-06  0.3403180E+04  0.7818609E-02  0.8137126E-01
        2   -1    0    0  501    0  0.00000000000E+00  0.00000000000E+00  0.18470847089E+04  0.18470847089E+04  0.25500000920E-02 0.  1.
       -2   -1    0    0    0  501  0.00000000000E+00  0.00000000000E+00 -0.15675558946E+04  0.15675558946E+04  0.25500000920E-02 0. -1.
    10030    2    1    2    0    0  0.00000000000E+00  0.00000000000E+00  0.27952881433E+03  0.34146406035E+04  0.34031799972E+04 0.  0.
        3    1    3    3  502    0  0.74353440530E+03  0.38959723216E+03  0.16248769795E+04  0.18288943720E+04  0.10100000352E+00 0.  1.
       -3    1    3    3    0  502 -0.74353440530E+03 -0.38959723216E+03 -0.13453481652E+04  0.15857462316E+04  0.10100000352E+00 0. -1.
</event>
<event>
 5   0  0.6134625E-07  0.3387874E+04  0.7818609E-02  0.8140889E-01
        1   -1    0    0  501    0  0.00000000000E+00  0.00000000000E+00  0.21638019562E+04  0.21638019562E+04  0.50400001928E-02 0. -1.
       -1   -1    0    0    0  501  0.00000000000E+00  0.00000000000E+00 -0.13261023088E+04  0.13261023088E+04  0.50400001928E-02 0.  1.
    10030    2    1    2    0    0  0.00000000000E+00  0.00000000000E+00  0.83769964744E+03  0.34899042651E+04  0.33878741240E+04 0.  0.
        3    1    3    3  502    0 -0.33009205074E+03 -0.13503196393E+03 -0.12869892468E+04  0.13354908180E+04  0.10100000352E+00 0.  1.
       -3    1    3    3    0  502  0.33009205074E+03  0.13503196393E+03  0.21246888943E+04  0.21544134471E+04  0.10100000352E+00 0. -1.
</event>
<event>
 5   0  0.6134625E-07  0.3342173E+04  0.7818609E-02  0.8152247E-01
       -1   -1    0    0    0  501  0.00000000000E+00  0.00000000000E+00  0.16125756636E+04  0.16125756636E+04  0.50400001928E-02 0. -1.
        1   -1    0    0  501    0  0.00000000000E+00  0.00000000000E+00 -0.17317207165E+04  0.17317207165E+04  0.50400001928E-02 0.  1.
    10030    2    1    2    0    0  0.00000000000E+00  0.00000000000E+00 -0.11914505292E+03  0.33442963801E+04  0.33421733549E+04 0.  0.
        1    1    3    3  502    0  0.94707101922E+03 -0.51522225144E+03  0.12180052025E+04  0.16266327665E+04  0.50400001928E-02 0. -1.
       -1    1    3    3    0  502 -0.94707101922E+03  0.51522225144E+03 -0.13371502554E+04  0.17176636135E+04  0.50400001928E-02 0.  1.
</event>
<event>
 5   0  0.1339844E-06  0.3388241E+04  0.7818609E-02  0.8140798E-01
       -2   -1    0    0    0  501  0.00000000000E+00  0.00000000000E+00  0.11458599169E+04  0.11458599169E+04  0.25500000920E-02 0.  1.
        2   -1    0    0  501    0  0.00000000000E+00  0.00000000000E+00 -0.25047085158E+04  0.25047085158E+04  0.25500000920E-02 0. -1.
    10030    2    1    2    0    0  0.00000000000E+00  0.00000000000E+00 -0.13588485990E+04  0.36505684327E+04  0.33882414859E+04 0.  0.
        3    1    3    3  502    0 -0.73273993508E+02  0.14074029099E+04 -0.16923696108E+04  0.22023321590E+04  0.10100000352E+00 0. -1.
       -3    1    3    3    0  502  0.73273993508E+02 -0.14074029099E+04  0.33352101181E+03  0.14482362737E+04  0.10100000352E+00 0.  1.
</event>
<event>
 5   0  0.1880301E-06  0.3370220E+04  0.7818609E-02  0.8145254E-01
        2   -1    0    0  501    0  0.00000000000E+00  0.00000000000E+00  0.17858993676E+04  0.17858993676E+04  0.25500000920E-02 0. -1.
       -2   -1    0    0    0  501  0.00000000000E+00  0.00000000000E+00 -0.15900086123E+04  0.15900086123E+04  0.25500000920E-02 0.  1.
    10030    2    1    2    0    0  0.00000000000E+00  0.00000000000E+00  0.19589075534E+03  0.33759079799E+04  0.33702198001E+04 0.  0.
        4    1    3    3  502    0 -0.32933508989E+03 -0.78098309865E+03 -0.13609459207E+04  0.16033002257E+04  0.12699999809E+01 0.  1.
       -4    1    3    3    0  502  0.32933508989E+03  0.78098309865E+03  0.15568366760E+04  0.17726077543E+04  0.12699999809E+01 0. -1.
</event>
<event>
 5   0  0.1948507E-06  0.2748616E+04  0.7818609E-02  0.8319401E-01
        2   -1    0    0  501    0  0.00000000000E+00  0.00000000000E+00  0.20169733201E+04  0.20169733201E+04  0.25500000920E-02 0. -1.
       -2   -1    0    0    0  501  0.00000000000E+00  0.00000000000E+00 -0.93641410880E+03  0.93641410880E+03  0.25500000920E-02 0.  1.
    10030    2    1    2    0    0  0.00000000000E+00  0.00000000000E+00  0.10805592113E+04  0.29533874289E+04  0.27486158510E+04 0.  0.
        1    1    3    3  502    0 -0.90154050513E+03 -0.55612565858E+03 -0.40054997204E+03  0.11324713288E+04  0.50400001928E-02 0.  1.
       -1    1    3    3    0  502  0.90154050513E+03  0.55612565858E+03  0.14811091834E+04  0.18209161001E+04  0.50400001928E-02 0. -1.
</event>
<event>
 5   0  0.1797075E-06  0.3388624E+04  0.7818609E-02  0.8140704E-01
       -2   -1    0    0    0  501  0.00000000000E+00  0.00000000000E+00  0.23940191435E+04  0.23940191435E+04  0.25500000920E-02 0.  1.
        2   -1    0    0  501    0  0.00000000000E+00  0.00000000000E+00 -0.11991104296E+04  0.11991104296E+04  0.25500000920E-02 0. -1.
    10030    2    1    2    0    0  0.00000000000E+00  0.00000000000E+00  0.11949087139E+04  0.35931295731E+04  0.33886241005E+04 0.  0.
        2    1    3    3  502    0 -0.28047479440E+01  0.14131328198E+04 -0.39369901680E+03  0.14669530153E+04  0.25500000920E-02 0. -1.
       -2    1    3    3    0  502  0.28047479440E+01 -0.14131328198E+04  0.15886077307E+04  0.21261765578E+04  0.25500000920E-02 0.  1.
</event>
<event>
 5   0  0.6146388E-07  0.3389249E+04  0.7818609E-02  0.8140550E-01
        1   -1    0    0  501    0  0.00000000000E+00  0.00000000000E+00  0.21673984797E+04  0.21673984797E+04  0.50400001928E-02 0. -1.
       -1   -1    0    0    0  501  0.00000000000E+00  0.00000000000E+00 -0.13249766404E+04  0.13249766404E+04  0.50400001928E-02 0.  1.
    10030    2    1    2    0    0  0.00000000000E+00  0.00000000000E+00  0.84242183925E+03  0.34923751201E+04  0.33892490945E+04 0.  0.
        4    1    3    3  502    0  0.66605476003E+03  0.18069377577E+03 -0.11736136085E+04  0.13614880458E+04  0.12699999809E+01 0.  1.
       -4    1    3    3    0  502 -0.66605476003E+03 -0.18069377577E+03  0.20160354477E+04  0.21308870743E+04  0.12699999809E+01 0. -1.
</event>
<event>
 5   0  0.1880301E-06  0.3413838E+04  0.7818609E-02  0.8134518E-01
        2   -1    0    0  501    0  0.00000000000E+00  0.00000000000E+00  0.21118061823E+04  0.21118061823E+04  0.25500000920E-02 0.  1.
       -2   -1    0    0    0  501  0.00000000000E+00  0.00000000000E+00 -0.13796590336E+04  0.13796590336E+04  0.25500000920E-02 0. -1.
    10030    2    1    2    0    0  0.00000000000E+00  0.00000000000E+00  0.73214714869E+03  0.34914652158E+04  0.34138380023E+04 0.  0.
        4    1    3    3  502    0  0.51889753062E+03  0.15962655913E+04  0.68337392038E+03  0.18122692993E+04  0.12699999809E+01 0.  1.
       -4    1    3    3    0  502 -0.51889753062E+03 -0.15962655913E+04  0.48773228310E+02  0.16791959165E+04  0.12699999809E+01 0. -1.
</event>
<event>
 5   0  0.1880301E-06  0.3301210E+04  0.7818609E-02  0.8162588E-01
       -2   -1    0    0    0  501  0.00000000000E+00  0.00000000000E+00  0.99776794797E+03  0.99776794797E+03  0.25500000920E-02 0.  1.
        2   -1    0    0  501    0  0.00000000000E+00  0.00000000000E+00 -0.27305919836E+04  0.27305919836E+04  0.25500000920E-02 0. -1.
    10030    2    1    2    0    0  0.00000000000E+00  0.00000000000E+00 -0.17328240356E+04  0.37283599315E+04  0.33012101782E+04 0.  0.
        4    1    3    3  502    0  0.89355212933E+03 -0.34722622405E+03  0.65113687428E+03  0.11588711319E+04  0.12699999809E+01 0.  1.
       -4    1    3    3    0  502 -0.89355212933E+03  0.34722622405E+03 -0.23839609099E+04  0.25694887996E+04  0.12699999809E+01 0. -1.
</event>
<event>
 5   0  0.1339844E-06  0.3076096E+04  0.7818609E-02  0.8222329E-01
       -2   -1    0    0    0  501  0.00000000000E+00  0.00000000000E+00  0.10271350032E+04  0.10271350032E+04  0.25500000920E-02 0.  1.
        2   -1    0    0  501    0  0.00000000000E+00  0.00000000000E+00 -0.23030975898E+04  0.23030975898E+04  0.25500000920E-02 0. -1.
    10030    2    1    2    0    0  0.00000000000E+00  0.00000000000E+00 -0.12759625866E+04  0.33302325930E+04  0.30760963251E+04 0.  0.
        3    1    3    3  502    0 -0.79499499445E+03 -0.10556712936E+04  0.21387569224E+03  0.13387313933E+04  0.10100000352E+00 0.  1.
       -3    1    3    3    0  502  0.79499499445E+03  0.10556712936E+04 -0.14898382789E+04  0.19915011998E+04  0.10100000352E+00 0. -1.
</event>
<event>
 5   0  0.6134625E-07  0.3382050E+04  0.7818609E-02  0.8142326E-01
        1   -1    0    0  501    0  0.00000000000E+00  0.00000000000E+00  0.19450740809E+04  0.19450740809E+04  0.50400001928E-02 0.  1.
       -1   -1    0    0    0  501  0.00000000000E+00  0.00000000000E+00 -0.14701573556E+04  0.14701573556E+04  0.50400001928E-02 0. -1.
    10030    2    1    2    0    0  0.00000000000E+00  0.00000000000E+00  0.47491672525E+03  0.34152314365E+04  0.33820496550E+04 0.  0.
        3    1    3    3  502    0  0.24225960764E+03  0.77220690281E+03 -0.12618890609E+04  0.14991188180E+04  0.10100000352E+00 0. -1.
       -3    1    3    3    0  502 -0.24225960764E+03 -0.77220690281E+03  0.17368057861E+04  0.19161126186E+04  0.10100000352E+00 0.  1.
</event>
<event>
 5   0  0.1911477E-06  0.3417729E+04  0.7818609E-02  0.8133569E-01
        2   -1    0    0  501    0  0.00000000000E+00  0.00000000000E+00  0.24878636798E+04  0.24878636798E+04  0.25500000920E-02 0.  1.
       -2   -1    0    0    0  501  0.00000000000E+00  0.00000000000E+00 -0.11737851176E+04  0.11737851176E+04  0.25500000920E-02 0. -1.
    10030    2    1    2    0    0  0.00000000000E+00  0.00000000000E+00  0.13140785622E+04  0.36616487974E+04  0.34177286972E+04 0.  0.
        5    1    3    3  502    0  0.46024047162E+03  0.28252225962E+03  0.23940306045E+04  0.24541892234E+04  0.46999998093E+01 0.  1.
       -5    1    3    3    0  502 -0.46024047162E+03 -0.28252225962E+03 -0.10799520424E+04  0.12074595739E+04  0.46999998093E+01 0. -1.
</event>
<event>
 5   0  0.1948507E-06  0.3413447E+04  0.7818609E-02  0.8134614E-01
       -2   -1    0    0    0  501  0.00000000000E+00  0.00000000000E+00  0.10622715112E+04  0.10622715112E+04  0.25500000920E-02 0. -1.
        2   -1    0    0  501    0  0.00000000000E+00  0.00000000000E+00 -0.27421480639E+04  0.27421480639E+04  0.25500000920E-02 0.  1.
    10030    2    1    2    0    0  0.00000000000E+00  0.00000000000E+00 -0.16798765527E+04  0.38044195751E+04  0.34134473881E+04 0.  0.
        1    1    3    3  502    0  0.80156075849E+03 -0.78917961254E+03 -0.22705484340E+04  0.25339088976E+04  0.50400001928E-02 0.  1.
       -1    1    3    3    0  502 -0.80156075849E+03  0.78917961254E+03  0.59067188124E+03  0.12705106775E+04  0.50400001928E-02 0. -1.
</event>
<event>
 5   0  0.1880301E-06  0.3069933E+04  0.7818609E-02  0.8224038E-01
       -2   -1    0    0    0  501  0.00000000000E+00  0.00000000000E+00  0.15138293525E+04  0.15138293525E+04  0.25500000920E-02 0. -1.
        2   -1    0    0  501    0  0.00000000000E+00  0.00000000000E+00 -0.15563983539E+04  0.15563983539E+04  0.25500000920E-02 0.  1.
    10030    2    1    2    0    0  0.00000000000E+00  0.00000000000E+00 -0.42569001473E+02  0.30702277064E+04  0.30699325806E+04 0.  0.
        4    1    3    3  502    0  0.22622066450E+03 -0.58559920822E+03  0.13795705704E+04  0.15156908634E+04  0.12699999809E+01 0. -1.
       -4    1    3    3    0  502 -0.22622066450E+03  0.58559920822E+03 -0.14221395719E+04  0.15545368431E+04  0.12699999809E+01 0.  1.
</event>
<event>
 5   0  0.1339844E-06  0.2610710E+04  0.7818609E-02  0.8364572E-01
       -2   -1    0    0    0  501  0.00000000000E+00  0.00000000000E+00  0.98167518840E+03  0.98167518841E+03  0.25500000920E-02 0. -1.
        2   -1    0    0  501    0  0.00000000000E+00  0.00000000000E+00 -0.17357590191E+04  0.17357590191E+04  0.25500000920E-02 0.  1.
    10030    2    1    2    0    0  0.00000000000E+00  0.00000000000E+00 -0.75408383072E+03  0.27174342075E+04  0.26107099127E+04 0.  0.
        3    1    3    3  502    0 -0.98294968628E+03 -0.37472766631E+03 -0.11815148773E+04  0.15819571186E+04  0.10100000352E+00 0.  1.
       -3    1    3    3    0  502  0.98294968628E+03  0.37472766631E+03  0.42743104658E+03  0.11354770889E+04  0.10100000352E+00 0. -1.
</event>
<event>
 5   0  0.6134625E-07  0.3421237E+04  0.7818609E-02  0.8132714E-01
        1   -1    0    0  501    0  0.00000000000E+00  0.00000000000E+00  0.15806072021E+04  0.15806072021E+04  0.50400001928E-02 0.  1.
       -1   -1    0    0    0  501  0.00000000000E+00  0.00000000000E+00 -0.18513239988E+04  0.18513239988E+04  0.50400001928E-02 0. -1.
    10030    2    1    2    0    0  0.00000000000E+00  0.00000000000E+00 -0.27071679666E+03  0.34319312009E+04  0.34212372300E+04 0.  0.
        1    1    3    3  502    0 -0.71045639019E+03 -0.65372160162E+03 -0.15519040470E+04  0.18277052240E+04  0.50400001928E-02 0. -1.
       -1    1    3    3    0  502  0.71045639019E+03  0.65372160162E+03  0.12811872503E+04  0.16042259770E+04  0.50400001928E-02 0.  1.
</event>
<event>
 5   0  0.1797075E-06  0.3399302E+04  0.7818609E-02  0.8138078E-01
       -2   -1    0    0    0  501  0.00000000000E+00  0.00000000000E+00  0.11654516705E+04  0.11654516705E+04  0.25500000920E-02 0.  1.
        2   -1    0    0  501    0  0.00000000000E+00  0.00000000000E+00 -0.24787073311E+04  0.24787073311E+04  0.25500000920E-02 0. -1.
    10030    2    1    2    0    0  0.00000000000E+00  0.00000000000E+00 -0.13132556606E+04  0.36441590016E+04  0.33993020459E+04 0.  0.
        2    1    3    3  502    0 -0.40966926981E+03 -0.16272157434E+04 -0.94657939341E+03  0.19265701477E+04  0.25500000920E-02 0. -1.
       -2    1    3    3    0  502  0.40966926981E+03  0.16272157434E+04 -0.36667626717E+03  0.17175888539E+04  0.25500000920E-02 0.  1.
</event>
<event>
 5   0  0.6146388E-07  0.3388992E+04  0.7818609E-02  0.8140613E-01
       -1   -1    0    0    0  501  0.00000000000E+00  0.00000000000E+00  0.18276047469E+04  0.18276047469E+04  0.50400001928E-02 0. -1.
        1   -1    0    0  501    0  0.00000000000E+00  0.00000000000E+00 -0.15710819420E+04  0.15710819420E+04  0.50400001928E-02 0.  1.
    10030    2    1    2    0    0  0.00000000000E+00  0.00000000000E+00  0.25652280486E+03  0.33986866890E+04  0.33889920714E+04 0.  0.
        4    1    3    3  502    0  0.16637053135E+04  0.74903767557E+01 -0.19412939501E+03  0.16750102420E+04  0.12699999809E+01 0. -1.
       -4    1    3    3    0  502 -0.16637053135E+04 -0.74903767557E+01  0.45065219987E+03  0.17236764470E+04  0.12699999809E+01 0.  1.
</event>
<event>
 5   0  0.6218695E-07  0.3412335E+04  0.7818609E-02  0.8134885E-01
       -1   -1    0    0    0  501  0.00000000000E+00  0.00000000000E+00  0.21363074137E+04  0.21363074137E+04  0.50400001928E-02 0. -1.
        1   -1    0    0  501    0  0.00000000000E+00  0.00000000000E+00 -0.13626354213E+04  0.13626354213E+04  0.50400001928E-02 0.  1.
    10030    2    1    2    0    0  0.00000000000E+00  0.00000000000E+00  0.77367199239E+03  0.34989428350E+04  0.34123353602E+04 0.  0.
        2    1    3    3  502    0 -0.14936756147E+04  0.12042960382E+02 -0.45858792456E+03  0.15625347226E+04  0.25500000920E-02 0.  1.
       -2    1    3    3    0  502  0.14936756147E+04 -0.12042960382E+02  0.12322599170E+04  0.19364081124E+04  0.25500000920E-02 0. -1.
</event>
<event>
 5   0  0.1339844E-06  0.3383086E+04  0.7818609E-02  0.8142070E-01
       -2   -1    0    0    0  501  0.00000000000E+00  0.00000000000E+00  0.12353735762E+04  0.12353735762E+04  0.25500000920E-02 0. -1.
        2   -1    0    0  501    0  0.00000000000E+00  0.00000000000E+00 -0.23161556066E+04  0.23161556066E+04  0.25500000920E-02 0.  1.
    10030    2    1    2    0    0  0.00000000000E+00  0.00000000000E+00 -0.10807820304E+04  0.35515291828E+04  0.33830858309E+04 0.  0.
        3    1    3    3  502    0 -0.12570150674E+04  0.88326872808E+03  0.20271406140E+03  0.15496268991E+04  0.10100000352E+00 0. -1.
       -3    1    3    3    0  502  0.12570150674E+04 -0.88326872808E+03 -0.12834960918E+04  0.20019022837E+04  0.10100000352E+00 0.  1.
</event>
<event>
 5   0  0.6134625E-07  0.3379048E+04  0.7818609E-02  0.8143068E-01
        1   -1    0    0  501    0  0.00000000000E+00  0.00000000000E+00  0.19615925054E+04  0.19615925054E+04  0.50400001928E-02 0.  1.
       -1   -1    0    0    0  501  0.00000000000E+00  0.00000000000E+00 -0.14551910286E+04  0.14551910286E+04  0.50400001928E-02 0. -1.
    10030    2    1    2    0    0  0.00000000000E+00  0.00000000000E+00  0.50640147684E+03  0.34167835340E+04  0.33790482776E+04 0.  0.
        1    1    3    3  502    0  0.82206064992E+03 -0.11620331954E+04 -0.66712103032E+03  0.15719908805E+04  0.50400001928E-02 0.  1.
       -1    1    3    3    0  502 -0.82206064992E+03  0.11620331954E+04  0.11735225072E+04  0.18447926535E+04  0.50400001928E-02 0. -1.
</event>
<event>
 5   0  0.1880301E-06  0.3505726E+04  0.7818609E-02  0.8112434E-01
        2   -1    0    0  501    0  0.00000000000E+00  0.00000000000E+00  0.23489876653E+04  0.23489876653E+04  0.25500000920E-02 0. -1.
       -2   -1    0    0    0  501  0.00000000000E+00  0.00000000000E+00 -0.13080227535E+04  0.13080227536E+04  0.25500000920E-02 0.  1.
    10030    2    1    2    0    0  0.00000000000E+00  0.00000000000E+00  0.10409649117E+04  0.36570104188E+04  0.35057263521E+04 0.  0.
        4    1    3    3  502    0  0.13091965462E+04  0.26056850936E+03 -0.66460417325E+03  0.14911713063E+04  0.12699999809E+01 0.  1.
       -4    1    3    3    0  502 -0.13091965462E+04 -0.26056850936E+03  0.17055690850E+04  0.21658391125E+04  0.12699999809E+01 0. -1.
</event>
<event>
 5   0  0.6134625E-07  0.3393032E+04  0.7818609E-02  0.8139619E-01
        1   -1    0    0  501    0  0.00000000000E+00  0.00000000000E+00  0.18332688475E+04  0.18332688475E+04  0.50400001928E-02 0. -1.
       -1   -1    0    0    0  501  0.00000000000E+00  0.00000000000E+00 -0.15699642862E+04  0.15699642862E+04  0.50400001928E-02 0.  1.
    10030    2    1    2    0    0  0.00000000000E+00  0.00000000000E+00  0.26330456137E+03  0.34032331337E+04  0.33930320468E+04 0.  0.
        5    1    3    3  502    0  0.62583421245E+03 -0.11241059231E+04  0.12408078225E+04  0.17874307623E+04  0.46999998093E+01 0. -1.
       -5    1    3    3    0  502 -0.62583421245E+03  0.11241059231E+04 -0.97750326111E+03  0.16158023714E+04  0.46999998093E+01 0.  1.
</event>
<event>
 5   0  0.1339844E-06  0.3381071E+04  0.7818609E-02  0.8142568E-01
       -2   -1    0    0    0  501  0.00000000000E+00  0.00000000000E+00  0.27106588477E+04  0.27106588477E+04  0.25500000920E-02 0. -1.
        2   -1    0    0  501    0  0.00000000000E+00  0.00000000000E+00 -0.10543229271E+04  0.10543229271E+04  0.25500000920E-02 0.  1.
    10030    2    1    2    0    0  0.00000000000E+00  0.00000000000E+00  0.16563359206E+04  0.37649817749E+04  0.33810707007E+04 0.  0.
        3    1    3    3  502    0  0.89273309000E+03 -0.59867370183E+03  0.22811346374E+04  0.25216974076E+04  0.10100000352E+00 0. -1.
       -3    1    3    3    0  502 -0.89273309000E+03  0.59867370183E+03 -0.62479871679E+03  0.12432843673E+04  0.10100000352E+00 0.  1.
</event>
<event>
 5   0  0.1339844E-06  0.3436226E+04  0.7818609E-02  0.8129072E-01
        2   -1    0    0  501    0  0.00000000000E+00  0.00000000000E+00  0.27371103802E+04  0.27371103802E+04  0.25500000920E-02 0.  1.
       -2   -1    0    0    0  501  0.00000000000E+00  0.00000000000E+00 -0.10784773432E+04  0.10784773432E+04  0.25500000920E-02 0. -1.
    10030    2    1    2    0    0  0.00000000000E+00  0.00000000000E+00  0.16586330370E+04  0.38155877234E+04  0.34362255635E+04 0.  0.
        3    1    3    3  502    0  0.49976627408E+03 -0.12087948005E+04  0.20662852635E+04  0.24455032200E+04  0.10100000352E+00 0.  1.
       -3    1    3    3    0  502 -0.49976627408E+03  0.12087948005E+04 -0.40765222657E+03  0.13700845034E+04  0.10100000352E+00 0. -1.
</event>
<event>
 5   0  0.6134625E-07  0.3390106E+04  0.7818609E-02  0.8140339E-01
       -1   -1    0    0    0  501  0.00000000000E+00  0.00000000000E+00  0.12097709711E+04  0.12097709711E+04  0.50400001928E-02 0. -1.
        1   -1    0    0  501    0  0.00000000000E+00  0.00000000000E+00 -0.23749983284E+04  0.23749983285E+04  0.50400001928E-02 0.  1.
    10030    2    1    2    0    0  0.00000000000E+00  0.00000000000E+00 -0.11652273573E+04  0.35847692996E+04  0.33901056233E+04 0.  0.
        3    1    3    3  502    0 -0.40847135535E+03 -0.16450999450E+04 -0.58138656780E+03  0.17919857781E+04  0.10100000352E+00 0. -1.
       -3    1    3    3    0  502  0.40847135535E+03  0.16450999450E+04 -0.58384078954E+03  0.17927835215E+04  0.10100000352E+00 0.  1.
</event>
<event>
 5   0  0.1797075E-06  0.3309418E+04  0.7818609E-02  0.8160503E-01
        2   -1    0    0  501    0  0.00000000000E+00  0.00000000000E+00  0.18953451250E+04  0.18953451250E+04  0.25500000920E-02 0. -1.
       -2   -1    0    0    0  501  0.00000000000E+00  0.00000000000E+00 -0.14446242519E+04  0.14446242519E+04  0.25500000920E-02 0.  1.
    10030    2    1    2    0    0  0.00000000000E+00  0.00000000000E+00  0.45072087313E+03  0.33399693768E+04  0.33094177936E+04 0.  0.
        2    1    3    3  502    0  0.15951007610E+03  0.11801058851E+03 -0.14325746155E+04  0.14462503214E+04  0.25500000920E-02 0.  1.
       -2    1    3    3    0  502 -0.15951007610E+03 -0.11801058851E+03  0.18832954886E+04  0.18937190554E+04  0.25500000920E-02 0. -1.
</event>
<event>
 5   0  0.1880301E-06  0.3435980E+04  0.7818609E-02  0.8129132E-01
       -2   -1    0    0    0  501  0.00000000000E+00  0.00000000000E+00  0.14924192855E+04  0.14924192855E+04  0.25500000920E-02 0. -1.
        2   -1    0    0  501    0  0.00000000000E+00  0.00000000000E+00 -0.19776545376E+04  0.19776545376E+04  0.25500000920E-02 0.  1.
    10030    2    1    2    0    0  0.00000000000E+00  0.00000000000E+00 -0.48523525213E+03  0.34700738231E+04  0.34359800768E+04 0.  0.
        4    1    3    3  502    0 -0.24369117455E+03  0.23200804741E+03  0.14588171920E+04  0.14971180098E+04  0.12699999809E+01 0. -1.
       -4    1    3    3    0  502  0.24369117455E+03 -0.23200804741E+03 -0.19440524442E+04  0.19729558133E+04  0.12699999809E+01 0.  1.
</event>
<event>
 5   0  0.1880301E-06  0.3394848E+04  0.7818609E-02  0.8139172E-01
       -2   -1    0    0    0  501  0.00000000000E+00  0.00000000000E+00  0.10360995823E+04  0.10360995823E+04  0.25500000920E-02 0.  1.
        2   -1    0    0  501    0  0.00000000000E+00  0.00000000000E+00 -0.27808597711E+04  0.27808597711E+04  0.25500000920E-02 0. -1.
    10030    2    1    2    0    0  0.00000000000E+00  0.00000000000E+00 -0.17447601888E+04  0.38169593534E+04  0.33948476533E+04 0.  0.
        4    1    3    3  502    0  0.92366834660E+02 -0.34355658948E+03 -0.27384722246E+04  0.27614841119E+04  0.12699999809E+01 0. -1.
       -4    1    3    3    0  502 -0.92366834660E+02  0.34355658948E+03  0.99371203583E+03  0.10554752415E+04  0.12699999809E+01 0.  1.
</event>
<event>
 5   0  0.6218695E-07  0.3393944E+04  0.7818609E-02  0.8139394E-01
       -1   -1    0    0    0  501  0.00000000000E+00  0.00000000000E+00  0.15445300087E+04  0.15445300088E+04  0.50400001928E-02 0. -1.
        1   -1    0    0  501    0  0.00000000000E+00  0.00000000000E+00 -0.18644597170E+04  0.18644597170E+04  0.50400001928E-02 0.  1.
    10030    2    1    2    0    0  0.00000000000E+00  0.00000000000E+00 -0.31992970829E+03  0.34089897258E+04  0.33939440084E+04 0.  0.
        2    1    3    3  502    0  0.89659144876E+03 -0.12247315833E+04 -0.92219015730E+03  0.17760288183E+04  0.25500000920E-02 0.  1.
       -2    1    3    3    0  502 -0.89659144876E+03  0.12247315833E+04  0.60226044901E+03  0.16329609075E+04  0.25500000920E-02 0. -1.
</event>
<event>
 5   0  0.6134625E-07  0.3216944E+04  0.7818609E-02  0.8184357E-01
       -1   -1    0    0    0  501  0.00000000000E+00  0.00000000000E+00  0.11505601268E+04  0.11505601268E+04  0.50400001928E-02 0. -1.
        1   -1    0    0  501    0  0.00000000000E+00  0.00000000000E+00 -0.22486283409E+04  0.22486283409E+04  0.50400001928E-02 0.  1.
    10030    2    1    2    0    0  0.00000000000E+00  0.00000000000E+00 -0.10980682141E+04  0.33991884677E+04  0.32169439591E+04 0.  0.
        3    1    3    3  502    0  0.68343416908E+02 -0.90986573634E+03  0.85064247006E+03  0.12474450300E+04  0.10100000352E+00 0. -1.
       -3    1    3    3    0  502 -0.68343416908E+02  0.90986573634E+03 -0.19487106841E+04  0.21517434377E+04  0.10100000352E+00 0.  1.
</event>
<event>
 5   0  0.6146388E-07  0.3427127E+04  0.7818609E-02  0.8131280E-01
       -1   -1    0    0    0  501  0.00000000000E+00  0.00000000000E+00  0.15793896635E+04  0.15793896635E+04  0.50400001928E-02 0. -1.
        1   -1    0    0  501    0  0.00000000000E+00  0.00000000000E+00 -0.18591353690E+04  0.18591353691E+04  0.50400001928E-02 0.  1.
    10030    2    1    2    0    0  0.00000000000E+00  0.00000000000E+00 -0.27974570553E+03  0.34385250326E+04  0.34271266011E+04 0.  0.
        4    1    3    3  502    0  0.33220943923E+01  0.14615963862E+04 -0.10372875005E+04  0.17922728598E+04  0.12699999809E+01 0.  1.
       -4    1    3    3    0  502 -0.33220943923E+01 -0.14615963862E+04  0.75754179495E+03  0.16462521728E+04  0.12699999809E+01 0. -1.
</event>
<event>
 5   0  0.6218695E-07  0.3457757E+04  0.7818609E-02  0.8123875E-01
        1   -1    0    0  501    0  0.00000000000E+00  0.00000000000E+00  0.20831409832E+04  0.20831409832E+04  0.50400001928E-02 0. -1.
       -1   -1    0    0    0  501  0.00000000000E+00  0.00000000000E+00 -0.14348627316E+04  0.14348627316E+04  0.50400001928E-02 0.  1.
    10030    2    1    2    0    0  0.00000000000E+00  0.00000000000E+00  0.64827825157E+03  0.35180037148E+04  0.34577572856E+04 0.  0.
        2    1    3    3  502    0 -0.80878886049E+02 -0.10343312223E+04  0.17312174721E+04  0.20182904665E+04  0.25500000920E-02 0. -1.
       -2    1    3    3    0  502  0.80878886049E+02  0.10343312223E+04 -0.10829392205E+04  0.14997132483E+04  0.25500000920E-02 0.  1.
</event>
<event>
 5   0  0.6146388E-07  0.3403860E+04  0.7818609E-02  0.8136960E-01
        1   -1    0    0  501    0  0.00000000000E+00  0.00000000000E+00  0.91901757143E+03  0.91901757144E+03  0.50400001928E-02 0. -1.
       -1   -1    0    0    0  501  0.00000000000E+00  0.00000000000E+00 -0.31518070300E+04  0.31518070300E+04  0.50400001928E-02 0.  1.
    10030    2    1    2    0    0  0.00000000000E+00  0.00000000000E+00 -0.22327894585E+04  0.40708246014E+04  0.34038601865E+04 0.  0.
        4    1    3    3  502    0  0.13293508343E+04  0.41992675624E+03  0.51137951907E+02  0.13950372125E+04  0.12699999809E+01 0. -1.
       -4    1    3    3    0  502 -0.13293508343E+04 -0.41992675624E+03 -0.22839274104E+04  0.26757873889E+04  0.12699999809E+01 0.  1.
</event>
<event>
 5   0  0.1797075E-06  0.3439571E+04  0.7818609E-02  0.8128262E-01
       -2   -1    0    0    0  501  0.00000000000E+00  0.00000000000E+00  0.95562037235E+03  0.95562037235E+03  0.25500000920E-02 0. -1.
        2   -1    0    0  501    0  0.00000000000E+00  0.00000000000E+00 -0.30950176251E+04  0.30950176251E+04  0.25500000920E-02 0.  1.
    10030    2    1    2    0    0  0.00000000000E+00  0.00000000000E+00 -0.21393972528E+04  0.40506379975E+04  0.34395708426E+04 0.  0.
        2    1    3    3  502    0 -0.82803691721E+03 -0.16058574866E+03  0.69530737434E+03  0.10931080751E+04  0.25500000920E-02 0. -1.
       -2    1    3    3    0  502  0.82803691721E+03  0.16058574866E+03 -0.28347046271E+04  0.29575299224E+04  0.25500000920E-02 0.  1.
</event>
<event>
 5   0  0.6218695E-07  0.3418177E+04  0.7818609E-02  0.8133460E-01
       -1   -1    0    0    0  501  0.00000000000E+00  0.00000000000E+00  0.22838297993E+04  0.22838297994E+04  0.50400001928E-02 0. -1.
        1   -1    0    0  501    0  0.00000000000E+00  0.00000000000E+00 -0.12789845657E+04  0.12789845657E+04  0.50400001928E-02 0.  1.
    10030    2    1    2    0    0  0.00000000000E+00  0.00000000000E+00  0.10048452336E+04  0.35628143651E+04  0.34181767445E+04 0.  0.
        2    1    3    3  502    0  0.82674080777E+03 -0.14950162804E+04  0.55358126849E+03  0.17958358117E+04  0.25500000920E-02 0. -1.
       -2    1    3    3    0  502 -0.82674080777E+03  0.14950162804E+04  0.45126396515E+03  0.17669785534E+04  0.25500000920E-02 0.  1.
</event>
<event>
 5   0  0.1797075E-06  0.3417990E+04  0.7818609E-02  0.8133505E-01
        2   -1    0    0  501    0  0.00000000000E+00  0.00000000000E+00  0.29039885825E+04  0.29039885825E+04  0.25500000920E-02 0.  1.
       -2   -1    0    0    0  501  0.00000000000E+00  0.00000000000E+00 -0.10057423890E+04  0.10057423890E+04  0.25500000920E-02 0. -1.
    10030    2    1    2    0    0  0.00000000000E+00  0.00000000000E+00  0.18982461934E+04  0.39097309715E+04  0.34179902953E+04 0.  0.
        2    1    3    3  502    0  0.51844982666E+03  0.10934021041E+04 -0.43128766864E+03  0.12846507063E+04  0.25500000920E-02 0. -1.
       -2    1    3    3    0  502 -0.51844982666E+03 -0.10934021041E+04  0.23295338621E+04  0.26250802652E+04  0.25500000920E-02 0.  1.
</event>
<event>
 5   0  0.6146388E-07  0.3416161E+04  0.7818609E-02  0.8133951E-01
        1   -1    0    0  501    0  0.00000000000E+00  0.00000000000E+00  0.17564009443E+04  0.17564009443E+04  0.50400001928E-02 0. -1.
       -1   -1    0    0    0  501  0.00000000000E+00  0.00000000000E+00 -0.16610894562E+04  0.16610894562E+04  0.50400001928E-02 0.  1.
    10030    2    1    2    0    0  0.00000000000E+00  0.00000000000E+00  0.95311488055E+02  0.34174904006E+04  0.34161610556E+04 0.  0.
        4    1    3    3  502    0  0.12867981251E+04 -0.78200557696E+03 -0.75898012990E+03  0.16862486732E+04  0.12699999809E+01 0.  1.
       -4    1    3    3    0  502 -0.12867981251E+04  0.78200557696E+03  0.85429161796E+03  0.17312417274E+04  0.12699999809E+01 0. -1.
</event>
<event>
 5   0  0.6134625E-07  0.3409208E+04  0.7818609E-02  0.8135650E-01
       -1   -1    0    0    0  501  0.00000000000E+00  0.00000000000E+00  0.13234252999E+04  0.13234252999E+04  0.50400001928E-02 0. -1.
        1   -1    0    0  501    0  0.00000000000E+00  0.00000000000E+00 -0.21955714406E+04  0.21955714406E+04  0.50400001928E-02 0.  1.
    10030    2    1    2    0    0  0.00000000000E+00  0.00000000000E+00 -0.87214614070E+03  0.35189967405E+04  0.34092079974E+04 0.  0.
        3    1    3    3  502    0 -0.59438145601E+03  0.78150559695E+03  0.10022256784E+04  0.14030312305E+04  0.10100000352E+00 0. -1.
       -3    1    3    3    0  502  0.59438145601E+03 -0.78150559695E+03 -0.18743718191E+04  0.21159655100E+04  0.10100000352E+00 0.  1.
</event>
<event>
 5   0  0.1797075E-06  0.3277997E+04  0.7818609E-02  0.8168517E-01
        2   -1    0    0  501    0  0.00000000000E+00  0.00000000000E+00  0.88726815293E+03  0.88726815293E+03  0.25500000920E-02 0.  1.
       -2   -1    0    0    0  501  0.00000000000E+00  0.00000000000E+00 -0.30276265915E+04  0.30276265915E+04  0.25500000920E-02 0. -1.
    10030    2    1    2    0    0  0.00000000000E+00  0.00000000000E+00 -0.21403584386E+04  0.39148947445E+04  0.32779973482E+04 0.  0.
        2    1    3    3  502    0  0.39562815116E+03  0.75159496964E+03  0.60392203164E+03  0.10421796643E+04  0.25500000920E-02 0.  1.
       -2    1    3    3    0  502 -0.39562815116E+03 -0.75159496964E+03 -0.27442804702E+04  0.28727150802E+04  0.25500000920E-02 0. -1.
</event>
<event>
 5   0  0.1948507E-06  0.3447679E+04  0.7818609E-02  0.8126303E-01
        2   -1    0    0  501    0  0.00000000000E+00  0.00000000000E+00  0.18380537826E+04  0.18380537826E+04  0.25500000920E-02 0.  1.
       -2   -1    0    0    0  501  0.00000000000E+00  0.00000000000E+00 -0.16167221771E+04  0.16167221771E+04  0.25500000920E-02 0. -1.
    10030    2    1    2    0    0  0.00000000000E+00  0.00000000000E+00  0.22133160549E+03  0.34547759597E+04  0.34476788209E+04 0.  0.
        1    1    3    3  502    0 -0.61606693903E+03 -0.70398817098E+03  0.15615705953E+04  0.18203407765E+04  0.50400001928E-02 0.  1.
       -1    1    3    3    0  502  0.61606693903E+03  0.70398817098E+03 -0.13402389898E+04  0.16344351832E+04  0.50400001928E-02 0. -1.
</event>
<event>
 5   0  0.1339844E-06  0.2587264E+04  0.7818609E-02  0.8372540E-01
        2   -1    0    0  501    0  0.00000000000E+00  0.00000000000E+00  0.17926450004E+04  0.17926450004E+04  0.25500000920E-02 0. -1.
       -2   -1    0    0    0  501  0.00000000000E+00  0.00000000000E+00 -0.93352783533E+03  0.93352783533E+03  0.25500000920E-02 0.  1.
    10030    2    1    2    0    0  0.00000000000E+00  0.00000000000E+00  0.85911716502E+03  0.27261728357E+04  0.25872641973E+04 0.  0.
        3    1    3    3  502    0 -0.45425365016E+03  0.86431164835E+03  0.13237076235E+04  0.16448656136E+04  0.10100000352E+00 0. -1.
       -3    1    3    3    0  502  0.45425365016E+03 -0.86431164835E+03 -0.46459045849E+03  0.10813072221E+04  0.10100000352E+00 0.  1.
</event>
<event>
 5   0  0.6218695E-07  0.3371634E+04  0.7818609E-02  0.8144904E-01
       -1   -1    0    0    0  501  0.00000000000E+00  0.00000000000E+00  0.13870651094E+04  0.13870651094E+04  0.50400001928E-02 0.  1.
        1   -1    0    0  501    0  0.00000000000E+00  0.00000000000E+00 -0.20489152647E+04  0.20489152647E+04  0.50400001928E-02 0. -1.
    10030    2    1    2    0    0  0.00000000000E+00  0.00000000000E+00 -0.66185015532E+03  0.34359803741E+04  0.33716339516E+04 0.  0.
        2    1    3    3  502    0 -0.10845484288E+04  0.91848058815E+03 -0.12549415413E+04  0.18959773620E+04  0.25500000920E-02 0. -1.
       -2    1    3    3    0  502  0.10845484288E+04 -0.91848058815E+03  0.59309138595E+03  0.15400030121E+04  0.25500000920E-02 0.  1.
</event>
<event>
 5   0  0.6134625E-07  0.3076993E+04  0.7818609E-02  0.8222081E-01
        1   -1    0    0  501    0  0.00000000000E+00  0.00000000000E+00  0.26846985184E+04  0.26846985185E+04  0.50400001928E-02 0.  1.
       -1   -1    0    0    0  501  0.00000000000E+00  0.00000000000E+00 -0.88165236768E+03  0.88165236769E+03  0.50400001928E-02 0. -1.
    10030    2    1    2    0    0  0.00000000000E+00  0.00000000000E+00  0.18030461508E+04  0.35663508861E+04  0.30769925611E+04 0.  0.
        1    1    3    3  502    0  0.77834104866E+03 -0.11134745692E+04  0.17383856566E+04  0.22062694975E+04  0.50400001928E-02 0.  1.
       -1    1    3    3    0  502 -0.77834104866E+03  0.11134745692E+04  0.64660494159E+02  0.13600813887E+04  0.50400001928E-02 0. -1.
</event>
<event>
 5   0  0.6134625E-07  0.3380858E+04  0.7818609E-02  0.8142620E-01
        1   -1    0    0  501    0  0.00000000000E+00  0.00000000000E+00  0.24257673278E+04  0.24257673278E+04  0.50400001928E-02 0. -1.
       -1   -1    0    0    0  501  0.00000000000E+00  0.00000000000E+00 -0.11779987364E+04  0.11779987364E+04  0.50400001928E-02 0.  1.
    10030    2    1    2    0    0  0.00000000000E+00  0.00000000000E+00  0.12477685914E+04  0.36037660642E+04  0.33808583804E+04 0.  0.
        3    1    3    3  502    0 -0.13490452919E+04  0.31997561159E+03 -0.40695722343E+03  0.14449642845E+04  0.10100000352E+00 0.  1.
       -3    1    3    3    0  502  0.13490452919E+04 -0.31997561159E+03  0.16547258148E+04  0.21588017797E+04  0.10100000352E+00 0. -1.
</event>
<event>
 5   0  0.1339844E-06  0.3472273E+04  0.7818609E-02  0.8120393E-01
       -2   -1    0    0    0  501  0.00000000000E+00  0.00000000000E+00  0.10004288184E+04  0.10004288184E+04  0.25500000920E-02 0. -1.
        2   -1    0    0  501    0  0.00000000000E+00  0.00000000000E+00 -0.30128775039E+04  0.30128775039E+04  0.25500000920E-02 0.  1.
    10030    2    1    2    0    0  0.00000000000E+00  0.00000000000E+00 -0.20124486855E+04  0.40133063223E+04  0.34722727319E+04 0.  0.
        3    1    3    3  502    0  0.54571042929E+03  0.13982581571E+04  0.22163037551E+01  0.15009765717E+04  0.10100000352E+00 0. -1.
       -3    1    3    3    0  502 -0.54571042929E+03 -0.13982581571E+04 -0.20146649892E+04  0.25123297506E+04  0.10100000352E+00 0.  1.
</event>
<event>
 5   0  0.1797075E-06  0.3481879E+04  0.7818609E-02  0.8118098E-01
        2   -1    0    0  501    0  0.00000000000E+00  0.00000000000E+00  0.21165773510E+04  0.21165773510E+04  0.25500000920E-02 0. -1.
       -2   -1    0    0    0  501  0.00000000000E+00  0.00000000000E+00 -0.14319677271E+04  0.14319677271E+04  0.25500000920E-02 0.  1.
    10030    2    1    2    0    0  0.00000000000E+00  0.00000000000E+00  0.68460962386E+03  0.35485450780E+04  0.34818790665E+04 0.  0.
        2    1    3    3  502    0 -0.15387025532E+04 -0.31340777787E+03 -0.42377924282E+03  0.16264743555E+04  0.25500000920E-02 0.  1.
       -2    1    3    3    0  502  0.15387025532E+04  0.31340777787E+03  0.11083888667E+04  0.19220707225E+04  0.25500000920E-02 0. -1.
</event>
<event>
 5   0  0.1911477E-06  0.3471606E+04  0.7818609E-02  0.8120552E-01
       -2   -1    0    0    0  501  0.00000000000E+00  0.00000000000E+00  0.14096239308E+04  0.14096239308E+04  0.25500000920E-02 0.  1.
        2   -1    0    0  501    0  0.00000000000E+00  0.00000000000E+00 -0.21374585322E+04  0.21374585322E+04  0.25500000920E-02 0. -1.
    10030    2    1    2    0    0  0.00000000000E+00  0.00000000000E+00 -0.72783460143E+03  0.35470824630E+04  0.34716063706E+04 0.  0.
        5    1    3    3  502    0 -0.29724996563E+03  0.71999928034E+03  0.12210114633E+04  0.14483257883E+04  0.46999998093E+01 0.  1.
       -5    1    3    3    0  502  0.29724996563E+03 -0.71999928034E+03 -0.19488460647E+04  0.20987566747E+04  0.46999998093E+01 0. -1.
</event>
<event>
 5   0  0.1911477E-06  0.3416562E+04  0.7818609E-02  0.8133854E-01
       -2   -1    0    0    0  501  0.00000000000E+00  0.00000000000E+00  0.22934000066E+04  0.22934000066E+04  0.25500000920E-02 0. -1.
        2   -1    0    0  501    0  0.00000000000E+00  0.00000000000E+00 -0.12724440518E+04  0.12724440518E+04  0.25500000920E-02 0.  1.
    10030    2    1    2    0    0  0.00000000000E+00  0.00000000000E+00  0.10209559548E+04  0.35658440584E+04  0.34165615445E+04 0.  0.
        5    1    3    3  502    0 -0.15495426694E+03  0.71067151454E+03  0.21236978380E+04  0.22448116677E+04  0.46999998093E+01 0. -1.
       -5    1    3    3    0  502  0.15495426694E+03 -0.71067151454E+03 -0.11027418832E+04  0.13210323907E+04  0.46999998093E+01 0.  1.
</event>
<event>
 5   0  0.1880301E-06  0.3293429E+04  0.7818609E-02  0.8164569E-01
       -2   -1    0    0    0  501  0.00000000000E+00  0.00000000000E+00  0.17678339431E+04  0.17678339431E+04  0.25500000920E-02 0.  1.
        2   -1    0    0  501    0  0.00000000000E+00  0.00000000000E+00 -0.15338936918E+04  0.15338936918E+04  0.25500000920E-02 0. -1.
    10030    2    1    2    0    0  0.00000000000E+00  0.00000000000E+00  0.23394025129E+03  0.33017276350E+04  0.32934294185E+04 0.  0.
        4    1    3    3  502    0  0.10567181622E+04 -0.53745037332E+03  0.12627239896E+04  0.17320449373E+04  0.12699999809E+01 0.  1.
       -4    1    3    3    0  502 -0.10567181622E+04  0.53745037332E+03 -0.10287837383E+04  0.15696826976E+04  0.12699999809E+01 0. -1.
</event>
<event>
 5   0  0.6134625E-07  0.3312092E+04  0.7818609E-02  0.8159825E-01
       -1   -1    0    0    0  501  0.00000000000E+00  0.00000000000E+00  0.15010005921E+04  0.15010005921E+04  0.50400001928E-02 0. -1.
        1   -1    0    0  501    0  0.00000000000E+00  0.00000000000E+00 -0.18271072281E+04  0.18271072281E+04  0.50400001928E-02 0.  1.
    10030    2    1    2    0    0  0.00000000000E+00  0.00000000000E+00 -0.32610663603E+03  0.33281078201E+04  0.33120924088E+04 0.  0.
        1    1    3    3  502    0 -0.79255694865E+03 -0.34731992205E+02 -0.16237454421E+04  0.18071807018E+04  0.50400001928E-02 0.  1.
       -1    1    3    3    0  502  0.79255694865E+03  0.34731992205E+02  0.12976388061E+04  0.15209271183E+04  0.50400001928E-02 0. -1.
</event>
<event>
 5   0  0.1948507E-06  0.3353516E+04  0.7818609E-02  0.8149410E-01
       -2   -1    0    0    0  501  0.00000000000E+00  0.00000000000E+00  0.25537360110E+04  0.25537360110E+04  0.25500000920E-02 0.  1.
        2   -1    0    0  501    0  0.00000000000E+00  0.00000000000E+00 -0.11009430702E+04  0.11009430703E+04  0.25500000920E-02 0. -1.
    10030    2    1    2    0    0  0.00000000000E+00  0.00000000000E+00  0.14527929408E+04  0.36546790813E+04  0.33535163423E+04 0.  0.
        1    1    3    3  502    0  0.13382740097E+04  0.87159520825E+03  0.16978187496E+03  0.16060764045E+04  0.50400001928E-02 0.  1.
       -1    1    3    3    0  502 -0.13382740097E+04 -0.87159520825E+03  0.12830110658E+04  0.20486026767E+04  0.50400001928E-02 0. -1.
</event>
<event>
 5   0  0.1911477E-06  0.3438313E+04  0.7818609E-02  0.8128566E-01
       -2   -1    0    0    0  501  0.00000000000E+00  0.00000000000E+00  0.16191077191E+04  0.16191077191E+04  0.25500000920E-02 0. -1.
        2   -1    0    0  501    0  0.00000000000E+00  0.00000000000E+00 -0.18253878630E+04  0.18253878630E+04  0.25500000920E-02 0.  1.
    10030    2    1    2    0    0  0.00000000000E+00  0.00000000000E+00 -0.20628014394E+03  0.34444955821E+04  0.34383132954E+04 0.  0.
        5    1    3    3  502    0 -0.12606846809E+04 -0.96412538046E+03 -0.76509581149E+03  0.17618902647E+04  0.46999998093E+01 0.  1.
       -5    1    3    3    0  502  0.12606846809E+04  0.96412538046E+03  0.55881566755E+03  0.16826053174E+04  0.46999998093E+01 0. -1.
</event>
<event>
 5   0  0.6218695E-07  0.3622671E+04  0.7818609E-02  0.8085318E-01
        1   -1    0    0  501    0  0.00000000000E+00  0.00000000000E+00  0.14047236597E+04  0.14047236597E+04  0.50400001928E-02 0. -1.
       -1   -1    0    0    0  501  0.00000000000E+00  0.00000000000E+00 -0.23356448457E+04  0.23356448457E+04  0.50400001928E-02 0.  1.
    10030    2    1    2    0    0  0.00000000000E+00  0.00000000000E+00 -0.93092118604E+03  0.37403685054E+04  0.36226706035E+04 0.  0.
        2    1    3    3  502    0 -0.49699918059E+03 -0.94864898682E+03  0.10428194610E+04  0.14947961446E+04  0.25500000920E-02 0. -1.
       -2    1    3    3    0  502  0.49699918059E+03  0.94864898682E+03 -0.19737406470E+04  0.22455723608E+04  0.25500000920E-02 0.  1.
</event>
<event>
 5   0  0.1880301E-06  0.3392808E+04  0.7818609E-02  0.8139674E-01
       -2   -1    0    0    0  501  0.00000000000E+00  0.00000000000E+00  0.20768364401E+04  0.20768364401E+04  0.25500000920E-02 0. -1.
        2   -1    0    0  501    0  0.00000000000E+00  0.00000000000E+00 -0.13856586914E+04  0.13856586914E+04  0.25500000920E-02 0.  1.
    10030    2    1    2    0    0  0.00000000000E+00  0.00000000000E+00  0.69117774869E+03  0.34624951314E+04  0.33928079602E+04 0.  0.
        4    1    3    3  502    0  0.13484778930E+03 -0.29297938722E+03 -0.13540812741E+04  0.13919621250E+04  0.12699999809E+01 0.  1.
       -4    1    3    3    0  502 -0.13484778930E+03  0.29297938722E+03  0.20452590228E+04  0.20705330065E+04  0.12699999809E+01 0. -1.
</event>
<event>
 5   0  0.1797075E-06  0.3378470E+04  0.7818609E-02  0.8143211E-01
        2   -1    0    0  501    0  0.00000000000E+00  0.00000000000E+00  0.20459398064E+04  0.20459398064E+04  0.25500000920E-02 0. -1.
       -2   -1    0    0    0  501  0.00000000000E+00  0.00000000000E+00 -0.13947207977E+04  0.13947207977E+04  0.25500000920E-02 0.  1.
    10030    2    1    2    0    0  0.00000000000E+00  0.00000000000E+00  0.65121900873E+03  0.34406606041E+04  0.33784699489E+04 0.  0.
        2    1    3    3  502    0  0.52429893905E+03 -0.77901080465E+02 -0.13078345496E+04  0.14111658886E+04  0.25500000920E-02 0.  1.
       -2    1    3    3    0  502 -0.52429893905E+03  0.77901080465E+02  0.19590535584E+04  0.20294947155E+04  0.25500000920E-02 0. -1.
</event>
<event>
 5   0  0.6134625E-07  0.3435325E+04  0.7818609E-02  0.8129290E-01
        1   -1    0    0  501    0  0.00000000000E+00  0.00000000000E+00  0.21139604642E+04  0.21139604642E+04  0.50400001928E-02 0.  1.
       -1   -1    0    0    0  501  0.00000000000E+00  0.00000000000E+00 -0.13956571529E+04  0.13956571529E+04  0.50400001928E-02 0. -1.
    10030    2    1    2    0    0  0.00000000000E+00  0.00000000000E+00  0.71830331127E+03  0.35096176172E+04  0.34353247549E+04 0.  0.
        3    1    3    3  502    0  0.12756340935E+03 -0.39247360082E+03 -0.13442567305E+04  0.14061771291E+04  0.10100000352E+00 0. -1.
       -3    1    3    3    0  502 -0.12756340935E+03  0.39247360082E+03  0.20625600418E+04  0.21034404881E+04  0.10100000352E+00 0.  1.
</event>
<event>
 5   0  0.1339844E-06  0.3460720E+04  0.7818609E-02  0.8123162E-01
       -2   -1    0    0    0  501  0.00000000000E+00  0.00000000000E+00  0.17630870338E+04  0.17630870338E+04  0.25500000920E-02 0.  1.
        2   -1    0    0  501    0  0.00000000000E+00  0.00000000000E+00 -0.16982409201E+04  0.16982409201E+04  0.25500000920E-02 0. -1.
    10030    2    1    2    0    0  0.00000000000E+00  0.00000000000E+00  0.64846113714E+02  0.34613279540E+04  0.34607204722E+04 0.  0.
        3    1    3    3  502    0 -0.13900679847E+04 -0.79287194253E+03 -0.62588061103E+03  0.17183310126E+04  0.10100000352E+00 0.  1.
       -3    1    3    3    0  502  0.13900679847E+04  0.79287194253E+03  0.69072672475E+03  0.17429969414E+04  0.10100000352E+00 0. -1.
</event>
<event>
 5   0  0.1797075E-06  0.3633047E+04  0.7818609E-02  0.8082964E-01
       -2   -1    0    0    0  501  0.00000000000E+00  0.00000000000E+00  0.25746145408E+04  0.25746145408E+04  0.25500000920E-02 0. -1.
        2   -1    0    0  501    0  0.00000000000E+00  0.00000000000E+00 -0.12816508771E+04  0.12816508771E+04  0.25500000920E-02 0.  1.
    10030    2    1    2    0    0  0.00000000000E+00  0.00000000000E+00  0.12929636637E+04  0.38562654179E+04  0.36330466467E+04 0.  0.
        2    1    3    3  502    0  0.15623736819E+04  0.66476206098E+03  0.13317791053E+04  0.21579053976E+04  0.25500000920E-02 0.  1.
       -2    1    3    3    0  502 -0.15623736819E+04 -0.66476206098E+03 -0.38815441650E+02  0.16983600202E+04  0.25500000920E-02 0. -1.
</event>
<event>
 5   0  0.1911477E-06  0.3445321E+04  0.7818609E-02  0.8126872E-01
        2   -1    0    0  501    0  0.00000000000E+00  0.00000000000E+00  0.19570980332E+04  0.19570980332E+04  0.25500000920E-02 0.  1.
       -2   -1    0    0    0  501  0.00000000000E+00  0.00000000000E+00 -0.15163054159E+04  0.15163054159E+04  0.25500000920E-02 0. -1.
    10030    2    1    2    0    0  0.00000000000E+00  0.00000000000E+00  0.44079261730E+03  0.34734034492E+04  0.34453205060E+04 0.  0.
        5    1    3    3  502    0 -0.15064602717E+04  0.29210953389E+03 -0.56879069179E+03  0.16365498682E+04  0.46999998093E+01 0. -1.
       -5    1    3    3    0  502  0.15064602717E+04 -0.29210953389E+03  0.10095833091E+04  0.18368535810E+04  0.46999998093E+01 0.  1.
</event>
<event>
 5   0  0.6134625E-07  0.2842394E+04  0.7818609E-02  0.8290226E-01
       -1   -1    0    0    0  501  0.00000000000E+00  0.00000000000E+00  0.19048566292E+04  0.19048566292E+04  0.50400001928E-02 0. -1.
        1   -1    0    0  501    0  0.00000000000E+00  0.00000000000E+00 -0.10603425206E+04  0.10603425206E+04  0.50400001928E-02 0.  1.
    10030    2    1    2    0    0  0.00000000000E+00  0.00000000000E+00  0.84451410866E+03  0.29651991498E+04  0.28423936952E+04 0.  0.
        3    1    3    3  502    0  0.83140346179E+03  0.74141981272E+03 -0.49840627546E+03  0.12203867750E+04  0.10100000352E+00 0.  1.
       -3    1    3    3    0  502 -0.83140346179E+03 -0.74141981272E+03  0.13429203841E+04  0.17448123748E+04  0.10100000352E+00 0. -1.
</event>
<event>
 5   0  0.1948507E-06  0.3496160E+04  0.7818609E-02  0.8114701E-01
        2   -1    0    0  501    0  0.00000000000E+00  0.00000000000E+00  0.26512953468E+04  0.26512953468E+04  0.25500000920E-02 0.  1.
       -2   -1    0    0    0  501  0.00000000000E+00  0.00000000000E+00 -0.11525625532E+04  0.11525625532E+04  0.25500000920E-02 0. -1.
    10030    2    1    2    0    0  0.00000000000E+00  0.00000000000E+00  0.14987327936E+04  0.38038579000E+04  0.34961600274E+04 0.  0.
        1    1    3    3  502    0 -0.13089892204E+04  0.79741462864E+03 -0.16511955034E+03  0.15416184142E+04  0.50400001928E-02 0. -1.
       -1    1    3    3    0  502  0.13089892204E+04 -0.79741462864E+03  0.16638523439E+04  0.22622394858E+04  0.50400001928E-02 0.  1.
</event>
<event>
 5   0  0.6134625E-07  0.3425945E+04  0.7818609E-02  0.8131568E-01
       -1   -1    0    0    0  501  0.00000000000E+00  0.00000000000E+00  0.13450269475E+04  0.13450269475E+04  0.50400001928E-02 0. -1.
        1   -1    0    0  501    0  0.00000000000E+00  0.00000000000E+00 -0.21815728527E+04  0.21815728527E+04  0.50400001928E-02 0.  1.
    10030    2    1    2    0    0  0.00000000000E+00  0.00000000000E+00 -0.83654590522E+03  0.35265998002E+04  0.34259447017E+04 0.  0.
        3    1    3    3  502    0 -0.12276251630E+04 -0.11465195701E+04 -0.76384986710E+03  0.18452743143E+04  0.10100000352E+00 0.  1.
       -3    1    3    3    0  502  0.12276251630E+04  0.11465195701E+04 -0.72696038124E+02  0.16813254859E+04  0.10100000352E+00 0. -1.
</event>
<event>
 5   0  0.1797075E-06  0.2616517E+04  0.7818609E-02  0.8362612E-01
       -2   -1    0    0    0  501  0.00000000000E+00  0.00000000000E+00  0.10427190347E+04  0.10427190347E+04  0.25500000920E-02 0. -1.
        2   -1    0    0  501    0  0.00000000000E+00  0.00000000000E+00 -0.16414199589E+04  0.16414199589E+04  0.25500000920E-02 0.  1.
    10030    2    1    2    0    0  0.00000000000E+00  0.00000000000E+00 -0.59870092415E+03  0.26841389936E+04  0.26165166425E+04 0.  0.
        2    1    3    3  502    0 -0.52976458936E+03 -0.40615461730E+03  0.85486252979E+03  0.10846206886E+04  0.25500000920E-02 0. -1.
       -2    1    3    3    0  502  0.52976458936E+03  0.40615461730E+03 -0.14535634539E+04  0.15995183050E+04  0.25500000920E-02 0.  1.
</event>
<event>
 5   0  0.1339844E-06  0.3387888E+04  0.7818609E-02  0.8140885E-01
       -2   -1    0    0    0  501  0.00000000000E+00  0.00000000000E+00  0.17485035894E+04  0.17485035894E+04  0.25500000920E-02 0. -1.
        2   -1    0    0  501    0  0.00000000000E+00  0.00000000000E+00 -0.16410869862E+04  0.16410869862E+04  0.25500000920E-02 0.  1.
    10030    2    1    2    0    0  0.00000000000E+00  0.00000000000E+00  0.10741660319E+03  0.33895905755E+04  0.33878881244E+04 0.  0.
        3    1    3    3  502    0  0.51131149744E+03 -0.44597354897E+03  0.16066205475E+04  0.17440072958E+04  0.10100000352E+00 0. -1.
       -3    1    3    3    0  502 -0.51131149744E+03  0.44597354897E+03 -0.14992039443E+04  0.16455832798E+04  0.10100000352E+00 0.  1.
</event>
<event>
 5   0  0.1948507E-06  0.2796695E+04  0.7818609E-02  0.8304295E-01
       -2   -1    0    0    0  501  0.00000000000E+00  0.00000000000E+00  0.98745458046E+03  0.98745458046E+03  0.25500000920E-02 0. -1.
        2   -1    0    0  501    0  0.00000000000E+00  0.00000000000E+00 -0.19802179952E+04  0.19802179952E+04  0.25500000920E-02 0.  1.
    10030    2    1    2    0    0  0.00000000000E+00  0.00000000000E+00 -0.99276341471E+03  0.29676725756E+04  0.27966947131E+04 0.  0.
        1    1    3    3  502    0  0.41037629905E+03 -0.10560786782E+03 -0.19104474820E+04  0.19568779497E+04  0.50400001928E-02 0.  1.
       -1    1    3    3    0  502 -0.41037629905E+03  0.10560786782E+03  0.91768406724E+03  0.10107946260E+04  0.50400001928E-02 0. -1.
</event>
<event>
 5   0  0.1339844E-06  0.3351980E+04  0.7818609E-02  0.8149794E-01
        2   -1    0    0  501    0  0.00000000000E+00  0.00000000000E+00  0.14537406949E+04  0.14537406949E+04  0.25500000920E-02 0. -1.
       -2   -1    0    0    0  501  0.00000000000E+00  0.00000000000E+00 -0.19322168853E+04  0.19322168853E+04  0.25500000920E-02 0.  1.
    10030    2    1    2    0    0  0.00000000000E+00  0.00000000000E+00 -0.47847619044E+03  0.33859575802E+04  0.33519799030E+04 0.  0.
        3    1    3    3  502    0 -0.19469645528E+03 -0.82174387297E+03  0.12231147901E+04  0.14863308859E+04  0.10100000352E+00 0. -1.
       -3    1    3    3    0  502  0.19469645528E+03  0.82174387297E+03 -0.17015909805E+04  0.18996266943E+04  0.10100000352E+00 0.  1.
</event>
<event>
 5   0  0.6218695E-07  0.3403953E+04  0.7818609E-02  0.8136937E-01
       -1   -1    0    0    0  501  0.00000000000E+00  0.00000000000E+00  0.10134886059E+04  0.10134886059E+04  0.50400001928E-02 0. -1.
        1   -1    0    0  501    0  0.00000000000E+00  0.00000000000E+00 -0.28581719251E+04  0.28581719251E+04  0.50400001928E-02 0.  1.
    10030    2    1    2    0    0  0.00000000000E+00  0.00000000000E+00 -0.18446833192E+04  0.38716605310E+04  0.34039533956E+04 0.  0.
        2    1    3    3  502    0 -0.93173259153E+03 -0.13933972744E+04 -0.58677343974E+03  0.17759461298E+04  0.25500000920E-02 0.  1.
       -2    1    3    3    0  502  0.93173259153E+03  0.13933972744E+04 -0.12579098794E+04  0.20957144012E+04  0.25500000920E-02 0. -1.
</event>
<event>
 5   0  0.6134625E-07  0.3401099E+04  0.7818609E-02  0.8137637E-01
       -1   -1    0    0    0  501  0.00000000000E+00  0.00000000000E+00  0.17858589881E+04  0.17858589881E+04  0.50400001928E-02 0. -1.
        1   -1    0    0  501    0  0.00000000000E+00  0.00000000000E+00 -0.16193148527E+04  0.16193148527E+04  0.50400001928E-02 0.  1.
    10030    2    1    2    0    0  0.00000000000E+00  0.00000000000E+00  0.16654413542E+03  0.34051738409E+04  0.34010986368E+04 0.  0.
        3    1    3    3  502    0 -0.76912822687E+03  0.43042861121E+03  0.15393326728E+04  0.17738015973E+04  0.10100000352E+00 0. -1.
       -3    1    3    3    0  502  0.76912822687E+03 -0.43042861121E+03 -0.13727885374E+04  0.16313722436E+04  0.10100000352E+00 0.  1.
</event>
<event>
 5   0  0.6134625E-07  0.3127932E+04  0.7818609E-02  0.8208114E-01
       -1   -1    0    0    0  501  0.00000000000E+00  0.00000000000E+00  0.11045723733E+04  0.11045723733E+04  0.50400001928E-02 0. -1.
        1   -1    0    0  501    0  0.00000000000E+00  0.00000000000E+00 -0.22144228806E+04  0.22144228806E+04  0.50400001928E-02 0.  1.
    10030    2    1    2    0    0  0.00000000000E+00  0.00000000000E+00 -0.11098505073E+04  0.33189952538E+04  0.31279324395E+04 0.  0.
        5    1    3    3  502    0 -0.10154594044E+04 -0.63217563510E+03 -0.16240231114E+04  0.20169970233E+04  0.46999998093E+01 0.  1.
       -5    1    3    3    0  502  0.10154594044E+04  0.63217563510E+03  0.51417260412E+03  0.13019982305E+04  0.46999998093E+01 0. -1.
</event>
<event>
 5   0  0.1880301E-06  0.3325820E+04  0.7818609E-02  0.8156356E-01
       -2   -1    0    0    0  501  0.00000000000E+00  0.00000000000E+00  0.10782598162E+04  0.10782598162E+04  0.25500000920E-02 0. -1.
        2   -1    0    0  501    0  0.00000000000E+00  0.00000000000E+00 -0.25645675308E+04  0.25645675308E+04  0.25500000920E-02 0.  1.
    10030    2    1    2    0    0  0.00000000000E+00  0.00000000000E+00 -0.14863077146E+04  0.36428273469E+04  0.33258202683E+04 0.  0.
        4    1    3    3  502    0  0.46626335236E+03 -0.15941252371E+04 -0.83235137689E+03  0.18578070978E+04  0.12699999809E+01 0.  1.
       -4    1    3    3    0  502 -0.46626335236E+03  0.15941252371E+04 -0.65395633771E+03  0.17850202491E+04  0.12699999809E+01 0. -1.
</event>
<event>
 5   0  0.6218695E-07  0.3357119E+04  0.7818609E-02  0.8148512E-01
       -1   -1    0    0    0  501  0.00000000000E+00  0.00000000000E+00  0.13841300498E+04  0.13841300498E+04  0.50400001928E-02 0. -1.
        1   -1    0    0  501    0  0.00000000000E+00  0.00000000000E+00 -0.20356192828E+04  0.20356192828E+04  0.50400001928E-02 0.  1.
    10030    2    1    2    0    0  0.00000000000E+00  0.00000000000E+00 -0.65148923301E+03  0.34197493327E+04  0.33571188954E+04 0.  0.
        2    1    3    3  502    0  0.89751949989E+03 -0.50250424860E+03  0.10254671751E+04  0.14524581577E+04  0.25500000920E-02 0. -1.
       -2    1    3    3    0  502 -0.89751949989E+03  0.50250424860E+03 -0.16769564081E+04  0.19672911750E+04  0.25500000920E-02 0.  1.
</event>
<event>
 5   0  0.6134625E-07  0.3322746E+04  0.7818609E-02  0.8157132E-01
       -1   -1    0    0    0  501  0.00000000000E+00  0.00000000000E+00  0.10648647777E+04  0.10648647777E+04  0.50400001928E-02 0. -1.
        1   -1    0    0  501    0  0.00000000000E+00  0.00000000000E+00 -0.25920295173E+04  0.25920295173E+04  0.50400001928E-02 0.  1.
    10030    2    1    2    0    0  0.00000000000E+00  0.00000000000E+00 -0.15271647396E+04  0.36568942951E+04  0.33227464158E+04 0.  0.
        5    1    3    3  502    0  0.13494620553E+04 -0.64834042615E+03 -0.15562524453E+04  0.21594760731E+04  0.46999998093E+01 0. -1.
       -5    1    3    3    0  502 -0.13494620553E+04  0.64834042615E+03  0.29087705723E+02  0.14974182219E+04  0.46999998093E+01 0.  1.
</event>
<event>
 5   0  0.6134625E-07  0.3269133E+04  0.7818609E-02  0.8170794E-01
       -1   -1    0    0    0  501  0.00000000000E+00  0.00000000000E+00  0.93078402197E+03  0.93078402199E+03  0.50400001928E-02 0. -1.
        1   -1    0    0  501    0  0.00000000000E+00  0.00000000000E+00 -0.28704919739E+04  0.28704919739E+04  0.50400001928E-02 0.  1.
    10030    2    1    2    0    0  0.00000000000E+00  0.00000000000E+00 -0.19397079520E+04  0.38012759959E+04  0.32691332580E+04 0.  0.
        1    1    3    3  502    0 -0.10480403313E+04 -0.36393445720E+03 -0.23656579668E+04  0.26128862281E+04  0.50400001928E-02 0.  1.
       -1    1    3    3    0  502  0.10480403313E+04  0.36393445720E+03  0.42595001480E+03  0.11883897678E+04  0.50400001928E-02 0. -1.
</event>
<event>
 5   0  0.1948507E-06  0.3339282E+04  0.7818609E-02  0.8152971E-01
       -2   -1    0    0    0  501  0.00000000000E+00  0.00000000000E+00  0.10042635868E+04  0.10042635868E+04  0.25500000920E-02 0. -1.
        2   -1    0    0  501    0  0.00000000000E+00  0.00000000000E+00 -0.27758654513E+04  0.27758654513E+04  0.25500000920E-02 0.  1.
    10030    2    1    2    0    0  0.00000000000E+00  0.00000000000E+00 -0.17716018644E+04  0.37801290381E+04  0.33392817160E+04 0.  0.
        1    1    3    3  502    0  0.57843389768E+03 -0.80011403279E+02 -0.26565013102E+04  0.27199240448E+04  0.50400001928E-02 0.  1.
       -1    1    3    3    0  502 -0.57843389768E+03  0.80011403279E+02  0.88489944575E+03  0.10602049933E+04  0.50400001928E-02 0. -1.
</event>
<event>
 5   0  0.6134625E-07  0.2789044E+04  0.7818609E-02  0.8306678E-01
        1   -1    0    0  501    0  0.00000000000E+00  0.00000000000E+00  0.19437464874E+04  0.19437464874E+04  0.50400001928E-02 0. -1.
       -1   -1    0    0    0  501  0.00000000000E+00  0.00000000000E+00 -0.10004862807E+04  0.10004862807E+04  0.50400001928E-02 0.  1.
    10030    2    1    2    0    0  0.00000000000E+00  0.00000000000E+00  0.94326020664E+03  0.29442327681E+04  0.27890440612E+04 0.  0.
        3    1    3    3  502    0 -0.11599582368E+04  0.69433585095E+03  0.83284845371E+03  0.15878419135E+04  0.10100000352E+00 0. -1.
       -3    1    3    3    0  502  0.11599582368E+04 -0.69433585095E+03  0.11041175293E+03  0.13563908546E+04  0.10100000352E+00 0.  1.
</event>
<event>
 5   0  0.1797075E-06  0.2751463E+04  0.7818609E-02  0.8318497E-01
        2   -1    0    0  501    0  0.00000000000E+00  0.00000000000E+00  0.15012739098E+04  0.15012739098E+04  0.25500000920E-02 0. -1.
       -2   -1    0    0    0  501  0.00000000000E+00  0.00000000000E+00 -0.12606878374E+04  0.12606878374E+04  0.25500000920E-02 0.  1.
    10030    2    1    2    0    0  0.00000000000E+00  0.00000000000E+00  0.24058607239E+03  0.27619617473E+04  0.27514634352E+04 0.  0.
        2    1    3    3  502    0 -0.24024385135E+03  0.10951878858E+04  0.92050727275E+03  0.14506850976E+04  0.25500000920E-02 0. -1.
       -2    1    3    3    0  502  0.24024385135E+03 -0.10951878858E+04 -0.67992120037E+03  0.13112766497E+04  0.25500000920E-02 0.  1.
</event>
<event>
 5   0  0.1948507E-06  0.3404073E+04  0.7818609E-02  0.8136907E-01
        2   -1    0    0  501    0  0.00000000000E+00  0.00000000000E+00  0.20567092671E+04  0.20567092671E+04  0.25500000920E-02 0.  1.
       -2   -1    0    0    0  501  0.00000000000E+00  0.00000000000E+00 -0.14085256621E+04  0.14085256621E+04  0.25500000920E-02 0. -1.
    10030    2    1    2    0    0  0.00000000000E+00  0.00000000000E+00  0.64818360498E+03  0.34652349292E+04  0.34040727268E+04 0.  0.
        1    1    3    3  502    0  0.45953461022E+03  0.10695204126E+02  0.19923292271E+04  0.20446667686E+04  0.50400001928E-02 0.  1.
       -1    1    3    3    0  502 -0.45953461022E+03 -0.10695204126E+02 -0.13441456222E+04  0.14205681606E+04  0.50400001928E-02 0. -1.
</event>
<event>
 5   0  0.1339844E-06  0.3402407E+04  0.7818609E-02  0.8137316E-01
        2   -1    0    0  501    0  0.00000000000E+00  0.00000000000E+00  0.27771646609E+04  0.27771646609E+04  0.25500000920E-02 0. -1.
       -2   -1    0    0    0  501  0.00000000000E+00  0.00000000000E+00 -0.10421039223E+04  0.10421039223E+04  0.25500000920E-02 0.  1.
    10030    2    1    2    0    0  0.00000000000E+00  0.00000000000E+00  0.17350607386E+04  0.38192685832E+04  0.34024074924E+04 0.  0.
        3    1    3    3  502    0  0.86224476989E+03  0.38814204370E+03  0.24550022343E+04  0.26308090523E+04  0.10100000352E+00 0. -1.
       -3    1    3    3    0  502 -0.86224476989E+03 -0.38814204370E+03 -0.71994149569E+03  0.11884595309E+04  0.10100000352E+00 0.  1.
</event>
<event>
 5   0  0.1797075E-06  0.3366598E+04  0.7818609E-02  0.8146153E-01
        2   -1    0    0  501    0  0.00000000000E+00  0.00000000000E+00  0.27423120229E+04  0.27423120229E+04  0.25500000920E-02 0.  1.
       -2   -1    0    0    0  501  0.00000000000E+00  0.00000000000E+00 -0.10332505753E+04  0.10332505753E+04  0.25500000920E-02 0. -1.
    10030    2    1    2    0    0  0.00000000000E+00  0.00000000000E+00  0.17090614476E+04  0.37755625982E+04  0.33665979714E+04 0.  0.
        2    1    3    3  502    0  0.11422803380E+04  0.77123887483E+03  0.19382987922E+04  0.23783641396E+04  0.25500000920E-02 0.  1.
       -2    1    3    3    0  502 -0.11422803380E+04 -0.77123887483E+03 -0.22923734455E+03  0.13971984586E+04  0.25500000920E-02 0. -1.
</event>
<event>
 5   0  0.1948507E-06  0.3366750E+04  0.7818609E-02  0.8146115E-01
        2   -1    0    0  501    0  0.00000000000E+00  0.00000000000E+00  0.17479550009E+04  0.17479550009E+04  0.25500000920E-02 0.  1.
       -2   -1    0    0    0  501  0.00000000000E+00  0.00000000000E+00 -0.16211810911E+04  0.16211810911E+04  0.25500000920E-02 0. -1.
    10030    2    1    2    0    0  0.00000000000E+00  0.00000000000E+00  0.12677390977E+03  0.33691360920E+04  0.33667501218E+04 0.  0.
        1    1    3    3  502    0  0.11360504494E+04 -0.10169851328E+04 -0.65047839875E+03  0.16577067084E+04  0.50400001928E-02 0. -1.
       -1    1    3    3    0  502 -0.11360504494E+04  0.10169851328E+04  0.77725230852E+03  0.17114293836E+04  0.50400001928E-02 0.  1.
</event>
<event>
 5   0  0.1339844E-06  0.4020004E+04  0.7818609E-02  0.8000523E-01
        2   -1    0    0  501    0  0.00000000000E+00  0.00000000000E+00  0.16348077394E+04  0.16348077394E+04  0.25500000920E-02 0. -1.
       -2   -1    0    0    0  501  0.00000000000E+00  0.00000000000E+00 -0.24713049704E+04  0.24713049704E+04  0.25500000920E-02 0.  1.
    10030    2    1    2    0    0  0.00000000000E+00  0.00000000000E+00 -0.83649723100E+03  0.41061127099E+04  0.40200042250E+04 0.  0.
        3    1    3    3  502    0 -0.19478641304E+03  0.61434569599E+03 -0.23629062478E+04  0.24492219840E+04  0.10100000352E+00 0.  1.
       -3    1    3    3    0  502  0.19478641304E+03 -0.61434569599E+03  0.15264090168E+04  0.16568907259E+04  0.10100000352E+00 0. -1.
</event>
<event>
 5   0  0.6134625E-07  0.3324565E+04  0.7818609E-02  0.8156673E-01
        3   -1    0    0  501    0  0.00000000000E+00  0.00000000000E+00  0.11921604467E+04  0.11921604510E+04  0.10100000352E+00 0.  1.
       -3   -1    0    0    0  501  0.00000000000E+00  0.00000000000E+00 -0.23177951847E+04  0.23177951869E+04  0.10100000352E+00 0. -1.
    10030    2    1    2    0    0  0.00000000000E+00  0.00000000000E+00 -0.11256347379E+04  0.35099556379E+04  0.33245653876E+04 0.  0.
        4    1    3    3  502    0  0.96272942396E+03 -0.13011723520E+04 -0.96245527031E+03  0.18831407790E+04  0.12699999809E+01 0. -1.
       -4    1    3    3    0  502 -0.96272942396E+03  0.13011723520E+04 -0.16317946764E+03  0.16268148589E+04  0.12699999809E+01 0.  1.
</event>
<event>
 5   0  0.1797075E-06  0.3229565E+04  0.7818609E-02  0.8181053E-01
       -2   -1    0    0    0  501  0.00000000000E+00  0.00000000000E+00  0.13576311106E+04  0.13576311106E+04  0.25500000920E-02 0. -1.
        2   -1    0    0  501    0  0.00000000000E+00  0.00000000000E+00 -0.19206411432E+04  0.19206411432E+04  0.25500000920E-02 0.  1.
    10030    2    1    2    0    0  0.00000000000E+00  0.00000000000E+00 -0.56301003257E+03  0.32782722538E+04  0.32295647808E+04 0.  0.
        2    1    3    3  502    0  0.19002215405E+03 -0.20743730637E+03 -0.18955754883E+04  0.19163363710E+04  0.25500000920E-02 0.  1.
       -2    1    3    3    0  502 -0.19002215405E+03  0.20743730637E+03  0.13325654557E+04  0.13619358828E+04  0.25500000920E-02 0. -1.
</event>
<event>
 5   0  0.6134625E-07  0.3403388E+04  0.7818609E-02  0.8137075E-01
        1   -1    0    0  501    0  0.00000000000E+00  0.00000000000E+00  0.20890565957E+04  0.20890565957E+04  0.50400001928E-02 0.  1.
       -1   -1    0    0    0  501  0.00000000000E+00  0.00000000000E+00 -0.13861578385E+04  0.13861578385E+04  0.50400001928E-02 0. -1.
    10030    2    1    2    0    0  0.00000000000E+00  0.00000000000E+00  0.70289875719E+03  0.34752144343E+04  0.34033878270E+04 0.  0.
        3    1    3    3  502    0  0.73677341056E+03 -0.42533162817E+03  0.18563301307E+04  0.20419852146E+04  0.10100000352E+00 0.  1.
       -3    1    3    3    0  502 -0.73677341056E+03  0.42533162817E+03 -0.11534313735E+04  0.14332292196E+04  0.10100000352E+00 0. -1.
</event>
<event>
 5   0  0.6134625E-07  0.3167121E+04  0.7818609E-02  0.8197555E-01
        1   -1    0    0  501    0  0.00000000000E+00  0.00000000000E+00  0.15994775095E+04  0.15994775096E+04  0.50400001928E-02 0. -1.
       -1   -1    0    0    0  501  0.00000000000E+00  0.00000000000E+00 -0.15678016135E+04  0.15678016135E+04  0.50400001928E-02 0.  1.
    10030    2    1    2    0    0  0.00000000000E+00  0.00000000000E+00  0.31675896076E+02  0.31672791230E+04  0.31671207241E+04 0.  0.
        1    1    3    3  502    0  0.72560778231E+03 -0.13127807947E+04 -0.49189144403E+03  0.15785617699E+04  0.50400001928E-02 0.  1.
       -1    1    3    3    0  502 -0.72560778231E+03  0.13127807947E+04  0.52356734010E+03  0.15887173532E+04  0.50400001928E-02 0. -1.
</event>
<event>
 5   0  0.1797075E-06  0.3291573E+04  0.7818609E-02  0.8165043E-01
        2   -1    0    0  501    0  0.00000000000E+00  0.00000000000E+00  0.26206715383E+04  0.26206715383E+04  0.25500000920E-02 0.  1.
       -2   -1    0    0    0  501  0.00000000000E+00  0.00000000000E+00 -0.10335570474E+04  0.10335570474E+04  0.25500000920E-02 0. -1.
    10030    2    1    2    0    0  0.00000000000E+00  0.00000000000E+00  0.15871144909E+04  0.36542285857E+04  0.32915732027E+04 0.  0.
        2    1    3    3  502    0  0.45006123490E+03 -0.15331265921E+04  0.35566136933E+03  0.16369261658E+04  0.25500000920E-02 0. -1.
       -2    1    3    3    0  502 -0.45006123490E+03  0.15331265921E+04  0.12314531216E+04  0.20173024199E+04  0.25500000920E-02 0.  1.
</event>
<event>
 5   0  0.1339844E-06  0.3389013E+04  0.7818609E-02  0.8140608E-01
       -2   -1    0    0    0  501  0.00000000000E+00  0.00000000000E+00  0.13100585308E+04  0.13100585308E+04  0.25500000920E-02 0.  1.
        2   -1    0    0  501    0  0.00000000000E+00  0.00000000000E+00 -0.21917737073E+04  0.21917737073E+04  0.25500000920E-02 0. -1.
    10030    2    1    2    0    0  0.00000000000E+00  0.00000000000E+00 -0.88171517653E+03  0.35018322381E+04  0.33890127429E+04 0.  0.
        3    1    3    3  502    0 -0.92990245719E+03  0.13894969501E+04 -0.72558747981E+03  0.18226073508E+04  0.10100000352E+00 0.  1.
       -3    1    3    3    0  502  0.92990245719E+03 -0.13894969501E+04 -0.15612769673E+03  0.16792248873E+04  0.10100000352E+00 0. -1.
</event>
<event>
 5   0  0.1911477E-06  0.3376717E+04  0.7818609E-02  0.8143644E-01
       -2   -1    0    0    0  501  0.00000000000E+00  0.00000000000E+00  0.14068155265E+04  0.14068155265E+04  0.25500000920E-02 0. -1.
        2   -1    0    0  501    0  0.00000000000E+00  0.00000000000E+00 -0.20262464490E+04  0.20262464490E+04  0.25500000920E-02 0.  1.
    10030    2    1    2    0    0  0.00000000000E+00  0.00000000000E+00 -0.61943092253E+03  0.34330619755E+04  0.33767173201E+04 0.  0.
        5    1    3    3  502    0 -0.10324685551E+04  0.12252901620E+04 -0.85076600589E+03  0.18141532970E+04  0.46999998093E+01 0. -1.
       -5    1    3    3    0  502  0.10324685551E+04 -0.12252901620E+04  0.23133508336E+03  0.16189086785E+04  0.46999998093E+01 0.  1.
</event>
<event>
 5   0  0.6218695E-07  0.3368672E+04  0.7818609E-02  0.8145638E-01
       -1   -1    0    0    0  501  0.00000000000E+00  0.00000000000E+00  0.12153713756E+04  0.12153713756E+04  0.50400001928E-02 0. -1.
        1   -1    0    0  501    0  0.00000000000E+00  0.00000000000E+00 -0.23342564167E+04  0.23342564167E+04  0.50400001928E-02 0.  1.
    10030    2    1    2    0    0  0.00000000000E+00  0.00000000000E+00 -0.11188850412E+04  0.35496277923E+04  0.33686723985E+04 0.  0.
        2    1    3    3  502    0 -0.26691011124E+03  0.87235968193E+03 -0.20513869034E+04  0.22450925704E+04  0.25500000920E-02 0.  1.
       -2    1    3    3    0  502  0.26691011124E+03 -0.87235968193E+03  0.93250186223E+03  0.13045352219E+04  0.25500000920E-02 0. -1.
</event>
<event>
 5   0  0.6134625E-07  0.3465320E+04  0.7818609E-02  0.8122058E-01
       -1   -1    0    0    0  501  0.00000000000E+00  0.00000000000E+00  0.12640222721E+04  0.12640222721E+04  0.50400001928E-02 0. -1.
        1   -1    0    0  501    0  0.00000000000E+00  0.00000000000E+00 -0.23750458282E+04  0.23750458282E+04  0.50400001928E-02 0.  1.
    10030    2    1    2    0    0  0.00000000000E+00  0.00000000000E+00 -0.11110235561E+04  0.36390681004E+04  0.34653200858E+04 0.  0.
        5    1    3    3  502    0 -0.64196267244E+03  0.16839090845E+03  0.11252413929E+04  0.13063926872E+04  0.46999998093E+01 0. -1.
       -5    1    3    3    0  502  0.64196267244E+03 -0.16839090845E+03 -0.22362649490E+04  0.23326754132E+04  0.46999998093E+01 0.  1.
</event>
<event>
 5   0  0.1948507E-06  0.3349601E+04  0.7818609E-02  0.8150388E-01
       -2   -1    0    0    0  501  0.00000000000E+00  0.00000000000E+00  0.19192666584E+04  0.19192666584E+04  0.25500000920E-02 0.  1.
        2   -1    0    0  501    0  0.00000000000E+00  0.00000000000E+00 -0.14614733859E+04  0.14614733859E+04  0.25500000920E-02 0. -1.
    10030    2    1    2    0    0  0.00000000000E+00  0.00000000000E+00  0.45779327246E+03  0.33807400443E+04  0.33496012549E+04 0.  0.
        1    1    3    3  502    0  0.41114234339E+03  0.10537174532E+04 -0.10177369240E+04  0.15215606935E+04  0.50400001928E-02 0. -1.
       -1    1    3    3    0  502 -0.41114234339E+03 -0.10537174532E+04  0.14755301964E+04  0.18591793508E+04  0.50400001928E-02 0.  1.
</event>
<event>
 5   0  0.1880301E-06  0.3298198E+04  0.7818609E-02  0.8163354E-01
        2   -1    0    0  501    0  0.00000000000E+00  0.00000000000E+00  0.17719928316E+04  0.17719928316E+04  0.25500000920E-02 0.  1.
       -2   -1    0    0    0  501  0.00000000000E+00  0.00000000000E+00 -0.15347280453E+04  0.15347280453E+04  0.25500000920E-02 0. -1.
    10030    2    1    2    0    0  0.00000000000E+00  0.00000000000E+00  0.23726478637E+03  0.33067208769E+04  0.32981977471E+04 0.  0.
        4    1    3    3  502    0  0.11463203659E+04 -0.63185457984E+03  0.11243372157E+04  0.17255220598E+04  0.12699999809E+01 0.  1.
       -4    1    3    3    0  502 -0.11463203659E+04  0.63185457984E+03 -0.88707242929E+03  0.15811988171E+04  0.12699999809E+01 0. -1.
</event>
<event>
 5   0  0.1797075E-06  0.3514637E+04  0.7818609E-02  0.8110330E-01
        2   -1    0    0  501    0  0.00000000000E+00  0.00000000000E+00  0.15498240913E+04  0.15498240913E+04  0.25500000920E-02 0. -1.
       -2   -1    0    0    0  501  0.00000000000E+00  0.00000000000E+00 -0.19925925048E+04  0.19925925048E+04  0.25500000920E-02 0.  1.
    10030    2    1    2    0    0  0.00000000000E+00  0.00000000000E+00 -0.44276841346E+03  0.35424165962E+04  0.35146367483E+04 0.  0.
        2    1    3    3  502    0 -0.11409674807E+03  0.11896080472E+03  0.15420153212E+04  0.15508001134E+04  0.25500000920E-02 0. -1.
       -2    1    3    3    0  502  0.11409674807E+03 -0.11896080472E+03 -0.19847837346E+04  0.19916164827E+04  0.25500000920E-02 0.  1.
</event>
<event>
 5   0  0.1797075E-06  0.3414985E+04  0.7818609E-02  0.8134238E-01
       -2   -1    0    0    0  501  0.00000000000E+00  0.00000000000E+00  0.28597318775E+04  0.28597318775E+04  0.25500000920E-02 0.  1.
        2   -1    0    0  501    0  0.00000000000E+00  0.00000000000E+00 -0.10195120002E+04  0.10195120002E+04  0.25500000920E-02 0. -1.
    10030    2    1    2    0    0  0.00000000000E+00  0.00000000000E+00  0.18402198773E+04  0.38792438776E+04  0.34149851925E+04 0.  0.
        2    1    3    3  502    0 -0.94882180684E+03  0.47236803793E+03  0.24408108666E+04  0.26610058382E+04  0.25500000920E-02 0.  1.
       -2    1    3    3    0  502  0.94882180684E+03 -0.47236803793E+03 -0.60059098926E+03  0.12182380395E+04  0.25500000920E-02 0. -1.
</event>
<event>
 5   0  0.1911477E-06  0.3418326E+04  0.7818609E-02  0.8133423E-01
        2   -1    0    0  501    0  0.00000000000E+00  0.00000000000E+00  0.23464642804E+04  0.23464642804E+04  0.25500000920E-02 0. -1.
       -2   -1    0    0    0  501  0.00000000000E+00  0.00000000000E+00 -0.12449532838E+04  0.12449532838E+04  0.25500000920E-02 0.  1.
    10030    2    1    2    0    0  0.00000000000E+00  0.00000000000E+00  0.11015109966E+04  0.35914175642E+04  0.34183261467E+04 0.  0.
        5    1    3    3  502    0 -0.14781501917E+04 -0.81906009783E+03  0.28201248929E+03  0.17132835630E+04  0.46999998093E+01 0. -1.
       -5    1    3    3    0  502  0.14781501917E+04  0.81906009783E+03  0.81949850729E+03  0.18781340012E+04  0.46999998093E+01 0.  1.
</event>
<event>
 5   0  0.6134625E-07  0.3421252E+04  0.7818609E-02  0.8132710E-01
        1   -1    0    0  501    0  0.00000000000E+00  0.00000000000E+00  0.28722713840E+04  0.28722713841E+04  0.50400001928E-02 0.  1.
       -1   -1    0    0    0  501  0.00000000000E+00  0.00000000000E+00 -0.10187902593E+04  0.10187902593E+04  0.50400001928E-02 0. -1.
    10030    2    1    2    0    0  0.00000000000E+00  0.00000000000E+00  0.18534811248E+04  0.38910616434E+04  0.34212524655E+04 0.  0.
        1    1    3    3  502    0 -0.81609130818E+03 -0.84171139341E+03 -0.49001565192E+03  0.12706684982E+04  0.50400001928E-02 0. -1.
       -1    1    3    3    0  502  0.81609130818E+03  0.84171139341E+03  0.23434967767E+04  0.26203931452E+04  0.50400001928E-02 0.  1.
</event>
<event>
 5   0  0.1911477E-06  0.3409233E+04  0.7818609E-02  0.8135644E-01
       -2   -1    0    0    0  501  0.00000000000E+00  0.00000000000E+00  0.11643007901E+04  0.11643007901E+04  0.25500000920E-02 0. -1.
        2   -1    0    0  501    0  0.00000000000E+00  0.00000000000E+00 -0.24956761694E+04  0.24956761694E+04  0.25500000920E-02 0.  1.
    10030    2    1    2    0    0  0.00000000000E+00  0.00000000000E+00 -0.13313753793E+04  0.36599769595E+04  0.34092331899E+04 0.  0.
        5    1    3    3  502    0 -0.68975476522E+03  0.12859749371E+04  0.28013374957E+03  0.14859307462E+04  0.46999998093E+01 0. -1.
       -5    1    3    3    0  502  0.68975476522E+03 -0.12859749371E+04 -0.16115091289E+04  0.21740462133E+04  0.46999998093E+01 0.  1.
</event>
<event>
 5   0  0.1948507E-06  0.3428670E+04  0.7818609E-02  0.8130905E-01
       -2   -1    0    0    0  501  0.00000000000E+00  0.00000000000E+00  0.16435123035E+04  0.16435123035E+04  0.25500000920E-02 0. -1.
        2   -1    0    0  501    0  0.00000000000E+00  0.00000000000E+00 -0.17882092146E+04  0.17882092146E+04  0.25500000920E-02 0.  1.
    10030    2    1    2    0    0  0.00000000000E+00  0.00000000000E+00 -0.14469691112E+03  0.34317215181E+04  0.34286696227E+04 0.  0.
        1    1    3    3  502    0  0.24009009596E+02  0.14162020325E+04 -0.10389923596E+04  0.17566188410E+04  0.50400001928E-02 0.  1.
       -1    1    3    3    0  502 -0.24009009596E+02 -0.14162020325E+04  0.89429544846E+03  0.16751026770E+04  0.50400001928E-02 0. -1.
</event>
<event>
 5   0  0.6146388E-07  0.2797739E+04  0.7818609E-02  0.8303971E-01
       -1   -1    0    0    0  501  0.00000000000E+00  0.00000000000E+00  0.95069168448E+03  0.95069168449E+03  0.50400001928E-02 0. -1.
        1   -1    0    0  501    0  0.00000000000E+00  0.00000000000E+00 -0.20583283884E+04  0.20583283885E+04  0.50400001928E-02 0.  1.
    10030    2    1    2    0    0  0.00000000000E+00  0.00000000000E+00 -0.11076367040E+04  0.30090200729E+04  0.27977388605E+04 0.  0.
        4    1    3    3  502    0 -0.95257423543E+03 -0.10178497920E+04 -0.67840313233E+03  0.15503703738E+04  0.12699999809E+01 0.  1.
       -4    1    3    3    0  502  0.95257423543E+03  0.10178497920E+04 -0.42923357163E+03  0.14586496992E+04  0.12699999809E+01 0. -1.
</event>
<event>
 5   0  0.6134625E-07  0.3514691E+04  0.7818609E-02  0.8110317E-01
       -1   -1    0    0    0  501  0.00000000000E+00  0.00000000000E+00  0.11784888498E+04  0.11784888498E+04  0.50400001928E-02 0.  1.
        1   -1    0    0  501    0  0.00000000000E+00  0.00000000000E+00 -0.26205283251E+04  0.26205283251E+04  0.50400001928E-02 0. -1.
    10030    2    1    2    0    0  0.00000000000E+00  0.00000000000E+00 -0.14420394753E+04  0.37990171749E+04  0.35146911169E+04 0.  0.
        3    1    3    3  502    0  0.76720210319E+03 -0.46913699768E+03 -0.23529854051E+04  0.25189737824E+04  0.10100000352E+00 0. -1.
       -3    1    3    3    0  502 -0.76720210319E+03  0.46913699768E+03  0.91094592971E+03  0.12800433925E+04  0.10100000352E+00 0.  1.
</event>
<event>
 5   0  0.1911477E-06  0.3214470E+04  0.7818609E-02  0.8185006E-01
        2   -1    0    0  501    0  0.00000000000E+00  0.00000000000E+00  0.18699617373E+04  0.18699617373E+04  0.25500000920E-02 0. -1.
       -2   -1    0    0    0  501  0.00000000000E+00  0.00000000000E+00 -0.13814210100E+04  0.13814210100E+04  0.25500000920E-02 0.  1.
    10030    2    1    2    0    0  0.00000000000E+00  0.00000000000E+00  0.48854072732E+03  0.32513827474E+04  0.32144700539E+04 0.  0.
        5    1    3    3  502    0  0.13619443831E+04  0.47762848958E+03 -0.47107137590E+03  0.15182067738E+04  0.46999998093E+01 0.  1.
       -5    1    3    3    0  502 -0.13619443831E+04 -0.47762848958E+03  0.95961210322E+03  0.17331759736E+04  0.46999998093E+01 0. -1.
</event>
<event>
 5   0  0.1911477E-06  0.2803974E+04  0.7818609E-02  0.8302036E-01
       -2   -1    0    0    0  501  0.00000000000E+00  0.00000000000E+00  0.11184454724E+04  0.11184454724E+04  0.25500000920E-02 0. -1.
        2   -1    0    0  501    0  0.00000000000E+00  0.00000000000E+00 -0.17574102219E+04  0.17574102219E+04  0.25500000920E-02 0.  1.
    10030    2    1    2    0    0  0.00000000000E+00  0.00000000000E+00 -0.63896474955E+03  0.28758556943E+04  0.28039739698E+04 0.  0.
        5    1    3    3  502    0 -0.12288460113E+04 -0.67362637693E+03 -0.27706516923E+03  0.14285034872E+04  0.46999998093E+01 0. -1.
       -5    1    3    3    0  502  0.12288460113E+04  0.67362637693E+03 -0.36189958032E+03  0.14473522071E+04  0.46999998093E+01 0.  1.
</event>
<event>
 5   0  0.1797075E-06  0.3367244E+04  0.7818609E-02  0.8145993E-01
        2   -1    0    0  501    0  0.00000000000E+00  0.00000000000E+00  0.26619391362E+04  0.26619391362E+04  0.25500000920E-02 0.  1.
       -2   -1    0    0    0  501  0.00000000000E+00  0.00000000000E+00 -0.10648566399E+04  0.10648566399E+04  0.25500000920E-02 0. -1.
    10030    2    1    2    0    0  0.00000000000E+00  0.00000000000E+00  0.15970824963E+04  0.37267957761E+04  0.33672443120E+04 0.  0.
        2    1    3    3  502    0  0.15409699213E+04  0.56410679791E+02  0.50491911819E+02  0.15428285375E+04  0.25500000920E-02 0. -1.
       -2    1    3    3    0  502 -0.15409699213E+04 -0.56410679791E+02  0.15465905845E+04  0.21839672385E+04  0.25500000920E-02 0.  1.
</event>
<event>
 5   0  0.1880301E-06  0.3425390E+04  0.7818609E-02  0.8131703E-01
        2   -1    0    0  501    0  0.00000000000E+00  0.00000000000E+00  0.14074253026E+04  0.14074253026E+04  0.25500000920E-02 0.  1.
       -2   -1    0    0    0  501  0.00000000000E+00  0.00000000000E+00 -0.20841770445E+04  0.20841770445E+04  0.25500000920E-02 0. -1.
    10030    2    1    2    0    0  0.00000000000E+00  0.00000000000E+00 -0.67675174190E+03  0.34916023471E+04  0.34253896173E+04 0.  0.
        4    1    3    3  502    0  0.14451700908E+04  0.52042857659E+03  0.43386962898E+03  0.15961224773E+04  0.12699999809E+01 0.  1.
       -4    1    3    3    0  502 -0.14451700908E+04 -0.52042857659E+03 -0.11106213709E+04  0.18954798698E+04  0.12699999809E+01 0. -1.
</event>
<event>
 5   0  0.6134625E-07  0.3415736E+04  0.7818609E-02  0.8134055E-01
       -1   -1    0    0    0  501  0.00000000000E+00  0.00000000000E+00  0.23457939448E+04  0.23457939448E+04  0.50400001928E-02 0.  1.
        1   -1    0    0  501    0  0.00000000000E+00  0.00000000000E+00 -0.12434225248E+04  0.12434225248E+04  0.50400001928E-02 0. -1.
    10030    2    1    2    0    0  0.00000000000E+00  0.00000000000E+00  0.11023714200E+04  0.35892164696E+04  0.34157359556E+04 0.  0.
        1    1    3    3  502    0 -0.17898669128E+03  0.13254353162E+04 -0.56482799663E+03  0.14518421674E+04  0.50400001928E-02 0. -1.
       -1    1    3    3    0  502  0.17898669128E+03 -0.13254353162E+04  0.16671994167E+04  0.21373743023E+04  0.50400001928E-02 0.  1.
</event>
<event>
 5   0  0.6134625E-07  0.3424940E+04  0.7818609E-02  0.8131812E-01
        1   -1    0    0  501    0  0.00000000000E+00  0.00000000000E+00  0.11098363585E+04  0.11098363585E+04  0.50400001928E-02 0. -1.
       -1   -1    0    0    0  501  0.00000000000E+00  0.00000000000E+00 -0.26423289712E+04  0.26423289712E+04  0.50400001928E-02 0.  1.
    10030    2    1    2    0    0  0.00000000000E+00  0.00000000000E+00 -0.15324926127E+04  0.37521653297E+04  0.34249395693E+04 0.  0.
        1    1    3    3  502    0  0.32190263063E+03  0.15881622397E+04 -0.13729354579E+04  0.21238720241E+04  0.50400001928E-02 0.  1.
       -1    1    3    3    0  502 -0.32190263063E+03 -0.15881622397E+04 -0.15955715475E+03  0.16282933055E+04  0.50400001928E-02 0. -1.
</event>
<event>
 5   0  0.6134625E-07  0.3546774E+04  0.7818609E-02  0.8102794E-01
        1   -1    0    0  501    0  0.00000000000E+00  0.00000000000E+00  0.28776995261E+04  0.28776995261E+04  0.50400001928E-02 0. -1.
       -1   -1    0    0    0  501  0.00000000000E+00  0.00000000000E+00 -0.10928524114E+04  0.10928524114E+04  0.50400001928E-02 0.  1.
    10030    2    1    2    0    0  0.00000000000E+00  0.00000000000E+00  0.17848471148E+04  0.39705519375E+04  0.35467736699E+04 0.  0.
        3    1    3    3  502    0 -0.52497086111E+03  0.22231873297E+03 -0.98746793849E+03  0.11402249619E+04  0.10100000352E+00 0.  1.
       -3    1    3    3    0  502  0.52497086111E+03 -0.22231873297E+03  0.27723150533E+04  0.28303269756E+04  0.10100000352E+00 0. -1.
</event>
<event>
 5   0  0.1948507E-06  0.3225430E+04  0.7818609E-02  0.8182133E-01
        2   -1    0    0  501    0  0.00000000000E+00  0.00000000000E+00  0.22160263534E+04  0.22160263534E+04  0.25500000920E-02 0.  1.
       -2   -1    0    0    0  501  0.00000000000E+00  0.00000000000E+00 -0.11736549004E+04  0.11736549004E+04  0.25500000920E-02 0. -1.
    10030    2    1    2    0    0  0.00000000000E+00  0.00000000000E+00  0.10423714530E+04  0.33896812538E+04  0.32254303211E+04 0.  0.
        1    1    3    3  502    0 -0.11838624910E+04  0.61206625745E+03  0.14755579608E+04  0.19883226089E+04  0.50400001928E-02 0.  1.
       -1    1    3    3    0  502  0.11838624910E+04 -0.61206625745E+03 -0.43318650787E+03  0.14013586449E+04  0.50400001928E-02 0. -1.
</event>
<event>
 5   0  0.6134625E-07  0.3403596E+04  0.7818609E-02  0.8137024E-01
        1   -1    0    0  501    0  0.00000000000E+00  0.00000000000E+00  0.10013585946E+04  0.10013585946E+04  0.50400001928E-02 0. -1.
       -1   -1    0    0    0  501  0.00000000000E+00  0.00000000000E+00 -0.28921870954E+04  0.28921870954E+04  0.50400001928E-02 0.  1.
    10030    2    1    2    0    0  0.00000000000E+00  0.00000000000E+00 -0.18908285008E+04  0.38935456900E+04  0.34035959838E+04 0.  0.
        5    1    3    3  502    0  0.76961571097E+03 -0.64921839849E+03  0.62405156431E+03  0.11845907802E+04  0.46999998093E+01 0. -1.
       -5    1    3    3    0  502 -0.76961571097E+03  0.64921839849E+03 -0.25148800652E+04  0.27089549099E+04  0.46999998093E+01 0.  1.
</event>
<event>
 5   0  0.1797075E-06  0.2485721E+04  0.7818609E-02  0.8408090E-01
       -2   -1    0    0    0  501  0.00000000000E+00  0.00000000000E+00  0.87999047980E+03  0.87999047980E+03  0.25500000920E-02 0. -1.
        2   -1    0    0  501    0  0.00000000000E+00  0.00000000000E+00 -0.17553628562E+04  0.17553628562E+04  0.25500000920E-02 0.  1.
    10030    2    1    2    0    0  0.00000000000E+00  0.00000000000E+00 -0.87537237637E+03  0.26353533360E+04  0.24857213054E+04 0.  0.
        2    1    3    3  502    0  0.16106141517E+03 -0.11290215534E+04  0.86089739020E+02  0.11436965903E+04  0.25500000920E-02 0. -1.
       -2    1    3    3    0  502 -0.16106141517E+03  0.11290215534E+04 -0.96146211539E+03  0.14916567457E+04  0.25500000920E-02 0.  1.
</event>
<event>
 5   0  0.6146388E-07  0.3397796E+04  0.7818609E-02  0.8138447E-01
       -1   -1    0    0    0  501  0.00000000000E+00  0.00000000000E+00  0.20641917242E+04  0.20641917242E+04  0.50400001928E-02 0.  1.
        1   -1    0    0  501    0  0.00000000000E+00  0.00000000000E+00 -0.13982490892E+04  0.13982490892E+04  0.50400001928E-02 0. -1.
    10030    2    1    2    0    0  0.00000000000E+00  0.00000000000E+00  0.66594263498E+03  0.34624408134E+04  0.33977958728E+04 0.  0.
        4    1    3    3  502    0  0.97141326918E+03 -0.73993413572E+03 -0.87064682963E+03  0.14997245679E+04  0.12699999809E+01 0. -1.
       -4    1    3    3    0  502 -0.97141326918E+03  0.73993413572E+03  0.15365894646E+04  0.19627162455E+04  0.12699999809E+01 0.  1.
</event>
<event>
 5   0  0.6134625E-07  0.3254509E+04  0.7818609E-02  0.8174568E-01
        1   -1    0    0  501    0  0.00000000000E+00  0.00000000000E+00  0.97520875377E+03  0.97520875378E+03  0.50400001928E-02 0. -1.
       -1   -1    0    0    0  501  0.00000000000E+00  0.00000000000E+00 -0.27152719282E+04  0.27152719282E+04  0.50400001928E-02 0.  1.
    10030    2    1    2    0    0  0.00000000000E+00  0.00000000000E+00 -0.17400631745E+04  0.36904806820E+04  0.32545088436E+04 0.  0.
        5    1    3    3  502    0 -0.73475170653E+03  0.10212880448E+04 -0.20402894447E+04  0.23970174069E+04  0.46999998093E+01 0.  1.
       -5    1    3    3    0  502  0.73475170653E+03 -0.10212880448E+04  0.30022627023E+03  0.12934632751E+04  0.46999998093E+01 0. -1.
</event>
<event>
 5   0  0.1948507E-06  0.3364256E+04  0.7818609E-02  0.8146735E-01
        2   -1    0    0  501    0  0.00000000000E+00  0.00000000000E+00  0.12391204906E+04  0.12391204906E+04  0.25500000920E-02 0. -1.
       -2   -1    0    0    0  501  0.00000000000E+00  0.00000000000E+00 -0.22835182173E+04  0.22835182173E+04  0.25500000920E-02 0.  1.
    10030    2    1    2    0    0  0.00000000000E+00  0.00000000000E+00 -0.10443977268E+04  0.35226387079E+04  0.33642557654E+04 0.  0.
        1    1    3    3  502    0 -0.16845269513E+03 -0.65890005899E+03 -0.21331443771E+04  0.22389351335E+04  0.50400001928E-02 0.  1.
       -1    1    3    3    0  502  0.16845269513E+03  0.65890005899E+03  0.10887466504E+04  0.12837035744E+04  0.50400001928E-02 0. -1.
</event>
<event>
 5   0  0.6134625E-07  0.2457870E+04  0.7818609E-02  0.8418150E-01
       -1   -1    0    0    0  501  0.00000000000E+00  0.00000000000E+00  0.58330729193E+03  0.58330729195E+03  0.50400001928E-02 0. -1.
        1   -1    0    0  501    0  0.00000000000E+00  0.00000000000E+00 -0.25891689357E+04  0.25891689357E+04  0.50400001928E-02 0.  1.
    10030    2    1    2    0    0  0.00000000000E+00  0.00000000000E+00 -0.20058616438E+04  0.31724762276E+04  0.24578699073E+04 0.  0.
        3    1    3    3  502    0  0.96762146426E+03  0.72887852403E+03 -0.73613124251E+03  0.14175487354E+04  0.10100000352E+00 0. -1.
       -3    1    3    3    0  502 -0.96762146426E+03 -0.72887852403E+03 -0.12697304013E+04  0.17549274922E+04  0.10100000352E+00 0.  1.
</event>
<event>
 5   0  0.1797075E-06  0.3400064E+04  0.7818609E-02  0.8137891E-01
       -2   -1    0    0    0  501  0.00000000000E+00  0.00000000000E+00  0.27564907717E+04  0.27564907717E+04  0.25500000920E-02 0.  1.
        2   -1    0    0  501    0  0.00000000000E+00  0.00000000000E+00 -0.10484740172E+04  0.10484740172E+04  0.25500000920E-02 0. -1.
    10030    2    1    2    0    0  0.00000000000E+00  0.00000000000E+00  0.17080167545E+04  0.38049647889E+04  0.34000640893E+04 0.  0.
        2    1    3    3  502    0 -0.35256571399E+03 -0.62363894192E+03  0.25793187914E+04  0.26769597569E+04  0.25500000920E-02 0.  1.
       -2    1    3    3    0  502  0.35256571399E+03  0.62363894192E+03 -0.87130203691E+03  0.11280050319E+04  0.25500000920E-02 0. -1.
</event>
<event>
 5   0  0.1797075E-06  0.3412766E+04  0.7818609E-02  0.8134780E-01
       -2   -1    0    0    0  501  0.00000000000E+00  0.00000000000E+00  0.13494589868E+04  0.13494589868E+04  0.25500000920E-02 0.  1.
        2   -1    0    0  501    0  0.00000000000E+00  0.00000000000E+00 -0.21577109422E+04  0.21577109422E+04  0.25500000920E-02 0. -1.
    10030    2    1    2    0    0  0.00000000000E+00  0.00000000000E+00 -0.80825195548E+03  0.35071699290E+04  0.34127656948E+04 0.  0.
        2    1    3    3  502    0  0.28978171971E+03 -0.43946586387E+03  0.12639309652E+04  0.13691695203E+04  0.25500000920E-02 0.  1.
       -2    1    3    3    0  502 -0.28978171971E+03  0.43946586387E+03 -0.20721829207E+04  0.21380004087E+04  0.25500000920E-02 0. -1.
</event>
<event>
 5   0  0.1797075E-06  0.2961857E+04  0.7818609E-02  0.8254707E-01
        2   -1    0    0  501    0  0.00000000000E+00  0.00000000000E+00  0.27918000045E+04  0.27918000045E+04  0.25500000920E-02 0.  1.
       -2   -1    0    0    0  501  0.00000000000E+00  0.00000000000E+00 -0.78556820673E+03  0.78556820673E+03  0.25500000920E-02 0. -1.
    10030    2    1    2    0    0  0.00000000000E+00  0.00000000000E+00  0.20062317977E+04  0.35773682112E+04  0.29618570682E+04 0.  0.
        2    1    3    3  502    0  0.83359406203E+03 -0.81132496494E+03 -0.10387714912E+03  0.11678688801E+04  0.25500000920E-02 0. -1.
       -2    1    3    3    0  502 -0.83359406203E+03  0.81132496494E+03  0.21101089468E+04  0.24094993311E+04  0.25500000920E-02 0.  1.
</event>
<event>
 5   0  0.1339844E-06  0.3396482E+04  0.7818609E-02  0.8138770E-01
        2   -1    0    0  501    0  0.00000000000E+00  0.00000000000E+00  0.19429449483E+04  0.19429449483E+04  0.25500000920E-02 0.  1.
       -2   -1    0    0    0  501  0.00000000000E+00  0.00000000000E+00 -0.14843560227E+04  0.14843560227E+04  0.25500000920E-02 0. -1.
    10030    2    1    2    0    0  0.00000000000E+00  0.00000000000E+00  0.45858892559E+03  0.34273009711E+04  0.33964817302E+04 0.  0.
        3    1    3    3  502    0  0.89681527291E+03 -0.31835408338E+03  0.16486116820E+04  0.19035617784E+04  0.10100000352E+00 0.  1.
       -3    1    3    3    0  502 -0.89681527291E+03  0.31835408338E+03 -0.11900227564E+04  0.15237391926E+04  0.10100000352E+00 0. -1.
</event>
<event>
 5   0  0.1948507E-06  0.3432148E+04  0.7818609E-02  0.8130061E-01
        2   -1    0    0  501    0  0.00000000000E+00  0.00000000000E+00  0.24954255254E+04  0.24954255254E+04  0.25500000920E-02 0. -1.
       -2   -1    0    0    0  501  0.00000000000E+00  0.00000000000E+00 -0.11801235761E+04  0.11801235761E+04  0.25500000920E-02 0.  1.
    10030    2    1    2    0    0  0.00000000000E+00  0.00000000000E+00  0.13153019494E+04  0.36755491015E+04  0.34321483039E+04 0.  0.
        1    1    3    3  502    0 -0.76385269758E+03  0.39705253561E+03  0.22474461424E+04  0.24066856509E+04  0.50400001928E-02 0. -1.
       -1    1    3    3    0  502  0.76385269758E+03 -0.39705253561E+03 -0.93214419300E+03  0.12688634506E+04  0.50400001928E-02 0.  1.
</event>
<event>
 5   0  0.1339844E-06  0.3393261E+04  0.7818609E-02  0.8139562E-01
        2   -1    0    0  501    0  0.00000000000E+00  0.00000000000E+00  0.21324498405E+04  0.21324498405E+04  0.25500000920E-02 0. -1.
       -2   -1    0    0    0  501  0.00000000000E+00  0.00000000000E+00 -0.13498816193E+04  0.13498816193E+04  0.25500000920E-02 0.  1.
    10030    2    1    2    0    0  0.00000000000E+00  0.00000000000E+00  0.78256822124E+03  0.34823314598E+04  0.33932608764E+04 0.  0.
        3    1    3    3  502    0 -0.25774387898E+03  0.78960008281E+03 -0.11269595441E+04  0.13999778648E+04  0.10100000352E+00 0.  1.
       -3    1    3    3    0  502  0.25774387898E+03 -0.78960008281E+03  0.19095277653E+04  0.20823535950E+04  0.10100000352E+00 0. -1.
</event>
<event>
 5   0  0.6218695E-07  0.3377224E+04  0.7818609E-02  0.8143519E-01
       -1   -1    0    0    0  501  0.00000000000E+00  0.00000000000E+00  0.13406801157E+04  0.13406801157E+04  0.50400001928E-02 0.  1.
        1   -1    0    0  501    0  0.00000000000E+00  0.00000000000E+00 -0.21268383142E+04  0.21268383142E+04  0.50400001928E-02 0. -1.
    10030    2    1    2    0    0  0.00000000000E+00  0.00000000000E+00 -0.78615819855E+03  0.34675184299E+04  0.33772236154E+04 0.  0.
        2    1    3    3  502    0  0.29977551109E+03  0.16406968511E+03 -0.20909626451E+04  0.21187045575E+04  0.25500000920E-02 0. -1.
       -2    1    3    3    0  502 -0.29977551109E+03 -0.16406968511E+03  0.13048044466E+04  0.13488138724E+04  0.25500000920E-02 0.  1.
</event>
<event>
 5   0  0.6134625E-07  0.3344778E+04  0.7818609E-02  0.8151594E-01
        1   -1    0    0  501    0  0.00000000000E+00  0.00000000000E+00  0.16648653716E+04  0.16648653716E+04  0.50400001928E-02 0. -1.
       -1   -1    0    0    0  501  0.00000000000E+00  0.00000000000E+00 -0.16799469664E+04  0.16799469664E+04  0.50400001928E-02 0.  1.
    10030    2    1    2    0    0  0.00000000000E+00  0.00000000000E+00 -0.15081594787E+02  0.33448123380E+04  0.33447783368E+04 0.  0.
        3    1    3    3  502    0 -0.62973346239E+03 -0.11081569962E+04 -0.10902841616E+04  0.16772882057E+04  0.10100000352E+00 0.  1.
       -3    1    3    3    0  502  0.62973346239E+03  0.11081569962E+04  0.10752025668E+04  0.16675241323E+04  0.10100000352E+00 0. -1.
</event>
<event>
 5   0  0.1880301E-06  0.3239421E+04  0.7818609E-02  0.8178483E-01
        2   -1    0    0  501    0  0.00000000000E+00  0.00000000000E+00  0.17480601817E+04  0.17480601817E+04  0.25500000920E-02 0. -1.
       -2   -1    0    0    0  501  0.00000000000E+00  0.00000000000E+00 -0.15007843285E+04  0.15007843285E+04  0.25500000920E-02 0.  1.
    10030    2    1    2    0    0  0.00000000000E+00  0.00000000000E+00  0.24727585314E+03  0.32488445102E+04  0.32394205198E+04 0.  0.
        4    1    3    3  502    0 -0.64478101765E+03 -0.12021472117E+04  0.99942471573E+03  0.16910800852E+04  0.12699999809E+01 0. -1.
       -4    1    3    3    0  502  0.64478101765E+03  0.12021472117E+04 -0.75214886260E+03  0.15577644250E+04  0.12699999809E+01 0.  1.
</event>
<event>
 5   0  0.1797075E-06  0.3295061E+04  0.7818609E-02  0.8164153E-01
       -2   -1    0    0    0  501  0.00000000000E+00  0.00000000000E+00  0.11960866970E+04  0.11960866970E+04  0.25500000920E-02 0. -1.
        2   -1    0    0  501    0  0.00000000000E+00  0.00000000000E+00 -0.22693651454E+04  0.22693651454E+04  0.25500000920E-02 0.  1.
    10030    2    1    2    0    0  0.00000000000E+00  0.00000000000E+00 -0.10732784485E+04  0.34654518424E+04  0.32950614325E+04 0.  0.
        2    1    3    3  502    0 -0.12244430883E+04  0.10945104636E+04 -0.39893565238E+03  0.16900780119E+04  0.25500000920E-02 0. -1.
       -2    1    3    3    0  502  0.12244430883E+04 -0.10945104636E+04 -0.67434279612E+03  0.17753738305E+04  0.25500000920E-02 0.  1.
</event>
<event>
 5   0  0.6134625E-07  0.3311888E+04  0.7818609E-02  0.8159877E-01
        1   -1    0    0  501    0  0.00000000000E+00  0.00000000000E+00  0.25735572863E+04  0.25735572863E+04  0.50400001928E-02 0.  1.
       -1   -1    0    0    0  501  0.00000000000E+00  0.00000000000E+00 -0.10655099867E+04  0.10655099867E+04  0.50400001928E-02 0. -1.
    10030    2    1    2    0    0  0.00000000000E+00  0.00000000000E+00  0.15080472996E+04  0.36390672730E+04  0.33118882771E+04 0.  0.
        5    1    3    3  502    0 -0.92184440970E+03 -0.77550085791E+02 -0.75508960673E+03  0.11941497124E+04  0.46999998093E+01 0. -1.
       -5    1    3    3    0  502  0.92184440970E+03  0.77550085791E+02  0.22631369063E+04  0.24449175606E+04  0.46999998093E+01 0.  1.
</event>
<event>
 5   0  0.6218695E-07  0.3524808E+04  0.7818609E-02  0.8107936E-01
       -1   -1    0    0    0  501  0.00000000000E+00  0.00000000000E+00  0.16463920971E+04  0.16463920971E+04  0.50400001928E-02 0.  1.
        1   -1    0    0  501    0  0.00000000000E+00  0.00000000000E+00 -0.18865908297E+04  0.18865908297E+04  0.50400001928E-02 0. -1.
    10030    2    1    2    0    0  0.00000000000E+00  0.00000000000E+00 -0.24019873260E+03  0.35329829267E+04  0.35248082117E+04 0.  0.
        2    1    3    3  502    0  0.86260934628E+03 -0.15255914210E+04  0.66192285043E+02  0.17538259568E+04  0.25500000920E-02 0. -1.
       -2    1    3    3    0  502 -0.86260934628E+03  0.15255914210E+04 -0.30639101765E+03  0.17791569700E+04  0.25500000920E-02 0.  1.
</event>
<event>
 5   0  0.1911477E-06  0.3265776E+04  0.7818609E-02  0.8171659E-01
       -2   -1    0    0    0  501  0.00000000000E+00  0.00000000000E+00  0.26916707870E+04  0.26916707870E+04  0.25500000920E-02 0.  1.
        2   -1    0    0  501    0  0.00000000000E+00  0.00000000000E+00 -0.99058278359E+03  0.99058278360E+03  0.25500000920E-02 0. -1.
    10030    2    1    2    0    0  0.00000000000E+00  0.00000000000E+00  0.17010880034E+04  0.36822535706E+04  0.32657757062E+04 0.  0.
        5    1    3    3  502    0 -0.77873466176E+03 -0.54411142265E+02 -0.76654988987E+03  0.10940790965E+04  0.46999998093E+01 0. -1.
       -5    1    3    3    0  502  0.77873466176E+03  0.54411142265E+02  0.24676378933E+04  0.25881744741E+04  0.46999998093E+01 0.  1.
</event>
<event>
 5   0  0.1911477E-06  0.3363876E+04  0.7818609E-02  0.8146830E-01
       -2   -1    0    0    0  501  0.00000000000E+00  0.00000000000E+00  0.18099170113E+04  0.18099170113E+04  0.25500000920E-02 0.  1.
        2   -1    0    0  501    0  0.00000000000E+00  0.00000000000E+00 -0.15630080024E+04  0.15630080024E+04  0.25500000920E-02 0. -1.
    10030    2    1    2    0    0  0.00000000000E+00  0.00000000000E+00  0.24690900887E+03  0.33729250137E+04  0.33638756055E+04 0.  0.
        5    1    3    3  502    0  0.11152043364E+04 -0.10628093892E+03  0.13813877054E+04  0.17785472815E+04  0.46999998093E+01 0.  1.
       -5    1    3    3    0  502 -0.11152043364E+04  0.10628093892E+03 -0.11344786966E+04  0.15943777322E+04  0.46999998093E+01 0. -1.
</event>
<event>
 5   0  0.6134625E-07  0.3383208E+04  0.7818609E-02  0.8142040E-01
       -1   -1    0    0    0  501  0.00000000000E+00  0.00000000000E+00  0.12053014997E+04  0.12053014997E+04  0.50400001928E-02 0.  1.
        1   -1    0    0  501    0  0.00000000000E+00  0.00000000000E+00 -0.23741146316E+04  0.23741146316E+04  0.50400001928E-02 0. -1.
    10030    2    1    2    0    0  0.00000000000E+00  0.00000000000E+00 -0.11688131319E+04  0.35794161313E+04  0.33832079014E+04 0.  0.
        1    1    3    3  502    0  0.16388941854E+03 -0.15899944318E+03  0.11889211733E+04  0.12106502884E+04  0.50400001928E-02 0.  1.
       -1    1    3    3    0  502 -0.16388941854E+03  0.15899944318E+03 -0.23577343053E+04  0.23687658429E+04  0.50400001928E-02 0. -1.
</event>
<event>
 5   0  0.6146388E-07  0.3401944E+04  0.7818609E-02  0.8137429E-01
       -1   -1    0    0    0  501  0.00000000000E+00  0.00000000000E+00  0.14183450164E+04  0.14183450164E+04  0.50400001928E-02 0.  1.
        1   -1    0    0  501    0  0.00000000000E+00  0.00000000000E+00 -0.20399173151E+04  0.20399173151E+04  0.50400001928E-02 0. -1.
    10030    2    1    2    0    0  0.00000000000E+00  0.00000000000E+00 -0.62157229867E+03  0.34582623315E+04  0.34019444779E+04 0.  0.
        4    1    3    3  502    0  0.77007857556E+03 -0.45580346023E+03  0.11597180274E+04  0.14648294518E+04  0.12699999809E+01 0.  1.
       -4    1    3    3    0  502 -0.77007857556E+03  0.45580346023E+03 -0.17812903261E+04  0.19934328797E+04  0.12699999809E+01 0. -1.
</event>
<event>
 5   0  0.1948507E-06  0.3384518E+04  0.7818609E-02  0.8141717E-01
       -2   -1    0    0    0  501  0.00000000000E+00  0.00000000000E+00  0.15717608808E+04  0.15717608808E+04  0.25500000920E-02 0. -1.
        2   -1    0    0  501    0  0.00000000000E+00  0.00000000000E+00 -0.18219949671E+04  0.18219949671E+04  0.25500000920E-02 0.  1.
    10030    2    1    2    0    0  0.00000000000E+00  0.00000000000E+00 -0.25023408629E+03  0.33937558480E+04  0.33845179358E+04 0.  0.
        1    1    3    3  502    0  0.13545967886E+03 -0.11649248889E+04  0.10981886918E+04  0.16066790981E+04  0.50400001928E-02 0. -1.
       -1    1    3    3    0  502 -0.13545967886E+03  0.11649248889E+04 -0.13484227781E+04  0.17870767499E+04  0.50400001928E-02 0.  1.
</event>
<event>
 5   0  0.6134625E-07  0.3334731E+04  0.7818609E-02  0.8154114E-01
       -1   -1    0    0    0  501  0.00000000000E+00  0.00000000000E+00  0.15908824843E+04  0.15908824843E+04  0.50400001928E-02 0. -1.
        1   -1    0    0  501    0  0.00000000000E+00  0.00000000000E+00 -0.17475258551E+04  0.17475258551E+04  0.50400001928E-02 0.  1.
    10030    2    1    2    0    0  0.00000000000E+00  0.00000000000E+00 -0.15664337076E+03  0.33384083394E+04  0.33347313378E+04 0.  0.
        5    1    3    3  502    0  0.31356432237E+03  0.86735169408E+03  0.13122616406E+04  0.16039558126E+04  0.46999998093E+01 0. -1.
       -5    1    3    3    0  502 -0.31356432237E+03 -0.86735169408E+03 -0.14689050113E+04  0.17344525268E+04  0.46999998093E+01 0.  1.
</event>
<event>
 5   0  0.1339844E-06  0.3378379E+04  0.7818609E-02  0.8143233E-01
        2   -1    0    0  501    0  0.00000000000E+00  0.00000000000E+00  0.29800458247E+04  0.29800458247E+04  0.25500000920E-02 0.  1.
       -2   -1    0    0    0  501  0.00000000000E+00  0.00000000000E+00 -0.95748902353E+03  0.95748902353E+03  0.25500000920E-02 0. -1.
    10030    2    1    2    0    0  0.00000000000E+00  0.00000000000E+00  0.20225568012E+04  0.39375348483E+04  0.33783789999E+04 0.  0.
        3    1    3    3  502    0 -0.99633521815E+03 -0.13639923413E+04  0.99470590846E+03  0.19602547867E+04  0.10100000352E+00 0.  1.
       -3    1    3    3    0  502  0.99633521815E+03  0.13639923413E+04  0.10278508927E+04  0.19772800616E+04  0.10100000352E+00 0. -1.
</event>
<event>
 5   0  0.1339844E-06  0.3416380E+04  0.7818609E-02  0.8133898E-01
       -2   -1    0    0    0  501  0.00000000000E+00  0.00000000000E+00  0.19035530440E+04  0.19035530440E+04  0.25500000920E-02 0. -1.
        2   -1    0    0  501    0  0.00000000000E+00  0.00000000000E+00 -0.15328773257E+04  0.15328773257E+04  0.25500000920E-02 0.  1.
    10030    2    1    2    0    0  0.00000000000E+00  0.00000000000E+00  0.37067571839E+03  0.34364303697E+04  0.34163801307E+04 0.  0.
        3    1    3    3  502    0  0.84624406007E+03 -0.14035294947E+03  0.16711955819E+04  0.18784894577E+04  0.10100000352E+00 0. -1.
       -3    1    3    3    0  502 -0.84624406007E+03  0.14035294947E+03 -0.13005198635E+04  0.15579409120E+04  0.10100000352E+00 0.  1.
</event>
<event>
 5   0  0.1880301E-06  0.3303046E+04  0.7818609E-02  0.8162121E-01
       -2   -1    0    0    0  501  0.00000000000E+00  0.00000000000E+00  0.10218991835E+04  0.10218991835E+04  0.25500000920E-02 0.  1.
        2   -1    0    0  501    0  0.00000000000E+00  0.00000000000E+00 -0.26690778504E+04  0.26690778504E+04  0.25500000920E-02 0. -1.
    10030    2    1    2    0    0  0.00000000000E+00  0.00000000000E+00 -0.16471786669E+04  0.36909770339E+04  0.33030461553E+04 0.  0.
        4    1    3    3  502    0  0.70717941618E+03 -0.58513626966E+03  0.71062822622E+03  0.11608106088E+04  0.12699999809E+01 0.  1.
       -4    1    3    3    0  502 -0.70717941618E+03  0.58513626966E+03 -0.23578068931E+04  0.25301664251E+04  0.12699999809E+01 0. -1.
</event>
<event>
 5   0  0.1948507E-06  0.3425757E+04  0.7818609E-02  0.8131614E-01
       -2   -1    0    0    0  501  0.00000000000E+00  0.00000000000E+00  0.13979913321E+04  0.13979913321E+04  0.25500000920E-02 0.  1.
        2   -1    0    0  501    0  0.00000000000E+00  0.00000000000E+00 -0.20986912450E+04  0.20986912450E+04  0.25500000920E-02 0. -1.
    10030    2    1    2    0    0  0.00000000000E+00  0.00000000000E+00 -0.70069991295E+03  0.34966825771E+04  0.34257566575E+04 0.  0.
        1    1    3    3  502    0  0.63117891258E+03 -0.28258423227E+02 -0.19754073548E+04  0.20739863971E+04  0.50400001928E-02 0. -1.
       -1    1    3    3    0  502 -0.63117891258E+03  0.28258423227E+02  0.12747074418E+04  0.14226961799E+04  0.50400001928E-02 0.  1.
</event>
<event>
 5   0  0.6218695E-07  0.3348067E+04  0.7818609E-02  0.8150771E-01
       -1   -1    0    0    0  501  0.00000000000E+00  0.00000000000E+00  0.14687280364E+04  0.14687280365E+04  0.50400001928E-02 0.  1.
        1   -1    0    0  501    0  0.00000000000E+00  0.00000000000E+00 -0.19080375476E+04  0.19080375476E+04  0.50400001928E-02 0. -1.
    10030    2    1    2    0    0  0.00000000000E+00  0.00000000000E+00 -0.43930951116E+03  0.33767655841E+04  0.33480670488E+04 0.  0.
        2    1    3    3  502    0  0.16562317888E+04  0.16123482664E+03 -0.35641321547E+02  0.16644430634E+04  0.25500000920E-02 0.  1.
       -2    1    3    3    0  502 -0.16562317888E+04 -0.16123482664E+03 -0.40366818961E+03  0.17123225207E+04  0.25500000920E-02 0. -1.
</event>
<event>
 5   0  0.6134625E-07  0.3422752E+04  0.7818609E-02  0.8132345E-01
        1   -1    0    0  501    0  0.00000000000E+00  0.00000000000E+00  0.10590500620E+04  0.10590500621E+04  0.50400001928E-02 0. -1.
       -1   -1    0    0    0  501  0.00000000000E+00  0.00000000000E+00 -0.27655042741E+04  0.27655042742E+04  0.50400001928E-02 0.  1.
    10030    2    1    2    0    0  0.00000000000E+00  0.00000000000E+00 -0.17064542121E+04  0.38245543362E+04  0.34227518012E+04 0.  0.
        1    1    3    3  502    0 -0.47032409951E+03  0.14221375045E+04 -0.17781194185E+04  0.23249491407E+04  0.50400001928E-02 0.  1.
       -1    1    3    3    0  502  0.47032409951E+03 -0.14221375045E+04  0.71665206437E+02  0.14996051955E+04  0.50400001928E-02 0. -1.
</event>
<event>
 5   0  0.6134625E-07  0.2977604E+04  0.7818609E-02  0.8250155E-01
       -1   -1    0    0    0  501  0.00000000000E+00  0.00000000000E+00  0.98962993888E+03  0.98962993889E+03  0.50400001928E-02 0. -1.
        1   -1    0    0  501    0  0.00000000000E+00  0.00000000000E+00 -0.22397583978E+04  0.22397583978E+04  0.50400001928E-02 0.  1.
    10030    2    1    2    0    0  0.00000000000E+00  0.00000000000E+00 -0.12501284590E+04  0.32293883367E+04  0.29776043837E+04 0.  0.
        5    1    3    3  502    0 -0.11980466716E+04 -0.78167850944E+03 -0.10724666142E+04  0.17878880972E+04  0.46999998093E+01 0.  1.
       -5    1    3    3    0  502  0.11980466716E+04  0.78167850944E+03 -0.17766184473E+03  0.14415002395E+04  0.46999998093E+01 0. -1.
</event>
<event>
 5   0  0.1339844E-06  0.2703276E+04  0.7818609E-02  0.8333943E-01
       -2   -1    0    0    0  501  0.00000000000E+00  0.00000000000E+00  0.67602457624E+03  0.67602457624E+03  0.25500000920E-02 0.  1.
        2   -1    0    0  501    0  0.00000000000E+00  0.00000000000E+00 -0.27024546829E+04  0.27024546829E+04  0.25500000920E-02 0. -1.
    10030    2    1    2    0    0  0.00000000000E+00  0.00000000000E+00 -0.20264301067E+04  0.33784792592E+04  0.27032763690E+04 0.  0.
        3    1    3    3  502    0 -0.12069234491E+04 -0.37672701315E+03 -0.41601449203E+03  0.13310355075E+04  0.10100000352E+00 0.  1.
       -3    1    3    3    0  502  0.12069234491E+04  0.37672701315E+03 -0.16104156147E+04  0.20474437517E+04  0.10100000352E+00 0. -1.
</event>
<event>
 5   0  0.1339844E-06  0.3097207E+04  0.7818609E-02  0.8216505E-01
       -2   -1    0    0    0  501  0.00000000000E+00  0.00000000000E+00  0.15358609918E+04  0.15358609918E+04  0.25500000920E-02 0.  1.
        2   -1    0    0  501    0  0.00000000000E+00  0.00000000000E+00 -0.15614522168E+04  0.15614522168E+04  0.25500000920E-02 0. -1.
    10030    2    1    2    0    0  0.00000000000E+00  0.00000000000E+00 -0.25591224991E+02  0.30973132086E+04  0.30972074844E+04 0.  0.
        3    1    3    3  502    0 -0.77318630901E+03  0.85686193847E+03 -0.10453733954E+04  0.15571881697E+04  0.10100000352E+00 0. -1.
       -3    1    3    3    0  502  0.77318630901E+03 -0.85686193847E+03  0.10197821704E+04  0.15401250388E+04  0.10100000352E+00 0.  1.
</event>
<event>
 5   0  0.6218695E-07  0.3303037E+04  0.7818609E-02  0.8162123E-01
        1   -1    0    0  501    0  0.00000000000E+00  0.00000000000E+00  0.27788082349E+04  0.27788082349E+04  0.50400001928E-02 0.  1.
       -1   -1    0    0    0  501  0.00000000000E+00  0.00000000000E+00 -0.98154085047E+03  0.98154085048E+03  0.50400001928E-02 0. -1.
    10030    2    1    2    0    0  0.00000000000E+00  0.00000000000E+00  0.17972673845E+04  0.37603490854E+04  0.33030372679E+04 0.  0.
        2    1    3    3  502    0  0.44193588886E+03 -0.15871510856E+04  0.76804427645E+03  0.18177590349E+04  0.25500000920E-02 0. -1.
       -2    1    3    3    0  502 -0.44193588886E+03  0.15871510856E+04  0.10292231080E+04  0.19425900505E+04  0.25500000920E-02 0.  1.
</event>
<event>
 5   0  0.6134625E-07  0.3415038E+04  0.7818609E-02  0.8134225E-01
       -1   -1    0    0    0  501  0.00000000000E+00  0.00000000000E+00  0.19364247310E+04  0.19364247310E+04  0.50400001928E-02 0. -1.
        1   -1    0    0  501    0  0.00000000000E+00  0.00000000000E+00 -0.15056726959E+04  0.15056726960E+04  0.50400001928E-02 0.  1.
    10030    2    1    2    0    0  0.00000000000E+00  0.00000000000E+00  0.43075203505E+03  0.34420974270E+04  0.34150384157E+04 0.  0.
        1    1    3    3  502    0  0.14814950918E+04 -0.39456737909E+03  0.97307087342E+03  0.18158684006E+04  0.50400001928E-02 0. -1.
       -1    1    3    3    0  502 -0.14814950918E+04  0.39456737909E+03 -0.54231883837E+03  0.16262290263E+04  0.50400001928E-02 0.  1.
</event>
<event>
 5   0  0.1911477E-06  0.3534748E+04  0.7818609E-02  0.8105604E-01
       -2   -1    0    0    0  501  0.00000000000E+00  0.00000000000E+00  0.17129826503E+04  0.17129826503E+04  0.25500000920E-02 0.  1.
        2   -1    0    0  501    0  0.00000000000E+00  0.00000000000E+00 -0.18234927818E+04  0.18234927818E+04  0.25500000920E-02 0. -1.
    10030    2    1    2    0    0  0.00000000000E+00  0.00000000000E+00 -0.11051013154E+03  0.35364754321E+04  0.35347483634E+04 0.  0.
        5    1    3    3  502    0 -0.13252922015E+04 -0.14812857880E+03 -0.12156699929E+04  0.18044991319E+04  0.46999998093E+01 0. -1.
       -5    1    3    3    0  502  0.13252922015E+04  0.14812857880E+03  0.11051598614E+04  0.17319763002E+04  0.46999998093E+01 0.  1.
</event>
<event>
 5   0  0.6134625E-07  0.3437075E+04  0.7818609E-02  0.8128866E-01
       -3   -1    0    0    0  501  0.00000000000E+00  0.00000000000E+00  0.25173386674E+04  0.25173386694E+04  0.10100000352E+00 0. -1.
        3   -1    0    0  501    0  0.00000000000E+00  0.00000000000E+00 -0.11732116568E+04  0.11732116612E+04  0.10100000352E+00 0.  1.
    10030    2    1    2    0    0  0.00000000000E+00  0.00000000000E+00  0.13441270106E+04  0.36905503306E+04  0.34370749661E+04 0.  0.
        5    1    3    3  502    0 -0.83605038951E+03  0.12772166023E+04 -0.17550789617E+03  0.15365830972E+04  0.46999998093E+01 0.  1.
       -5    1    3    3    0  502  0.83605038951E+03 -0.12772166023E+04  0.15196349067E+04  0.21539672334E+04  0.46999998093E+01 0. -1.
</event>
<event>
 5   0  0.6146388E-07  0.3386663E+04  0.7818609E-02  0.8141187E-01
        1   -1    0    0  501    0  0.00000000000E+00  0.00000000000E+00  0.11599929356E+04  0.11599929356E+04  0.50400001928E-02 0. -1.
       -1   -1    0    0    0  501  0.00000000000E+00  0.00000000000E+00 -0.24718877404E+04  0.24718877404E+04  0.50400001928E-02 0.  1.
    10030    2    1    2    0    0  0.00000000000E+00  0.00000000000E+00 -0.13118948049E+04  0.36318806760E+04  0.33866634414E+04 0.  0.
        4    1    3    3  502    0 -0.10600002727E+04 -0.13121812890E+04 -0.81483158105E+03  0.18733319065E+04  0.12699999809E+01 0. -1.
       -4    1    3    3    0  502  0.10600002727E+04  0.13121812890E+04 -0.49706322382E+03  0.17585487695E+04  0.12699999809E+01 0.  1.
</event>
<event>
 5   0  0.6146388E-07  0.3370317E+04  0.7818609E-02  0.8145230E-01
        1   -1    0    0  501    0  0.00000000000E+00  0.00000000000E+00  0.20400485315E+04  0.20400485315E+04  0.50400001928E-02 0. -1.
       -1   -1    0    0    0  501  0.00000000000E+00  0.00000000000E+00 -0.13920059677E+04  0.13920059677E+04  0.50400001928E-02 0.  1.
    10030    2    1    2    0    0  0.00000000000E+00  0.00000000000E+00  0.64804256383E+03  0.34320544992E+04  0.33703173324E+04 0.  0.
        4    1    3    3  502    0 -0.52090048626E+03 -0.16006122549E+04  0.40587535898E+03  0.17314829849E+04  0.12699999809E+01 0. -1.
       -4    1    3    3    0  502  0.52090048626E+03  0.16006122549E+04  0.24216720485E+03  0.17005715143E+04  0.12699999809E+01 0.  1.
</event>
<event>
 5   0  0.1880301E-06  0.3397813E+04  0.7818609E-02  0.8138443E-01
        2   -1    0    0  501    0  0.00000000000E+00  0.00000000000E+00  0.91434089692E+03  0.91434089693E+03  0.25500000920E-02 0.  1.
       -2   -1    0    0    0  501  0.00000000000E+00  0.00000000000E+00 -0.31566811237E+04  0.31566811237E+04  0.25500000920E-02 0. -1.
    10030    2    1    2    0    0  0.00000000000E+00  0.00000000000E+00 -0.22423402267E+04  0.40710220206E+04  0.33978126199E+04 0.  0.
        4    1    3    3  502    0  0.15513733321E+04 -0.44034744930E+03 -0.17614874365E+04  0.23882011417E+04  0.12699999809E+01 0. -1.
       -4    1    3    3    0  502 -0.15513733321E+04  0.44034744930E+03 -0.48085279022E+03  0.16828208788E+04  0.12699999809E+01 0.  1.
</event>
<event>
 5   0  0.6134625E-07  0.3374939E+04  0.7818609E-02  0.8144085E-01
        1   -1    0    0  501    0  0.00000000000E+00  0.00000000000E+00  0.29624430566E+04  0.29624430566E+04  0.50400001928E-02 0. -1.
       -1   -1    0    0    0  501  0.00000000000E+00  0.00000000000E+00 -0.96121802144E+03  0.96121802145E+03  0.50400001928E-02 0.  1.
    10030    2    1    2    0    0  0.00000000000E+00  0.00000000000E+00  0.20012250351E+04  0.39236610780E+04  0.33749392015E+04 0.  0.
        1    1    3    3  502    0 -0.43453998387E+03 -0.14924577466E+04  0.17641221528E+04  0.23512511761E+04  0.50400001928E-02 0. -1.
       -1    1    3    3    0  502  0.43453998387E+03  0.14924577466E+04  0.23710288231E+03  0.15724099019E+04  0.50400001928E-02 0.  1.
</event>
<event>
 5   0  0.6134625E-07  0.3249013E+04  0.7818609E-02  0.8175991E-01
        1   -1    0    0  501    0  0.00000000000E+00  0.00000000000E+00  0.19466201865E+04  0.19466201865E+04  0.50400001928E-02 0. -1.
       -1   -1    0    0    0  501  0.00000000000E+00  0.00000000000E+00 -0.13556942868E+04  0.13556942868E+04  0.50400001928E-02 0.  1.
    10030    2    1    2    0    0  0.00000000000E+00  0.00000000000E+00  0.59092589970E+03  0.33023144732E+04  0.32490133058E+04 0.  0.
        1    1    3    3  502    0 -0.94739357889E+03  0.24384917555E+03 -0.10227347821E+04  0.14152750434E+04  0.50400001928E-02 0.  1.
       -1    1    3    3    0  502  0.94739357889E+03 -0.24384917555E+03  0.16136606818E+04  0.18870394299E+04  0.50400001928E-02 0. -1.
</event>
<event>
 5   0  0.6134625E-07  0.3380497E+04  0.7818609E-02  0.8142710E-01
       -1   -1    0    0    0  501  0.00000000000E+00  0.00000000000E+00  0.12469979209E+04  0.12469979209E+04  0.50400001928E-02 0. -1.
        1   -1    0    0  501    0  0.00000000000E+00  0.00000000000E+00 -0.22910542502E+04  0.22910542502E+04  0.50400001928E-02 0.  1.
    10030    2    1    2    0    0  0.00000000000E+00  0.00000000000E+00 -0.10440563293E+04  0.35380521711E+04  0.33804969378E+04 0.  0.
        1    1    3    3  502    0  0.29767470911E+03 -0.15396734689E+03  0.12118760056E+04  0.12573621711E+04  0.50400001928E-02 0. -1.
       -1    1    3    3    0  502 -0.29767470911E+03  0.15396734689E+03 -0.22559323349E+04  0.22806900000E+04  0.50400001928E-02 0.  1.
</event>
<event>
 5   0  0.6134625E-07  0.3482058E+04  0.7818609E-02  0.8118055E-01
        1   -1    0    0  501    0  0.00000000000E+00  0.00000000000E+00  0.20686479890E+04  0.20686479890E+04  0.50400001928E-02 0.  1.
       -1   -1    0    0    0  501  0.00000000000E+00  0.00000000000E+00 -0.14652965265E+04  0.14652965265E+04  0.50400001928E-02 0. -1.
    10030    2    1    2    0    0  0.00000000000E+00  0.00000000000E+00  0.60335146255E+03  0.35339445155E+04  0.34820584216E+04 0.  0.
        3    1    3    3  502    0 -0.40837649349E+03 -0.13233483055E+04 -0.76911002920E+03  0.15841566669E+04  0.10100000352E+00 0. -1.
       -3    1    3    3    0  502  0.40837649349E+03  0.13233483055E+04  0.13724614917E+04  0.19497878486E+04  0.10100000352E+00 0.  1.
</event>
<event>
 5   0  0.6134625E-07  0.3266518E+04  0.7818609E-02  0.8171467E-01
        1   -1    0    0  501    0  0.00000000000E+00  0.00000000000E+00  0.16543749077E+04  0.16543749077E+04  0.50400001928E-02 0.  1.
       -1   -1    0    0    0  501  0.00000000000E+00  0.00000000000E+00 -0.16124128127E+04  0.16124128127E+04  0.50400001928E-02 0. -1.
    10030    2    1    2    0    0  0.00000000000E+00  0.00000000000E+00  0.41962094987E+02  0.32667877204E+04  0.32665182064E+04 0.  0.
        3    1    3    3  502    0 -0.40858706896E+03  0.12697896129E+04 -0.92155426310E+03  0.16212869345E+04  0.10100000352E+00 0. -1.
       -3    1    3    3    0  502  0.40858706896E+03 -0.12697896129E+04  0.96351635808E+03  0.16455007859E+04  0.10100000352E+00 0.  1.
</event>
<event>
 5   0  0.1911477E-06  0.3399717E+04  0.7818609E-02  0.8137976E-01
        2   -1    0    0  501    0  0.00000000000E+00  0.00000000000E+00  0.21645092419E+04  0.21645092419E+04  0.25500000920E-02 0.  1.
       -2   -1    0    0    0  501  0.00000000000E+00  0.00000000000E+00 -0.13349531547E+04  0.13349531547E+04  0.25500000920E-02 0. -1.
    10030    2    1    2    0    0  0.00000000000E+00  0.00000000000E+00  0.82955608723E+03  0.34994623966E+04  0.33997167181E+04 0.  0.
        5    1    3    3  502    0 -0.44309583112E+03  0.16180162971E+04  0.13253306961E+03  0.16828243396E+04  0.46999998093E+01 0.  1.
       -5    1    3    3    0  502  0.44309583112E+03 -0.16180162971E+04  0.69702301762E+03  0.18166380571E+04  0.46999998093E+01 0. -1.
</event>
<event>
 5   0  0.6218695E-07  0.3329443E+04  0.7818609E-02  0.8155444E-01
       -1   -1    0    0    0  501  0.00000000000E+00  0.00000000000E+00  0.12309555878E+04  0.12309555878E+04  0.50400001928E-02 0.  1.
        1   -1    0    0  501    0  0.00000000000E+00  0.00000000000E+00 -0.22513389602E+04  0.22513389602E+04  0.50400001928E-02 0. -1.
    10030    2    1    2    0    0  0.00000000000E+00  0.00000000000E+00 -0.10203833724E+04  0.34822945480E+04  0.33294433607E+04 0.  0.
        2    1    3    3  502    0  0.17931489767E+03 -0.12985305314E+04 -0.15834404734E+04  0.20556310725E+04  0.25500000920E-02 0. -1.
       -2    1    3    3    0  502 -0.17931489767E+03  0.12985305314E+04  0.56305710093E+03  0.14266634755E+04  0.25500000920E-02 0.  1.
</event>
<event>
 5   0  0.1911477E-06  0.3547983E+04  0.7818609E-02  0.8102512E-01
       -2   -1    0    0    0  501  0.00000000000E+00  0.00000000000E+00  0.23986933674E+04  0.23986933674E+04  0.25500000920E-02 0.  1.
        2   -1    0    0  501    0  0.00000000000E+00  0.00000000000E+00 -0.13119833444E+04  0.13119833444E+04  0.25500000920E-02 0. -1.
    10030    2    1    2    0    0  0.00000000000E+00  0.00000000000E+00  0.10867100231E+04  0.37106767118E+04  0.35479829460E+04 0.  0.
        5    1    3    3  502    0  0.39465651092E+03  0.11759378150E+04  0.18697535898E+04  0.22437878872E+04  0.46999998093E+01 0.  1.
       -5    1    3    3    0  502 -0.39465651092E+03 -0.11759378150E+04 -0.78304356667E+03  0.14668888246E+04  0.46999998093E+01 0. -1.
</event>
<event>
 5   0  0.1339844E-06  0.3408279E+04  0.7818609E-02  0.8135877E-01
       -2   -1    0    0    0  501  0.00000000000E+00  0.00000000000E+00  0.98038471304E+03  0.98038471305E+03  0.25500000920E-02 0.  1.
        2   -1    0    0  501    0  0.00000000000E+00  0.00000000000E+00 -0.29621952353E+04  0.29621952353E+04  0.25500000920E-02 0. -1.
    10030    2    1    2    0    0  0.00000000000E+00  0.00000000000E+00 -0.19818105222E+04  0.39425799483E+04  0.34082787009E+04 0.  0.
        3    1    3    3  502    0 -0.14181715943E+04  0.62274703988E+03 -0.18129957690E+04  0.23845289294E+04  0.10100000352E+00 0.  1.
       -3    1    3    3    0  502  0.14181715943E+04 -0.62274703988E+03 -0.16881475327E+03  0.15580510190E+04  0.10100000352E+00 0. -1.
</event>
<event>
 5   0  0.6134625E-07  0.3326037E+04  0.7818609E-02  0.8156302E-01
       -1   -1    0    0    0  501  0.00000000000E+00  0.00000000000E+00  0.13176373844E+04  0.13176373844E+04  0.50400001928E-02 0. -1.
        1   -1    0    0  501    0  0.00000000000E+00  0.00000000000E+00 -0.20989320011E+04  0.20989320011E+04  0.50400001928E-02 0.  1.
    10030    2    1    2    0    0  0.00000000000E+00  0.00000000000E+00 -0.78129461670E+03  0.34165693855E+04  0.33260374454E+04 0.  0.
        1    1    3    3  502    0 -0.21386529807E+03 -0.14678298458E+04  0.38172891372E+03  0.15316591611E+04  0.50400001928E-02 0.  1.
       -1    1    3    3    0  502  0.21386529807E+03  0.14678298458E+04 -0.11630235304E+04  0.18849102245E+04  0.50400001928E-02 0. -1.
</event>
<event>
 5   0  0.6134625E-07  0.3216074E+04  0.7818609E-02  0.8184585E-01
        1   -1    0    0  501    0  0.00000000000E+00  0.00000000000E+00  0.15215227931E+04  0.15215227931E+04  0.50400001928E-02 0.  1.
       -1   -1    0    0    0  501  0.00000000000E+00  0.00000000000E+00 -0.16994699786E+04  0.16994699786E+04  0.50400001928E-02 0. -1.
    10030    2    1    2    0    0  0.00000000000E+00  0.00000000000E+00 -0.17794718543E+03  0.32209927717E+04  0.32160735742E+04 0.  0.
        5    1    3    3  502    0  0.14338015581E+03 -0.14831300836E+04  0.51653987274E+03  0.15770441478E+04  0.46999998093E+01 0.  1.
       -5    1    3    3    0  502 -0.14338015581E+03  0.14831300836E+04 -0.69448705817E+03  0.16439486239E+04  0.46999998093E+01 0. -1.
</event>
<event>
 5   0  0.1339844E-06  0.3385966E+04  0.7818609E-02  0.8141359E-01
        2   -1    0    0  501    0  0.00000000000E+00  0.00000000000E+00  0.30383506936E+04  0.30383506936E+04  0.25500000920E-02 0. -1.
       -2   -1    0    0    0  501  0.00000000000E+00  0.00000000000E+00 -0.94333785220E+03  0.94333785220E+03  0.25500000920E-02 0.  1.
    10030    2    1    2    0    0  0.00000000000E+00  0.00000000000E+00  0.20950128414E+04  0.39816885458E+04  0.33859658696E+04 0.  0.
        3    1    3    3  502    0  0.11134761648E+04  0.85687761332E+03 -0.63194233003E+02  0.14064358980E+04  0.10100000352E+00 0.  1.
       -3    1    3    3    0  502 -0.11134761648E+04 -0.85687761332E+03  0.21582070744E+04  0.25752526478E+04  0.10100000352E+00 0. -1.
</event>
<event>
 5   0  0.6146388E-07  0.3384374E+04  0.7818609E-02  0.8141752E-01
       -1   -1    0    0    0  501  0.00000000000E+00  0.00000000000E+00  0.19017758843E+04  0.19017758843E+04  0.50400001928E-02 0. -1.
        1   -1    0    0  501    0  0.00000000000E+00  0.00000000000E+00 -0.15056958797E+04  0.15056958797E+04  0.50400001928E-02 0.  1.
    10030    2    1    2    0    0  0.00000000000E+00  0.00000000000E+00  0.39608000459E+03  0.34074717641E+04  0.33843735688E+04 0.  0.
        4    1    3    3  502    0  0.67199013312E+03 -0.44717793310E+03  0.16954550027E+04  0.18777934183E+04  0.12699999809E+01 0. -1.
       -4    1    3    3    0  502 -0.67199013312E+03  0.44717793310E+03 -0.12993749981E+04  0.15296783457E+04  0.12699999809E+01 0.  1.
</event>
<event>
 5   0  0.1880301E-06  0.3384305E+04  0.7818609E-02  0.8141769E-01
       -2   -1    0    0    0  501  0.00000000000E+00  0.00000000000E+00  0.15240437949E+04  0.15240437949E+04  0.25500000920E-02 0. -1.
        2   -1    0    0  501    0  0.00000000000E+00  0.00000000000E+00 -0.18788047143E+04  0.18788047143E+04  0.25500000920E-02 0.  1.
    10030    2    1    2    0    0  0.00000000000E+00  0.00000000000E+00 -0.35476091945E+03  0.34028485093E+04  0.33843053448E+04 0.  0.
        4    1    3    3  502    0  0.41397190585E+03 -0.66956908459E+03 -0.16834807004E+04  0.18584413845E+04  0.12699999809E+01 0.  1.
       -4    1    3    3    0  502 -0.41397190585E+03  0.66956908459E+03  0.13287197810E+04  0.15444071248E+04  0.12699999809E+01 0. -1.
</event>
<event>
 5   0  0.1948507E-06  0.3322174E+04  0.7818609E-02  0.8157276E-01
        2   -1    0    0  501    0  0.00000000000E+00  0.00000000000E+00  0.21876415475E+04  0.21876415475E+04  0.25500000920E-02 0.  1.
       -2   -1    0    0    0  501  0.00000000000E+00  0.00000000000E+00 -0.12612719125E+04  0.12612719125E+04  0.25500000920E-02 0. -1.
    10030    2    1    2    0    0  0.00000000000E+00  0.00000000000E+00  0.92636963500E+03  0.34489134600E+04  0.33221744918E+04 0.  0.
        1    1    3    3  502    0 -0.68916993743E+03  0.78166338830E+03 -0.87970787552E+03  0.13637590702E+04  0.50400001928E-02 0. -1.
       -1    1    3    3    0  502  0.68916993743E+03 -0.78166338830E+03  0.18060775105E+04  0.20851543898E+04  0.50400001928E-02 0.  1.
</event>
<event>
 5   0  0.6134625E-07  0.3428572E+04  0.7818609E-02  0.8130929E-01
        1   -1    0    0  501    0  0.00000000000E+00  0.00000000000E+00  0.20939226952E+04  0.20939226952E+04  0.50400001928E-02 0.  1.
       -1   -1    0    0    0  501  0.00000000000E+00  0.00000000000E+00 -0.14034786827E+04  0.14034786827E+04  0.50400001928E-02 0. -1.
    10030    2    1    2    0    0  0.00000000000E+00  0.00000000000E+00  0.69044401250E+03  0.34974013778E+04  0.34285716360E+04 0.  0.
        1    1    3    3  502    0 -0.16055853670E+04 -0.34681571304E+03 -0.15512505840E+03  0.16499240266E+04  0.50400001928E-02 0. -1.
       -1    1    3    3    0  502  0.16055853670E+04  0.34681571304E+03  0.84556907091E+03  0.18474773513E+04  0.50400001928E-02 0.  1.
</event>
<event>
 5   0  0.1339844E-06  0.3408526E+04  0.7818609E-02  0.8135817E-01
       -2   -1    0    0    0  501  0.00000000000E+00  0.00000000000E+00  0.13243557763E+04  0.13243557763E+04  0.25500000920E-02 0.  1.
        2   -1    0    0  501    0  0.00000000000E+00  0.00000000000E+00 -0.21931506580E+04  0.21931506580E+04  0.25500000920E-02 0. -1.
    10030    2    1    2    0    0  0.00000000000E+00  0.00000000000E+00 -0.86879488169E+03  0.35175064344E+04  0.34085256298E+04 0.  0.
        3    1    3    3  502    0  0.11342821962E+04 -0.38026684496E+01 -0.17470335024E+04  0.20829634249E+04  0.10100000352E+00 0. -1.
       -3    1    3    3    0  502 -0.11342821962E+04  0.38026684496E+01  0.87823862071E+03  0.14345430094E+04  0.10100000352E+00 0.  1.
</event>
<event>
 5   0  0.6146388E-07  0.3140281E+04  0.7818609E-02  0.8204769E-01
        1   -1    0    0  501    0  0.00000000000E+00  0.00000000000E+00  0.24169264306E+04  0.24169264306E+04  0.50400001928E-02 0.  1.
       -1   -1    0    0    0  501  0.00000000000E+00  0.00000000000E+00 -0.10200318576E+04  0.10200318576E+04  0.50400001928E-02 0. -1.
    10030    2    1    2    0    0  0.00000000000E+00  0.00000000000E+00  0.13968945730E+04  0.34369582882E+04  0.31402814884E+04 0.  0.
        4    1    3    3  502    0 -0.98404575897E+03 -0.78811102930E+03  0.17227464555E+04  0.21347885172E+04  0.12699999809E+01 0.  1.
       -4    1    3    3    0  502  0.98404575897E+03  0.78811102930E+03 -0.32585188251E+03  0.13021697710E+04  0.12699999809E+01 0. -1.
</event>
<event>
 5   0  0.1797075E-06  0.3401424E+04  0.7818609E-02  0.8137557E-01
        2   -1    0    0  501    0  0.00000000000E+00  0.00000000000E+00  0.18767590381E+04  0.18767590381E+04  0.25500000920E-02 0. -1.
       -2   -1    0    0    0  501  0.00000000000E+00  0.00000000000E+00 -0.15411791545E+04  0.15411791545E+04  0.25500000920E-02 0.  1.
    10030    2    1    2    0    0  0.00000000000E+00  0.00000000000E+00  0.33557988354E+03  0.34179381926E+04  0.34014243532E+04 0.  0.
        2    1    3    3  502    0  0.13283397126E+04  0.28842660317E+03  0.11948803316E+04  0.18098108477E+04  0.25500000920E-02 0. -1.
       -2    1    3    3    0  502 -0.13283397126E+04 -0.28842660317E+03 -0.85930044804E+03  0.16081273450E+04  0.25500000920E-02 0.  1.
</event>
<event>
 5   0  0.6146388E-07  0.3346288E+04  0.7818609E-02  0.8151216E-01
       -1   -1    0    0    0  501  0.00000000000E+00  0.00000000000E+00  0.14181869152E+04  0.14181869152E+04  0.50400001928E-02 0. -1.
        1   -1    0    0  501    0  0.00000000000E+00  0.00000000000E+00 -0.19739358730E+04  0.19739358730E+04  0.50400001928E-02 0.  1.
    10030    2    1    2    0    0  0.00000000000E+00  0.00000000000E+00 -0.55574895789E+03  0.33921227882E+04  0.33462875110E+04 0.  0.
        4    1    3    3  502    0 -0.54541615974E+03  0.14085481962E+04 -0.10073997254E+04  0.18155832749E+04  0.12699999809E+01 0. -1.
       -4    1    3    3    0  502  0.54541615974E+03 -0.14085481962E+04  0.45165076749E+03  0.15765395133E+04  0.12699999809E+01 0.  1.
</event>
<event>
 5   0  0.6146388E-07  0.3603155E+04  0.7818609E-02  0.8089769E-01
        1   -1    0    0  501    0  0.00000000000E+00  0.00000000000E+00  0.28811754292E+04  0.28811754292E+04  0.50400001928E-02 0.  1.
       -1   -1    0    0    0  501  0.00000000000E+00  0.00000000000E+00 -0.11265128679E+04  0.11265128679E+04  0.50400001928E-02 0. -1.
    10030    2    1    2    0    0  0.00000000000E+00  0.00000000000E+00  0.17546625614E+04  0.40076882971E+04  0.36031548374E+04 0.  0.
        4    1    3    3  502    0  0.44716877957E+03 -0.17411466927E+04  0.74512587887E+03  0.19459614362E+04  0.12699999809E+01 0.  1.
       -4    1    3    3    0  502 -0.44716877957E+03  0.17411466927E+04  0.10095366825E+04  0.20617268609E+04  0.12699999809E+01 0. -1.
</event>
<event>
 5   0  0.1911477E-06  0.2802560E+04  0.7818609E-02  0.8302474E-01
       -2   -1    0    0    0  501  0.00000000000E+00  0.00000000000E+00  0.82997535187E+03  0.82997535188E+03  0.25500000920E-02 0. -1.
        2   -1    0    0  501    0  0.00000000000E+00  0.00000000000E+00 -0.23658363583E+04  0.23658363583E+04  0.25500000920E-02 0.  1.
    10030    2    1    2    0    0  0.00000000000E+00  0.00000000000E+00 -0.15358610064E+04  0.31958117102E+04  0.28025601610E+04 0.  0.
        5    1    3    3  502    0  0.82325415547E+03 -0.10822586756E+04 -0.38201638764E+03  0.14124410982E+04  0.46999998093E+01 0.  1.
       -5    1    3    3    0  502 -0.82325415547E+03  0.10822586756E+04 -0.11538446188E+04  0.17833706120E+04  0.46999998093E+01 0. -1.
</event>
<event>
 5   0  0.1797075E-06  0.3391394E+04  0.7818609E-02  0.8140022E-01
        2   -1    0    0  501    0  0.00000000000E+00  0.00000000000E+00  0.18570908351E+04  0.18570908351E+04  0.25500000920E-02 0.  1.
       -2   -1    0    0    0  501  0.00000000000E+00  0.00000000000E+00 -0.15483289469E+04  0.15483289469E+04  0.25500000920E-02 0. -1.
    10030    2    1    2    0    0  0.00000000000E+00  0.00000000000E+00  0.30876188814E+03  0.34054197820E+04  0.33913935171E+04 0.  0.
        2    1    3    3  502    0 -0.15340531895E+03 -0.16804428303E+04  0.32230356098E+03  0.17179350637E+04  0.25500000920E-02 0. -1.
       -2    1    3    3    0  502  0.15340531895E+03  0.16804428303E+04 -0.13541672845E+02  0.16874847183E+04  0.25500000920E-02 0.  1.
</event>
<event>
 5   0  0.1948507E-06  0.3392240E+04  0.7818609E-02  0.8139814E-01
        2   -1    0    0  501    0  0.00000000000E+00  0.00000000000E+00  0.19811008645E+04  0.19811008645E+04  0.25500000920E-02 0.  1.
       -2   -1    0    0    0  501  0.00000000000E+00  0.00000000000E+00 -0.14521332836E+04  0.14521332836E+04  0.25500000920E-02 0. -1.
    10030    2    1    2    0    0  0.00000000000E+00  0.00000000000E+00  0.52896758094E+03  0.34332341481E+04  0.33922396752E+04 0.  0.
        1    1    3    3  502    0  0.42812623991E+03 -0.15304957043E+04 -0.33522518689E+03  0.16242183056E+04  0.50400001928E-02 0. -1.
       -1    1    3    3    0  502 -0.42812623991E+03  0.15304957043E+04  0.86419276784E+03  0.18090158425E+04  0.50400001928E-02 0.  1.
</event>
<event>
 5   0  0.1911477E-06  0.3386011E+04  0.7818609E-02  0.8141348E-01
       -2   -1    0    0    0  501  0.00000000000E+00  0.00000000000E+00  0.11890836307E+04  0.11890836307E+04  0.25500000920E-02 0.  1.
        2   -1    0    0  501    0  0.00000000000E+00  0.00000000000E+00 -0.24104850518E+04  0.24104850518E+04  0.25500000920E-02 0. -1.
    10030    2    1    2    0    0  0.00000000000E+00  0.00000000000E+00 -0.12214014211E+04  0.35995686826E+04  0.33860114101E+04 0.  0.
        5    1    3    3  502    0  0.88741711630E+03 -0.12683425599E+04 -0.13395393938E+04  0.20470930280E+04  0.46999998093E+01 0.  1.
       -5    1    3    3    0  502 -0.88741711630E+03  0.12683425599E+04  0.11813797275E+03  0.15524756546E+04  0.46999998093E+01 0. -1.
</event>
<event>
 5   0  0.1948507E-06  0.3334557E+04  0.7818609E-02  0.8154158E-01
       -2   -1    0    0    0  501  0.00000000000E+00  0.00000000000E+00  0.19039199829E+04  0.19039199829E+04  0.25500000920E-02 0. -1.
        2   -1    0    0  501    0  0.00000000000E+00  0.00000000000E+00 -0.14600498131E+04  0.14600498131E+04  0.25500000920E-02 0.  1.
    10030    2    1    2    0    0  0.00000000000E+00  0.00000000000E+00  0.44387016985E+03  0.33639697960E+04  0.33345572511E+04 0.  0.
        1    1    3    3  502    0  0.66119054180E+03  0.79087367554E+03  0.15438995640E+04  0.18564158927E+04  0.50400001928E-02 0. -1.
       -1    1    3    3    0  502 -0.66119054180E+03 -0.79087367554E+03 -0.11000293941E+04  0.15075539032E+04  0.50400001928E-02 0.  1.
</event>
<event>
 5   0  0.6134625E-07  0.3510945E+04  0.7818609E-02  0.8111201E-01
       -1   -1    0    0    0  501  0.00000000000E+00  0.00000000000E+00  0.11665322341E+04  0.11665322342E+04  0.50400001928E-02 0. -1.
        1   -1    0    0  501    0  0.00000000000E+00  0.00000000000E+00 -0.26417477432E+04  0.26417477432E+04  0.50400001928E-02 0.  1.
    10030    2    1    2    0    0  0.00000000000E+00  0.00000000000E+00 -0.14752155091E+04  0.38082799774E+04  0.35109451132E+04 0.  0.
        1    1    3    3  502    0  0.59528715823E+03 -0.78580041554E+03  0.83793087289E+03  0.12938227242E+04  0.50400001928E-02 0. -1.
       -1    1    3    3    0  502 -0.59528715823E+03  0.78580041554E+03 -0.23131463820E+04  0.25144572532E+04  0.50400001928E-02 0.  1.
</event>
<event>
 5   0  0.1911477E-06  0.3449274E+04  0.7818609E-02  0.8125918E-01
        2   -1    0    0  501    0  0.00000000000E+00  0.00000000000E+00  0.18966134521E+04  0.18966134521E+04  0.25500000920E-02 0. -1.
       -2   -1    0    0    0  501  0.00000000000E+00  0.00000000000E+00 -0.15682542736E+04  0.15682542736E+04  0.25500000920E-02 0.  1.
    10030    2    1    2    0    0  0.00000000000E+00  0.00000000000E+00  0.32835917850E+03  0.34648677256E+04  0.34492736345E+04 0.  0.
        5    1    3    3  502    0  0.99826614229E+03  0.36909363527E+02 -0.12480398923E+04  0.15986004049E+04  0.46999998093E+01 0.  1.
       -5    1    3    3    0  502 -0.99826614229E+03 -0.36909363527E+02  0.15763990708E+04  0.18662673207E+04  0.46999998093E+01 0. -1.
</event>
<event>
 5   0  0.6134625E-07  0.3391290E+04  0.7818609E-02  0.8140047E-01
       -1   -1    0    0    0  501  0.00000000000E+00  0.00000000000E+00  0.16670480242E+04  0.16670480243E+04  0.50400001928E-02 0.  1.
        1   -1    0    0  501    0  0.00000000000E+00  0.00000000000E+00 -0.17247322998E+04  0.17247322998E+04  0.50400001928E-02 0. -1.
    10030    2    1    2    0    0  0.00000000000E+00  0.00000000000E+00 -0.57684275554E+02  0.33917803241E+04  0.33912897681E+04 0.  0.
        5    1    3    3  502    0 -0.11076200819E+04  0.57179181403E+03  0.11208550736E+04  0.16763371709E+04  0.46999998093E+01 0.  1.
       -5    1    3    3    0  502  0.11076200819E+04 -0.57179181403E+03 -0.11785393492E+04  0.17154431532E+04  0.46999998093E+01 0. -1.
</event>
<event>
 5   0  0.1880301E-06  0.3395896E+04  0.7818609E-02  0.8138914E-01
       -2   -1    0    0    0  501  0.00000000000E+00  0.00000000000E+00  0.12829479199E+04  0.12829479199E+04  0.25500000920E-02 0. -1.
        2   -1    0    0  501    0  0.00000000000E+00  0.00000000000E+00 -0.22471896774E+04  0.22471896774E+04  0.25500000920E-02 0.  1.
    10030    2    1    2    0    0  0.00000000000E+00  0.00000000000E+00 -0.96424175752E+03  0.35301375973E+04  0.33958959478E+04 0.  0.
        4    1    3    3  502    0 -0.47862455379E+03  0.67769951405E+03  0.10578823677E+04  0.13444235983E+04  0.12699999809E+01 0. -1.
       -4    1    3    3    0  502  0.47862455379E+03 -0.67769951405E+03 -0.20221241252E+04  0.21857139990E+04  0.12699999809E+01 0.  1.
</event>
<event>
 5   0  0.1880301E-06  0.3094571E+04  0.7818609E-02  0.8217229E-01
        2   -1    0    0  501    0  0.00000000000E+00  0.00000000000E+00  0.16440899704E+04  0.16440899704E+04  0.25500000920E-02 0. -1.
       -2   -1    0    0    0  501  0.00000000000E+00  0.00000000000E+00 -0.14561810054E+04  0.14561810054E+04  0.25500000920E-02 0.  1.
    10030    2    1    2    0    0  0.00000000000E+00  0.00000000000E+00  0.18790896494E+03  0.31002709758E+04  0.30945711083E+04 0.  0.
        4    1    3    3  502    0  0.42729551792E+02 -0.12002850137E+04  0.10712413866E+04  0.16093693330E+04  0.12699999809E+01 0. -1.
       -4    1    3    3    0  502 -0.42729551792E+02  0.12002850137E+04 -0.88333242164E+03  0.14909016429E+04  0.12699999809E+01 0.  1.
</event>
<event>
 5   0  0.1911477E-06  0.3079314E+04  0.7818609E-02  0.8221438E-01
       -2   -1    0    0    0  501  0.00000000000E+00  0.00000000000E+00  0.11774704091E+04  0.11774704091E+04  0.25500000920E-02 0.  1.
        2   -1    0    0  501    0  0.00000000000E+00  0.00000000000E+00 -0.20132516398E+04  0.20132516398E+04  0.25500000920E-02 0. -1.
    10030    2    1    2    0    0  0.00000000000E+00  0.00000000000E+00 -0.83578123070E+03  0.31907220489E+04  0.30793143600E+04 0.  0.
        5    1    3    3  502    0  0.11297232365E+04 -0.21910824291E+03  0.64197407880E+03  0.13177389048E+04  0.46999998093E+01 0.  1.
       -5    1    3    3    0  502 -0.11297232365E+04  0.21910824291E+03 -0.14777553095E+04  0.18729831441E+04  0.46999998093E+01 0. -1.
</event>
<event>
 5   0  0.6134625E-07  0.3259608E+04  0.7818609E-02  0.8173250E-01
        3   -1    0    0  501    0  0.00000000000E+00  0.00000000000E+00  0.21029836977E+04  0.21029837001E+04  0.10100000352E+00 0. -1.
       -3   -1    0    0    0  501  0.00000000000E+00  0.00000000000E+00 -0.12630914513E+04  0.12630914554E+04  0.10100000352E+00 0.  1.
    10030    2    1    2    0    0  0.00000000000E+00  0.00000000000E+00  0.83989224634E+03  0.33660751555E+04  0.32596077934E+04 0.  0.
        2    1    3    3  502    0  0.97863108399E+03  0.12813224987E+04  0.17393259783E+03  0.16216530742E+04  0.25500000920E-02 0. -1.
       -2    1    3    3    0  502 -0.97863108399E+03 -0.12813224987E+04  0.66595964851E+03  0.17444220813E+04  0.25500000920E-02 0.  1.
</event>
<event>
 5   0  0.6134625E-07  0.3401854E+04  0.7818609E-02  0.8137451E-01
        1   -1    0    0  501    0  0.00000000000E+00  0.00000000000E+00  0.16472395316E+04  0.16472395316E+04  0.50400001928E-02 0.  1.
       -1   -1    0    0    0  501  0.00000000000E+00  0.00000000000E+00 -0.17563646378E+04  0.17563646378E+04  0.50400001928E-02 0. -1.
    10030    2    1    2    0    0  0.00000000000E+00  0.00000000000E+00 -0.10912510619E+03  0.34036041693E+04  0.34018543550E+04 0.  0.
        1    1    3    3  502    0 -0.46189339609E+03  0.13152516567E+04  0.92057759456E+03  0.16705374996E+04  0.50400001928E-02 0.  1.
       -1    1    3    3    0  502  0.46189339609E+03 -0.13152516567E+04 -0.10297027007E+04  0.17330666698E+04  0.50400001928E-02 0. -1.
</event>
<event>
 5   0  0.6134625E-07  0.3305441E+04  0.7818609E-02  0.8161512E-01
        1   -1    0    0  501    0  0.00000000000E+00  0.00000000000E+00  0.19926298731E+04  0.19926298731E+04  0.50400001928E-02 0.  1.
       -1   -1    0    0    0  501  0.00000000000E+00  0.00000000000E+00 -0.13707937021E+04  0.13707937021E+04  0.50400001928E-02 0. -1.
    10030    2    1    2    0    0  0.00000000000E+00  0.00000000000E+00  0.62183617101E+03  0.33634235751E+04  0.33054406548E+04 0.  0.
        5    1    3    3  502    0  0.74654795426E+03  0.14086515415E+04 -0.13241884600E+03  0.15997468094E+04  0.46999998093E+01 0. -1.
       -5    1    3    3    0  502 -0.74654795426E+03 -0.14086515415E+04  0.75425501701E+03  0.17636767658E+04  0.46999998093E+01 0.  1.
</event>
<event>
 5   0  0.1880301E-06  0.3487622E+04  0.7818609E-02  0.8116730E-01
        2   -1    0    0  501    0  0.00000000000E+00  0.00000000000E+00  0.22357433249E+04  0.22357433249E+04  0.25500000920E-02 0.  1.
       -2   -1    0    0    0  501  0.00000000000E+00  0.00000000000E+00 -0.13601188123E+04  0.13601188123E+04  0.25500000920E-02 0. -1.
    10030    2    1    2    0    0  0.00000000000E+00  0.00000000000E+00  0.87562451256E+03  0.35958621372E+04  0.34876218577E+04 0.  0.
        4    1    3    3  502    0  0.13733871073E+04  0.32632263621E+03  0.14934015096E+04  0.20549764697E+04  0.12699999809E+01 0.  1.
       -4    1    3    3    0  502 -0.13733871073E+04 -0.32632263621E+03 -0.61777699700E+03  0.15408856675E+04  0.12699999809E+01 0. -1.
</event>
<event>
 5   0  0.1911477E-06  0.3403502E+04  0.7818609E-02  0.8137047E-01
        2   -1    0    0  501    0  0.00000000000E+00  0.00000000000E+00  0.24084131033E+04  0.24084131033E+04  0.25500000920E-02 0. -1.
       -2   -1    0    0    0  501  0.00000000000E+00  0.00000000000E+00 -0.12024332093E+04  0.12024332093E+04  0.25500000920E-02 0.  1.
    10030    2    1    2    0    0  0.00000000000E+00  0.00000000000E+00  0.12059798940E+04  0.36108463126E+04  0.34035016657E+04 0.  0.
        5    1    3    3  502    0 -0.12176484144E+04  0.10297147701E+04 -0.27302159295E+02  0.15949130593E+04  0.46999998093E+01 0. -1.
       -5    1    3    3    0  502  0.12176484144E+04 -0.10297147701E+04  0.12332820533E+04  0.20159332533E+04  0.46999998093E+01 0.  1.
</event>
<event>
 5   0  0.1948507E-06  0.3461603E+04  0.7818609E-02  0.8122950E-01
        2   -1    0    0  501    0  0.00000000000E+00  0.00000000000E+00  0.17229221709E+04  0.17229221709E+04  0.25500000920E-02 0. -1.
       -2   -1    0    0    0  501  0.00000000000E+00  0.00000000000E+00 -0.17387168055E+04  0.17387168055E+04  0.25500000920E-02 0.  1.
    10030    2    1    2    0    0  0.00000000000E+00  0.00000000000E+00 -0.15794634630E+02  0.34616389764E+04  0.34616029427E+04 0.  0.
        1    1    3    3  502    0  0.66862345577E+03  0.23630969777E+03 -0.15867659097E+04  0.17380234898E+04  0.50400001928E-02 0.  1.
       -1    1    3    3    0  502 -0.66862345577E+03 -0.23630969777E+03  0.15709712750E+04  0.17236154867E+04  0.50400001928E-02 0. -1.
</event>
<event>
 5   0  0.1948507E-06  0.3480706E+04  0.7818609E-02  0.8118378E-01
       -2   -1    0    0    0  501  0.00000000000E+00  0.00000000000E+00  0.15731212840E+04  0.15731212840E+04  0.25500000920E-02 0.  1.
        2   -1    0    0  501    0  0.00000000000E+00  0.00000000000E+00 -0.19253625305E+04  0.19253625305E+04  0.25500000920E-02 0. -1.
    10030    2    1    2    0    0  0.00000000000E+00  0.00000000000E+00 -0.35224124648E+03  0.34984838145E+04  0.34807061216E+04 0.  0.
        1    1    3    3  502    0 -0.14836269412E+03 -0.93947559133E+03  0.12887879164E+04  0.16017490969E+04  0.50400001928E-02 0.  1.
       -1    1    3    3    0  502  0.14836269412E+03  0.93947559133E+03 -0.16410291629E+04  0.18967347177E+04  0.50400001928E-02 0. -1.
</event>
<event>
 5   0  0.6134625E-07  0.3391931E+04  0.7818609E-02  0.8139890E-01
       -1   -1    0    0    0  501  0.00000000000E+00  0.00000000000E+00  0.14470566630E+04  0.14470566630E+04  0.50400001928E-02 0. -1.
        1   -1    0    0  501    0  0.00000000000E+00  0.00000000000E+00 -0.19876887823E+04  0.19876887823E+04  0.50400001928E-02 0.  1.
    10030    2    1    2    0    0  0.00000000000E+00  0.00000000000E+00 -0.54063211934E+03  0.34347454453E+04  0.33919305986E+04 0.  0.
        5    1    3    3  502    0  0.47683748736E+03 -0.89005382321E+03 -0.16501258332E+04  0.19345560610E+04  0.46999998093E+01 0.  1.
       -5    1    3    3    0  502 -0.47683748736E+03  0.89005382321E+03  0.11094937139E+04  0.15001893843E+04  0.46999998093E+01 0. -1.
</event>
<event>
 5   0  0.6134625E-07  0.3415279E+04  0.7818609E-02  0.8134166E-01
        1   -1    0    0  501    0  0.00000000000E+00  0.00000000000E+00  0.15787814202E+04  0.15787814202E+04  0.50400001928E-02 0.  1.
       -1   -1    0    0    0  501  0.00000000000E+00  0.00000000000E+00 -0.18470151289E+04  0.18470151289E+04  0.50400001928E-02 0. -1.
    10030    2    1    2    0    0  0.00000000000E+00  0.00000000000E+00 -0.26823370870E+03  0.34257965491E+04  0.34152792965E+04 0.  0.
        5    1    3    3  502    0 -0.88949237428E+03 -0.13532280942E+04  0.40938944330E+03  0.16703427089E+04  0.46999998093E+01 0.  1.
       -5    1    3    3    0  502  0.88949237428E+03  0.13532280942E+04 -0.67762315199E+03  0.17554538402E+04  0.46999998093E+01 0. -1.
</event>
<event>
 5   0  0.1880301E-06  0.3403652E+04  0.7818609E-02  0.8137011E-01
       -2   -1    0    0    0  501  0.00000000000E+00  0.00000000000E+00  0.15833408087E+04  0.15833408087E+04  0.25500000920E-02 0.  1.
        2   -1    0    0  501    0  0.00000000000E+00  0.00000000000E+00 -0.18291772410E+04  0.18291772410E+04  0.25500000920E-02 0. -1.
    10030    2    1    2    0    0  0.00000000000E+00  0.00000000000E+00 -0.24583643229E+03  0.34125180497E+04  0.34036515521E+04 0.  0.
        4    1    3    3  502    0 -0.14397514265E+04 -0.29684374352E+03 -0.98259513378E+03  0.17681898054E+04  0.12699999809E+01 0. -1.
       -4    1    3    3    0  502  0.14397514265E+04  0.29684374352E+03  0.73675870149E+03  0.16443282443E+04  0.12699999809E+01 0.  1.
</event>
<event>
 5   0  0.6146388E-07  0.3469843E+04  0.7818609E-02  0.8120974E-01
       -1   -1    0    0    0  501  0.00000000000E+00  0.00000000000E+00  0.11028035493E+04  0.11028035493E+04  0.50400001928E-02 0. -1.
        1   -1    0    0  501    0  0.00000000000E+00  0.00000000000E+00 -0.27293645205E+04  0.27293645205E+04  0.50400001928E-02 0.  1.
    10030    2    1    2    0    0  0.00000000000E+00  0.00000000000E+00 -0.16265609713E+04  0.38321680698E+04  0.34698431552E+04 0.  0.
        4    1    3    3  502    0 -0.82952755446E+03 -0.85569692848E+03 -0.22057352625E+04  0.25071104599E+04  0.12699999809E+01 0.  1.
       -4    1    3    3    0  502  0.82952755446E+03  0.85569692848E+03  0.57917429123E+03  0.13250576099E+04  0.12699999809E+01 0. -1.
</event>
<event>
 5   0  0.1880301E-06  0.3162768E+04  0.7818609E-02  0.8198720E-01
       -2   -1    0    0    0  501  0.00000000000E+00  0.00000000000E+00  0.12350028343E+04  0.12350028343E+04  0.25500000920E-02 0.  1.
        2   -1    0    0  501    0  0.00000000000E+00  0.00000000000E+00 -0.20249143759E+04  0.20249143759E+04  0.25500000920E-02 0. -1.
    10030    2    1    2    0    0  0.00000000000E+00  0.00000000000E+00 -0.78991154160E+03  0.32599172101E+04  0.31627677710E+04 0.  0.
        4    1    3    3  502    0 -0.16437014282E+03  0.59374103214E+03 -0.18961361610E+04  0.19937100870E+04  0.12699999809E+01 0. -1.
       -4    1    3    3    0  502  0.16437014282E+03 -0.59374103214E+03  0.11062246194E+04  0.12662071231E+04  0.12699999809E+01 0.  1.
</event>
<event>
 5   0  0.6134625E-07  0.3445673E+04  0.7818609E-02  0.8126787E-01
       -1   -1    0    0    0  501  0.00000000000E+00  0.00000000000E+00  0.15107284718E+04  0.15107284718E+04  0.50400001928E-02 0.  1.
        1   -1    0    0  501    0  0.00000000000E+00  0.00000000000E+00 -0.19647243834E+04  0.19647243834E+04  0.50400001928E-02 0. -1.
    10030    2    1    2    0    0  0.00000000000E+00  0.00000000000E+00 -0.45399591156E+03  0.34754528552E+04  0.34456726863E+04 0.  0.
        1    1    3    3  502    0  0.75197525725E+03  0.26239866554E+03  0.13138983231E+04  0.15364402529E+04  0.50400001928E-02 0.  1.
       -1    1    3    3    0  502 -0.75197525725E+03 -0.26239866554E+03 -0.17678942347E+04  0.19390126024E+04  0.50400001928E-02 0. -1.
</event>
<event>
 5   0  0.6146388E-07  0.3410848E+04  0.7818609E-02  0.8135249E-01
        1   -1    0    0  501    0  0.00000000000E+00  0.00000000000E+00  0.22817629164E+04  0.22817629164E+04  0.50400001928E-02 0. -1.
       -1   -1    0    0    0  501  0.00000000000E+00  0.00000000000E+00 -0.12746598951E+04  0.12746598951E+04  0.50400001928E-02 0.  1.
    10030    2    1    2    0    0  0.00000000000E+00  0.00000000000E+00  0.10071030213E+04  0.35564228115E+04  0.34108483869E+04 0.  0.
        4    1    3    3  502    0 -0.64745429442E+03 -0.20670715527E+03 -0.11273494547E+04  0.13163750671E+04  0.12699999809E+01 0.  1.
       -4    1    3    3    0  502  0.64745429442E+03  0.20670715527E+03  0.21344524760E+04  0.22400477443E+04  0.12699999809E+01 0. -1.
</event>
<event>
 5   0  0.6218695E-07  0.3215816E+04  0.7818609E-02  0.8184653E-01
        1   -1    0    0  501    0  0.00000000000E+00  0.00000000000E+00  0.20249117767E+04  0.20249117768E+04  0.50400001928E-02 0. -1.
       -1   -1    0    0    0  501  0.00000000000E+00  0.00000000000E+00 -0.12767804730E+04  0.12767804730E+04  0.50400001928E-02 0.  1.
    10030    2    1    2    0    0  0.00000000000E+00  0.00000000000E+00  0.74813130377E+03  0.33016922497E+04  0.32158158007E+04 0.  0.
        2    1    3    3  502    0  0.11360160312E+04  0.10510338073E+04 -0.73656735668E+02  0.15493965929E+04  0.25500000920E-02 0.  1.
       -2    1    3    3    0  502 -0.11360160312E+04 -0.10510338073E+04  0.82178803944E+03  0.17522956569E+04  0.25500000920E-02 0. -1.
</event>
<event>
 5   0  0.1948507E-06  0.3289549E+04  0.7818609E-02  0.8165560E-01
       -2   -1    0    0    0  501  0.00000000000E+00  0.00000000000E+00  0.10135455262E+04  0.10135455262E+04  0.25500000920E-02 0.  1.
        2   -1    0    0  501    0  0.00000000000E+00  0.00000000000E+00 -0.26691284587E+04  0.26691284587E+04  0.25500000920E-02 0. -1.
    10030    2    1    2    0    0  0.00000000000E+00  0.00000000000E+00 -0.16555829325E+04  0.36826739849E+04  0.32895490318E+04 0.  0.
        1    1    3    3  502    0  0.12795063856E+04  0.59495679062E+03  0.11829021621E+03  0.14160165072E+04  0.50400001928E-02 0. -1.
       -1    1    3    3    0  502 -0.12795063856E+04 -0.59495679062E+03 -0.17738731487E+04  0.22666574777E+04  0.50400001928E-02 0.  1.
</event>
<event>
 5   0  0.6134625E-07  0.3354092E+04  0.7818609E-02  0.8149266E-01
       -1   -1    0    0    0  501  0.00000000000E+00  0.00000000000E+00  0.13040642844E+04  0.13040642845E+04  0.50400001928E-02 0.  1.
        1   -1    0    0  501    0  0.00000000000E+00  0.00000000000E+00 -0.21567060878E+04  0.21567060878E+04  0.50400001928E-02 0. -1.
    10030    2    1    2    0    0  0.00000000000E+00  0.00000000000E+00 -0.85264180335E+03  0.34607703723E+04  0.33540920567E+04 0.  0.
        1    1    3    3  502    0  0.18721314365E+03  0.11131836620E+04 -0.17060328398E+04  0.20456721822E+04  0.50400001928E-02 0. -1.
       -1    1    3    3    0  502 -0.18721314365E+03 -0.11131836620E+04  0.85339103642E+03  0.14150981901E+04  0.50400001928E-02 0.  1.
</event>
<event>
 5   0  0.1948507E-06  0.3394814E+04  0.7818609E-02  0.8139180E-01
       -2   -1    0    0    0  501  0.00000000000E+00  0.00000000000E+00  0.14565226764E+04  0.14565226764E+04  0.25500000920E-02 0.  1.
        2   -1    0    0  501    0  0.00000000000E+00  0.00000000000E+00 -0.19781295481E+04  0.19781295481E+04  0.25500000920E-02 0. -1.
    10030    2    1    2    0    0  0.00000000000E+00  0.00000000000E+00 -0.52160687167E+03  0.34346522244E+04  0.33948140117E+04 0.  0.
        1    1    3    3  502    0  0.84818151614E+03 -0.78174727554E+03  0.99906053056E+03  0.15259956196E+04  0.50400001928E-02 0.  1.
       -1    1    3    3    0  502 -0.84818151614E+03  0.78174727554E+03 -0.15206674022E+04  0.19086566049E+04  0.50400001928E-02 0. -1.
</event>
<event>
 5   0  0.1797075E-06  0.3404601E+04  0.7818609E-02  0.8136778E-01
       -2   -1    0    0    0  501  0.00000000000E+00  0.00000000000E+00  0.11669378178E+04  0.11669378178E+04  0.25500000920E-02 0. -1.
        2   -1    0    0  501    0  0.00000000000E+00  0.00000000000E+00 -0.24832751229E+04  0.24832751229E+04  0.25500000920E-02 0.  1.
    10030    2    1    2    0    0  0.00000000000E+00  0.00000000000E+00 -0.13163373052E+04  0.36502129407E+04  0.34046013880E+04 0.  0.
        2    1    3    3  502    0  0.66830988347E+03  0.20061365062E+03 -0.23229050096E+04  0.24254425619E+04  0.25500000920E-02 0.  1.
       -2    1    3    3    0  502 -0.66830988347E+03 -0.20061365062E+03  0.10065677045E+04  0.12247703788E+04  0.25500000920E-02 0. -1.
</event>
<event>
 5   0  0.1880301E-06  0.3580819E+04  0.7818609E-02  0.8094899E-01
        2   -1    0    0  501    0  0.00000000000E+00  0.00000000000E+00  0.24219627887E+04  0.24219627887E+04  0.25500000920E-02 0.  1.
       -2   -1    0    0    0  501  0.00000000000E+00  0.00000000000E+00 -0.13235409442E+04  0.13235409442E+04  0.25500000920E-02 0. -1.
    10030    2    1    2    0    0  0.00000000000E+00  0.00000000000E+00  0.10984218446E+04  0.37455037329E+04  0.35808194124E+04 0.  0.
        4    1    3    3  502    0  0.40027541363E+03  0.14927180571E+04 -0.39631935143E+03  0.15954617657E+04  0.12699999809E+01 0. -1.
       -4    1    3    3    0  502 -0.40027541363E+03 -0.14927180571E+04  0.14947411960E+04  0.21500419672E+04  0.12699999809E+01 0.  1.
</event>
<event>
 5   0  0.6218695E-07  0.3687791E+04  0.7818609E-02  0.8070673E-01
       -1   -1    0    0    0  501  0.00000000000E+00  0.00000000000E+00  0.14107790625E+04  0.14107790626E+04  0.50400001928E-02 0. -1.
        1   -1    0    0  501    0  0.00000000000E+00  0.00000000000E+00 -0.24099812431E+04  0.24099812431E+04  0.50400001928E-02 0.  1.
    10030    2    1    2    0    0  0.00000000000E+00  0.00000000000E+00 -0.99920218055E+03  0.38207603057E+04  0.36877912516E+04 0.  0.
        2    1    3    3  502    0  0.88967395546E+03  0.83556946847E+03 -0.19315553162E+04  0.22848636772E+04  0.25500000920E-02 0.  1.
       -2    1    3    3    0  502 -0.88967395546E+03 -0.83556946847E+03  0.93235313569E+03  0.15358966285E+04  0.25500000920E-02 0. -1.
</event>
<event>
 5   0  0.6134625E-07  0.3347555E+04  0.7818609E-02  0.8150899E-01
        1   -1    0    0  501    0  0.00000000000E+00  0.00000000000E+00  0.23763133127E+04  0.23763133127E+04  0.50400001928E-02 0. -1.
       -1   -1    0    0    0  501  0.00000000000E+00  0.00000000000E+00 -0.11789400349E+04  0.11789400349E+04  0.50400001928E-02 0.  1.
    10030    2    1    2    0    0  0.00000000000E+00  0.00000000000E+00  0.11973732779E+04  0.35552533476E+04  0.33475548687E+04 0.  0.
        1    1    3    3  502    0 -0.55813000450E+02 -0.15336826659E+04  0.13081399708E+04  0.20165633622E+04  0.50400001928E-02 0. -1.
       -1    1    3    3    0  502  0.55813000450E+02  0.15336826659E+04 -0.11076669293E+03  0.15386899854E+04  0.50400001928E-02 0.  1.
</event>
<event>
 5   0  0.1880301E-06  0.2645883E+04  0.7818609E-02  0.8352781E-01
        2   -1    0    0  501    0  0.00000000000E+00  0.00000000000E+00  0.16329088183E+04  0.16329088183E+04  0.25500000920E-02 0. -1.
       -2   -1    0    0    0  501  0.00000000000E+00  0.00000000000E+00 -0.10718134705E+04  0.10718134705E+04  0.25500000920E-02 0.  1.
    10030    2    1    2    0    0  0.00000000000E+00  0.00000000000E+00  0.56109534779E+03  0.27047222888E+04  0.26458825881E+04 0.  0.
        4    1    3    3  502    0  0.10844601778E+04  0.49070485979E+03 -0.30963615417E+03  0.12299273546E+04  0.12699999809E+01 0.  1.
       -4    1    3    3    0  502 -0.10844601778E+04 -0.49070485979E+03  0.87073150196E+03  0.14747949342E+04  0.12699999809E+01 0. -1.
</event>
<event>
 5   0  0.1339844E-06  0.3455678E+04  0.7818609E-02  0.8124375E-01
       -2   -1    0    0    0  501  0.00000000000E+00  0.00000000000E+00  0.10744738308E+04  0.10744738308E+04  0.25500000920E-02 0.  1.
        2   -1    0    0  501    0  0.00000000000E+00  0.00000000000E+00 -0.27785026796E+04  0.27785026796E+04  0.25500000920E-02 0. -1.
    10030    2    1    2    0    0  0.00000000000E+00  0.00000000000E+00 -0.17040288488E+04  0.38529765104E+04  0.34556784677E+04 0.  0.
        3    1    3    3  502    0 -0.12113752071E+04  0.12240599608E+04 -0.10084114315E+04  0.19956568606E+04  0.10100000352E+00 0. -1.
       -3    1    3    3    0  502  0.12113752071E+04 -0.12240599608E+04 -0.69561741737E+03  0.18573196498E+04  0.10100000352E+00 0.  1.
</event>
<event>
 5   0  0.1911477E-06  0.3452525E+04  0.7818609E-02  0.8125134E-01
       -2   -1    0    0    0  501  0.00000000000E+00  0.00000000000E+00  0.11565854127E+04  0.11565854127E+04  0.25500000920E-02 0.  1.
        2   -1    0    0  501    0  0.00000000000E+00  0.00000000000E+00 -0.25765337865E+04  0.25765337865E+04  0.25500000920E-02 0. -1.
    10030    2    1    2    0    0  0.00000000000E+00  0.00000000000E+00 -0.14199483737E+04  0.37331191992E+04  0.34525245215E+04 0.  0.
        5    1    3    3  502    0 -0.73283888148E+03 -0.11507427327E+04  0.43367136803E+03  0.14315567081E+04  0.46999998093E+01 0.  1.
       -5    1    3    3    0  502  0.73283888148E+03  0.11507427327E+04 -0.18536197418E+04  0.23015624911E+04  0.46999998093E+01 0. -1.
</event>
<event>
 5   0  0.6134625E-07  0.3280944E+04  0.7818609E-02  0.8167761E-01
       -1   -1    0    0    0  501  0.00000000000E+00  0.00000000000E+00  0.10090237053E+04  0.10090237053E+04  0.50400001928E-02 0.  1.
        1   -1    0    0  501    0  0.00000000000E+00  0.00000000000E+00 -0.26670818349E+04  0.26670818349E+04  0.50400001928E-02 0. -1.
    10030    2    1    2    0    0  0.00000000000E+00  0.00000000000E+00 -0.16580581296E+04  0.36761055402E+04  0.32809442515E+04 0.  0.
        5    1    3    3  502    0  0.64528440823E+03 -0.11145680773E+04 -0.19675169591E+04  0.23515524746E+04  0.46999998093E+01 0. -1.
       -5    1    3    3    0  502 -0.64528440823E+03  0.11145680773E+04  0.30945882950E+03  0.13245530656E+04  0.46999998093E+01 0.  1.
</event>
<event>
 5   0  0.6134625E-07  0.3140923E+04  0.7818609E-02  0.8204596E-01
       -1   -1    0    0    0  501  0.00000000000E+00  0.00000000000E+00  0.19900854821E+04  0.19900854821E+04  0.50400001928E-02 0. -1.
        1   -1    0    0  501    0  0.00000000000E+00  0.00000000000E+00 -0.12393184767E+04  0.12393184767E+04  0.50400001928E-02 0.  1.
    10030    2    1    2    0    0  0.00000000000E+00  0.00000000000E+00  0.75076700539E+03  0.32294039588E+04  0.31409232453E+04 0.  0.
        1    1    3    3  502    0  0.84872543753E+03  0.81709020325E+03  0.14430869570E+04  0.18629200826E+04  0.50400001928E-02 0. -1.
       -1    1    3    3    0  502 -0.84872543753E+03 -0.81709020325E+03 -0.69231995163E+03  0.13664838762E+04  0.50400001928E-02 0.  1.
</event>
<event>
 5   0  0.1797075E-06  0.3420183E+04  0.7818609E-02  0.8132971E-01
        2   -1    0    0  501    0  0.00000000000E+00  0.00000000000E+00  0.16136111957E+04  0.16136111957E+04  0.25500000920E-02 0. -1.
       -2   -1    0    0    0  501  0.00000000000E+00  0.00000000000E+00 -0.18123401506E+04  0.18123401506E+04  0.25500000920E-02 0.  1.
    10030    2    1    2    0    0  0.00000000000E+00  0.00000000000E+00 -0.19872895491E+03  0.34259513462E+04  0.34201826602E+04 0.  0.
        2    1    3    3  502    0  0.27034353075E+03  0.16882248643E+04 -0.64326341602E+02  0.17109432181E+04  0.25500000920E-02 0. -1.
       -2    1    3    3    0  502 -0.27034353075E+03 -0.16882248643E+04 -0.13440261331E+03  0.17150081282E+04  0.25500000920E-02 0.  1.
</event>
<event>
 5   0  0.1880301E-06  0.3191433E+04  0.7818609E-02  0.8191083E-01
       -2   -1    0    0    0  501  0.00000000000E+00  0.00000000000E+00  0.12463427916E+04  0.12463427916E+04  0.25500000920E-02 0. -1.
        2   -1    0    0  501    0  0.00000000000E+00  0.00000000000E+00 -0.20430264788E+04  0.20430264788E+04  0.25500000920E-02 0.  1.
    10030    2    1    2    0    0  0.00000000000E+00  0.00000000000E+00 -0.79668368717E+03  0.32893692704E+04  0.31914331107E+04 0.  0.
        4    1    3    3  502    0 -0.29000842006E+02 -0.89830306140E+03  0.96064973069E+03  0.13155375164E+04  0.12699999809E+01 0. -1.
       -4    1    3    3    0  502  0.29000842006E+02  0.89830306140E+03 -0.17573334179E+04  0.19738317541E+04  0.12699999809E+01 0.  1.
</event>
<event>
 5   0  0.6134625E-07  0.3391247E+04  0.7818609E-02  0.8140058E-01
        1   -1    0    0  501    0  0.00000000000E+00  0.00000000000E+00  0.18500325224E+04  0.18500325224E+04  0.50400001928E-02 0. -1.
       -1   -1    0    0    0  501  0.00000000000E+00  0.00000000000E+00 -0.15541019618E+04  0.15541019618E+04  0.50400001928E-02 0.  1.
    10030    2    1    2    0    0  0.00000000000E+00  0.00000000000E+00  0.29593056053E+03  0.34041344842E+04  0.33912470700E+04 0.  0.
        1    1    3    3  502    0  0.37742608174E+03  0.10004382508E+04  0.14689495734E+04  0.18169039573E+04  0.50400001928E-02 0. -1.
       -1    1    3    3    0  502 -0.37742608174E+03 -0.10004382508E+04 -0.11730190129E+04  0.15872305269E+04  0.50400001928E-02 0.  1.
</event>
<event>
 5   0  0.6134625E-07  0.3548155E+04  0.7818609E-02  0.8102472E-01
        1   -1    0    0  501    0  0.00000000000E+00  0.00000000000E+00  0.30157176036E+04  0.30157176036E+04  0.50400001928E-02 0. -1.
       -1   -1    0    0    0  501  0.00000000000E+00  0.00000000000E+00 -0.10436489654E+04  0.10436489654E+04  0.50400001928E-02 0.  1.
    10030    2    1    2    0    0  0.00000000000E+00  0.00000000000E+00  0.19720686382E+04  0.40593665690E+04  0.35481547638E+04 0.  0.
        1    1    3    3  502    0 -0.16841195282E+04 -0.68816880088E+02  0.16192753676E+04  0.23373162097E+04  0.50400001928E-02 0. -1.
       -1    1    3    3    0  502  0.16841195282E+04  0.68816880088E+02  0.35279327060E+03  0.17220503593E+04  0.50400001928E-02 0.  1.
</event>
<event>
 5   0  0.1339844E-06  0.3336499E+04  0.7818609E-02  0.8153670E-01
        2   -1    0    0  501    0  0.00000000000E+00  0.00000000000E+00  0.25055808626E+04  0.25055808626E+04  0.25500000920E-02 0. -1.
       -2   -1    0    0    0  501  0.00000000000E+00  0.00000000000E+00 -0.11107431466E+04  0.11107431466E+04  0.25500000920E-02 0.  1.
    10030    2    1    2    0    0  0.00000000000E+00  0.00000000000E+00  0.13948377160E+04  0.36163240093E+04  0.33364992261E+04 0.  0.
        3    1    3    3  502    0  0.10433459723E+04  0.84255405724E+03  0.17729022510E+04  0.22229823569E+04  0.10100000352E+00 0. -1.
       -3    1    3    3    0  502 -0.10433459723E+04 -0.84255405724E+03 -0.37806453503E+03  0.13933416523E+04  0.10100000352E+00 0.  1.
</event>
<event>
 5   0  0.6146388E-07  0.3396949E+04  0.7818609E-02  0.8138655E-01
       -1   -1    0    0    0  501  0.00000000000E+00  0.00000000000E+00  0.13357824190E+04  0.13357824190E+04  0.50400001928E-02 0.  1.
        1   -1    0    0  501    0  0.00000000000E+00  0.00000000000E+00 -0.21596451584E+04  0.21596451585E+04  0.50400001928E-02 0. -1.
    10030    2    1    2    0    0  0.00000000000E+00  0.00000000000E+00 -0.82386273949E+03  0.34954275774E+04  0.33969492395E+04 0.  0.
        4    1    3    3  502    0 -0.16467605510E+04  0.55728099033E+02  0.12192998692E+02  0.16477488327E+04  0.12699999809E+01 0.  1.
       -4    1    3    3    0  502  0.16467605510E+04 -0.55728099033E+02 -0.83605573818E+03  0.18476787447E+04  0.12699999809E+01 0. -1.
</event>
<event>
 5   0  0.6134625E-07  0.3393829E+04  0.7818609E-02  0.8139423E-01
       -1   -1    0    0    0  501  0.00000000000E+00  0.00000000000E+00  0.12340695024E+04  0.12340695024E+04  0.50400001928E-02 0.  1.
        1   -1    0    0  501    0  0.00000000000E+00  0.00000000000E+00 -0.23333519695E+04  0.23333519695E+04  0.50400001928E-02 0. -1.
    10030    2    1    2    0    0  0.00000000000E+00  0.00000000000E+00 -0.10992824671E+04  0.35674214719E+04  0.33938288136E+04 0.  0.
        1    1    3    3  502    0  0.56804784094E+03  0.13430774379E+04 -0.14617720285E+04  0.20647791206E+04  0.50400001928E-02 0.  1.
       -1    1    3    3    0  502 -0.56804784094E+03 -0.13430774379E+04  0.36248956138E+03  0.15026423513E+04  0.50400001928E-02 0. -1.
</event>
<event>
 5   0  0.6134625E-07  0.3388375E+04  0.7818609E-02  0.8140765E-01
       -1   -1    0    0    0  501  0.00000000000E+00  0.00000000000E+00  0.13658797596E+04  0.13658797596E+04  0.50400001928E-02 0. -1.
        1   -1    0    0  501    0  0.00000000000E+00  0.00000000000E+00 -0.21014086173E+04  0.21014086173E+04  0.50400001928E-02 0.  1.
    10030    2    1    2    0    0  0.00000000000E+00  0.00000000000E+00 -0.73552885771E+03  0.34672883769E+04  0.33883751250E+04 0.  0.
        5    1    3    3  502    0  0.76150682929E+03 -0.95138762464E+03 -0.15721279589E+04  0.19891303307E+04  0.46999998093E+01 0.  1.
       -5    1    3    3    0  502 -0.76150682929E+03  0.95138762464E+03  0.83659910120E+03  0.14781580462E+04  0.46999998093E+01 0. -1.
</event>
<event>
 5   0  0.6134625E-07  0.3202271E+04  0.7818609E-02  0.8188218E-01
       -1   -1    0    0    0  501  0.00000000000E+00  0.00000000000E+00  0.21923541876E+04  0.21923541876E+04  0.50400001928E-02 0.  1.
        1   -1    0    0  501    0  0.00000000000E+00  0.00000000000E+00 -0.11693523773E+04  0.11693523773E+04  0.50400001928E-02 0. -1.
    10030    2    1    2    0    0  0.00000000000E+00  0.00000000000E+00  0.10230018104E+04  0.33617065649E+04  0.32022708075E+04 0.  0.
        1    1    3    3  502    0 -0.15745733592E+03  0.18439385447E+03  0.21729682102E+04  0.21864548357E+04  0.50400001928E-02 0.  1.
       -1    1    3    3    0  502  0.15745733592E+03 -0.18439385447E+03 -0.11499663998E+04  0.11752517292E+04  0.50400001928E-02 0. -1.
</event>
<event>
 5   0  0.6134625E-07  0.3353340E+04  0.7818609E-02  0.8149454E-01
        1   -1    0    0  501    0  0.00000000000E+00  0.00000000000E+00  0.96094667449E+03  0.96094667451E+03  0.50400001928E-02 0.  1.
       -1   -1    0    0    0  501  0.00000000000E+00  0.00000000000E+00 -0.29254725292E+04  0.29254725292E+04  0.50400001928E-02 0. -1.
    10030    2    1    2    0    0  0.00000000000E+00  0.00000000000E+00 -0.19645258547E+04  0.38864192037E+04  0.33533404827E+04 0.  0.
        1    1    3    3  502    0  0.49984292559E+03  0.28068116456E+03 -0.28083656852E+04  0.28662767989E+04  0.50400001928E-02 0. -1.
       -1    1    3    3    0  502 -0.49984292559E+03 -0.28068116456E+03  0.84383983050E+03  0.10201424047E+04  0.50400001928E-02 0.  1.
</event>
<event>
 5   0  0.1911477E-06  0.3400181E+04  0.7818609E-02  0.8137862E-01
        2   -1    0    0  501    0  0.00000000000E+00  0.00000000000E+00  0.12474567789E+04  0.12474567789E+04  0.25500000920E-02 0. -1.
       -2   -1    0    0    0  501  0.00000000000E+00  0.00000000000E+00 -0.23169604244E+04  0.23169604244E+04  0.25500000920E-02 0.  1.
    10030    2    1    2    0    0  0.00000000000E+00  0.00000000000E+00 -0.10695036454E+04  0.35644172033E+04  0.34001811646E+04 0.  0.
        5    1    3    3  502    0  0.65628200027E+03 -0.48618943621E+03 -0.20978120345E+04  0.22512049338E+04  0.46999998093E+01 0.  1.
       -5    1    3    3    0  502 -0.65628200027E+03  0.48618943621E+03  0.10283083891E+04  0.13132122695E+04  0.46999998093E+01 0. -1.
</event>
<event>
 5   0  0.6146388E-07  0.3377060E+04  0.7818609E-02  0.8143560E-01
       -1   -1    0    0    0  501  0.00000000000E+00  0.00000000000E+00  0.11027490118E+04  0.11027490118E+04  0.50400001928E-02 0.  1.
        1   -1    0    0  501    0  0.00000000000E+00  0.00000000000E+00 -0.25854775674E+04  0.25854775674E+04  0.50400001928E-02 0. -1.
    10030    2    1    2    0    0  0.00000000000E+00  0.00000000000E+00 -0.14827285556E+04  0.36882265792E+04  0.33770595686E+04 0.  0.
        4    1    3    3  502    0  0.10052717956E+04 -0.13495950366E+04 -0.89251078386E+03  0.19048767041E+04  0.12699999809E+01 0. -1.
       -4    1    3    3    0  502 -0.10052717956E+04  0.13495950366E+04 -0.59021777179E+03  0.17833498750E+04  0.12699999809E+01 0.  1.
</event>
<event>
 5   0  0.6146388E-07  0.3420971E+04  0.7818609E-02  0.8132779E-01
        1   -1    0    0  501    0  0.00000000000E+00  0.00000000000E+00  0.24840997454E+04  0.24840997454E+04  0.50400001928E-02 0. -1.
       -1   -1    0    0    0  501  0.00000000000E+00  0.00000000000E+00 -0.11777949848E+04  0.11777949848E+04  0.50400001928E-02 0.  1.
    10030    2    1    2    0    0  0.00000000000E+00  0.00000000000E+00  0.13063047607E+04  0.36618947302E+04  0.34209707522E+04 0.  0.
        4    1    3    3  502    0  0.13773608945E+04  0.90241634798E+03  0.11486569083E+04  0.20077082967E+04  0.12699999809E+01 0.  1.
       -4    1    3    3    0  502 -0.13773608945E+04 -0.90241634798E+03  0.15764785242E+03  0.16541864336E+04  0.12699999809E+01 0. -1.
</event>
<event>
 5   0  0.6134625E-07  0.3406934E+04  0.7818609E-02  0.8136207E-01
       -1   -1    0    0    0  501  0.00000000000E+00  0.00000000000E+00  0.17140234288E+04  0.17140234288E+04  0.50400001928E-02 0.  1.
        1   -1    0    0  501    0  0.00000000000E+00  0.00000000000E+00 -0.16929759129E+04  0.16929759129E+04  0.50400001928E-02 0. -1.
    10030    2    1    2    0    0  0.00000000000E+00  0.00000000000E+00  0.21047515909E+02  0.34069993417E+04  0.34069343281E+04 0.  0.
        1    1    3    3  502    0  0.42550552801E+03 -0.16429469759E+04  0.15705525124E+03  0.17044049026E+04  0.50400001928E-02 0. -1.
       -1    1    3    3    0  502 -0.42550552801E+03  0.16429469759E+04 -0.13600773533E+03  0.17025944391E+04  0.50400001928E-02 0.  1.
</event>
<event>
 5   0  0.1339844E-06  0.3386461E+04  0.7818609E-02  0.8141237E-01
        2   -1    0    0  501    0  0.00000000000E+00  0.00000000000E+00  0.13642620928E+04  0.13642620928E+04  0.25500000920E-02 0.  1.
       -2   -1    0    0    0  501  0.00000000000E+00  0.00000000000E+00 -0.21015243784E+04  0.21015243784E+04  0.25500000920E-02 0. -1.
    10030    2    1    2    0    0  0.00000000000E+00  0.00000000000E+00 -0.73726228559E+03  0.34657864712E+04  0.33864613074E+04 0.  0.
        3    1    3    3  502    0  0.10946741164E+04  0.53197686505E+03 -0.15733710766E+04  0.19891725317E+04  0.10100000352E+00 0. -1.
       -3    1    3    3    0  502 -0.10946741164E+04 -0.53197686505E+03  0.83610879096E+03  0.14766139396E+04  0.10100000352E+00 0.  1.
</event>
<event>
 5   0  0.6134625E-07  0.2929002E+04  0.7818609E-02  0.8264300E-01
       -3   -1    0    0    0  501  0.00000000000E+00  0.00000000000E+00  0.14742980343E+04  0.14742980377E+04  0.10100000352E+00 0. -1.
        3   -1    0    0  501    0  0.00000000000E+00  0.00000000000E+00 -0.14547690149E+04  0.14547690184E+04  0.10100000352E+00 0.  1.
    10030    2    1    2    0    0  0.00000000000E+00  0.00000000000E+00  0.19529019345E+02  0.29290670561E+04  0.29290019523E+04 0.  0.
        3    1    3    3  502    0 -0.42185825991E+03 -0.14745603610E+03  0.14044479478E+04  0.14738323250E+04  0.10100000352E+00 0. -1.
       -3    1    3    3    0  502  0.42185825991E+03  0.14745603610E+03 -0.13849189285E+04  0.14552347311E+04  0.10100000352E+00 0.  1.
</event>
<event>
 5   0  0.1880301E-06  0.2921281E+04  0.7818609E-02  0.8266574E-01
        2   -1    0    0  501    0  0.00000000000E+00  0.00000000000E+00  0.12232526625E+04  0.12232526625E+04  0.25500000920E-02 0.  1.
       -2   -1    0    0    0  501  0.00000000000E+00  0.00000000000E+00 -0.17440969890E+04  0.17440969890E+04  0.25500000920E-02 0. -1.
    10030    2    1    2    0    0  0.00000000000E+00  0.00000000000E+00 -0.52084432649E+03  0.29673496516E+04  0.29212814213E+04 0.  0.
        4    1    3    3  502    0 -0.12393587925E+04 -0.46028396854E+03  0.37033585967E+03  0.13729609645E+04  0.12699999809E+01 0. -1.
       -4    1    3    3    0  502  0.12393587925E+04  0.46028396854E+03 -0.89118018617E+03  0.15943886870E+04  0.12699999809E+01 0.  1.
</event>
<event>
 5   0  0.6134625E-07  0.3363274E+04  0.7818609E-02  0.8146979E-01
        1   -1    0    0  501    0  0.00000000000E+00  0.00000000000E+00  0.15638568643E+04  0.15638568643E+04  0.50400001928E-02 0. -1.
       -1   -1    0    0    0  501  0.00000000000E+00  0.00000000000E+00 -0.18082880339E+04  0.18082880339E+04  0.50400001928E-02 0.  1.
    10030    2    1    2    0    0  0.00000000000E+00  0.00000000000E+00 -0.24443116954E+03  0.33721448982E+04  0.33632743893E+04 0.  0.
        5    1    3    3  502    0  0.96587411863E+03 -0.13421191504E+04 -0.42910281180E+03  0.17083172832E+04  0.46999998093E+01 0. -1.
       -5    1    3    3    0  502 -0.96587411863E+03  0.13421191504E+04  0.18467164226E+03  0.16638276150E+04  0.46999998093E+01 0.  1.
</event>
<event>
 5   0  0.1880301E-06  0.3076999E+04  0.7818609E-02  0.8222079E-01
        2   -1    0    0  501    0  0.00000000000E+00  0.00000000000E+00  0.17316969765E+04  0.17316969765E+04  0.25500000920E-02 0.  1.
       -2   -1    0    0    0  501  0.00000000000E+00  0.00000000000E+00 -0.13668557613E+04  0.13668557613E+04  0.25500000920E-02 0. -1.
    10030    2    1    2    0    0  0.00000000000E+00  0.00000000000E+00  0.36484121517E+03  0.30985527378E+04  0.30769985305E+04 0.  0.
        4    1    3    3  502    0 -0.18566673371E+03 -0.45131190757E+03  0.16516901036E+04  0.17222765124E+04  0.12699999809E+01 0.  1.
       -4    1    3    3    0  502  0.18566673371E+03  0.45131190757E+03 -0.12868488885E+04  0.13762762254E+04  0.12699999809E+01 0. -1.
</event>
<event>
 5   0  0.6134625E-07  0.3375736E+04  0.7818609E-02  0.8143887E-01
       -1   -1    0    0    0  501  0.00000000000E+00  0.00000000000E+00  0.17649687514E+04  0.17649687514E+04  0.50400001928E-02 0. -1.
        1   -1    0    0  501    0  0.00000000000E+00  0.00000000000E+00 -0.16141355619E+04  0.16141355619E+04  0.50400001928E-02 0.  1.
    10030    2    1    2    0    0  0.00000000000E+00  0.00000000000E+00  0.15083318952E+03  0.33791043133E+04  0.33757362617E+04 0.  0.
        3    1    3    3  502    0  0.30530569437E+03  0.96767148506E+03 -0.12747431266E+04  0.16292850331E+04  0.10100000352E+00 0.  1.
       -3    1    3    3    0  502 -0.30530569437E+03 -0.96767148506E+03  0.14255763161E+04  0.17498192802E+04  0.10100000352E+00 0. -1.
</event>
<event>
 5   0  0.1797075E-06  0.3375602E+04  0.7818609E-02  0.8143920E-01
        2   -1    0    0  501    0  0.00000000000E+00  0.00000000000E+00  0.10974963876E+04  0.10974963876E+04  0.25500000920E-02 0. -1.
       -2   -1    0    0    0  501  0.00000000000E+00  0.00000000000E+00 -0.25956102731E+04  0.25956102731E+04  0.25500000920E-02 0.  1.
    10030    2    1    2    0    0  0.00000000000E+00  0.00000000000E+00 -0.14981138855E+04  0.36931066607E+04  0.33756024045E+04 0.  0.
        2    1    3    3  502    0 -0.99168083875E+03 -0.12005671808E+04 -0.36758065359E+02  0.15576082938E+04  0.25500000920E-02 0. -1.
       -2    1    3    3    0  502  0.99168083875E+03  0.12005671808E+04 -0.14613558202E+04  0.21354983668E+04  0.25500000920E-02 0.  1.
</event>
<event>
 5   0  0.1948507E-06  0.2737530E+04  0.7818609E-02  0.8322929E-01
        2   -1    0    0  501    0  0.00000000000E+00  0.00000000000E+00  0.18113662644E+04  0.18113662644E+04  0.25500000920E-02 0. -1.
       -2   -1    0    0    0  501  0.00000000000E+00  0.00000000000E+00 -0.10343121450E+04  0.10343121451E+04  0.25500000920E-02 0.  1.
    10030    2    1    2    0    0  0.00000000000E+00  0.00000000000E+00  0.77705411936E+03  0.28456784095E+04  0.27375303662E+04 0.  0.
        1    1    3    3  502    0  0.91318416883E+02 -0.12322253523E+04  0.10006889143E+04  0.15899989545E+04  0.50400001928E-02 0. -1.
       -1    1    3    3    0  502 -0.91318416883E+02  0.12322253523E+04 -0.22363479494E+03  0.12556794550E+04  0.50400001928E-02 0.  1.
</event>
<event>
 5   0  0.6134625E-07  0.2650485E+04  0.7818609E-02  0.8351252E-01
       -3   -1    0    0    0  501  0.00000000000E+00  0.00000000000E+00  0.11685253237E+04  0.11685253280E+04  0.10100000352E+00 0. -1.
        3   -1    0    0  501    0  0.00000000000E+00  0.00000000000E+00 -0.15029772861E+04  0.15029772895E+04  0.10100000352E+00 0.  1.
    10030    2    1    2    0    0  0.00000000000E+00  0.00000000000E+00 -0.33445196239E+03  0.26715026175E+04  0.26504845067E+04 0.  0.
        4    1    3    3  502    0  0.45373122547E+03  0.12314542502E+04  0.18391426089E+02  0.13125134105E+04  0.12699999809E+01 0.  1.
       -4    1    3    3    0  502 -0.45373122547E+03 -0.12314542502E+04 -0.35284338848E+03  0.13589892071E+04  0.12699999809E+01 0. -1.
</event>
<event>
 5   0  0.6218695E-07  0.3368478E+04  0.7818609E-02  0.8145687E-01
        1   -1    0    0  501    0  0.00000000000E+00  0.00000000000E+00  0.25041423343E+04  0.25041423343E+04  0.50400001928E-02 0. -1.
       -1   -1    0    0    0  501  0.00000000000E+00  0.00000000000E+00 -0.11327871798E+04  0.11327871798E+04  0.50400001928E-02 0.  1.
    10030    2    1    2    0    0  0.00000000000E+00  0.00000000000E+00  0.13713551545E+04  0.36369295142E+04  0.33684775984E+04 0.  0.
        2    1    3    3  502    0  0.85601844845E+03 -0.76369575422E+03 -0.64574985980E+03  0.13164314151E+04  0.25500000920E-02 0.  1.
       -2    1    3    3    0  502 -0.85601844845E+03  0.76369575422E+03  0.20171050143E+04  0.23204980991E+04  0.25500000920E-02 0. -1.
</event>
<event>
 5   0  0.1948507E-06  0.3443023E+04  0.7818609E-02  0.8127427E-01
        2   -1    0    0  501    0  0.00000000000E+00  0.00000000000E+00  0.16160733820E+04  0.16160733820E+04  0.25500000920E-02 0.  1.
       -2   -1    0    0    0  501  0.00000000000E+00  0.00000000000E+00 -0.18338285965E+04  0.18338285965E+04  0.25500000920E-02 0. -1.
    10030    2    1    2    0    0  0.00000000000E+00  0.00000000000E+00 -0.21775521443E+03  0.34499019785E+04  0.34430228474E+04 0.  0.
        1    1    3    3  502    0 -0.11337771546E+04 -0.77045105136E+03  0.93462338504E+03  0.16590859926E+04  0.50400001928E-02 0. -1.
       -1    1    3    3    0  502  0.11337771546E+04  0.77045105136E+03 -0.11523785995E+04  0.17908159859E+04  0.50400001928E-02 0.  1.
</event>
<event>
 5   0  0.1911477E-06  0.3464110E+04  0.7818609E-02  0.8122349E-01
        2   -1    0    0  501    0  0.00000000000E+00  0.00000000000E+00  0.15320150460E+04  0.15320150460E+04  0.25500000920E-02 0.  1.
       -2   -1    0    0    0  501  0.00000000000E+00  0.00000000000E+00 -0.19582144356E+04  0.19582144356E+04  0.25500000920E-02 0. -1.
    10030    2    1    2    0    0  0.00000000000E+00  0.00000000000E+00 -0.42619938960E+03  0.34902294817E+04  0.34641096858E+04 0.  0.
        5    1    3    3  502    0 -0.10870365848E+04  0.11335530512E+04 -0.94894952201E+03  0.18349709376E+04  0.46999998093E+01 0. -1.
       -5    1    3    3    0  502  0.10870365848E+04 -0.11335530512E+04  0.52275013241E+03  0.16552585440E+04  0.46999998093E+01 0.  1.
</event>
<event>
 5   0  0.1880301E-06  0.3451849E+04  0.7818609E-02  0.8125297E-01
       -2   -1    0    0    0  501  0.00000000000E+00  0.00000000000E+00  0.19377103357E+04  0.19377103357E+04  0.25500000920E-02 0. -1.
        2   -1    0    0  501    0  0.00000000000E+00  0.00000000000E+00 -0.15372862141E+04  0.15372862141E+04  0.25500000920E-02 0.  1.
    10030    2    1    2    0    0  0.00000000000E+00  0.00000000000E+00  0.40042412157E+03  0.34749965499E+04  0.34518490037E+04 0.  0.
        4    1    3    3  502    0 -0.15451832349E+03 -0.14279811641E+04 -0.76318368179E+03  0.16264861089E+04  0.12699999809E+01 0. -1.
       -4    1    3    3    0  502  0.15451832349E+03  0.14279811641E+04  0.11636078034E+04  0.18485104410E+04  0.12699999809E+01 0.  1.
</event>
<event>
 5   0  0.1339844E-06  0.3428171E+04  0.7818609E-02  0.8131027E-01
        2   -1    0    0  501    0  0.00000000000E+00  0.00000000000E+00  0.16407329221E+04  0.16407329221E+04  0.25500000920E-02 0.  1.
       -2   -1    0    0    0  501  0.00000000000E+00  0.00000000000E+00 -0.17907176367E+04  0.17907176367E+04  0.25500000920E-02 0. -1.
    10030    2    1    2    0    0  0.00000000000E+00  0.00000000000E+00 -0.14998471454E+03  0.34314505588E+04  0.34281711630E+04 0.  0.
        3    1    3    3  502    0  0.51560460500E+03  0.76061441567E+03  0.13733565570E+04  0.16524196322E+04  0.10100000352E+00 0.  1.
       -3    1    3    3    0  502 -0.51560460500E+03 -0.76061441567E+03 -0.15233412715E+04  0.17790309266E+04  0.10100000352E+00 0. -1.
</event>
<event>
 5   0  0.6218695E-07  0.3412221E+04  0.7818609E-02  0.8134913E-01
        1   -1    0    0  501    0  0.00000000000E+00  0.00000000000E+00  0.15843813491E+04  0.15843813491E+04  0.50400001928E-02 0. -1.
       -1   -1    0    0    0  501  0.00000000000E+00  0.00000000000E+00 -0.18371919031E+04  0.18371919031E+04  0.50400001928E-02 0.  1.
    10030    2    1    2    0    0  0.00000000000E+00  0.00000000000E+00 -0.25281055402E+03  0.34215732523E+04  0.34122207350E+04 0.  0.
        2    1    3    3  502    0 -0.74429379007E+03  0.34966383867E+03  0.13725412756E+04  0.16000336244E+04  0.25500000920E-02 0. -1.
       -2    1    3    3    0  502  0.74429379007E+03 -0.34966383867E+03 -0.16253518296E+04  0.18215396279E+04  0.25500000920E-02 0.  1.
</event>
<event>
 5   0  0.6146388E-07  0.3202535E+04  0.7818609E-02  0.8188148E-01
       -1   -1    0    0    0  501  0.00000000000E+00  0.00000000000E+00  0.14838066870E+04  0.14838066870E+04  0.50400001928E-02 0.  1.
        1   -1    0    0  501    0  0.00000000000E+00  0.00000000000E+00 -0.17280263480E+04  0.17280263480E+04  0.50400001928E-02 0. -1.
    10030    2    1    2    0    0  0.00000000000E+00  0.00000000000E+00 -0.24421966103E+03  0.32118330350E+04  0.32025346527E+04 0.  0.
        4    1    3    3  502    0  0.14261537391E+04  0.63755165050E+03  0.23057702297E+03  0.15790991011E+04  0.12699999809E+01 0. -1.
       -4    1    3    3    0  502 -0.14261537391E+04 -0.63755165050E+03 -0.47479668400E+03  0.16327339339E+04  0.12699999809E+01 0.  1.
</event>
<event>
 5   0  0.6134625E-07  0.3396882E+04  0.7818609E-02  0.8138672E-01
       -1   -1    0    0    0  501  0.00000000000E+00  0.00000000000E+00  0.15200136980E+04  0.15200136980E+04  0.50400001928E-02 0.  1.
        1   -1    0    0  501    0  0.00000000000E+00  0.00000000000E+00 -0.18978124919E+04  0.18978124919E+04  0.50400001928E-02 0. -1.
    10030    2    1    2    0    0  0.00000000000E+00  0.00000000000E+00 -0.37779879388E+03  0.34178261899E+04  0.33968815016E+04 0.  0.
        3    1    3    3  502    0  0.88677632656E+03 -0.11320596326E+04  0.72042614003E+03  0.16083983022E+04  0.10100000352E+00 0.  1.
       -3    1    3    3    0  502 -0.88677632656E+03  0.11320596326E+04 -0.10982249339E+04  0.18094278877E+04  0.10100000352E+00 0. -1.
</event>
<event>
 5   0  0.6134625E-07  0.2503525E+04  0.7818609E-02  0.8401731E-01
       -1   -1    0    0    0  501  0.00000000000E+00  0.00000000000E+00  0.93387418471E+03  0.93387418473E+03  0.50400001928E-02 0.  1.
        1   -1    0    0  501    0  0.00000000000E+00  0.00000000000E+00 -0.16778594359E+04  0.16778594359E+04  0.50400001928E-02 0. -1.
    10030    2    1    2    0    0  0.00000000000E+00  0.00000000000E+00 -0.74398525115E+03  0.26117336206E+04  0.25035252048E+04 0.  0.
        1    1    3    3  502    0  0.52484781377E+03 -0.73090349968E+03 -0.12797906400E+04  0.15644645204E+04  0.50400001928E-02 0. -1.
       -1    1    3    3    0  502 -0.52484781377E+03  0.73090349968E+03  0.53580538882E+03  0.10472691002E+04  0.50400001928E-02 0.  1.
</event>
<event>
 5   0  0.1948507E-06  0.3375747E+04  0.7818609E-02  0.8143885E-01
        2   -1    0    0  501    0  0.00000000000E+00  0.00000000000E+00  0.17754510611E+04  0.17754510611E+04  0.25500000920E-02 0.  1.
       -2   -1    0    0    0  501  0.00000000000E+00  0.00000000000E+00 -0.16046160748E+04  0.16046160748E+04  0.25500000920E-02 0. -1.
    10030    2    1    2    0    0  0.00000000000E+00  0.00000000000E+00  0.17083498629E+03  0.33800671359E+04  0.33757472137E+04 0.  0.
        1    1    3    3  502    0 -0.41571551101E+03  0.13349771029E+04 -0.86127329517E+03  0.16421860249E+04  0.50400001928E-02 0. -1.
       -1    1    3    3    0  502  0.41571551101E+03 -0.13349771029E+04  0.10321082815E+04  0.17378811110E+04  0.50400001928E-02 0.  1.
</event>
<event>
 5   0  0.1339844E-06  0.3301382E+04  0.7818609E-02  0.8162544E-01
       -2   -1    0    0    0  501  0.00000000000E+00  0.00000000000E+00  0.21147341486E+04  0.21147341486E+04  0.25500000920E-02 0. -1.
        2   -1    0    0  501    0  0.00000000000E+00  0.00000000000E+00 -0.12884740519E+04  0.12884740519E+04  0.25500000920E-02 0.  1.
    10030    2    1    2    0    0  0.00000000000E+00  0.00000000000E+00  0.82626009668E+03  0.34032082004E+04  0.33013815757E+04 0.  0.
        3    1    3    3  502    0  0.95127751093E+03 -0.59260552021E+03 -0.83613585622E+03  0.13982966015E+04  0.10100000352E+00 0.  1.
       -3    1    3    3    0  502 -0.95127751093E+03  0.59260552021E+03  0.16623959529E+04  0.20049115990E+04  0.10100000352E+00 0. -1.
</event>
<event>
 5   0  0.1797075E-06  0.3336372E+04  0.7818609E-02  0.8153702E-01
        2   -1    0    0  501    0  0.00000000000E+00  0.00000000000E+00  0.13391577499E+04  0.13391577499E+04  0.25500000920E-02 0. -1.
       -2   -1    0    0    0  501  0.00000000000E+00  0.00000000000E+00 -0.20780563902E+04  0.20780563902E+04  0.25500000920E-02 0.  1.
    10030    2    1    2    0    0  0.00000000000E+00  0.00000000000E+00 -0.73889864027E+03  0.34172141400E+04  0.33363724730E+04 0.  0.
        2    1    3    3  502    0 -0.25350848912E+03 -0.13018893693E+04  0.66682833472E+03  0.14845344428E+04  0.25500000920E-02 0. -1.
       -2    1    3    3    0  502  0.25350848912E+03  0.13018893693E+04 -0.14057269750E+04  0.19326796972E+04  0.25500000920E-02 0.  1.
</event>
<event>
 5   0  0.6134625E-07  0.3395855E+04  0.7818609E-02  0.8138924E-01
        1   -1    0    0  501    0  0.00000000000E+00  0.00000000000E+00  0.23857874184E+04  0.23857874184E+04  0.50400001928E-02 0. -1.
       -1   -1    0    0    0  501  0.00000000000E+00  0.00000000000E+00 -0.12083885431E+04  0.12083885431E+04  0.50400001928E-02 0.  1.
    10030    2    1    2    0    0  0.00000000000E+00  0.00000000000E+00  0.11773988753E+04  0.35941759615E+04  0.33958552282E+04 0.  0.
        1    1    3    3  502    0 -0.10671435868E+03  0.90088544796E+03 -0.93038253614E+03  0.12994591984E+04  0.50400001928E-02 0.  1.
       -1    1    3    3    0  502  0.10671435868E+03 -0.90088544796E+03  0.21077814114E+04  0.22947167632E+04  0.50400001928E-02 0. -1.
</event>
<event>
 5   0  0.1797075E-06  0.3456295E+04  0.7818609E-02  0.8124226E-01
        2   -1    0    0  501    0  0.00000000000E+00  0.00000000000E+00  0.18429044956E+04  0.18429044956E+04  0.25500000920E-02 0. -1.
       -2   -1    0    0    0  501  0.00000000000E+00  0.00000000000E+00 -0.16205359687E+04  0.16205359687E+04  0.25500000920E-02 0.  1.
    10030    2    1    2    0    0  0.00000000000E+00  0.00000000000E+00  0.22236852685E+03  0.34634404643E+04  0.34562945604E+04 0.  0.
        2    1    3    3  502    0  0.78214277409E+03 -0.64699504613E+03 -0.12903292555E+04  0.16417367317E+04  0.25500000920E-02 0.  1.
       -2    1    3    3    0  502 -0.78214277409E+03  0.64699504613E+03  0.15126977823E+04  0.18217037326E+04  0.25500000920E-02 0. -1.
</event>
<event>
 5   0  0.6134625E-07  0.2485985E+04  0.7818609E-02  0.8407996E-01
        1   -1    0    0  501    0  0.00000000000E+00  0.00000000000E+00  0.14785028748E+04  0.14785028748E+04  0.50400001928E-02 0.  1.
       -1   -1    0    0    0  501  0.00000000000E+00  0.00000000000E+00 -0.10449962533E+04  0.10449962533E+04  0.50400001928E-02 0. -1.
    10030    2    1    2    0    0  0.00000000000E+00  0.00000000000E+00  0.43350662150E+03  0.25234991281E+04  0.24859846859E+04 0.  0.
        1    1    3    3  502    0 -0.11832376238E+04  0.89400550485E+02 -0.15894839744E+03  0.11972085557E+04  0.50400001928E-02 0. -1.
       -1    1    3    3    0  502  0.11832376238E+04 -0.89400550485E+02  0.59245501894E+03  0.13262905724E+04  0.50400001928E-02 0.  1.
</event>
<event>
 5   0  0.6134625E-07  0.3382295E+04  0.7818609E-02  0.8142265E-01
       -1   -1    0    0    0  501  0.00000000000E+00  0.00000000000E+00  0.32697382341E+04  0.32697382341E+04  0.50400001928E-02 0. -1.
        1   -1    0    0  501    0  0.00000000000E+00  0.00000000000E+00 -0.87468144156E+03  0.87468144157E+03  0.50400001928E-02 0.  1.
    10030    2    1    2    0    0  0.00000000000E+00  0.00000000000E+00  0.23950567926E+04  0.41444196757E+04  0.33822946957E+04 0.  0.
        5    1    3    3  502    0 -0.24797539705E+03 -0.72270642983E+03  0.30461744153E+04  0.31405408833E+04  0.46999998093E+01 0. -1.
       -5    1    3    3    0  502  0.24797539705E+03  0.72270642983E+03 -0.65111762272E+03  0.10038787924E+04  0.46999998093E+01 0.  1.
</event>
<event>
 5   0  0.1880301E-06  0.3396263E+04  0.7818609E-02  0.8138824E-01
       -2   -1    0    0    0  501  0.00000000000E+00  0.00000000000E+00  0.12758581483E+04  0.12758581484E+04  0.25500000920E-02 0. -1.
        2   -1    0    0  501    0  0.00000000000E+00  0.00000000000E+00 -0.22601656864E+04  0.22601656864E+04  0.25500000920E-02 0.  1.
    10030    2    1    2    0    0  0.00000000000E+00  0.00000000000E+00 -0.98430753804E+03  0.35360238347E+04  0.33962631274E+04 0.  0.
        4    1    3    3  502    0  0.30979583663E+03  0.15216033423E+03  0.12389533995E+04  0.12861311624E+04  0.12699999809E+01 0. -1.
       -4    1    3    3    0  502 -0.30979583663E+03 -0.15216033423E+03 -0.22232609376E+04  0.22498926724E+04  0.12699999809E+01 0.  1.
</event>
<event>
 5   0  0.6134625E-07  0.3408907E+04  0.7818609E-02  0.8135724E-01
        1   -1    0    0  501    0  0.00000000000E+00  0.00000000000E+00  0.18977253506E+04  0.18977253506E+04  0.50400001928E-02 0.  1.
       -1   -1    0    0    0  501  0.00000000000E+00  0.00000000000E+00 -0.15308649910E+04  0.15308649910E+04  0.50400001928E-02 0. -1.
    10030    2    1    2    0    0  0.00000000000E+00  0.00000000000E+00  0.36686035963E+03  0.34285903416E+04  0.34089067466E+04 0.  0.
        1    1    3    3  502    0  0.87316783464E+03 -0.14553574332E+04  0.25443655645E+02  0.16973905577E+04  0.50400001928E-02 0. -1.
       -1    1    3    3    0  502 -0.87316783464E+03  0.14553574332E+04  0.34141670399E+03  0.17311997838E+04  0.50400001928E-02 0.  1.
</event>
<event>
 5   0  0.6134625E-07  0.3166860E+04  0.7818609E-02  0.8197625E-01
       -1   -1    0    0    0  501  0.00000000000E+00  0.00000000000E+00  0.15679761447E+04  0.15679761447E+04  0.50400001928E-02 0. -1.
        1   -1    0    0  501    0  0.00000000000E+00  0.00000000000E+00 -0.15990364922E+04  0.15990364922E+04  0.50400001928E-02 0.  1.
    10030    2    1    2    0    0  0.00000000000E+00  0.00000000000E+00 -0.31060347517E+02  0.31670126368E+04  0.31668603216E+04 0.  0.
        5    1    3    3  502    0  0.70599642654E+03 -0.63897231940E+03  0.12496442676E+04  0.15710981716E+04  0.46999998093E+01 0. -1.
       -5    1    3    3    0  502 -0.70599642654E+03  0.63897231940E+03 -0.12807046151E+04  0.15959144652E+04  0.46999998093E+01 0.  1.
</event>
<event>
 5   0  0.6134625E-07  0.3462377E+04  0.7818609E-02  0.8122764E-01
        1   -1    0    0  501    0  0.00000000000E+00  0.00000000000E+00  0.18771811783E+04  0.18771811783E+04  0.50400001928E-02 0. -1.
       -1   -1    0    0    0  501  0.00000000000E+00  0.00000000000E+00 -0.15965498504E+04  0.15965498504E+04  0.50400001928E-02 0.  1.
    10030    2    1    2    0    0  0.00000000000E+00  0.00000000000E+00  0.28063132792E+03  0.34737310287E+04  0.34623768307E+04 0.  0.
        1    1    3    3  502    0  0.14364602516E+04 -0.13229164661E+03 -0.81995115082E+03  0.16592887103E+04  0.50400001928E-02 0.  1.
       -1    1    3    3    0  502 -0.14364602516E+04  0.13229164661E+03  0.11005824787E+04  0.18144423184E+04  0.50400001928E-02 0. -1.
</event>
<event>
 5   0  0.6134625E-07  0.2657402E+04  0.7818609E-02  0.8348960E-01
        4   -1    0    0  501    0  0.00000000000E+00  0.00000000000E+00  0.12615250604E+04  0.12615256997E+04  0.12699999809E+01 0.  1.
       -4   -1    0    0    0  501  0.00000000000E+00  0.00000000000E+00 -0.13994523584E+04  0.13994529346E+04  0.12699999809E+01 0. -1.
    10030    2    1    2    0    0  0.00000000000E+00  0.00000000000E+00 -0.13792729798E+03  0.26609786343E+04  0.26574016167E+04 0.  0.
        2    1    3    3  502    0 -0.39910996593E+03  0.30068122568E+03 -0.13017779863E+04  0.13943901498E+04  0.25500000920E-02 0. -1.
       -2    1    3    3    0  502  0.39910996593E+03 -0.30068122568E+03  0.11638506883E+04  0.12665884845E+04  0.25500000920E-02 0.  1.
</event>
<event>
 5   0  0.6218695E-07  0.3407360E+04  0.7818609E-02  0.8136102E-01
        1   -1    0    0  501    0  0.00000000000E+00  0.00000000000E+00  0.13841859100E+04  0.13841859100E+04  0.50400001928E-02 0.  1.
       -1   -1    0    0    0  501  0.00000000000E+00  0.00000000000E+00 -0.20969184308E+04  0.20969184308E+04  0.50400001928E-02 0. -1.
    10030    2    1    2    0    0  0.00000000000E+00  0.00000000000E+00 -0.71273252079E+03  0.34811043408E+04  0.34073596502E+04 0.  0.
        2    1    3    3  502    0 -0.15151353033E+04 -0.48683313314E+03  0.26497689711E+03  0.16133363700E+04  0.25500000920E-02 0.  1.
       -2    1    3    3    0  502  0.15151353033E+04  0.48683313314E+03 -0.97770941790E+03  0.18677679708E+04  0.25500000920E-02 0. -1.
</event>
<event>
 5   0  0.6134625E-07  0.3361786E+04  0.7818609E-02  0.8147349E-01
       -3   -1    0    0    0  501  0.00000000000E+00  0.00000000000E+00  0.12341588684E+04  0.12341588725E+04  0.10100000352E+00 0. -1.
        3   -1    0    0  501    0  0.00000000000E+00  0.00000000000E+00 -0.22893337343E+04  0.22893337366E+04  0.10100000352E+00 0.  1.
    10030    2    1    2    0    0  0.00000000000E+00  0.00000000000E+00 -0.10551748659E+04  0.35234926091E+04  0.33617861575E+04 0.  0.
        4    1    3    3  502    0 -0.28105883379E+03  0.16519080079E+04 -0.38851818747E+03  0.17200994533E+04  0.12699999809E+01 0.  1.
       -4    1    3    3    0  502  0.28105883379E+03 -0.16519080079E+04 -0.66665667845E+03  0.18033931558E+04  0.12699999809E+01 0. -1.
</event>
<event>
 5   0  0.6134625E-07  0.3385730E+04  0.7818609E-02  0.8141418E-01
        3   -1    0    0  501    0  0.00000000000E+00  0.00000000000E+00  0.13651927547E+04  0.13651927585E+04  0.10100000352E+00 0. -1.
       -3   -1    0    0    0  501  0.00000000000E+00  0.00000000000E+00 -0.20991844148E+04  0.20991844172E+04  0.10100000352E+00 0.  1.
    10030    2    1    2    0    0  0.00000000000E+00  0.00000000000E+00 -0.73399166006E+03  0.34643771757E+04  0.33857296789E+04 0.  0.
        5    1    3    3  502    0  0.87905711152E+03 -0.10472461584E+04  0.65434027334E+03  0.15157998565E+04  0.46999998093E+01 0. -1.
       -5    1    3    3    0  502 -0.87905711152E+03  0.10472461584E+04 -0.13883319334E+04  0.19485773192E+04  0.46999998093E+01 0.  1.
</event>
<event>
 5   0  0.6134625E-07  0.2794454E+04  0.7818609E-02  0.8304992E-01
        1   -1    0    0  501    0  0.00000000000E+00  0.00000000000E+00  0.17709137117E+04  0.17709137117E+04  0.50400001928E-02 0. -1.
       -1   -1    0    0    0  501  0.00000000000E+00  0.00000000000E+00 -0.11023928979E+04  0.11023928979E+04  0.50400001928E-02 0.  1.
    10030    2    1    2    0    0  0.00000000000E+00  0.00000000000E+00  0.66852081385E+03  0.28733066096E+04  0.27944535771E+04 0.  0.
        5    1    3    3  502    0 -0.56937016081E+03  0.69427346527E+03  0.14349925802E+04  0.16927562789E+04  0.46999998093E+01 0. -1.
       -5    1    3    3    0  502  0.56937016081E+03 -0.69427346527E+03 -0.76647176638E+03  0.11805503307E+04  0.46999998093E+01 0.  1.
</event>
<event>
 5   0  0.1948507E-06  0.3396776E+04  0.7818609E-02  0.8138698E-01
        2   -1    0    0  501    0  0.00000000000E+00  0.00000000000E+00  0.12491821130E+04  0.12491821130E+04  0.25500000920E-02 0. -1.
       -2   -1    0    0    0  501  0.00000000000E+00  0.00000000000E+00 -0.23091286644E+04  0.23091286644E+04  0.25500000920E-02 0.  1.
    10030    2    1    2    0    0  0.00000000000E+00  0.00000000000E+00 -0.10599465514E+04  0.35583107774E+04  0.33967762506E+04 0.  0.
        1    1    3    3  502    0  0.14360705364E+04 -0.54808217301E+03 -0.12867038450E+04  0.20045696393E+04  0.50400001928E-02 0.  1.
       -1    1    3    3    0  502 -0.14360705364E+04  0.54808217301E+03  0.22675729360E+03  0.15537411381E+04  0.50400001928E-02 0. -1.
</event>
<event>
 5   0  0.1911477E-06  0.2924509E+04  0.7818609E-02  0.8265623E-01
       -2   -1    0    0    0  501  0.00000000000E+00  0.00000000000E+00  0.13258628162E+04  0.13258628162E+04  0.25500000920E-02 0. -1.
        2   -1    0    0  501    0  0.00000000000E+00  0.00000000000E+00 -0.16126765774E+04  0.16126765774E+04  0.25500000920E-02 0.  1.
    10030    2    1    2    0    0  0.00000000000E+00  0.00000000000E+00 -0.28681376116E+03  0.29385393937E+04  0.29245087852E+04 0.  0.
        5    1    3    3  502    0  0.75314401371E+03  0.21517414621E+03  0.10972801480E+04  0.13481734427E+04  0.46999998093E+01 0. -1.
       -5    1    3    3    0  502 -0.75314401371E+03 -0.21517414621E+03 -0.13840939091E+04  0.15903659509E+04  0.46999998093E+01 0.  1.
</event>
<event>
 5   0  0.1339844E-06  0.3401458E+04  0.7818609E-02  0.8137549E-01
       -2   -1    0    0    0  501  0.00000000000E+00  0.00000000000E+00  0.16172508617E+04  0.16172508617E+04  0.25500000920E-02 0. -1.
        2   -1    0    0  501    0  0.00000000000E+00  0.00000000000E+00 -0.17885156509E+04  0.17885156509E+04  0.25500000920E-02 0.  1.
    10030    2    1    2    0    0  0.00000000000E+00  0.00000000000E+00 -0.17126478915E+03  0.34057665126E+04  0.34014576156E+04 0.  0.
        3    1    3    3  502    0 -0.93941195258E+03  0.19977216130E+03 -0.14910039457E+04  0.17735547664E+04  0.10100000352E+00 0.  1.
       -3    1    3    3    0  502  0.93941195258E+03 -0.19977216130E+03  0.13197391566E+04  0.16322117463E+04  0.10100000352E+00 0. -1.
</event>
<event>
 5   0  0.6146388E-07  0.3433079E+04  0.7818609E-02  0.8129835E-01
        1   -1    0    0  501    0  0.00000000000E+00  0.00000000000E+00  0.19790199394E+04  0.19790199394E+04  0.50400001928E-02 0.  1.
       -1   -1    0    0    0  501  0.00000000000E+00  0.00000000000E+00 -0.14888718661E+04  0.14888718661E+04  0.50400001928E-02 0. -1.
    10030    2    1    2    0    0  0.00000000000E+00  0.00000000000E+00  0.49014807337E+03  0.34678918055E+04  0.34330785661E+04 0.  0.
        4    1    3    3  502    0 -0.84096509446E+02 -0.13178939712E+04  0.13528204854E+04  0.18905135865E+04  0.12699999809E+01 0.  1.
       -4    1    3    3    0  502  0.84096509446E+02  0.13178939712E+04 -0.86267241201E+03  0.15773782190E+04  0.12699999809E+01 0. -1.
</event>
<event>
 5   0  0.1948507E-06  0.3528863E+04  0.7818609E-02  0.8106984E-01
        2   -1    0    0  501    0  0.00000000000E+00  0.00000000000E+00  0.20189694639E+04  0.20189694639E+04  0.25500000920E-02 0. -1.
       -2   -1    0    0    0  501  0.00000000000E+00  0.00000000000E+00 -0.15419836236E+04  0.15419836236E+04  0.25500000920E-02 0.  1.
    10030    2    1    2    0    0  0.00000000000E+00  0.00000000000E+00  0.47698584030E+03  0.35609530875E+04  0.35288626213E+04 0.  0.
        1    1    3    3  502    0  0.71803466511E+03  0.14859487647E+04 -0.39136292396E+03  0.16961080301E+04  0.50400001928E-02 0.  1.
       -1    1    3    3    0  502 -0.71803466511E+03 -0.14859487647E+04  0.86834876425E+03  0.18648450574E+04  0.50400001928E-02 0. -1.
</event>
<event>
 5   0  0.6134625E-07  0.3419155E+04  0.7818609E-02  0.8133221E-01
        1   -1    0    0  501    0  0.00000000000E+00  0.00000000000E+00  0.12326622416E+04  0.12326622416E+04  0.50400001928E-02 0. -1.
       -1   -1    0    0    0  501  0.00000000000E+00  0.00000000000E+00 -0.23710102493E+04  0.23710102493E+04  0.50400001928E-02 0.  1.
    10030    2    1    2    0    0  0.00000000000E+00  0.00000000000E+00 -0.11383480077E+04  0.36036724910E+04  0.34191547545E+04 0.  0.
        1    1    3    3  502    0 -0.83794469004E+03  0.13030088393E+04 -0.13311494099E+04  0.20425332532E+04  0.50400001928E-02 0.  1.
       -1    1    3    3    0  502  0.83794469004E+03 -0.13030088393E+04  0.19280140219E+03  0.15611392378E+04  0.50400001928E-02 0. -1.
</event>
<event>
 5   0  0.1880301E-06  0.3398288E+04  0.7818609E-02  0.8138327E-01
       -2   -1    0    0    0  501  0.00000000000E+00  0.00000000000E+00  0.13678433541E+04  0.13678433541E+04  0.25500000920E-02 0.  1.
        2   -1    0    0  501    0  0.00000000000E+00  0.00000000000E+00 -0.21106880351E+04  0.21106880351E+04  0.25500000920E-02 0. -1.
    10030    2    1    2    0    0  0.00000000000E+00  0.00000000000E+00 -0.74284468102E+03  0.34785313892E+04  0.33982881581E+04 0.  0.
        4    1    3    3  502    0 -0.15578826404E+03  0.39316247731E+03 -0.20559551758E+04  0.20989997653E+04  0.12699999809E+01 0. -1.
       -4    1    3    3    0  502  0.15578826404E+03 -0.39316247731E+03  0.13131104948E+04  0.13795316239E+04  0.12699999809E+01 0.  1.
</event>
<event>
 5   0  0.6134625E-07  0.3415030E+04  0.7818609E-02  0.8134227E-01
       -1   -1    0    0    0  501  0.00000000000E+00  0.00000000000E+00  0.16774827227E+04  0.16774827227E+04  0.50400001928E-02 0. -1.
        1   -1    0    0  501    0  0.00000000000E+00  0.00000000000E+00 -0.17380850193E+04  0.17380850193E+04  0.50400001928E-02 0.  1.
    10030    2    1    2    0    0  0.00000000000E+00  0.00000000000E+00 -0.60602296587E+02  0.34155677420E+04  0.34150300675E+04 0.  0.
        5    1    3    3  502    0 -0.14328859254E+02 -0.26204978862E+03 -0.17177864239E+04  0.17377248620E+04  0.46999998093E+01 0.  1.
       -5    1    3    3    0  502  0.14328859254E+02  0.26204978862E+03  0.16571841273E+04  0.16778428799E+04  0.46999998093E+01 0. -1.
</event>
<event>
 5   0  0.1797075E-06  0.3374655E+04  0.7818609E-02  0.8144155E-01
       -2   -1    0    0    0  501  0.00000000000E+00  0.00000000000E+00  0.11866170528E+04  0.11866170528E+04  0.25500000920E-02 0.  1.
        2   -1    0    0  501    0  0.00000000000E+00  0.00000000000E+00 -0.23993205014E+04  0.23993205014E+04  0.25500000920E-02 0. -1.
    10030    2    1    2    0    0  0.00000000000E+00  0.00000000000E+00 -0.12127034486E+04  0.35859375542E+04  0.33746553140E+04 0.  0.
        2    1    3    3  502    0  0.82873073681E+03 -0.20755244727E+02  0.95530299307E+03  0.12648435567E+04  0.25500000920E-02 0.  1.
       -2    1    3    3    0  502 -0.82873073681E+03  0.20755244727E+02 -0.21680064417E+04  0.23210939975E+04  0.25500000920E-02 0. -1.
</event>
<event>
 5   0  0.1911477E-06  0.3411652E+04  0.7818609E-02  0.8135052E-01
       -2   -1    0    0    0  501  0.00000000000E+00  0.00000000000E+00  0.94022800569E+03  0.94022800569E+03  0.25500000920E-02 0.  1.
        2   -1    0    0  501    0  0.00000000000E+00  0.00000000000E+00 -0.30948263914E+04  0.30948263914E+04  0.25500000920E-02 0. -1.
    10030    2    1    2    0    0  0.00000000000E+00  0.00000000000E+00 -0.21545983857E+04  0.40350543971E+04  0.34116520608E+04 0.  0.
        5    1    3    3  502    0  0.31324022117E+03  0.81177238853E+03 -0.28126172675E+04  0.29441351583E+04  0.46999998093E+01 0. -1.
       -5    1    3    3    0  502 -0.31324022117E+03 -0.81177238853E+03  0.65801888174E+03  0.10909192388E+04  0.46999998093E+01 0.  1.
</event>
<event>
 5   0  0.1797075E-06  0.3438934E+04  0.7818609E-02  0.8128416E-01
        2   -1    0    0  501    0  0.00000000000E+00  0.00000000000E+00  0.19862290131E+04  0.19862290131E+04  0.25500000920E-02 0.  1.
       -2   -1    0    0    0  501  0.00000000000E+00  0.00000000000E+00 -0.14885326392E+04  0.14885326392E+04  0.25500000920E-02 0. -1.
    10030    2    1    2    0    0  0.00000000000E+00  0.00000000000E+00  0.49769637393E+03  0.34747616523E+04  0.34389339714E+04 0.  0.
        2    1    3    3  502    0 -0.38962704022E+03  0.36506560281E+03 -0.14026477872E+04  0.15008340813E+04  0.25500000920E-02 0. -1.
       -2    1    3    3    0  502  0.38962704022E+03 -0.36506560281E+03  0.19003441611E+04  0.19739275710E+04  0.25500000920E-02 0.  1.
</event>
<event>
 5   0  0.1339844E-06  0.3377739E+04  0.7818609E-02  0.8143392E-01
       -2   -1    0    0    0  501  0.00000000000E+00  0.00000000000E+00  0.10221476908E+04  0.10221476908E+04  0.25500000920E-02 0. -1.
        2   -1    0    0  501    0  0.00000000000E+00  0.00000000000E+00 -0.27904773483E+04  0.27904773483E+04  0.25500000920E-02 0.  1.
    10030    2    1    2    0    0  0.00000000000E+00  0.00000000000E+00 -0.17683296575E+04  0.38126250391E+04  0.33777388755E+04 0.  0.
        3    1    3    3  502    0 -0.12851484392E+04 -0.10922014570E+04 -0.78467178460E+03  0.18601667541E+04  0.10100000352E+00 0. -1.
       -3    1    3    3    0  502  0.12851484392E+04  0.10922014570E+04 -0.98365787292E+03  0.19524582850E+04  0.10100000352E+00 0.  1.
</event>
<event>
 5   0  0.1339844E-06  0.2893695E+04  0.7818609E-02  0.8274756E-01
        2   -1    0    0  501    0  0.00000000000E+00  0.00000000000E+00  0.15317431352E+04  0.15317431352E+04  0.25500000920E-02 0. -1.
       -2   -1    0    0    0  501  0.00000000000E+00  0.00000000000E+00 -0.13666568608E+04  0.13666568608E+04  0.25500000920E-02 0.  1.
    10030    2    1    2    0    0  0.00000000000E+00  0.00000000000E+00  0.16508627438E+03  0.28983999960E+04  0.28936947072E+04 0.  0.
        3    1    3    3  502    0  0.14237574221E+04 -0.20455507441E+03 -0.74041736579E+02  0.14402812796E+04  0.10100000352E+00 0. -1.
       -3    1    3    3    0  502 -0.14237574221E+04  0.20455507441E+03  0.23912801096E+03  0.14581187164E+04  0.10100000352E+00 0.  1.
</event>
<event>
 5   0  0.1797075E-06  0.3392706E+04  0.7818609E-02  0.8139699E-01
       -2   -1    0    0    0  501  0.00000000000E+00  0.00000000000E+00  0.16596944980E+04  0.16596944980E+04  0.25500000920E-02 0. -1.
        2   -1    0    0  501    0  0.00000000000E+00  0.00000000000E+00 -0.17338214092E+04  0.17338214092E+04  0.25500000920E-02 0.  1.
    10030    2    1    2    0    0  0.00000000000E+00  0.00000000000E+00 -0.74126911197E+02  0.33935159073E+04  0.33927062080E+04 0.  0.
        2    1    3    3  502    0 -0.38326952844E+03  0.16129976647E+02  0.16157407062E+04  0.16606546111E+04  0.25500000920E-02 0. -1.
       -2    1    3    3    0  502  0.38326952844E+03 -0.16129976647E+02 -0.16898676174E+04  0.17328612962E+04  0.25500000920E-02 0.  1.
</event>
<event>
 5   0  0.6134625E-07  0.3399968E+04  0.7818609E-02  0.8137914E-01
        1   -1    0    0  501    0  0.00000000000E+00  0.00000000000E+00  0.19256520603E+04  0.19256520603E+04  0.50400001928E-02 0. -1.
       -1   -1    0    0    0  501  0.00000000000E+00  0.00000000000E+00 -0.15007622485E+04  0.15007622485E+04  0.50400001928E-02 0.  1.
    10030    2    1    2    0    0  0.00000000000E+00  0.00000000000E+00  0.42488981185E+03  0.34264143088E+04  0.33999681857E+04 0.  0.
        5    1    3    3  502    0 -0.15035109168E+04  0.54767712101E+03 -0.36597818160E+03  0.16414802543E+04  0.46999998093E+01 0. -1.
       -5    1    3    3    0  502  0.15035109168E+04 -0.54767712101E+03  0.79086799345E+03  0.17849340545E+04  0.46999998093E+01 0.  1.
</event>
<event>
 5   0  0.1911477E-06  0.3594231E+04  0.7818609E-02  0.8091815E-01
        2   -1    0    0  501    0  0.00000000000E+00  0.00000000000E+00  0.16972107380E+04  0.16972107380E+04  0.25500000920E-02 0.  1.
       -2   -1    0    0    0  501  0.00000000000E+00  0.00000000000E+00 -0.19029007140E+04  0.19029007140E+04  0.25500000920E-02 0. -1.
    10030    2    1    2    0    0  0.00000000000E+00  0.00000000000E+00 -0.20568997604E+03  0.36001114520E+04  0.35942306688E+04 0.  0.
        5    1    3    3  502    0 -0.80359110107E+03 -0.15934153367E+04  0.10932780397E+03  0.17879333745E+04  0.46999998093E+01 0.  1.
       -5    1    3    3    0  502  0.80359110107E+03  0.15934153367E+04 -0.31501778001E+03  0.18121780775E+04  0.46999998093E+01 0. -1.
</event>
<event>
 5   0  0.1339844E-06  0.3370903E+04  0.7818609E-02  0.8145085E-01
       -2   -1    0    0    0  501  0.00000000000E+00  0.00000000000E+00  0.10350129300E+04  0.10350129300E+04  0.25500000920E-02 0.  1.
        2   -1    0    0  501    0  0.00000000000E+00  0.00000000000E+00 -0.27446480714E+04  0.27446480714E+04  0.25500000920E-02 0. -1.
    10030    2    1    2    0    0  0.00000000000E+00  0.00000000000E+00 -0.17096351414E+04  0.37796610013E+04  0.33709026934E+04 0.  0.
        3    1    3    3  502    0 -0.71671972924E+03 -0.14822738610E+04 -0.45066058262E+03  0.17070201933E+04  0.10100000352E+00 0.  1.
       -3    1    3    3    0  502  0.71671972924E+03  0.14822738610E+04 -0.12589745588E+04  0.20726408081E+04  0.10100000352E+00 0. -1.
</event>
<event>
 5   0  0.6146388E-07  0.3399985E+04  0.7818609E-02  0.8137910E-01
       -1   -1    0    0    0  501  0.00000000000E+00  0.00000000000E+00  0.22402386594E+04  0.22402386594E+04  0.50400001928E-02 0. -1.
        1   -1    0    0  501    0  0.00000000000E+00  0.00000000000E+00 -0.12900294419E+04  0.12900294419E+04  0.50400001928E-02 0.  1.
    10030    2    1    2    0    0  0.00000000000E+00  0.00000000000E+00  0.95020921754E+03  0.35302681013E+04  0.33999846044E+04 0.  0.
        4    1    3    3  502    0  0.13502892950E+03 -0.13999916138E+04 -0.51634738980E+03  0.14982741973E+04  0.12699999809E+01 0.  1.
       -4    1    3    3    0  502 -0.13502892950E+03  0.13999916138E+04  0.14665566073E+04  0.20319939040E+04  0.12699999809E+01 0. -1.
</event>
<event>
 5   0  0.1948507E-06  0.3430853E+04  0.7818609E-02  0.8130375E-01
       -2   -1    0    0    0  501  0.00000000000E+00  0.00000000000E+00  0.21423944735E+04  0.21423944735E+04  0.25500000920E-02 0. -1.
        2   -1    0    0  501    0  0.00000000000E+00  0.00000000000E+00 -0.13735509214E+04  0.13735509214E+04  0.25500000920E-02 0.  1.
    10030    2    1    2    0    0  0.00000000000E+00  0.00000000000E+00  0.76884355208E+03  0.35159453949E+04  0.34308528987E+04 0.  0.
        1    1    3    3  502    0  0.88646679659E+03  0.14647740605E+04  0.27547671269E+03  0.17341493157E+04  0.50400001928E-02 0.  1.
       -1    1    3    3    0  502 -0.88646679659E+03 -0.14647740605E+04  0.49336683939E+03  0.17817960793E+04  0.50400001928E-02 0. -1.
</event>
<event>
 5   0  0.1797075E-06  0.3283699E+04  0.7818609E-02  0.8167056E-01
        2   -1    0    0  501    0  0.00000000000E+00  0.00000000000E+00  0.18196815248E+04  0.18196815248E+04  0.25500000920E-02 0. -1.
       -2   -1    0    0    0  501  0.00000000000E+00  0.00000000000E+00 -0.14813962446E+04  0.14813962446E+04  0.25500000920E-02 0.  1.
    10030    2    1    2    0    0  0.00000000000E+00  0.00000000000E+00  0.33828528025E+03  0.33010777694E+04  0.32836987543E+04 0.  0.
        2    1    3    3  502    0 -0.14476247839E+04 -0.14894997032E+02 -0.60944326898E+03  0.15707515635E+04  0.25500000920E-02 0. -1.
       -2    1    3    3    0  502  0.14476247839E+04  0.14894997032E+02  0.94772854923E+03  0.17303262060E+04  0.25500000920E-02 0.  1.
</event>
<event>
 5   0  0.6218695E-07  0.3411598E+04  0.7818609E-02  0.8135066E-01
       -1   -1    0    0    0  501  0.00000000000E+00  0.00000000000E+00  0.31026897269E+04  0.31026897269E+04  0.50400001928E-02 0. -1.
        1   -1    0    0  501    0  0.00000000000E+00  0.00000000000E+00 -0.93781539608E+03  0.93781539609E+03  0.50400001928E-02 0.  1.
    10030    2    1    2    0    0  0.00000000000E+00  0.00000000000E+00  0.21648743308E+04  0.40405051229E+04  0.34115979805E+04 0.  0.
        2    1    3    3  502    0  0.15820829329E+04 -0.56462963689E+03  0.73118952418E+03  0.18320565367E+04  0.25500000920E-02 0.  1.
       -2    1    3    3    0  502 -0.15820829329E+04  0.56462963689E+03  0.14336848066E+04  0.22084485862E+04  0.25500000920E-02 0. -1.
</event>
<event>
 5   0  0.1911477E-06  0.3418132E+04  0.7818609E-02  0.8133471E-01
        2   -1    0    0  501    0  0.00000000000E+00  0.00000000000E+00  0.14100145088E+04  0.14100145089E+04  0.25500000920E-02 0.  1.
       -2   -1    0    0    0  501  0.00000000000E+00  0.00000000000E+00 -0.20715432102E+04  0.20715432102E+04  0.25500000920E-02 0. -1.
    10030    2    1    2    0    0  0.00000000000E+00  0.00000000000E+00 -0.66152870139E+03  0.34815577191E+04  0.34181316430E+04 0.  0.
        5    1    3    3  502    0  0.53568409694E+03  0.15712764227E+04  0.82996077718E+02  0.16621604878E+04  0.46999998093E+01 0.  1.
       -5    1    3    3    0  502 -0.53568409694E+03 -0.15712764227E+04 -0.74452477911E+03  0.18193972313E+04  0.46999998093E+01 0. -1.
</event>
<event>
 5   0  0.6134625E-07  0.3411397E+04  0.7818609E-02  0.8135115E-01
       -1   -1    0    0    0  501  0.00000000000E+00  0.00000000000E+00  0.17486133748E+04  0.17486133749E+04  0.50400001928E-02 0.  1.
        1   -1    0    0  501    0  0.00000000000E+00  0.00000000000E+00 -0.16638373284E+04  0.16638373284E+04  0.50400001928E-02 0. -1.
    10030    2    1    2    0    0  0.00000000000E+00  0.00000000000E+00  0.84776046422E+02  0.34124507033E+04  0.34113974885E+04 0.  0.
        3    1    3    3  502    0 -0.13224370309E+04  0.43702503493E+03 -0.94258730129E+03  0.16817554556E+04  0.10100000352E+00 0. -1.
       -3    1    3    3    0  502  0.13224370309E+04 -0.43702503493E+03  0.10273633477E+04  0.17306952477E+04  0.10100000352E+00 0.  1.
</event>
<event>
 5   0  0.6134625E-07  0.3355412E+04  0.7818609E-02  0.8148937E-01
        1   -1    0    0  501    0  0.00000000000E+00  0.00000000000E+00  0.19285072302E+04  0.19285072302E+04  0.50400001928E-02 0.  1.
       -1   -1    0    0    0  501  0.00000000000E+00  0.00000000000E+00 -0.14595211173E+04  0.14595211173E+04  0.50400001928E-02 0. -1.
    10030    2    1    2    0    0  0.00000000000E+00  0.00000000000E+00  0.46898611294E+03  0.33880283475E+04  0.33554117645E+04 0.  0.
        3    1    3    3  502    0 -0.10012018933E+04  0.11139550709E+04 -0.52876213519E+03  0.15883609593E+04  0.10100000352E+00 0. -1.
       -3    1    3    3    0  502  0.10012018933E+04 -0.11139550709E+04  0.99774824813E+03  0.17996673882E+04  0.10100000352E+00 0.  1.
</event>
<event>
 5   0  0.6218695E-07  0.3476493E+04  0.7818609E-02  0.8119384E-01
        1   -1    0    0  501    0  0.00000000000E+00  0.00000000000E+00  0.15072324714E+04  0.15072324714E+04  0.50400001928E-02 0. -1.
       -1   -1    0    0    0  501  0.00000000000E+00  0.00000000000E+00 -0.20046680387E+04  0.20046680387E+04  0.50400001928E-02 0.  1.
    10030    2    1    2    0    0  0.00000000000E+00  0.00000000000E+00 -0.49743556730E+03  0.35119005101E+04  0.34764929238E+04 0.  0.
        2    1    3    3  502    0 -0.14880688103E+04 -0.86767542798E+03 -0.13339661224E+02  0.17226106290E+04  0.25500000920E-02 0. -1.
       -2    1    3    3    0  502  0.14880688103E+04  0.86767542798E+03 -0.48409590607E+03  0.17892898811E+04  0.25500000920E-02 0.  1.
</event>
<event>
 5   0  0.1880301E-06  0.3420219E+04  0.7818609E-02  0.8132962E-01
       -2   -1    0    0    0  501  0.00000000000E+00  0.00000000000E+00  0.17123708738E+04  0.17123708738E+04  0.25500000920E-02 0.  1.
        2   -1    0    0  501    0  0.00000000000E+00  0.00000000000E+00 -0.17078510984E+04  0.17078510984E+04  0.25500000920E-02 0. -1.
    10030    2    1    2    0    0  0.00000000000E+00  0.00000000000E+00  0.45197753626E+01  0.34202219722E+04  0.34202189858E+04 0.  0.
        4    1    3    3  502    0  0.67715345148E+03 -0.34901444677E+03 -0.15287950027E+04  0.17080877185E+04  0.12699999809E+01 0. -1.
       -4    1    3    3    0  502 -0.67715345148E+03  0.34901444677E+03  0.15333147781E+04  0.17121342537E+04  0.12699999809E+01 0.  1.
</event>
<event>
 5   0  0.1797075E-06  0.3388239E+04  0.7818609E-02  0.8140799E-01
        2   -1    0    0  501    0  0.00000000000E+00  0.00000000000E+00  0.13376336191E+04  0.13376336191E+04  0.25500000920E-02 0. -1.
       -2   -1    0    0    0  501  0.00000000000E+00  0.00000000000E+00 -0.21456109046E+04  0.21456109046E+04  0.25500000920E-02 0.  1.
    10030    2    1    2    0    0  0.00000000000E+00  0.00000000000E+00 -0.80797728543E+03  0.34832445237E+04  0.33882392356E+04 0.  0.
        2    1    3    3  502    0 -0.14407530226E+04  0.14826060426E+03  0.49945346119E+03  0.15320588236E+04  0.25500000920E-02 0. -1.
       -2    1    3    3    0  502  0.14407530226E+04 -0.14826060426E+03 -0.13074307466E+04  0.19511857001E+04  0.25500000920E-02 0.  1.
</event>
<event>
 5   0  0.1880301E-06  0.3435498E+04  0.7818609E-02  0.8129248E-01
       -2   -1    0    0    0  501  0.00000000000E+00  0.00000000000E+00  0.12916103044E+04  0.12916103045E+04  0.25500000920E-02 0. -1.
        2   -1    0    0  501    0  0.00000000000E+00  0.00000000000E+00 -0.22844833380E+04  0.22844833380E+04  0.25500000920E-02 0.  1.
    10030    2    1    2    0    0  0.00000000000E+00  0.00000000000E+00 -0.99287303356E+03  0.35760936425E+04  0.34354983451E+04 0.  0.
        4    1    3    3  502    0 -0.10890751424E+04 -0.13242505238E+04 -0.60529396390E+03  0.18182701975E+04  0.12699999809E+01 0.  1.
       -4    1    3    3    0  502  0.10890751424E+04  0.13242505238E+04 -0.38757906966E+03  0.17578234450E+04  0.12699999809E+01 0. -1.
</event>
<event>
 5   0  0.1948507E-06  0.3331259E+04  0.7818609E-02  0.8154987E-01
        2   -1    0    0  501    0  0.00000000000E+00  0.00000000000E+00  0.29635304422E+04  0.29635304422E+04  0.25500000920E-02 0.  1.
       -2   -1    0    0    0  501  0.00000000000E+00  0.00000000000E+00 -0.93615402240E+03  0.93615402240E+03  0.25500000920E-02 0. -1.
    10030    2    1    2    0    0  0.00000000000E+00  0.00000000000E+00  0.20273764198E+04  0.38996844646E+04  0.33312585874E+04 0.  0.
        1    1    3    3  502    0 -0.81062355268E+03  0.12041803548E+04  0.57515936297E+02  0.14527453163E+04  0.50400001928E-02 0.  1.
       -1    1    3    3    0  502  0.81062355268E+03 -0.12041803548E+04  0.19698604835E+04  0.24469391483E+04  0.50400001928E-02 0. -1.
</event>
<event>
 5   0  0.1339844E-06  0.3383699E+04  0.7818609E-02  0.8141919E-01
       -2   -1    0    0    0  501  0.00000000000E+00  0.00000000000E+00  0.18211245101E+04  0.18211245101E+04  0.25500000920E-02 0.  1.
        2   -1    0    0  501    0  0.00000000000E+00  0.00000000000E+00 -0.15717510114E+04  0.15717510114E+04  0.25500000920E-02 0. -1.
    10030    2    1    2    0    0  0.00000000000E+00  0.00000000000E+00  0.24937349868E+03  0.33928755215E+04  0.33836987399E+04 0.  0.
        3    1    3    3  502    0  0.12014374629E+04  0.67163185281E+03 -0.86175615445E+03  0.16239350365E+04  0.10100000352E+00 0. -1.
       -3    1    3    3    0  502 -0.12014374629E+04 -0.67163185281E+03  0.11111296531E+04  0.17689404849E+04  0.10100000352E+00 0.  1.
</event>
<event>
 5   0  0.6134625E-07  0.3612121E+04  0.7818609E-02  0.8087721E-01
       -1   -1    0    0    0  501  0.00000000000E+00  0.00000000000E+00  0.17759052875E+04  0.17759052875E+04  0.50400001928E-02 0. -1.
        1   -1    0    0  501    0  0.00000000000E+00  0.00000000000E+00 -0.18367273976E+04  0.18367273976E+04  0.50400001928E-02 0.  1.
    10030    2    1    2    0    0  0.00000000000E+00  0.00000000000E+00 -0.60822110086E+02  0.36126326851E+04  0.36121206497E+04 0.  0.
        1    1    3    3  502    0  0.96120969667E+03 -0.89543091430E+03  0.12091730821E+04  0.17854467636E+04  0.50400001928E-02 0. -1.
       -1    1    3    3    0  502 -0.96120969667E+03  0.89543091430E+03 -0.12699951922E+04  0.18271859214E+04  0.50400001928E-02 0.  1.
</event>
<event>
 5   0  0.1797075E-06  0.2954145E+04  0.7818609E-02  0.8256948E-01
        2   -1    0    0  501    0  0.00000000000E+00  0.00000000000E+00  0.24218074441E+04  0.24218074441E+04  0.25500000920E-02 0.  1.
       -2   -1    0    0    0  501  0.00000000000E+00  0.00000000000E+00 -0.90087407069E+03  0.90087407069E+03  0.25500000920E-02 0. -1.
    10030    2    1    2    0    0  0.00000000000E+00  0.00000000000E+00  0.15209333734E+04  0.33226815148E+04  0.29541452440E+04 0.  0.
        2    1    3    3  502    0 -0.88728928094E+03 -0.30193512901E+03 -0.52357308521E+03  0.10735808613E+04  0.25500000920E-02 0. -1.
       -2    1    3    3    0  502  0.88728928094E+03  0.30193512901E+03  0.20445064586E+04  0.22491006535E+04  0.25500000920E-02 0.  1.
</event>
<event>
 5   0  0.6218695E-07  0.3397878E+04  0.7818609E-02  0.8138427E-01
       -1   -1    0    0    0  501  0.00000000000E+00  0.00000000000E+00  0.26118602924E+04  0.26118602924E+04  0.50400001928E-02 0. -1.
        1   -1    0    0  501    0  0.00000000000E+00  0.00000000000E+00 -0.11051101372E+04  0.11051101372E+04  0.50400001928E-02 0.  1.
    10030    2    1    2    0    0  0.00000000000E+00  0.00000000000E+00  0.15067501551E+04  0.37169704296E+04  0.33978777412E+04 0.  0.
        2    1    3    3  502    0 -0.58671643853E+03 -0.46160352978E+02  0.24967888271E+04  0.25652137151E+04  0.25500000920E-02 0. -1.
       -2    1    3    3    0  502  0.58671643853E+03  0.46160352978E+02 -0.99003867190E+03  0.11517567145E+04  0.25500000920E-02 0.  1.
</event>
<event>
 5   0  0.1797075E-06  0.3466415E+04  0.7818609E-02  0.8121796E-01
       -2   -1    0    0    0  501  0.00000000000E+00  0.00000000000E+00  0.16467889143E+04  0.16467889143E+04  0.25500000920E-02 0.  1.
        2   -1    0    0  501    0  0.00000000000E+00  0.00000000000E+00 -0.18241612922E+04  0.18241612922E+04  0.25500000920E-02 0. -1.
    10030    2    1    2    0    0  0.00000000000E+00  0.00000000000E+00 -0.17737237788E+03  0.34709502066E+04  0.34664152054E+04 0.  0.
        2    1    3    3  502    0  0.51765168398E+02  0.68709790875E+03  0.15037482885E+04  0.16540985715E+04  0.25500000920E-02 0.  1.
       -2    1    3    3    0  502 -0.51765168398E+02 -0.68709790875E+03 -0.16811206664E+04  0.18168516351E+04  0.25500000920E-02 0. -1.
</event>
<event>
 5   0  0.1880301E-06  0.3446106E+04  0.7818609E-02  0.8126682E-01
       -2   -1    0    0    0  501  0.00000000000E+00  0.00000000000E+00  0.17566467562E+04  0.17566467562E+04  0.25500000920E-02 0.  1.
        2   -1    0    0  501    0  0.00000000000E+00  0.00000000000E+00 -0.16901015040E+04  0.16901015040E+04  0.25500000920E-02 0. -1.
    10030    2    1    2    0    0  0.00000000000E+00  0.00000000000E+00  0.66545252129E+02  0.34467482602E+04  0.34461058165E+04 0.  0.
        4    1    3    3  502    0  0.60453213411E+02 -0.17127466576E+04  0.21150238873E+03  0.17268151544E+04  0.12699999809E+01 0.  1.
       -4    1    3    3    0  502 -0.60453213411E+02  0.17127466576E+04 -0.14495713661E+03  0.17199331058E+04  0.12699999809E+01 0. -1.
</event>
<event>
 5   0  0.6146388E-07  0.3434821E+04  0.7818609E-02  0.8129413E-01
       -1   -1    0    0    0  501  0.00000000000E+00  0.00000000000E+00  0.15989789432E+04  0.15989789432E+04  0.50400001928E-02 0.  1.
        1   -1    0    0  501    0  0.00000000000E+00  0.00000000000E+00 -0.18446136691E+04  0.18446136691E+04  0.50400001928E-02 0. -1.
    10030    2    1    2    0    0  0.00000000000E+00  0.00000000000E+00 -0.24563472590E+03  0.34435926124E+04  0.34348207612E+04 0.  0.
        4    1    3    3  502    0  0.17170699681E+04 -0.26891282193E+02 -0.14395166386E+03  0.17233038359E+04  0.12699999809E+01 0.  1.
       -4    1    3    3    0  502 -0.17170699681E+04  0.26891282193E+02 -0.10168306203E+03  0.17202887765E+04  0.12699999809E+01 0. -1.
</event>
<event>
 5   0  0.6134625E-07  0.3435479E+04  0.7818609E-02  0.8129253E-01
       -1   -1    0    0    0  501  0.00000000000E+00  0.00000000000E+00  0.31389807164E+04  0.31389807164E+04  0.50400001928E-02 0. -1.
        1   -1    0    0  501    0  0.00000000000E+00  0.00000000000E+00 -0.93999579452E+03  0.93999579453E+03  0.50400001928E-02 0.  1.
    10030    2    1    2    0    0  0.00000000000E+00  0.00000000000E+00  0.21989849218E+04  0.40789765109E+04  0.34354788152E+04 0.  0.
        3    1    3    3  502    0 -0.11110052228E+04  0.41407263547E+03  0.25752182602E+04  0.28350551759E+04  0.10100000352E+00 0. -1.
       -3    1    3    3    0  502  0.11110052228E+04 -0.41407263547E+03 -0.37623333839E+03  0.12439213350E+04  0.10100000352E+00 0.  1.
</event>
<event>
 5   0  0.1339844E-06  0.2956791E+04  0.7818609E-02  0.8256178E-01
       -2   -1    0    0    0  501  0.00000000000E+00  0.00000000000E+00  0.13517388668E+04  0.13517388668E+04  0.25500000920E-02 0. -1.
        2   -1    0    0  501    0  0.00000000000E+00  0.00000000000E+00 -0.16169200713E+04  0.16169200713E+04  0.25500000920E-02 0.  1.
    10030    2    1    2    0    0  0.00000000000E+00  0.00000000000E+00 -0.26518120448E+03  0.29686589381E+04  0.29567913047E+04 0.  0.
        3    1    3    3  502    0 -0.11524345440E+04 -0.89798649647E+03 -0.35970322196E+03  0.15046167433E+04  0.10100000352E+00 0.  1.
       -3    1    3    3    0  502  0.11524345440E+04  0.89798649647E+03  0.94522017486E+02  0.14640421948E+04  0.10100000352E+00 0. -1.
</event>
<event>
 5   0  0.6134625E-07  0.3404595E+04  0.7818609E-02  0.8136779E-01
        1   -1    0    0  501    0  0.00000000000E+00  0.00000000000E+00  0.21289721760E+04  0.21289721760E+04  0.50400001928E-02 0.  1.
       -1   -1    0    0    0  501  0.00000000000E+00  0.00000000000E+00 -0.13611344193E+04  0.13611344193E+04  0.50400001928E-02 0. -1.
    10030    2    1    2    0    0  0.00000000000E+00  0.00000000000E+00  0.76783775666E+03  0.34901065953E+04  0.34045953102E+04 0.  0.
        5    1    3    3  502    0  0.83390178901E+03 -0.73525116830E+03  0.17054083716E+04  0.20357864029E+04  0.46999998093E+01 0. -1.
       -5    1    3    3    0  502 -0.83390178901E+03  0.73525116830E+03 -0.93757061495E+03  0.14543201925E+04  0.46999998093E+01 0.  1.
</event>
<event>
 5   0  0.6146388E-07  0.3439273E+04  0.7818609E-02  0.8128334E-01
        1   -1    0    0  501    0  0.00000000000E+00  0.00000000000E+00  0.23070599181E+04  0.23070599181E+04  0.50400001928E-02 0.  1.
       -1   -1    0    0    0  501  0.00000000000E+00  0.00000000000E+00 -0.12817831369E+04  0.12817831369E+04  0.50400001928E-02 0. -1.
    10030    2    1    2    0    0  0.00000000000E+00  0.00000000000E+00  0.10252767813E+04  0.35888430550E+04  0.34392734691E+04 0.  0.
        4    1    3    3  502    0 -0.37945729143E+03  0.41257508688E+03 -0.11837748084E+04  0.13097825958E+04  0.12699999809E+01 0. -1.
       -4    1    3    3    0  502  0.37945729143E+03 -0.41257508688E+03  0.22090515896E+04  0.22790604592E+04  0.12699999809E+01 0.  1.
</event>
<event>
 5   0  0.1880301E-06  0.3397705E+04  0.7818609E-02  0.8138470E-01
       -2   -1    0    0    0  501  0.00000000000E+00  0.00000000000E+00  0.12579367958E+04  0.12579367958E+04  0.25500000920E-02 0. -1.
        2   -1    0    0  501    0  0.00000000000E+00  0.00000000000E+00 -0.22943125668E+04  0.22943125668E+04  0.25500000920E-02 0.  1.
    10030    2    1    2    0    0  0.00000000000E+00  0.00000000000E+00 -0.10363757710E+04  0.35522493626E+04  0.33977052249E+04 0.  0.
        4    1    3    3  502    0  0.46419205118E+03 -0.16106546891E+03 -0.22184054420E+04  0.22721665132E+04  0.12699999809E+01 0.  1.
       -4    1    3    3    0  502 -0.46419205118E+03  0.16106546891E+03  0.11820296709E+04  0.12800828495E+04  0.12699999809E+01 0. -1.
</event>
<event>
 5   0  0.1948507E-06  0.3409361E+04  0.7818609E-02  0.8135613E-01
        2   -1    0    0  501    0  0.00000000000E+00  0.00000000000E+00  0.22361602684E+04  0.22361602684E+04  0.25500000920E-02 0.  1.
       -2   -1    0    0    0  501  0.00000000000E+00  0.00000000000E+00 -0.12995203295E+04  0.12995203295E+04  0.25500000920E-02 0. -1.
    10030    2    1    2    0    0  0.00000000000E+00  0.00000000000E+00  0.93663993888E+03  0.35356805979E+04  0.34093610714E+04 0.  0.
        1    1    3    3  502    0  0.46959712481E+03  0.14994531045E+04  0.11539153823E+04  0.19494619211E+04  0.50400001928E-02 0. -1.
       -1    1    3    3    0  502 -0.46959712481E+03 -0.14994531045E+04 -0.21727544346E+03  0.15862186768E+04  0.50400001928E-02 0.  1.
</event>
<event>
 5   0  0.6218695E-07  0.2981105E+04  0.7818609E-02  0.8249147E-01
       -1   -1    0    0    0  501  0.00000000000E+00  0.00000000000E+00  0.25411305277E+04  0.25411305277E+04  0.50400001928E-02 0. -1.
        1   -1    0    0  501    0  0.00000000000E+00  0.00000000000E+00 -0.87431424714E+03  0.87431424715E+03  0.50400001928E-02 0.  1.
    10030    2    1    2    0    0  0.00000000000E+00  0.00000000000E+00  0.16668162806E+04  0.34154447749E+04  0.29811049121E+04 0.  0.
        2    1    3    3  502    0  0.64987288928E+03  0.29498348083E+03 -0.66583539745E+03  0.97605676202E+03  0.25500000920E-02 0.  1.
       -2    1    3    3    0  502 -0.64987288928E+03 -0.29498348083E+03  0.23326516780E+04  0.24393880129E+04  0.25500000920E-02 0. -1.
</event>
<event>
 5   0  0.1797075E-06  0.3374070E+04  0.7818609E-02  0.8144300E-01
       -2   -1    0    0    0  501  0.00000000000E+00  0.00000000000E+00  0.20801503347E+04  0.20801503347E+04  0.25500000920E-02 0.  1.
        2   -1    0    0  501    0  0.00000000000E+00  0.00000000000E+00 -0.13682122073E+04  0.13682122073E+04  0.25500000920E-02 0. -1.
    10030    2    1    2    0    0  0.00000000000E+00  0.00000000000E+00  0.71193812748E+03  0.34483625420E+04  0.33740699939E+04 0.  0.
        2    1    3    3  502    0  0.13587612461E+04 -0.36202770622E+03  0.13085819722E+04  0.19208547478E+04  0.25500000920E-02 0. -1.
       -2    1    3    3    0  502 -0.13587612461E+04  0.36202770622E+03 -0.59664384477E+03  0.15275077942E+04  0.25500000920E-02 0.  1.
</event>
<event>
 5   0  0.6134625E-07  0.3383218E+04  0.7818609E-02  0.8142037E-01
       -1   -1    0    0    0  501  0.00000000000E+00  0.00000000000E+00  0.14606405791E+04  0.14606405791E+04  0.50400001928E-02 0. -1.
        1   -1    0    0  501    0  0.00000000000E+00  0.00000000000E+00 -0.19591002381E+04  0.19591002382E+04  0.50400001928E-02 0.  1.
    10030    2    1    2    0    0  0.00000000000E+00  0.00000000000E+00 -0.49845965906E+03  0.34197408173E+04  0.33832181759E+04 0.  0.
        5    1    3    3  502    0 -0.11896793529E+04 -0.12023648986E+04 -0.22660733361E+03  0.17065729653E+04  0.46999998093E+01 0. -1.
       -5    1    3    3    0  502  0.11896793529E+04  0.12023648986E+04 -0.27185232545E+03  0.17131678520E+04  0.46999998093E+01 0.  1.
</event>
<event>
 5   0  0.1948507E-06  0.3428226E+04  0.7818609E-02  0.8131013E-01
       -2   -1    0    0    0  501  0.00000000000E+00  0.00000000000E+00  0.12474413617E+04  0.12474413617E+04  0.25500000920E-02 0.  1.
        2   -1    0    0  501    0  0.00000000000E+00  0.00000000000E+00 -0.23553680100E+04  0.23553680100E+04  0.25500000920E-02 0. -1.
    10030    2    1    2    0    0  0.00000000000E+00  0.00000000000E+00 -0.11079266483E+04  0.36028093717E+04  0.34282260589E+04 0.  0.
        1    1    3    3  502    0  0.15521357335E+04  0.69324186132E+03 -0.32258341113E+03  0.17302513316E+04  0.50400001928E-02 0. -1.
       -1    1    3    3    0  502 -0.15521357335E+04 -0.69324186132E+03 -0.78534323720E+03  0.18725580401E+04  0.50400001928E-02 0.  1.
</event>
<event>
 5   0  0.1339844E-06  0.3439090E+04  0.7818609E-02  0.8128378E-01
       -2   -1    0    0    0  501  0.00000000000E+00  0.00000000000E+00  0.21343960002E+04  0.21343960002E+04  0.25500000920E-02 0. -1.
        2   -1    0    0  501    0  0.00000000000E+00  0.00000000000E+00 -0.13853264102E+04  0.13853264102E+04  0.25500000920E-02 0.  1.
    10030    2    1    2    0    0  0.00000000000E+00  0.00000000000E+00  0.74906958999E+03  0.35197224105E+04  0.34390900826E+04 0.  0.
        3    1    3    3  502    0 -0.35510749863E+03 -0.16824769903E+04  0.37681877196E+03  0.17603472827E+04  0.10100000352E+00 0.  1.
       -3    1    3    3    0  502  0.35510749863E+03  0.16824769903E+04  0.37225081803E+03  0.17593751278E+04  0.10100000352E+00 0. -1.
</event>
<event>
 5   0  0.1797075E-06  0.3734741E+04  0.7818609E-02  0.8060306E-01
       -2   -1    0    0    0  501  0.00000000000E+00  0.00000000000E+00  0.17108850548E+04  0.17108850548E+04  0.25500000920E-02 0. -1.
        2   -1    0    0  501    0  0.00000000000E+00  0.00000000000E+00 -0.20381686243E+04  0.20381686243E+04  0.25500000920E-02 0.  1.
    10030    2    1    2    0    0  0.00000000000E+00  0.00000000000E+00 -0.32728356952E+03  0.37490536792E+04  0.37347408149E+04 0.  0.
        2    1    3    3  502    0 -0.76921723417E+03 -0.79819805954E+03  0.13448670845E+04  0.17428375629E+04  0.25500000920E-02 0. -1.
       -2    1    3    3    0  502  0.76921723417E+03  0.79819805954E+03 -0.16721506540E+04  0.20062161163E+04  0.25500000920E-02 0.  1.
</event>
<event>
 5   0  0.6134625E-07  0.3403969E+04  0.7818609E-02  0.8136933E-01
        1   -1    0    0  501    0  0.00000000000E+00  0.00000000000E+00  0.10201755909E+04  0.10201755909E+04  0.50400001928E-02 0.  1.
       -1   -1    0    0    0  501  0.00000000000E+00  0.00000000000E+00 -0.28394640736E+04  0.28394640736E+04  0.50400001928E-02 0. -1.
    10030    2    1    2    0    0  0.00000000000E+00  0.00000000000E+00 -0.18192884827E+04  0.38596396645E+04  0.34039694118E+04 0.  0.
        5    1    3    3  502    0 -0.55939477919E+03 -0.15634758663E+04 -0.48637622862E+03  0.17303072644E+04  0.46999998093E+01 0. -1.
       -5    1    3    3    0  502  0.55939477919E+03  0.15634758663E+04 -0.13329122541E+04  0.21293324002E+04  0.46999998093E+01 0.  1.
</event>
<event>
 5   0  0.1880301E-06  0.3047200E+04  0.7818609E-02  0.8230380E-01
       -2   -1    0    0    0  501  0.00000000000E+00  0.00000000000E+00  0.20643740293E+04  0.20643740293E+04  0.25500000920E-02 0.  1.
        2   -1    0    0  501    0  0.00000000000E+00  0.00000000000E+00 -0.11244843548E+04  0.11244843548E+04  0.25500000920E-02 0. -1.
    10030    2    1    2    0    0  0.00000000000E+00  0.00000000000E+00  0.93988967447E+03  0.31888583841E+04  0.30471995658E+04 0.  0.
        4    1    3    3  502    0  0.56692992589E+03  0.77031576565E+03 -0.77117373900E+03  0.12286197411E+04  0.12699999809E+01 0. -1.
       -4    1    3    3    0  502 -0.56692992589E+03 -0.77031576565E+03  0.17110634135E+04  0.19602386430E+04  0.12699999809E+01 0.  1.
</event>
<event>
 5   0  0.6134625E-07  0.3379931E+04  0.7818609E-02  0.8142850E-01
        1   -1    0    0  501    0  0.00000000000E+00  0.00000000000E+00  0.15368566722E+04  0.15368566722E+04  0.50400001928E-02 0.  1.
       -1   -1    0    0    0  501  0.00000000000E+00  0.00000000000E+00 -0.18583274737E+04  0.18583274738E+04  0.50400001928E-02 0. -1.
    10030    2    1    2    0    0  0.00000000000E+00  0.00000000000E+00 -0.32147080153E+03  0.33951841460E+04  0.33799307550E+04 0.  0.
        1    1    3    3  502    0  0.85943862392E+03  0.13298871407E+04  0.43247896112E+03  0.16414239572E+04  0.50400001928E-02 0. -1.
       -1    1    3    3    0  502 -0.85943862392E+03 -0.13298871407E+04 -0.75394976265E+03  0.17537601888E+04  0.50400001928E-02 0.  1.
</event>
<event>
 5   0  0.6134625E-07  0.3394122E+04  0.7818609E-02  0.8139350E-01
        1   -1    0    0  501    0  0.00000000000E+00  0.00000000000E+00  0.16639641846E+04  0.16639641846E+04  0.50400001928E-02 0.  1.
       -1   -1    0    0    0  501  0.00000000000E+00  0.00000000000E+00 -0.17308162224E+04  0.17308162224E+04  0.50400001928E-02 0. -1.
    10030    2    1    2    0    0  0.00000000000E+00  0.00000000000E+00 -0.66852037881E+02  0.33947804070E+04  0.33941220981E+04 0.  0.
        1    1    3    3  502    0  0.82419934269E+03  0.13162315804E+04  0.65099178476E+03  0.16839122404E+04  0.50400001928E-02 0.  1.
       -1    1    3    3    0  502 -0.82419934269E+03 -0.13162315804E+04 -0.71784382264E+03  0.17108681666E+04  0.50400001928E-02 0. -1.
</event>
<event>
 5   0  0.1339844E-06  0.3325153E+04  0.7818609E-02  0.8156524E-01
        2   -1    0    0  501    0  0.00000000000E+00  0.00000000000E+00  0.16131617725E+04  0.16131617725E+04  0.25500000920E-02 0. -1.
       -2   -1    0    0    0  501  0.00000000000E+00  0.00000000000E+00 -0.17135051720E+04  0.17135051720E+04  0.25500000920E-02 0.  1.
    10030    2    1    2    0    0  0.00000000000E+00  0.00000000000E+00 -0.10034339948E+03  0.33266669445E+04  0.33251532539E+04 0.  0.
        3    1    3    3  502    0 -0.95251061464E+03  0.12576025091E+04  0.47477706983E+03  0.16474992619E+04  0.10100000352E+00 0.  1.
       -3    1    3    3    0  502  0.95251061464E+03 -0.12576025091E+04 -0.57512046931E+03  0.16791676826E+04  0.10100000352E+00 0. -1.
</event>
<event>
 5   0  0.6134625E-07  0.3391089E+04  0.7818609E-02  0.8140097E-01
       -1   -1    0    0    0  501  0.00000000000E+00  0.00000000000E+00  0.97898560382E+03  0.97898560384E+03  0.50400001928E-02 0. -1.
        1   -1    0    0  501    0  0.00000000000E+00  0.00000000000E+00 -0.29365823707E+04  0.29365823707E+04  0.50400001928E-02 0.  1.
    10030    2    1    2    0    0  0.00000000000E+00  0.00000000000E+00 -0.19575967669E+04  0.39155679745E+04  0.33910894210E+04 0.  0.
        5    1    3    3  502    0 -0.64560323012E+03 -0.85870854406E+03  0.53582200751E+03  0.12005462124E+04  0.46999998093E+01 0. -1.
       -5    1    3    3    0  502  0.64560323012E+03  0.85870854406E+03 -0.24934187744E+04  0.27150217621E+04  0.46999998093E+01 0.  1.
</event>
<event>
 5   0  0.6134625E-07  0.2830833E+04  0.7818609E-02  0.8293759E-01
       -1   -1    0    0    0  501  0.00000000000E+00  0.00000000000E+00  0.14131407570E+04  0.14131407570E+04  0.50400001928E-02 0.  1.
        1   -1    0    0  501    0  0.00000000000E+00  0.00000000000E+00 -0.14176961061E+04  0.14176961061E+04  0.50400001928E-02 0. -1.
    10030    2    1    2    0    0  0.00000000000E+00  0.00000000000E+00 -0.45553491217E+01  0.28308368630E+04  0.28308331978E+04 0.  0.
        1    1    3    3  502    0 -0.50563366741E+03 -0.90449980436E+02 -0.13212022548E+04  0.14175408293E+04  0.50400001928E-02 0. -1.
       -1    1    3    3    0  502  0.50563366741E+03  0.90449980436E+02  0.13166469057E+04  0.14132960337E+04  0.50400001928E-02 0.  1.
</event>
<event>
 5   0  0.6218695E-07  0.3463541E+04  0.7818609E-02  0.8122485E-01
        1   -1    0    0  501    0  0.00000000000E+00  0.00000000000E+00  0.21186457659E+04  0.21186457659E+04  0.50400001928E-02 0.  1.
       -1   -1    0    0    0  501  0.00000000000E+00  0.00000000000E+00 -0.14155409790E+04  0.14155409790E+04  0.50400001928E-02 0. -1.
    10030    2    1    2    0    0  0.00000000000E+00  0.00000000000E+00  0.70310478686E+03  0.35341867449E+04  0.34635414833E+04 0.  0.
        2    1    3    3  502    0 -0.86347202575E+03  0.14292384233E+03 -0.11732560346E+04  0.14637420834E+04  0.25500000920E-02 0. -1.
       -2    1    3    3    0  502  0.86347202575E+03 -0.14292384233E+03  0.18763608215E+04  0.20704446615E+04  0.25500000920E-02 0.  1.
</event>
<event>
 5   0  0.6134625E-07  0.3398093E+04  0.7818609E-02  0.8138375E-01
        1   -1    0    0  501    0  0.00000000000E+00  0.00000000000E+00  0.15731923510E+04  0.15731923510E+04  0.50400001928E-02 0. -1.
       -1   -1    0    0    0  501  0.00000000000E+00  0.00000000000E+00 -0.18349684401E+04  0.18349684401E+04  0.50400001928E-02 0.  1.
    10030    2    1    2    0    0  0.00000000000E+00  0.00000000000E+00 -0.26177608903E+03  0.34081607911E+04  0.33980925910E+04 0.  0.
        5    1    3    3  502    0 -0.65322489978E+03 -0.71579284502E+03 -0.15306139723E+04  0.18115913968E+04  0.46999998093E+01 0.  1.
       -5    1    3    3    0  502  0.65322489978E+03  0.71579284502E+03  0.12688378833E+04  0.15965693943E+04  0.46999998093E+01 0. -1.
</event>
<event>
 5   0  0.6146388E-07  0.3212826E+04  0.7818609E-02  0.8185438E-01
        1   -1    0    0  501    0  0.00000000000E+00  0.00000000000E+00  0.26878278349E+04  0.26878278349E+04  0.50400001928E-02 0. -1.
       -1   -1    0    0    0  501  0.00000000000E+00  0.00000000000E+00 -0.96009211093E+03  0.96009211094E+03  0.50400001928E-02 0.  1.
    10030    2    1    2    0    0  0.00000000000E+00  0.00000000000E+00  0.17277357239E+04  0.36479199458E+04  0.32128257343E+04 0.  0.
        4    1    3    3  502    0  0.12874954743E+04 -0.54114883591E+03  0.17651357932E+04  0.22508204371E+04  0.12699999809E+01 0. -1.
       -4    1    3    3    0  502 -0.12874954743E+04  0.54114883591E+03 -0.37400069218E+02  0.13970995087E+04  0.12699999809E+01 0.  1.
</event>
<event>
 5   0  0.1948507E-06  0.3461079E+04  0.7818609E-02  0.8123076E-01
        2   -1    0    0  501    0  0.00000000000E+00  0.00000000000E+00  0.14948801998E+04  0.14948801998E+04  0.25500000920E-02 0.  1.
       -2   -1    0    0    0  501  0.00000000000E+00  0.00000000000E+00 -0.20033496365E+04  0.20033496365E+04  0.25500000920E-02 0. -1.
    10030    2    1    2    0    0  0.00000000000E+00  0.00000000000E+00 -0.50846943668E+03  0.34982298363E+04  0.34610794298E+04 0.  0.
        1    1    3    3  502    0  0.12692041679E+04 -0.57688126216E+03 -0.12904692655E+04  0.18997321220E+04  0.50400001928E-02 0. -1.
       -1    1    3    3    0  502 -0.12692041679E+04  0.57688126216E+03  0.78199982879E+03  0.15984977143E+04  0.50400001928E-02 0.  1.
</event>
<event>
 5   0  0.6146388E-07  0.3383793E+04  0.7818609E-02  0.8141896E-01
       -1   -1    0    0    0  501  0.00000000000E+00  0.00000000000E+00  0.15077645619E+04  0.15077645620E+04  0.50400001928E-02 0.  1.
        1   -1    0    0  501    0  0.00000000000E+00  0.00000000000E+00 -0.18985146317E+04  0.18985146317E+04  0.50400001928E-02 0. -1.
    10030    2    1    2    0    0  0.00000000000E+00  0.00000000000E+00 -0.39075006976E+03  0.34062791937E+04  0.33837925953E+04 0.  0.
        4    1    3    3  502    0  0.11909121242E+04  0.35391257055E+03  0.96072801082E+03  0.15705176595E+04  0.12699999809E+01 0.  1.
       -4    1    3    3    0  502 -0.11909121242E+04 -0.35391257055E+03 -0.13514780806E+04  0.18357615342E+04  0.12699999809E+01 0. -1.
</event>
<event>
 5   0  0.1339844E-06  0.3423506E+04  0.7818609E-02  0.8132161E-01
       -2   -1    0    0    0  501  0.00000000000E+00  0.00000000000E+00  0.12419284682E+04  0.12419284682E+04  0.25500000920E-02 0.  1.
        2   -1    0    0  501    0  0.00000000000E+00  0.00000000000E+00 -0.23593128190E+04  0.23593128190E+04  0.25500000920E-02 0. -1.
    10030    2    1    2    0    0  0.00000000000E+00  0.00000000000E+00 -0.11173843508E+04  0.36012412871E+04  0.34235056625E+04 0.  0.
        3    1    3    3  502    0  0.16333661084E+04  0.50988410957E+03 -0.50900546051E+03  0.17852039710E+04  0.10100000352E+00 0. -1.
       -3    1    3    3    0  502 -0.16333661084E+04 -0.50988410957E+03 -0.60837889025E+03  0.18160373161E+04  0.10100000352E+00 0.  1.
</event>
<event>
 5   0  0.1880301E-06  0.3392708E+04  0.7818609E-02  0.8139698E-01
        2   -1    0    0  501    0  0.00000000000E+00  0.00000000000E+00  0.12878264441E+04  0.12878264441E+04  0.25500000920E-02 0.  1.
       -2   -1    0    0    0  501  0.00000000000E+00  0.00000000000E+00 -0.22344756340E+04  0.22344756340E+04  0.25500000920E-02 0. -1.
    10030    2    1    2    0    0  0.00000000000E+00  0.00000000000E+00 -0.94664918996E+03  0.35223020781E+04  0.33927079509E+04 0.  0.
        4    1    3    3  502    0 -0.15899156866E+04  0.58121093019E+03 -0.35970399685E+03  0.17306145192E+04  0.12699999809E+01 0.  1.
       -4    1    3    3    0  502  0.15899156866E+04 -0.58121093019E+03 -0.58694519311E+03  0.17916875588E+04  0.12699999809E+01 0. -1.
</event>
<event>
 5   0  0.6146388E-07  0.2564821E+04  0.7818609E-02  0.8380250E-01
       -1   -1    0    0    0  501  0.00000000000E+00  0.00000000000E+00  0.15770243947E+04  0.15770243947E+04  0.50400001928E-02 0. -1.
        1   -1    0    0  501    0  0.00000000000E+00  0.00000000000E+00 -0.10428350112E+04  0.10428350113E+04  0.50400001928E-02 0.  1.
    10030    2    1    2    0    0  0.00000000000E+00  0.00000000000E+00  0.53418938347E+03  0.26198594060E+04  0.25648206584E+04 0.  0.
        4    1    3    3  502    0  0.13215209433E+03  0.93452093001E+03 -0.61974189766E+03  0.11291037053E+04  0.12699999809E+01 0.  1.
       -4    1    3    3    0  502 -0.13215209433E+03 -0.93452093001E+03  0.11539312811E+04  0.14907557007E+04  0.12699999809E+01 0. -1.
</event>
<event>
 5   0  0.6134625E-07  0.3394602E+04  0.7818609E-02  0.8139232E-01
       -1   -1    0    0    0  501  0.00000000000E+00  0.00000000000E+00  0.13351361960E+04  0.13351361960E+04  0.50400001928E-02 0. -1.
        1   -1    0    0  501    0  0.00000000000E+00  0.00000000000E+00 -0.21577052135E+04  0.21577052135E+04  0.50400001928E-02 0.  1.
    10030    2    1    2    0    0  0.00000000000E+00  0.00000000000E+00 -0.82256901748E+03  0.34928414094E+04  0.33946017915E+04 0.  0.
        1    1    3    3  502    0 -0.80463123828E+03  0.11679916423E+04  0.54800235425E+03  0.15205073122E+04  0.50400001928E-02 0. -1.
       -1    1    3    3    0  502  0.80463123828E+03 -0.11679916423E+04 -0.13705713717E+04  0.19723340972E+04  0.50400001928E-02 0.  1.
</event>
<event>
 5   0  0.1797075E-06  0.3384427E+04  0.7818609E-02  0.8141739E-01
        2   -1    0    0  501    0  0.00000000000E+00  0.00000000000E+00  0.18676969386E+04  0.18676969386E+04  0.25500000920E-02 0.  1.
       -2   -1    0    0    0  501  0.00000000000E+00  0.00000000000E+00 -0.15332180660E+04  0.15332180660E+04  0.25500000920E-02 0. -1.
    10030    2    1    2    0    0  0.00000000000E+00  0.00000000000E+00  0.33447887262E+03  0.34009150046E+04  0.33844270937E+04 0.  0.
        2    1    3    3  502    0  0.45784592194E+03 -0.87105050066E+02 -0.14674544245E+04  0.15396858985E+04  0.25500000920E-02 0. -1.
       -2    1    3    3    0  502 -0.45784592194E+03  0.87105050066E+02  0.18019332972E+04  0.18612291061E+04  0.25500000920E-02 0.  1.
</event>
<event>
 5   0  0.1339844E-06  0.3247187E+04  0.7818609E-02  0.8176465E-01
       -2   -1    0    0    0  501  0.00000000000E+00  0.00000000000E+00  0.14691576874E+04  0.14691576874E+04  0.25500000920E-02 0.  1.
        2   -1    0    0  501    0  0.00000000000E+00  0.00000000000E+00 -0.17942636390E+04  0.17942636390E+04  0.25500000920E-02 0. -1.
    10030    2    1    2    0    0  0.00000000000E+00  0.00000000000E+00 -0.32510595162E+03  0.32634213264E+04  0.32471872250E+04 0.  0.
        3    1    3    3  502    0 -0.13262025462E+04  0.21581296750E+03 -0.10785192846E+04  0.17229603269E+04  0.10100000352E+00 0. -1.
       -3    1    3    3    0  502  0.13262025462E+04 -0.21581296750E+03  0.75341333296E+03  0.15404609995E+04  0.10100000352E+00 0.  1.
</event>
<event>
 5   0  0.6146388E-07  0.3444065E+04  0.7818609E-02  0.8127175E-01
       -1   -1    0    0    0  501  0.00000000000E+00  0.00000000000E+00  0.19490329378E+04  0.19490329378E+04  0.50400001928E-02 0.  1.
        1   -1    0    0  501    0  0.00000000000E+00  0.00000000000E+00 -0.15214703767E+04  0.15214703767E+04  0.50400001928E-02 0. -1.
    10030    2    1    2    0    0  0.00000000000E+00  0.00000000000E+00  0.42756256107E+03  0.34705033145E+04  0.34440649692E+04 0.  0.
        4    1    3    3  502    0 -0.52455041488E+03  0.12926722396E+04 -0.80354268206E+03  0.16099183556E+04  0.12699999809E+01 0. -1.
       -4    1    3    3    0  502  0.52455041488E+03 -0.12926722396E+04  0.12311052431E+04  0.18605849589E+04  0.12699999809E+01 0.  1.
</event>
<event>
 5   0  0.6218695E-07  0.3302517E+04  0.7818609E-02  0.8162255E-01
        1   -1    0    0  501    0  0.00000000000E+00  0.00000000000E+00  0.13039516952E+04  0.13039516952E+04  0.50400001928E-02 0.  1.
       -1   -1    0    0    0  501  0.00000000000E+00  0.00000000000E+00 -0.20910697184E+04  0.20910697184E+04  0.50400001928E-02 0. -1.
    10030    2    1    2    0    0  0.00000000000E+00  0.00000000000E+00 -0.78711802319E+03  0.33950214136E+04  0.33025165581E+04 0.  0.
        2    1    3    3  502    0  0.83695184223E+03 -0.14233907475E+04 -0.40502019261E+03  0.17001679219E+04  0.25500000920E-02 0.  1.
       -2    1    3    3    0  502 -0.83695184223E+03  0.14233907475E+04 -0.38209783058E+03  0.16948534917E+04  0.25500000920E-02 0. -1.
</event>
<event>
 5   0  0.6146388E-07  0.3413836E+04  0.7818609E-02  0.8134519E-01
       -1   -1    0    0    0  501  0.00000000000E+00  0.00000000000E+00  0.18475375142E+04  0.18475375142E+04  0.50400001928E-02 0.  1.
        1   -1    0    0  501    0  0.00000000000E+00  0.00000000000E+00 -0.15770015943E+04  0.15770015943E+04  0.50400001928E-02 0. -1.
    10030    2    1    2    0    0  0.00000000000E+00  0.00000000000E+00  0.27053591989E+03  0.34245391086E+04  0.34138363204E+04 0.  0.
        4    1    3    3  502    0 -0.97538022923E+02 -0.13046644394E+04 -0.96448340962E+03  0.16253900534E+04  0.12699999809E+01 0. -1.
       -4    1    3    3    0  502  0.97538022923E+02  0.13046644394E+04  0.12350193295E+04  0.17991490551E+04  0.12699999809E+01 0.  1.
</event>
<event>
 5   0  0.1797075E-06  0.3474533E+04  0.7818609E-02  0.8119852E-01
        2   -1    0    0  501    0  0.00000000000E+00  0.00000000000E+00  0.24875614460E+04  0.24875614460E+04  0.25500000920E-02 0.  1.
       -2   -1    0    0    0  501  0.00000000000E+00  0.00000000000E+00 -0.12132742995E+04  0.12132742995E+04  0.25500000920E-02 0. -1.
    10030    2    1    2    0    0  0.00000000000E+00  0.00000000000E+00  0.12742871465E+04  0.37008357455E+04  0.34745327000E+04 0.  0.
        2    1    3    3  502    0  0.98994641401E+02  0.16805362978E+04  0.10941487099E+04  0.20077757809E+04  0.25500000920E-02 0.  1.
       -2    1    3    3    0  502 -0.98994641401E+02 -0.16805362978E+04  0.18013843661E+03  0.16930599645E+04  0.25500000920E-02 0. -1.
</event>
<event>
 5   0  0.6134625E-07  0.3363811E+04  0.7818609E-02  0.8146846E-01
        1   -1    0    0  501    0  0.00000000000E+00  0.00000000000E+00  0.15896000052E+04  0.15896000052E+04  0.50400001928E-02 0. -1.
       -1   -1    0    0    0  501  0.00000000000E+00  0.00000000000E+00 -0.17795712693E+04  0.17795712693E+04  0.50400001928E-02 0.  1.
    10030    2    1    2    0    0  0.00000000000E+00  0.00000000000E+00 -0.18997126410E+03  0.33691712746E+04  0.33638112307E+04 0.  0.
        5    1    3    3  502    0  0.60699133559E+03  0.15670136372E+04 -0.16448054370E+03  0.16885041190E+04  0.46999998093E+01 0.  1.
       -5    1    3    3    0  502 -0.60699133559E+03 -0.15670136372E+04 -0.25490720399E+02  0.16806671555E+04  0.46999998093E+01 0. -1.
</event>
<event>
 5   0  0.6134625E-07  0.3354549E+04  0.7818609E-02  0.8149152E-01
       -1   -1    0    0    0  501  0.00000000000E+00  0.00000000000E+00  0.10290731063E+04  0.10290731063E+04  0.50400001928E-02 0.  1.
        1   -1    0    0  501    0  0.00000000000E+00  0.00000000000E+00 -0.27337710093E+04  0.27337710093E+04  0.50400001928E-02 0. -1.
    10030    2    1    2    0    0  0.00000000000E+00  0.00000000000E+00 -0.17046979030E+04  0.37628441157E+04  0.33545492839E+04 0.  0.
        3    1    3    3  502    0  0.15181887526E+04  0.16074949471E+03 -0.73171391925E+02  0.15284278037E+04  0.10100000352E+00 0.  1.
       -3    1    3    3    0  502 -0.15181887526E+04 -0.16074949471E+03 -0.16315265111E+04  0.22344163119E+04  0.10100000352E+00 0. -1.
</event>
<event>
 5   0  0.6134625E-07  0.3382790E+04  0.7818609E-02  0.8142143E-01
       -1   -1    0    0    0  501  0.00000000000E+00  0.00000000000E+00  0.15717304329E+04  0.15717304329E+04  0.50400001928E-02 0. -1.
        1   -1    0    0  501    0  0.00000000000E+00  0.00000000000E+00 -0.18201708264E+04  0.18201708264E+04  0.50400001928E-02 0.  1.
    10030    2    1    2    0    0  0.00000000000E+00  0.00000000000E+00 -0.24844039346E+03  0.33919012593E+04  0.33827904937E+04 0.  0.
        1    1    3    3  502    0  0.12201367954E+03 -0.14381575343E+04  0.75999009650E+03  0.16311864940E+04  0.50400001928E-02 0. -1.
       -1    1    3    3    0  502 -0.12201367954E+03  0.14381575343E+04 -0.10084304900E+04  0.17607147653E+04  0.50400001928E-02 0.  1.
</event>
<event>
 5   0  0.1339844E-06  0.3387518E+04  0.7818609E-02  0.8140977E-01
       -2   -1    0    0    0  501  0.00000000000E+00  0.00000000000E+00  0.11931500530E+04  0.11931500530E+04  0.25500000920E-02 0. -1.
        2   -1    0    0  501    0  0.00000000000E+00  0.00000000000E+00 -0.24044077415E+04  0.24044077415E+04  0.25500000920E-02 0.  1.
    10030    2    1    2    0    0  0.00000000000E+00  0.00000000000E+00 -0.12112576886E+04  0.35975577945E+04  0.33875178076E+04 0.  0.
        3    1    3    3  502    0  0.96709415872E+03  0.12885283820E+04 -0.11607662422E+04  0.19856874836E+04  0.10100000352E+00 0. -1.
       -3    1    3    3    0  502 -0.96709415872E+03 -0.12885283820E+04 -0.50491446328E+02  0.16118703110E+04  0.10100000352E+00 0.  1.
</event>
<event>
 5   0  0.1339844E-06  0.3491926E+04  0.7818609E-02  0.8115706E-01
       -2   -1    0    0    0  501  0.00000000000E+00  0.00000000000E+00  0.15652562739E+04  0.15652562739E+04  0.25500000920E-02 0.  1.
        2   -1    0    0  501    0  0.00000000000E+00  0.00000000000E+00 -0.19475322086E+04  0.19475322086E+04  0.25500000920E-02 0. -1.
    10030    2    1    2    0    0  0.00000000000E+00  0.00000000000E+00 -0.38227593466E+03  0.35127884826E+04  0.34919261208E+04 0.  0.
        3    1    3    3  502    0 -0.14151721963E+04 -0.82411049521E+02  0.83420767099E+03  0.16448119572E+04  0.10100000352E+00 0.  1.
       -3    1    3    3    0  502  0.14151721963E+04  0.82411049521E+02 -0.12164836057E+04  0.18679765253E+04  0.10100000352E+00 0. -1.
</event>
<event>
 5   0  0.6146388E-07  0.3618018E+04  0.7818609E-02  0.8086377E-01
        1   -1    0    0  501    0  0.00000000000E+00  0.00000000000E+00  0.24395884782E+04  0.24395884782E+04  0.50400001928E-02 0.  1.
       -1   -1    0    0    0  501  0.00000000000E+00  0.00000000000E+00 -0.13414206672E+04  0.13414206672E+04  0.50400001928E-02 0. -1.
    10030    2    1    2    0    0  0.00000000000E+00  0.00000000000E+00  0.10981678110E+04  0.37810091454E+04  0.36180184655E+04 0.  0.
        4    1    3    3  502    0  0.16954372148E+04  0.41523914715E+03  0.52732716290E+02  0.17463428217E+04  0.12699999809E+01 0. -1.
       -4    1    3    3    0  502 -0.16954372148E+04 -0.41523914715E+03  0.10454350947E+04  0.20346663237E+04  0.12699999809E+01 0.  1.
</event>
<event>
 5   0  0.6134625E-07  0.3321233E+04  0.7818609E-02  0.8157513E-01
       -3   -1    0    0    0  501  0.00000000000E+00  0.00000000000E+00  0.14224366810E+04  0.14224366846E+04  0.10100000352E+00 0. -1.
        3   -1    0    0  501    0  0.00000000000E+00  0.00000000000E+00 -0.19386786813E+04  0.19386786840E+04  0.10100000352E+00 0.  1.
    10030    2    1    2    0    0  0.00000000000E+00  0.00000000000E+00 -0.51624200029E+03  0.33611153686E+04  0.33212333128E+04 0.  0.
        3    1    3    3  502    0  0.65357270560E+03 -0.14972762839E+04 -0.55944483778E+03  0.17268387558E+04  0.10100000352E+00 0. -1.
       -3    1    3    3    0  502 -0.65357270560E+03  0.14972762839E+04  0.43202837485E+02  0.16342766128E+04  0.10100000352E+00 0.  1.
</event>
<event>
 5   0  0.1948507E-06  0.3356580E+04  0.7818609E-02  0.8148646E-01
        2   -1    0    0  501    0  0.00000000000E+00  0.00000000000E+00  0.15351088163E+04  0.15351088163E+04  0.25500000920E-02 0. -1.
       -2   -1    0    0    0  501  0.00000000000E+00  0.00000000000E+00 -0.18348255582E+04  0.18348255582E+04  0.25500000920E-02 0.  1.
    10030    2    1    2    0    0  0.00000000000E+00  0.00000000000E+00 -0.29971674189E+03  0.33699343745E+04  0.33565797418E+04 0.  0.
        1    1    3    3  502    0 -0.11141856086E+04  0.69911830743E+03 -0.11963494366E+04  0.17780404812E+04  0.50400001928E-02 0.  1.
       -1    1    3    3    0  502  0.11141856086E+04 -0.69911830743E+03  0.89663269475E+03  0.15918938933E+04  0.50400001928E-02 0. -1.
</event>
<event>
 5   0  0.6218695E-07  0.3237122E+04  0.7818609E-02  0.8179082E-01
       -1   -1    0    0    0  501  0.00000000000E+00  0.00000000000E+00  0.15338441790E+04  0.15338441790E+04  0.50400001928E-02 0. -1.
        1   -1    0    0  501    0  0.00000000000E+00  0.00000000000E+00 -0.17079571084E+04  0.17079571084E+04  0.50400001928E-02 0.  1.
    10030    2    1    2    0    0  0.00000000000E+00  0.00000000000E+00 -0.17411292935E+03  0.32418012874E+04  0.32371222212E+04 0.  0.
        2    1    3    3  502    0  0.24719588254E+03  0.76938183258E+03 -0.14914693036E+04  0.16963298301E+04  0.25500000920E-02 0.  1.
       -2    1    3    3    0  502 -0.24719588254E+03 -0.76938183258E+03  0.13173563743E+04  0.15454714574E+04  0.25500000920E-02 0. -1.
</event>
<event>
 5   0  0.6134625E-07  0.3388609E+04  0.7818609E-02  0.8140708E-01
        1   -1    0    0  501    0  0.00000000000E+00  0.00000000000E+00  0.12899849721E+04  0.12899849721E+04  0.50400001928E-02 0.  1.
       -1   -1    0    0    0  501  0.00000000000E+00  0.00000000000E+00 -0.22253492409E+04  0.22253492409E+04  0.50400001928E-02 0. -1.
    10030    2    1    2    0    0  0.00000000000E+00  0.00000000000E+00 -0.93536426880E+03  0.35153342129E+04  0.33886086102E+04 0.  0.
        1    1    3    3  502    0  0.68962245678E+03 -0.54218188014E+03 -0.19714172352E+04  0.21577827136E+04  0.50400001928E-02 0. -1.
       -1    1    3    3    0  502 -0.68962245678E+03  0.54218188014E+03  0.10360529664E+04  0.13575514993E+04  0.50400001928E-02 0.  1.
</event>
<event>
 5   0  0.1911477E-06  0.3198626E+04  0.7818609E-02  0.8189180E-01
        2   -1    0    0  501    0  0.00000000000E+00  0.00000000000E+00  0.15691712084E+04  0.15691712084E+04  0.25500000920E-02 0.  1.
       -2   -1    0    0    0  501  0.00000000000E+00  0.00000000000E+00 -0.16300340290E+04  0.16300340290E+04  0.25500000920E-02 0. -1.
    10030    2    1    2    0    0  0.00000000000E+00  0.00000000000E+00 -0.60862820559E+02  0.31992052374E+04  0.31986262470E+04 0.  0.
        5    1    3    3  502    0 -0.53947188090E+03  0.69472642577E+03 -0.13663773704E+04  0.16250181308E+04  0.46999998093E+01 0. -1.
       -5    1    3    3    0  502  0.53947188090E+03 -0.69472642577E+03  0.13055145498E+04  0.15741871067E+04  0.46999998093E+01 0.  1.
</event>
<event>
 5   0  0.1948507E-06  0.3480343E+04  0.7818609E-02  0.8118464E-01
        2   -1    0    0  501    0  0.00000000000E+00  0.00000000000E+00  0.21514768424E+04  0.21514768424E+04  0.25500000920E-02 0.  1.
       -2   -1    0    0    0  501  0.00000000000E+00  0.00000000000E+00 -0.14074968547E+04  0.14074968547E+04  0.25500000920E-02 0. -1.
    10030    2    1    2    0    0  0.00000000000E+00  0.00000000000E+00  0.74397998766E+03  0.35589736971E+04  0.34803430225E+04 0.  0.
        1    1    3    3  502    0 -0.44988657369E+02 -0.12772363151E+04 -0.83572642970E+03  0.15270216925E+04  0.50400001928E-02 0. -1.
       -1    1    3    3    0  502  0.44988657369E+02  0.12772363151E+04  0.15797064174E+04  0.20319520046E+04  0.50400001928E-02 0.  1.
</event>
<event>
 5   0  0.6218695E-07  0.3368330E+04  0.7818609E-02  0.8145723E-01
       -1   -1    0    0    0  501  0.00000000000E+00  0.00000000000E+00  0.20108324366E+04  0.20108324366E+04  0.50400001928E-02 0.  1.
        1   -1    0    0  501    0  0.00000000000E+00  0.00000000000E+00 -0.14105662432E+04  0.14105662432E+04  0.50400001928E-02 0. -1.
    10030    2    1    2    0    0  0.00000000000E+00  0.00000000000E+00  0.60026619336E+03  0.34213986798E+04  0.33683303614E+04 0.  0.
        2    1    3    3  502    0 -0.74449478435E+03  0.10459500848E+03  0.18309268099E+04  0.19792689516E+04  0.25500000920E-02 0.  1.
       -2    1    3    3    0  502  0.74449478435E+03 -0.10459500848E+03 -0.12306606165E+04  0.14421297282E+04  0.25500000920E-02 0. -1.
</event>
<event>
 5   0  0.6218695E-07  0.3402767E+04  0.7818609E-02  0.8137228E-01
        1   -1    0    0  501    0  0.00000000000E+00  0.00000000000E+00  0.10690565836E+04  0.10690565836E+04  0.50400001928E-02 0. -1.
       -1   -1    0    0    0  501  0.00000000000E+00  0.00000000000E+00 -0.27077196042E+04  0.27077196042E+04  0.50400001928E-02 0.  1.
    10030    2    1    2    0    0  0.00000000000E+00  0.00000000000E+00 -0.16386630206E+04  0.37767761878E+04  0.34027667974E+04 0.  0.
        2    1    3    3  502    0  0.58280900565E+03  0.82361132199E+03  0.70117014515E+03  0.12286747003E+04  0.25500000920E-02 0. -1.
       -2    1    3    3    0  502 -0.58280900565E+03 -0.82361132199E+03 -0.23398331657E+04  0.25481014874E+04  0.25500000920E-02 0.  1.
</event>
<event>
 5   0  0.1797075E-06  0.3421707E+04  0.7818609E-02  0.8132599E-01
        2   -1    0    0  501    0  0.00000000000E+00  0.00000000000E+00  0.17978920824E+04  0.17978920824E+04  0.25500000920E-02 0. -1.
       -2   -1    0    0    0  501  0.00000000000E+00  0.00000000000E+00 -0.16280290376E+04  0.16280290376E+04  0.25500000920E-02 0.  1.
    10030    2    1    2    0    0  0.00000000000E+00  0.00000000000E+00  0.16986304474E+03  0.34259211200E+04  0.34217074782E+04 0.  0.
        2    1    3    3  502    0 -0.53442991556E+03 -0.16242528777E+04  0.14163845840E+03  0.17157721871E+04  0.25500000920E-02 0. -1.
       -2    1    3    3    0  502  0.53442991556E+03  0.16242528777E+04  0.28224586343E+02  0.17101489328E+04  0.25500000920E-02 0.  1.
</event>
<event>
 5   0  0.6134625E-07  0.3376508E+04  0.7818609E-02  0.8143696E-01
        1   -1    0    0  501    0  0.00000000000E+00  0.00000000000E+00  0.27125948057E+04  0.27125948058E+04  0.50400001928E-02 0. -1.
       -1   -1    0    0    0  501  0.00000000000E+00  0.00000000000E+00 -0.10507287497E+04  0.10507287497E+04  0.50400001928E-02 0.  1.
    10030    2    1    2    0    0  0.00000000000E+00  0.00000000000E+00  0.16618660560E+04  0.37633235555E+04  0.33765078698E+04 0.  0.
        5    1    3    3  502    0  0.10093942448E+04 -0.20087558766E+03  0.23225101276E+04  0.25403352389E+04  0.46999998093E+01 0. -1.
       -5    1    3    3    0  502 -0.10093942448E+04  0.20087558766E+03 -0.66064407156E+03  0.12229883166E+04  0.46999998093E+01 0.  1.
</event>
<event>
 5   0  0.6134625E-07  0.3399302E+04  0.7818609E-02  0.8138078E-01
       -1   -1    0    0    0  501  0.00000000000E+00  0.00000000000E+00  0.33131835318E+04  0.33131835318E+04  0.50400001928E-02 0. -1.
        1   -1    0    0  501    0  0.00000000000E+00  0.00000000000E+00 -0.87191465135E+03  0.87191465137E+03  0.50400001928E-02 0.  1.
    10030    2    1    2    0    0  0.00000000000E+00  0.00000000000E+00  0.24412688804E+04  0.41850981832E+04  0.33993018483E+04 0.  0.
        1    1    3    3  502    0  0.10002518158E+04  0.89958221360E+03  0.24995415489E+04  0.28385665059E+04  0.50400001928E-02 0. -1.
       -1    1    3    3    0  502 -0.10002518158E+04 -0.89958221360E+03 -0.58272668416E+02  0.13465316773E+04  0.50400001928E-02 0.  1.
</event>
<event>
 5   0  0.1339844E-06  0.3373672E+04  0.7818609E-02  0.8144398E-01
        2   -1    0    0  501    0  0.00000000000E+00  0.00000000000E+00  0.17502010835E+04  0.17502010835E+04  0.25500000920E-02 0.  1.
       -2   -1    0    0    0  501  0.00000000000E+00  0.00000000000E+00 -0.16257654479E+04  0.16257654479E+04  0.25500000920E-02 0. -1.
    10030    2    1    2    0    0  0.00000000000E+00  0.00000000000E+00  0.12443563556E+03  0.33759665314E+04  0.33736724491E+04 0.  0.
        3    1    3    3  502    0 -0.37146229076E+03 -0.24006980137E+03  0.16911449565E+04  0.17480243182E+04  0.10100000352E+00 0.  1.
       -3    1    3    3    0  502  0.37146229076E+03  0.24006980137E+03 -0.15667093209E+04  0.16279422132E+04  0.10100000352E+00 0. -1.
</event>
<event>
 5   0  0.6134625E-07  0.3249312E+04  0.7818609E-02  0.8175914E-01
        1   -1    0    0  501    0  0.00000000000E+00  0.00000000000E+00  0.18953677008E+04  0.18953677008E+04  0.50400001928E-02 0. -1.
       -1   -1    0    0    0  501  0.00000000000E+00  0.00000000000E+00 -0.13926096563E+04  0.13926096563E+04  0.50400001928E-02 0.  1.
    10030    2    1    2    0    0  0.00000000000E+00  0.00000000000E+00  0.50275804456E+03  0.32879773571E+04  0.32493121502E+04 0.  0.
        1    1    3    3  502    0  0.16853355088E+03  0.12229267433E+04  0.13201451457E+04  0.18074115699E+04  0.50400001928E-02 0. -1.
       -1    1    3    3    0  502 -0.16853355088E+03 -0.12229267433E+04 -0.81738710113E+03  0.14805657872E+04  0.50400001928E-02 0.  1.
</event>
<event>
 5   0  0.1797075E-06  0.3365672E+04  0.7818609E-02  0.8146383E-01
        2   -1    0    0  501    0  0.00000000000E+00  0.00000000000E+00  0.15845726044E+04  0.15845726044E+04  0.25500000920E-02 0.  1.
       -2   -1    0    0    0  501  0.00000000000E+00  0.00000000000E+00 -0.17871932107E+04  0.17871932107E+04  0.25500000920E-02 0. -1.
    10030    2    1    2    0    0  0.00000000000E+00  0.00000000000E+00 -0.20262060629E+03  0.33717658151E+04  0.33656722362E+04 0.  0.
        2    1    3    3  502    0  0.73095576168E+02  0.14645579550E+04 -0.92843483228E+03  0.17355875676E+04  0.25500000920E-02 0. -1.
       -2    1    3    3    0  502 -0.73095576168E+02 -0.14645579550E+04  0.72581422598E+03  0.16361782475E+04  0.25500000920E-02 0.  1.
</event>
<event>
 5   0  0.1797075E-06  0.2723314E+04  0.7818609E-02  0.8327480E-01
        2   -1    0    0  501    0  0.00000000000E+00  0.00000000000E+00  0.10756021243E+04  0.10756021243E+04  0.25500000920E-02 0.  1.
       -2   -1    0    0    0  501  0.00000000000E+00  0.00000000000E+00 -0.17237881264E+04  0.17237881264E+04  0.25500000920E-02 0. -1.
    10030    2    1    2    0    0  0.00000000000E+00  0.00000000000E+00 -0.64818600206E+03  0.27993902507E+04  0.27233142827E+04 0.  0.
        2    1    3    3  502    0 -0.41973622779E+03 -0.10626659873E+04  0.43732360741E+03  0.12233925940E+04  0.25500000920E-02 0.  1.
       -2    1    3    3    0  502  0.41973622779E+03  0.10626659873E+04 -0.10855096095E+04  0.15759976567E+04  0.25500000920E-02 0. -1.
</event>
<event>
 5   0  0.6134625E-07  0.3404974E+04  0.7818609E-02  0.8136687E-01
        1   -1    0    0  501    0  0.00000000000E+00  0.00000000000E+00  0.18552631211E+04  0.18552631211E+04  0.50400001928E-02 0. -1.
       -1   -1    0    0    0  501  0.00000000000E+00  0.00000000000E+00 -0.15622919087E+04  0.15622919087E+04  0.50400001928E-02 0.  1.
    10030    2    1    2    0    0  0.00000000000E+00  0.00000000000E+00  0.29297121238E+03  0.34175550298E+04  0.34049743392E+04 0.  0.
        1    1    3    3  502    0  0.18901739636E+03  0.14816059833E+04 -0.67358813832E+03  0.16384763794E+04  0.50400001928E-02 0.  1.
       -1    1    3    3    0  502 -0.18901739636E+03 -0.14816059833E+04  0.96655935070E+03  0.17790786504E+04  0.50400001928E-02 0. -1.
</event>
<event>
 5   0  0.1339844E-06  0.3385342E+04  0.7818609E-02  0.8141513E-01
        2   -1    0    0  501    0  0.00000000000E+00  0.00000000000E+00  0.11577881994E+04  0.11577881994E+04  0.25500000920E-02 0.  1.
       -2   -1    0    0    0  501  0.00000000000E+00  0.00000000000E+00 -0.24746632461E+04  0.24746632461E+04  0.25500000920E-02 0. -1.
    10030    2    1    2    0    0  0.00000000000E+00  0.00000000000E+00 -0.13168750467E+04  0.36324514455E+04  0.33853424665E+04 0.  0.
        3    1    3    3  502    0  0.14283371722E+04 -0.16693514237E+03  0.29954914055E+03  0.14689261782E+04  0.10100000352E+00 0.  1.
       -3    1    3    3    0  502 -0.14283371722E+04  0.16693514237E+03 -0.16164241872E+04  0.21635252673E+04  0.10100000352E+00 0. -1.
</event>
<event>
 5   0  0.1797075E-06  0.3177667E+04  0.7818609E-02  0.8194740E-01
       -2   -1    0    0    0  501  0.00000000000E+00  0.00000000000E+00  0.95131847230E+03  0.95131847230E+03  0.25500000920E-02 0.  1.
        2   -1    0    0  501    0  0.00000000000E+00  0.00000000000E+00 -0.26535715932E+04  0.26535715932E+04  0.25500000920E-02 0. -1.
    10030    2    1    2    0    0  0.00000000000E+00  0.00000000000E+00 -0.17022531209E+04  0.36048900655E+04  0.31776668637E+04 0.  0.
        2    1    3    3  502    0 -0.97850881519E+03  0.37309551414E+03 -0.22066403845E+04  0.24425276970E+04  0.25500000920E-02 0. -1.
       -2    1    3    3    0  502  0.97850881519E+03 -0.37309551414E+03  0.50438726358E+03  0.11623623685E+04  0.25500000920E-02 0.  1.
</event>
<event>
 5   0  0.6134625E-07  0.3475041E+04  0.7818609E-02  0.8119730E-01
        1   -1    0    0  501    0  0.00000000000E+00  0.00000000000E+00  0.13746800454E+04  0.13746800454E+04  0.50400001928E-02 0. -1.
       -1   -1    0    0    0  501  0.00000000000E+00  0.00000000000E+00 -0.21961311727E+04  0.21961311727E+04  0.50400001928E-02 0.  1.
    10030    2    1    2    0    0  0.00000000000E+00  0.00000000000E+00 -0.82145112736E+03  0.35708112181E+04  0.34750411221E+04 0.  0.
        3    1    3    3  502    0 -0.10724824312E+04  0.11112853580E+04 -0.12287841786E+04  0.19735967876E+04  0.10100000352E+00 0.  1.
       -3    1    3    3    0  502  0.10724824312E+04 -0.11112853580E+04  0.40733305127E+03  0.15972144305E+04  0.10100000352E+00 0. -1.
</event>
<event>
 5   0  0.6134625E-07  0.2749555E+04  0.7818609E-02  0.8319103E-01
       -1   -1    0    0    0  501  0.00000000000E+00  0.00000000000E+00  0.17608905822E+04  0.17608905822E+04  0.50400001928E-02 0. -1.
        1   -1    0    0  501    0  0.00000000000E+00  0.00000000000E+00 -0.10733277322E+04  0.10733277322E+04  0.50400001928E-02 0.  1.
    10030    2    1    2    0    0  0.00000000000E+00  0.00000000000E+00  0.68756284993E+03  0.28342183144E+04  0.27495546514E+04 0.  0.
        3    1    3    3  502    0 -0.10763787418E+04  0.48934543550E+03 -0.37921634643E+03  0.12417146205E+04  0.10100000352E+00 0.  1.
       -3    1    3    3    0  502  0.10763787418E+04 -0.48934543550E+03  0.10667791964E+04  0.15925036939E+04  0.10100000352E+00 0. -1.
</event>
<event>
 5   0  0.6146388E-07  0.3399082E+04  0.7818609E-02  0.8138132E-01
       -1   -1    0    0    0  501  0.00000000000E+00  0.00000000000E+00  0.12599833384E+04  0.12599833384E+04  0.50400001928E-02 0. -1.
        1   -1    0    0  501    0  0.00000000000E+00  0.00000000000E+00 -0.22924430572E+04  0.22924430572E+04  0.50400001928E-02 0.  1.
    10030    2    1    2    0    0  0.00000000000E+00  0.00000000000E+00 -0.10324597188E+04  0.35524263957E+04  0.33990822623E+04 0.  0.
        4    1    3    3  502    0  0.97907917539E+03 -0.11620116931E+04 -0.13118702559E+04  0.20074542057E+04  0.12699999809E+01 0.  1.
       -4    1    3    3    0  502 -0.97907917539E+03  0.11620116931E+04  0.27941053717E+03  0.15449721900E+04  0.12699999809E+01 0. -1.
</event>
<event>
 5   0  0.1339844E-06  0.3434426E+04  0.7818609E-02  0.8129508E-01
        2   -1    0    0  501    0  0.00000000000E+00  0.00000000000E+00  0.17921686172E+04  0.17921686172E+04  0.25500000920E-02 0.  1.
       -2   -1    0    0    0  501  0.00000000000E+00  0.00000000000E+00 -0.16453920235E+04  0.16453920235E+04  0.25500000920E-02 0. -1.
    10030    2    1    2    0    0  0.00000000000E+00  0.00000000000E+00  0.14677659371E+03  0.34375606408E+04  0.34344256857E+04 0.  0.
        3    1    3    3  502    0 -0.10893384156E+04  0.18587650277E+03  0.13889745001E+04  0.17749530783E+04  0.10100000352E+00 0.  1.
       -3    1    3    3    0  502  0.10893384156E+04 -0.18587650277E+03 -0.12421979064E+04  0.16626075625E+04  0.10100000352E+00 0. -1.
</event>
<event>
 5   0  0.1797075E-06  0.3374871E+04  0.7818609E-02  0.8144102E-01
       -2   -1    0    0    0  501  0.00000000000E+00  0.00000000000E+00  0.12493312070E+04  0.12493312070E+04  0.25500000920E-02 0.  1.
        2   -1    0    0  501    0  0.00000000000E+00  0.00000000000E+00 -0.22791700417E+04  0.22791700417E+04  0.25500000920E-02 0. -1.
    10030    2    1    2    0    0  0.00000000000E+00  0.00000000000E+00 -0.10298388347E+04  0.35285012488E+04  0.33748708178E+04 0.  0.
        2    1    3    3  502    0 -0.94302349838E+03 -0.10947309081E+03 -0.19734732335E+04  0.21899484651E+04  0.25500000920E-02 0. -1.
       -2    1    3    3    0  502  0.94302349838E+03  0.10947309081E+03  0.94363439883E+03  0.13385527837E+04  0.25500000920E-02 0.  1.
</event>
<event>
 5   0  0.1880301E-06  0.3410647E+04  0.7818609E-02  0.8135298E-01
       -2   -1    0    0    0  501  0.00000000000E+00  0.00000000000E+00  0.18336629703E+04  0.18336629703E+04  0.25500000920E-02 0.  1.
        2   -1    0    0  501    0  0.00000000000E+00  0.00000000000E+00 -0.15859669594E+04  0.15859669594E+04  0.25500000920E-02 0. -1.
    10030    2    1    2    0    0  0.00000000000E+00  0.00000000000E+00  0.24769601089E+03  0.34196299297E+04  0.34106473788E+04 0.  0.
        4    1    3    3  502    0 -0.45536285068E+03  0.46590477467E+03  0.17039759997E+04  0.18242692798E+04  0.12699999809E+01 0.  1.
       -4    1    3    3    0  502  0.45536285068E+03 -0.46590477467E+03 -0.14562799888E+04  0.15953606500E+04  0.12699999809E+01 0. -1.
</event>
<event>
 5   0  0.6218695E-07  0.3217969E+04  0.7818609E-02  0.8184088E-01
        1   -1    0    0  501    0  0.00000000000E+00  0.00000000000E+00  0.20664119082E+04  0.20664119082E+04  0.50400001928E-02 0. -1.
       -1   -1    0    0    0  501  0.00000000000E+00  0.00000000000E+00 -0.12528146886E+04  0.12528146886E+04  0.50400001928E-02 0.  1.
    10030    2    1    2    0    0  0.00000000000E+00  0.00000000000E+00  0.81359721966E+03  0.33192265968E+04  0.32179690435E+04 0.  0.
        2    1    3    3  502    0 -0.13761390873E+03 -0.13805105059E+04  0.12473546273E+04  0.18656474509E+04  0.25500000920E-02 0. -1.
       -2    1    3    3    0  502  0.13761390873E+03  0.13805105059E+04 -0.43375740767E+03  0.14535791459E+04  0.25500000920E-02 0.  1.
</event>
<event>
 5   0  0.6134625E-07  0.3058128E+04  0.7818609E-02  0.8227324E-01
       -1   -1    0    0    0  501  0.00000000000E+00  0.00000000000E+00  0.13030729608E+04  0.13030729608E+04  0.50400001928E-02 0.  1.
        1   -1    0    0  501    0  0.00000000000E+00  0.00000000000E+00 -0.17942480890E+04  0.17942480890E+04  0.50400001928E-02 0. -1.
    10030    2    1    2    0    0  0.00000000000E+00  0.00000000000E+00 -0.49117512818E+03  0.30973210499E+04  0.30581276428E+04 0.  0.
        5    1    3    3  502    0  0.21147634307E+03  0.15122705879E+04 -0.32616538143E+03  0.15614386061E+04  0.46999998093E+01 0. -1.
       -5    1    3    3    0  502 -0.21147634307E+03 -0.15122705879E+04 -0.16500974675E+03  0.15358824438E+04  0.46999998093E+01 0.  1.
</event>
<event>
 5   0  0.1948507E-06  0.3384275E+04  0.7818609E-02  0.8141777E-01
        2   -1    0    0  501    0  0.00000000000E+00  0.00000000000E+00  0.16397211584E+04  0.16397211584E+04  0.25500000920E-02 0. -1.
       -2   -1    0    0    0  501  0.00000000000E+00  0.00000000000E+00 -0.17462290276E+04  0.17462290276E+04  0.25500000920E-02 0.  1.
    10030    2    1    2    0    0  0.00000000000E+00  0.00000000000E+00 -0.10650786919E+03  0.33859501860E+04  0.33842746248E+04 0.  0.
        1    1    3    3  502    0 -0.71860203509E+03 -0.13837166227E+04 -0.71105044314E+03  0.17136666273E+04  0.50400001928E-02 0.  1.
       -1    1    3    3    0  502  0.71860203509E+03  0.13837166227E+04  0.60454257395E+03  0.16722835587E+04  0.50400001928E-02 0. -1.
</event>
<event>
 5   0  0.1797075E-06  0.3395504E+04  0.7818609E-02  0.8139011E-01
        2   -1    0    0  501    0  0.00000000000E+00  0.00000000000E+00  0.15120723323E+04  0.15120723323E+04  0.25500000920E-02 0. -1.
       -2   -1    0    0    0  501  0.00000000000E+00  0.00000000000E+00 -0.19062332491E+04  0.19062332491E+04  0.25500000920E-02 0.  1.
    10030    2    1    2    0    0  0.00000000000E+00  0.00000000000E+00 -0.39416091675E+03  0.34183055814E+04  0.33955044131E+04 0.  0.
        2    1    3    3  502    0  0.45875348962E+03 -0.41664153786E+03  0.13941402067E+04  0.15256709512E+04  0.25500000920E-02 0. -1.
       -2    1    3    3    0  502 -0.45875348962E+03  0.41664153786E+03 -0.17883011235E+04  0.18926346302E+04  0.25500000920E-02 0.  1.
</event>
<event>
 5   0  0.6146388E-07  0.3382664E+04  0.7818609E-02  0.8142174E-01
       -1   -1    0    0    0  501  0.00000000000E+00  0.00000000000E+00  0.22936268135E+04  0.22936268135E+04  0.50400001928E-02 0.  1.
        1   -1    0    0  501    0  0.00000000000E+00  0.00000000000E+00 -0.12471965720E+04  0.12471965720E+04  0.50400001928E-02 0. -1.
    10030    2    1    2    0    0  0.00000000000E+00  0.00000000000E+00  0.10464302415E+04  0.35408233854E+04  0.33826637428E+04 0.  0.
        4    1    3    3  502    0 -0.12171215528E+04  0.67970314448E+03  0.15257104265E+04  0.20666821617E+04  0.12699999809E+01 0.  1.
       -4    1    3    3    0  502  0.12171215528E+04 -0.67970314448E+03 -0.47928018501E+03  0.14741412238E+04  0.12699999809E+01 0. -1.
</event>
<event>
 5   0  0.6134625E-07  0.3322643E+04  0.7818609E-02  0.8157158E-01
       -1   -1    0    0    0  501  0.00000000000E+00  0.00000000000E+00  0.26673392167E+04  0.26673392167E+04  0.50400001928E-02 0. -1.
        1   -1    0    0  501    0  0.00000000000E+00  0.00000000000E+00 -0.10347350982E+04  0.10347350982E+04  0.50400001928E-02 0.  1.
    10030    2    1    2    0    0  0.00000000000E+00  0.00000000000E+00  0.16326041186E+04  0.37020743149E+04  0.33226432287E+04 0.  0.
        3    1    3    3  502    0 -0.13454857974E+04 -0.13646393152E+03  0.18913911112E+04  0.23251483353E+04  0.10100000352E+00 0. -1.
       -3    1    3    3    0  502  0.13454857974E+04  0.13646393152E+03 -0.25878699263E+03  0.13769259796E+04  0.10100000352E+00 0.  1.
</event>
<event>
 5   0  0.6218695E-07  0.3337865E+04  0.7818609E-02  0.8153327E-01
       -1   -1    0    0    0  501  0.00000000000E+00  0.00000000000E+00  0.17180909732E+04  0.17180909733E+04  0.50400001928E-02 0. -1.
        1   -1    0    0  501    0  0.00000000000E+00  0.00000000000E+00 -0.16211809081E+04  0.16211809081E+04  0.50400001928E-02 0.  1.
    10030    2    1    2    0    0  0.00000000000E+00  0.00000000000E+00  0.96910065142E+02  0.33392718814E+04  0.33378653563E+04 0.  0.
        2    1    3    3  502    0  0.12676846921E+04 -0.95357885065E+03 -0.47041482891E+03  0.16545776544E+04  0.25500000920E-02 0. -1.
       -2    1    3    3    0  502 -0.12676846921E+04  0.95357885065E+03  0.56732489406E+03  0.16846942270E+04  0.25500000920E-02 0.  1.
</event>
<event>
 5   0  0.6134625E-07  0.3376271E+04  0.7818609E-02  0.8143755E-01
        1   -1    0    0  501    0  0.00000000000E+00  0.00000000000E+00  0.24475155211E+04  0.24475155211E+04  0.50400001928E-02 0. -1.
       -1   -1    0    0    0  501  0.00000000000E+00  0.00000000000E+00 -0.11643651412E+04  0.11643651412E+04  0.50400001928E-02 0.  1.
    10030    2    1    2    0    0  0.00000000000E+00  0.00000000000E+00  0.12831503799E+04  0.36118806623E+04  0.33762711712E+04 0.  0.
        5    1    3    3  502    0  0.93904467798E+03 -0.40513098318E+02  0.21416905414E+04  0.23388686760E+04  0.46999998093E+01 0. -1.
       -5    1    3    3    0  502 -0.93904467798E+03  0.40513098318E+02 -0.85854016151E+03  0.12730119863E+04  0.46999998093E+01 0.  1.
</event>
<event>
 5   0  0.6134625E-07  0.3373515E+04  0.7818609E-02  0.8144437E-01
        1   -1    0    0  501    0  0.00000000000E+00  0.00000000000E+00  0.21280845718E+04  0.21280845718E+04  0.50400001928E-02 0.  1.
       -1   -1    0    0    0  501  0.00000000000E+00  0.00000000000E+00 -0.13369535862E+04  0.13369535862E+04  0.50400001928E-02 0. -1.
    10030    2    1    2    0    0  0.00000000000E+00  0.00000000000E+00  0.79113098552E+03  0.34650381580E+04  0.33735146658E+04 0.  0.
        1    1    3    3  502    0  0.62843399243E+03  0.13180778283E+04 -0.47167040335E+03  0.15345134127E+04  0.50400001928E-02 0. -1.
       -1    1    3    3    0  502 -0.62843399243E+03 -0.13180778283E+04  0.12628013889E+04  0.19305247453E+04  0.50400001928E-02 0.  1.
</event>
<event>
 5   0  0.1339844E-06  0.3375792E+04  0.7818609E-02  0.8143873E-01
       -2   -1    0    0    0  501  0.00000000000E+00  0.00000000000E+00  0.28319969948E+04  0.28319969948E+04  0.25500000920E-02 0.  1.
        2   -1    0    0  501    0  0.00000000000E+00  0.00000000000E+00 -0.10060012382E+04  0.10060012382E+04  0.25500000920E-02 0. -1.
    10030    2    1    2    0    0  0.00000000000E+00  0.00000000000E+00  0.18259957566E+04  0.38379982331E+04  0.33757917492E+04 0.  0.
        3    1    3    3  502    0 -0.24862916306E+03  0.98213251912E+03  0.24478757341E+04  0.26492444896E+04  0.10100000352E+00 0.  1.
       -3    1    3    3    0  502  0.24862916306E+03 -0.98213251912E+03 -0.62187997756E+03  0.11887537434E+04  0.10100000352E+00 0. -1.
</event>
<event>
 5   0  0.6218695E-07  0.3380264E+04  0.7818609E-02  0.8142767E-01
       -1   -1    0    0    0  501  0.00000000000E+00  0.00000000000E+00  0.14232930080E+04  0.14232930080E+04  0.50400001928E-02 0. -1.
        1   -1    0    0  501    0  0.00000000000E+00  0.00000000000E+00 -0.20069976356E+04  0.20069976356E+04  0.50400001928E-02 0.  1.
    10030    2    1    2    0    0  0.00000000000E+00  0.00000000000E+00 -0.58370462756E+03  0.34302906436E+04  0.33802637186E+04 0.  0.
        2    1    3    3  502    0 -0.14625869129E+04  0.84202668307E+03 -0.19897574535E+03  0.16993412724E+04  0.25500000920E-02 0.  1.
       -2    1    3    3    0  502  0.14625869129E+04 -0.84202668307E+03 -0.38472888221E+03  0.17309493712E+04  0.25500000920E-02 0. -1.
</event>
<event>
 5   0  0.1948507E-06  0.3412808E+04  0.7818609E-02  0.8134770E-01
       -2   -1    0    0    0  501  0.00000000000E+00  0.00000000000E+00  0.97824697216E+03  0.97824697217E+03  0.25500000920E-02 0.  1.
        2   -1    0    0  501    0  0.00000000000E+00  0.00000000000E+00 -0.29765631043E+04  0.29765631043E+04  0.25500000920E-02 0. -1.
    10030    2    1    2    0    0  0.00000000000E+00  0.00000000000E+00 -0.19983161322E+04  0.39548100765E+04  0.34128075505E+04 0.  0.
        1    1    3    3  502    0 -0.17045907824E+04  0.14127964637E+02 -0.90951264567E+03  0.19321083271E+04  0.50400001928E-02 0.  1.
       -1    1    3    3    0  502  0.17045907824E+04 -0.14127964637E+02 -0.10888034865E+04  0.20227017494E+04  0.50400001928E-02 0. -1.
</event>
<event>
 5   0  0.6218695E-07  0.3302176E+04  0.7818609E-02  0.8162342E-01
        1   -1    0    0  501    0  0.00000000000E+00  0.00000000000E+00  0.26660400770E+04  0.26660400770E+04  0.50400001928E-02 0.  1.
       -1   -1    0    0    0  501  0.00000000000E+00  0.00000000000E+00 -0.10225245991E+04  0.10225245992E+04  0.50400001928E-02 0. -1.
    10030    2    1    2    0    0  0.00000000000E+00  0.00000000000E+00  0.16435154778E+04  0.36885646762E+04  0.33021759863E+04 0.  0.
        2    1    3    3  502    0 -0.14462740240E+04  0.37554342992E+03  0.37182105191E+02  0.14946986081E+04  0.25500000920E-02 0. -1.
       -2    1    3    3    0  502  0.14462740240E+04 -0.37554342992E+03  0.16063333727E+04  0.21938660680E+04  0.25500000920E-02 0.  1.
</event>
<event>
 5   0  0.6134625E-07  0.3330865E+04  0.7818609E-02  0.8155086E-01
        1   -1    0    0  501    0  0.00000000000E+00  0.00000000000E+00  0.18938407163E+04  0.18938407163E+04  0.50400001928E-02 0.  1.
       -1   -1    0    0    0  501  0.00000000000E+00  0.00000000000E+00 -0.14645719500E+04  0.14645719500E+04  0.50400001928E-02 0. -1.
    10030    2    1    2    0    0  0.00000000000E+00  0.00000000000E+00  0.42926876627E+03  0.33584126663E+04  0.33308653476E+04 0.  0.
        3    1    3    3  502    0  0.15700648998E+04 -0.11391106572E+03  0.76280941586E+03  0.17492734879E+04  0.10100000352E+00 0.  1.
       -3    1    3    3    0  502 -0.15700648998E+04  0.11391106572E+03 -0.33354064959E+03  0.16091391784E+04  0.10100000352E+00 0. -1.
</event>
<event>
 5   0  0.1880301E-06  0.3097311E+04  0.7818609E-02  0.8216476E-01
        2   -1    0    0  501    0  0.00000000000E+00  0.00000000000E+00  0.13874788926E+04  0.13874788926E+04  0.25500000920E-02 0. -1.
       -2   -1    0    0    0  501  0.00000000000E+00  0.00000000000E+00 -0.17285548619E+04  0.17285548619E+04  0.25500000920E-02 0.  1.
    10030    2    1    2    0    0  0.00000000000E+00  0.00000000000E+00 -0.34107596933E+03  0.31160337545E+04  0.30973106952E+04 0.  0.
        4    1    3    3  502    0 -0.23131408463E+03 -0.69091746061E+02  0.13684319162E+04  0.13895637435E+04  0.12699999809E+01 0. -1.
       -4    1    3    3    0  502  0.23131408463E+03  0.69091746061E+02 -0.17095078855E+04  0.17264700110E+04  0.12699999809E+01 0.  1.
</event>
<event>
 5   0  0.6146388E-07  0.3200573E+04  0.7818609E-02  0.8188666E-01
        1   -1    0    0  501    0  0.00000000000E+00  0.00000000000E+00  0.23425785850E+04  0.23425785850E+04  0.50400001928E-02 0.  1.
       -1   -1    0    0    0  501  0.00000000000E+00  0.00000000000E+00 -0.10932041484E+04  0.10932041484E+04  0.50400001928E-02 0. -1.
    10030    2    1    2    0    0  0.00000000000E+00  0.00000000000E+00  0.12493744366E+04  0.34357827335E+04  0.32005728407E+04 0.  0.
        4    1    3    3  502    0  0.30104127269E+03  0.10820091091E+04 -0.59906562658E+03  0.12728907250E+04  0.12699999809E+01 0. -1.
       -4    1    3    3    0  502 -0.30104127269E+03 -0.10820091091E+04  0.18484400632E+04  0.21628920084E+04  0.12699999809E+01 0.  1.
</event>
<event>
 5   0  0.1797075E-06  0.3409639E+04  0.7818609E-02  0.8135545E-01
        2   -1    0    0  501    0  0.00000000000E+00  0.00000000000E+00  0.25097587531E+04  0.25097587531E+04  0.25500000920E-02 0.  1.
       -2   -1    0    0    0  501  0.00000000000E+00  0.00000000000E+00 -0.11580433419E+04  0.11580433419E+04  0.25500000920E-02 0. -1.
    10030    2    1    2    0    0  0.00000000000E+00  0.00000000000E+00  0.13517154112E+04  0.36678020949E+04  0.34096389332E+04 0.  0.
        2    1    3    3  502    0 -0.15628842881E+04 -0.58828593746E+03  0.10449422822E+04  0.19699218298E+04  0.25500000920E-02 0.  1.
       -2    1    3    3    0  502  0.15628842881E+04  0.58828593746E+03  0.30677312899E+03  0.16978802652E+04  0.25500000920E-02 0. -1.
</event>
<event>
 5   0  0.6134625E-07  0.3451452E+04  0.7818609E-02  0.8125392E-01
        1   -1    0    0  501    0  0.00000000000E+00  0.00000000000E+00  0.21282882314E+04  0.21282882314E+04  0.50400001928E-02 0. -1.
       -1   -1    0    0    0  501  0.00000000000E+00  0.00000000000E+00 -0.13993079092E+04  0.13993079092E+04  0.50400001928E-02 0.  1.
    10030    2    1    2    0    0  0.00000000000E+00  0.00000000000E+00  0.72898032218E+03  0.35275961406E+04  0.34514521902E+04 0.  0.
        3    1    3    3  502    0 -0.41203043500E+03 -0.16738086021E+04  0.44831308862E+03  0.17811201396E+04  0.10100000352E+00 0. -1.
       -3    1    3    3    0  502  0.41203043500E+03  0.16738086021E+04  0.28066723356E+03  0.17464760010E+04  0.10100000352E+00 0.  1.
</event>
<event>
 5   0  0.1339844E-06  0.3382910E+04  0.7818609E-02  0.8142114E-01
        2   -1    0    0  501    0  0.00000000000E+00  0.00000000000E+00  0.20388694024E+04  0.20388694024E+04  0.25500000920E-02 0. -1.
       -2   -1    0    0    0  501  0.00000000000E+00  0.00000000000E+00 -0.14032382438E+04  0.14032382438E+04  0.25500000920E-02 0.  1.
    10030    2    1    2    0    0  0.00000000000E+00  0.00000000000E+00  0.63563115861E+03  0.34421076462E+04  0.33829097059E+04 0.  0.
        3    1    3    3  502    0  0.15260270322E+04  0.64223340622E+03 -0.34358575662E+02  0.16560201608E+04  0.10100000352E+00 0.  1.
       -3    1    3    3    0  502 -0.15260270322E+04 -0.64223340622E+03  0.66998973428E+03  0.17860874854E+04  0.10100000352E+00 0. -1.
</event>
<event>
 5   0  0.6218695E-07  0.3469689E+04  0.7818609E-02  0.8121011E-01
       -1   -1    0    0    0  501  0.00000000000E+00  0.00000000000E+00  0.24685523574E+04  0.24685523574E+04  0.50400001928E-02 0.  1.
        1   -1    0    0  501    0  0.00000000000E+00  0.00000000000E+00 -0.12192106721E+04  0.12192106722E+04  0.50400001928E-02 0. -1.
    10030    2    1    2    0    0  0.00000000000E+00  0.00000000000E+00  0.12493416853E+04  0.36877630296E+04  0.34696889653E+04 0.  0.
        2    1    3    3  502    0 -0.11632760264E+04 -0.89318203151E+03 -0.36023162152E+03  0.15102159038E+04  0.25500000920E-02 0.  1.
       -2    1    3    3    0  502  0.11632760264E+04  0.89318203151E+03  0.16095733068E+04  0.21775471258E+04  0.25500000920E-02 0. -1.
</event>
<event>
 5   0  0.1797075E-06  0.3441396E+04  0.7818609E-02  0.8127820E-01
        2   -1    0    0  501    0  0.00000000000E+00  0.00000000000E+00  0.19213697751E+04  0.19213697751E+04  0.25500000920E-02 0.  1.
       -2   -1    0    0    0  501  0.00000000000E+00  0.00000000000E+00 -0.15409851756E+04  0.15409851756E+04  0.25500000920E-02 0. -1.
    10030    2    1    2    0    0  0.00000000000E+00  0.00000000000E+00  0.38038459954E+03  0.34623549507E+04  0.34413964260E+04 0.  0.
        2    1    3    3  502    0 -0.82618427727E+02 -0.51768503183E+03 -0.14586843611E+04  0.15500269875E+04  0.25500000920E-02 0. -1.
       -2    1    3    3    0  502  0.82618427727E+02  0.51768503183E+03  0.18390689606E+04  0.19123279632E+04  0.25500000920E-02 0.  1.
</event>
<event>
 5   0  0.1948507E-06  0.3395910E+04  0.7818609E-02  0.8138911E-01
        2   -1    0    0  501    0  0.00000000000E+00  0.00000000000E+00  0.21937838803E+04  0.21937838803E+04  0.25500000920E-02 0. -1.
       -2   -1    0    0    0  501  0.00000000000E+00  0.00000000000E+00 -0.13141910589E+04  0.13141910589E+04  0.25500000920E-02 0.  1.
    10030    2    1    2    0    0  0.00000000000E+00  0.00000000000E+00  0.87959282135E+03  0.35079749392E+04  0.33959099875E+04 0.  0.
        1    1    3    3  502    0 -0.44017380916E+03 -0.16451854911E+03  0.21252750283E+04  0.21766059085E+04  0.50400001928E-02 0. -1.
       -1    1    3    3    0  502  0.44017380916E+03  0.16451854911E+03 -0.12456822069E+04  0.13313690307E+04  0.50400001928E-02 0.  1.
</event>
<event>
 5   0  0.6134625E-07  0.3403837E+04  0.7818609E-02  0.8136965E-01
       -1   -1    0    0    0  501  0.00000000000E+00  0.00000000000E+00  0.15216237236E+04  0.15216237236E+04  0.50400001928E-02 0.  1.
        1   -1    0    0  501    0  0.00000000000E+00  0.00000000000E+00 -0.19035761288E+04  0.19035761288E+04  0.50400001928E-02 0. -1.
    10030    2    1    2    0    0  0.00000000000E+00  0.00000000000E+00 -0.38195240521E+03  0.34251998524E+04  0.34038370098E+04 0.  0.
        1    1    3    3  502    0 -0.95742952378E+03  0.52638283113E+03  0.11221182731E+04  0.15661735526E+04  0.50400001928E-02 0.  1.
       -1    1    3    3    0  502  0.95742952378E+03 -0.52638283113E+03 -0.15040706784E+04  0.18590262998E+04  0.50400001928E-02 0. -1.
</event>
<event>
 5   0  0.6218695E-07  0.3540529E+04  0.7818609E-02  0.8104252E-01
       -1   -1    0    0    0  501  0.00000000000E+00  0.00000000000E+00  0.14408852356E+04  0.14408852356E+04  0.50400001928E-02 0.  1.
        1   -1    0    0  501    0  0.00000000000E+00  0.00000000000E+00 -0.21749378074E+04  0.21749378074E+04  0.50400001928E-02 0. -1.
    10030    2    1    2    0    0  0.00000000000E+00  0.00000000000E+00 -0.73405257173E+03  0.36158230430E+04  0.35405286470E+04 0.  0.
        2    1    3    3  502    0  0.12952935672E+04  0.11991224038E+04 -0.22941727457E+03  0.17799753511E+04  0.25500000920E-02 0. -1.
       -2    1    3    3    0  502 -0.12952935672E+04 -0.11991224038E+04 -0.50463529716E+03  0.18358476919E+04  0.25500000920E-02 0.  1.
</event>
<event>
 5   0  0.1797075E-06  0.3239422E+04  0.7818609E-02  0.8178483E-01
       -2   -1    0    0    0  501  0.00000000000E+00  0.00000000000E+00  0.11264188891E+04  0.11264188891E+04  0.25500000920E-02 0. -1.
        2   -1    0    0  501    0  0.00000000000E+00  0.00000000000E+00 -0.23290304669E+04  0.23290304669E+04  0.25500000920E-02 0.  1.
    10030    2    1    2    0    0  0.00000000000E+00  0.00000000000E+00 -0.12026115778E+04  0.34554493560E+04  0.32394221159E+04 0.  0.
        2    1    3    3  502    0  0.12957271486E+04 -0.56214654241E+03  0.24437338906E+03  0.14334001298E+04  0.25500000920E-02 0. -1.
       -2    1    3    3    0  502 -0.12957271486E+04  0.56214654241E+03 -0.14469849669E+04  0.20220492262E+04  0.25500000920E-02 0.  1.
</event>
<event>
 5   0  0.1880301E-06  0.2973424E+04  0.7818609E-02  0.8251361E-01
        2   -1    0    0  501    0  0.00000000000E+00  0.00000000000E+00  0.16406165918E+04  0.16406165918E+04  0.25500000920E-02 0.  1.
       -2   -1    0    0    0  501  0.00000000000E+00  0.00000000000E+00 -0.13472454366E+04  0.13472454366E+04  0.25500000920E-02 0. -1.
    10030    2    1    2    0    0  0.00000000000E+00  0.00000000000E+00  0.29337115519E+03  0.29878620285E+04  0.29734244343E+04 0.  0.
        4    1    3    3  502    0  0.11863964596E+04  0.30134790266E+03  0.99456246821E+03  0.15771820548E+04  0.12699999809E+01 0.  1.
       -4    1    3    3    0  502 -0.11863964596E+04 -0.30134790266E+03 -0.70119131302E+03  0.14106799737E+04  0.12699999809E+01 0. -1.
</event>
<event>
 5   0  0.1339844E-06  0.3438155E+04  0.7818609E-02  0.8128605E-01
       -2   -1    0    0    0  501  0.00000000000E+00  0.00000000000E+00  0.14883879964E+04  0.14883879964E+04  0.25500000920E-02 0. -1.
        2   -1    0    0  501    0  0.00000000000E+00  0.00000000000E+00 -0.19855218075E+04  0.19855218075E+04  0.25500000920E-02 0.  1.
    10030    2    1    2    0    0  0.00000000000E+00  0.00000000000E+00 -0.49713381107E+03  0.34739098040E+04  0.34381546358E+04 0.  0.
        3    1    3    3  502    0 -0.12318242996E+04 -0.10605474672E+04  0.31678280504E+03  0.16560505400E+04  0.10100000352E+00 0. -1.
       -3    1    3    3    0  502  0.12318242996E+04  0.10605474672E+04 -0.81391661612E+03  0.18178592639E+04  0.10100000352E+00 0.  1.
</event>
<event>
 5   0  0.1339844E-06  0.3437205E+04  0.7818609E-02  0.8128835E-01
       -2   -1    0    0    0  501  0.00000000000E+00  0.00000000000E+00  0.11623274925E+04  0.11623274925E+04  0.25500000920E-02 0.  1.
        2   -1    0    0  501    0  0.00000000000E+00  0.00000000000E+00 -0.25411040857E+04  0.25411040857E+04  0.25500000920E-02 0. -1.
    10030    2    1    2    0    0  0.00000000000E+00  0.00000000000E+00 -0.13787765932E+04  0.37034315783E+04  0.34372053417E+04 0.  0.
        3    1    3    3  502    0  0.62921754720E+02  0.10658644423E+04  0.76160660338E+03  0.13115146911E+04  0.10100000352E+00 0.  1.
       -3    1    3    3    0  502 -0.62921754720E+02 -0.10658644423E+04 -0.21403831966E+04  0.23919168871E+04  0.10100000352E+00 0. -1.
</event>
<event>
 5   0  0.6146388E-07  0.3429941E+04  0.7818609E-02  0.8130597E-01
        1   -1    0    0  501    0  0.00000000000E+00  0.00000000000E+00  0.13374197968E+04  0.13374197968E+04  0.50400001928E-02 0.  1.
       -1   -1    0    0    0  501  0.00000000000E+00  0.00000000000E+00 -0.21991032711E+04  0.21991032711E+04  0.50400001928E-02 0. -1.
    10030    2    1    2    0    0  0.00000000000E+00  0.00000000000E+00 -0.86168347432E+03  0.35365230680E+04  0.34299412532E+04 0.  0.
        4    1    3    3  502    0 -0.13920041994E+04  0.71799959544E+03  0.28937911882E+03  0.15927777615E+04  0.12699999809E+01 0.  1.
       -4    1    3    3    0  502  0.13920041994E+04 -0.71799959544E+03 -0.11510625931E+04  0.19437453065E+04  0.12699999809E+01 0. -1.
</event>
<event>
 5   0  0.6134625E-07  0.3396394E+04  0.7818609E-02  0.8138792E-01
        1   -1    0    0  501    0  0.00000000000E+00  0.00000000000E+00  0.10844081110E+04  0.10844081111E+04  0.50400001928E-02 0. -1.
       -1   -1    0    0    0  501  0.00000000000E+00  0.00000000000E+00 -0.26593987634E+04  0.26593987635E+04  0.50400001928E-02 0.  1.
    10030    2    1    2    0    0  0.00000000000E+00  0.00000000000E+00 -0.15749906524E+04  0.37438068745E+04  0.33963943173E+04 0.  0.
        3    1    3    3  502    0 -0.25280367870E+03  0.10764271543E+03 -0.26347340744E+04  0.26490225192E+04  0.10100000352E+00 0.  1.
       -3    1    3    3    0  502  0.25280367870E+03 -0.10764271543E+03  0.10597434220E+04  0.10947843554E+04  0.10100000352E+00 0. -1.
</event>
<event>
 5   0  0.6146388E-07  0.3370174E+04  0.7818609E-02  0.8145266E-01
        1   -1    0    0  501    0  0.00000000000E+00  0.00000000000E+00  0.20369442755E+04  0.20369442755E+04  0.50400001928E-02 0. -1.
       -1   -1    0    0    0  501  0.00000000000E+00  0.00000000000E+00 -0.13940085519E+04  0.13940085519E+04  0.50400001928E-02 0.  1.
    10030    2    1    2    0    0  0.00000000000E+00  0.00000000000E+00  0.64293572360E+03  0.34309528274E+04  0.33701737283E+04 0.  0.
        4    1    3    3  502    0  0.38339133810E+03  0.10424453350E+04  0.16115367705E+04  0.19572259885E+04  0.12699999809E+01 0. -1.
       -4    1    3    3    0  502 -0.38339133810E+03 -0.10424453350E+04 -0.96860104690E+03  0.14737268389E+04  0.12699999809E+01 0.  1.
</event>
<event>
 5   0  0.1797075E-06  0.3328068E+04  0.7818609E-02  0.8155790E-01
       -2   -1    0    0    0  501  0.00000000000E+00  0.00000000000E+00  0.19703599117E+04  0.19703599117E+04  0.25500000920E-02 0. -1.
        2   -1    0    0  501    0  0.00000000000E+00  0.00000000000E+00 -0.14053316804E+04  0.14053316804E+04  0.25500000920E-02 0.  1.
    10030    2    1    2    0    0  0.00000000000E+00  0.00000000000E+00  0.56502823125E+03  0.33756915921E+04  0.33280680315E+04 0.  0.
        2    1    3    3  502    0 -0.15231669382E+04  0.18755530707E+03  0.93498783496E+03  0.17970578083E+04  0.25500000920E-02 0. -1.
       -2    1    3    3    0  502  0.15231669382E+04 -0.18755530707E+03 -0.36995960371E+03  0.15786337838E+04  0.25500000920E-02 0.  1.
</event>
<event>
 5   0  0.1880301E-06  0.3036521E+04  0.7818609E-02  0.8233378E-01
       -2   -1    0    0    0  501  0.00000000000E+00  0.00000000000E+00  0.91472000758E+03  0.91472000759E+03  0.25500000920E-02 0.  1.
        2   -1    0    0  501    0  0.00000000000E+00  0.00000000000E+00 -0.25200227564E+04  0.25200227564E+04  0.25500000920E-02 0. -1.
    10030    2    1    2    0    0  0.00000000000E+00  0.00000000000E+00 -0.16053027488E+04  0.34347427640E+04  0.30365211903E+04 0.  0.
        4    1    3    3  502    0 -0.83925146345E+03  0.24385688197E+03 -0.22069585455E+04  0.23737052960E+04  0.12699999809E+01 0. -1.
       -4    1    3    3    0  502  0.83925146345E+03 -0.24385688197E+03  0.60165579672E+03  0.10610374680E+04  0.12699999809E+01 0.  1.
</event>
<event>
 5   0  0.6134625E-07  0.3488546E+04  0.7818609E-02  0.8116510E-01
       -1   -1    0    0    0  501  0.00000000000E+00  0.00000000000E+00  0.28467167809E+04  0.28467167809E+04  0.50400001928E-02 0. -1.
        1   -1    0    0  501    0  0.00000000000E+00  0.00000000000E+00 -0.10687707930E+04  0.10687707930E+04  0.50400001928E-02 0.  1.
    10030    2    1    2    0    0  0.00000000000E+00  0.00000000000E+00  0.17779459879E+04  0.39154875740E+04  0.34885456864E+04 0.  0.
        5    1    3    3  502    0 -0.11922051973E+04 -0.12402177999E+04  0.56567140667E+03  0.18109388874E+04  0.46999998093E+01 0.  1.
       -5    1    3    3    0  502  0.11922051973E+04  0.12402177999E+04  0.12122745812E+04  0.21045486865E+04  0.46999998093E+01 0. -1.
</event>
<event>
 5   0  0.1797075E-06  0.3388987E+04  0.7818609E-02  0.8140614E-01
        2   -1    0    0  501    0  0.00000000000E+00  0.00000000000E+00  0.15994594833E+04  0.15994594833E+04  0.25500000920E-02 0. -1.
       -2   -1    0    0    0  501  0.00000000000E+00  0.00000000000E+00 -0.17951745720E+04  0.17951745720E+04  0.25500000920E-02 0.  1.
    10030    2    1    2    0    0  0.00000000000E+00  0.00000000000E+00 -0.19571508870E+03  0.33946340553E+04  0.33889874555E+04 0.  0.
        2    1    3    3  502    0  0.46943952556E+03 -0.11240879819E+04 -0.12776832614E+04  0.17653389974E+04  0.25500000920E-02 0.  1.
       -2    1    3    3    0  502 -0.46943952556E+03  0.11240879819E+04  0.10819681727E+04  0.16292950580E+04  0.25500000920E-02 0. -1.
</event>
<event>
 5   0  0.6218695E-07  0.3456695E+04  0.7818609E-02  0.8124130E-01
       -1   -1    0    0    0  501  0.00000000000E+00  0.00000000000E+00  0.16670853494E+04  0.16670853494E+04  0.50400001928E-02 0. -1.
        1   -1    0    0  501    0  0.00000000000E+00  0.00000000000E+00 -0.17918612338E+04  0.17918612338E+04  0.50400001928E-02 0.  1.
    10030    2    1    2    0    0  0.00000000000E+00  0.00000000000E+00 -0.12477588444E+03  0.34589465832E+04  0.34566953068E+04 0.  0.
        2    1    3    3  502    0  0.11259231390E+04  0.38821575087E+03 -0.13157096530E+04  0.17746848383E+04  0.25500000920E-02 0.  1.
       -2    1    3    3    0  502 -0.11259231390E+04 -0.38821575087E+03  0.11909337686E+04  0.16842617449E+04  0.25500000920E-02 0. -1.
</event>
<event>
 5   0  0.6134625E-07  0.3110138E+04  0.7818609E-02  0.8212961E-01
        1   -1    0    0  501    0  0.00000000000E+00  0.00000000000E+00  0.17846738332E+04  0.17846738332E+04  0.50400001928E-02 0.  1.
       -1   -1    0    0    0  501  0.00000000000E+00  0.00000000000E+00 -0.13550039279E+04  0.13550039279E+04  0.50400001928E-02 0. -1.
    10030    2    1    2    0    0  0.00000000000E+00  0.00000000000E+00  0.42966990525E+03  0.31396777612E+04  0.31101382954E+04 0.  0.
        3    1    3    3  502    0  0.95741581302E+03  0.99315645518E+03  0.93945136139E+03  0.16690037909E+04  0.10100000352E+00 0.  1.
       -3    1    3    3    0  502 -0.95741581302E+03 -0.99315645518E+03 -0.50978145614E+03  0.14706739702E+04  0.10100000352E+00 0. -1.
</event>
<event>
 5   0  0.1339844E-06  0.3456300E+04  0.7818609E-02  0.8124225E-01
        2   -1    0    0  501    0  0.00000000000E+00  0.00000000000E+00  0.18267869155E+04  0.18267869155E+04  0.25500000920E-02 0.  1.
       -2   -1    0    0    0  501  0.00000000000E+00  0.00000000000E+00 -0.16348388081E+04  0.16348388081E+04  0.25500000920E-02 0. -1.
    10030    2    1    2    0    0  0.00000000000E+00  0.00000000000E+00  0.19194810740E+03  0.34616257236E+04  0.34562998386E+04 0.  0.
        3    1    3    3  502    0  0.14861484148E+04  0.44538867108E+03 -0.66644396753E+03  0.16885365709E+04  0.10100000352E+00 0. -1.
       -3    1    3    3    0  502 -0.14861484148E+04 -0.44538867108E+03  0.85839207493E+03  0.17730891527E+04  0.10100000352E+00 0.  1.
</event>
<event>
 5   0  0.1948507E-06  0.3399058E+04  0.7818609E-02  0.8138138E-01
        2   -1    0    0  501    0  0.00000000000E+00  0.00000000000E+00  0.13140984679E+04  0.13140984679E+04  0.25500000920E-02 0.  1.
       -2   -1    0    0    0  501  0.00000000000E+00  0.00000000000E+00 -0.21980078494E+04  0.21980078494E+04  0.25500000920E-02 0. -1.
    10030    2    1    2    0    0  0.00000000000E+00  0.00000000000E+00 -0.88390938155E+03  0.35121063173E+04  0.33990579561E+04 0.  0.
        1    1    3    3  502    0 -0.70332991586E+03  0.12181539686E+04  0.54361745263E+03  0.15080092827E+04  0.50400001928E-02 0.  1.
       -1    1    3    3    0  502  0.70332991586E+03 -0.12181539686E+04 -0.14275268342E+04  0.20040970346E+04  0.50400001928E-02 0. -1.
</event>
<event>
 5   0  0.6146388E-07  0.3423956E+04  0.7818609E-02  0.8132052E-01
        1   -1    0    0  501    0  0.00000000000E+00  0.00000000000E+00  0.22101520211E+04  0.22101520211E+04  0.50400001928E-02 0.  1.
       -1   -1    0    0    0  501  0.00000000000E+00  0.00000000000E+00 -0.13260940648E+04  0.13260940649E+04  0.50400001928E-02 0. -1.
    10030    2    1    2    0    0  0.00000000000E+00  0.00000000000E+00  0.88405795623E+03  0.35362460859E+04  0.34239564703E+04 0.  0.
        4    1    3    3  502    0 -0.16256020936E+02  0.15108782569E+04  0.12733172321E+04  0.19759442684E+04  0.12699999809E+01 0.  1.
       -4    1    3    3    0  502  0.16256020936E+02 -0.15108782569E+04 -0.38925927585E+03  0.15603018176E+04  0.12699999809E+01 0. -1.
</event>
<event>
 5   0  0.6218695E-07  0.3385032E+04  0.7818609E-02  0.8141590E-01
       -1   -1    0    0    0  501  0.00000000000E+00  0.00000000000E+00  0.20166665737E+04  0.20166665737E+04  0.50400001928E-02 0.  1.
        1   -1    0    0  501    0  0.00000000000E+00  0.00000000000E+00 -0.14204681248E+04  0.14204681248E+04  0.50400001928E-02 0. -1.
    10030    2    1    2    0    0  0.00000000000E+00  0.00000000000E+00  0.59619844891E+03  0.34371346985E+04  0.33850321040E+04 0.  0.
        2    1    3    3  502    0  0.83814548306E+03 -0.62872230355E+02  0.17897823179E+04  0.19773116885E+04  0.25500000920E-02 0.  1.
       -2    1    3    3    0  502 -0.83814548306E+03  0.62872230355E+02 -0.11935838690E+04  0.14598230099E+04  0.25500000920E-02 0. -1.
</event>
<event>
 5   0  0.6134625E-07  0.3338536E+04  0.7818609E-02  0.8153158E-01
       -1   -1    0    0    0  501  0.00000000000E+00  0.00000000000E+00  0.16018776750E+04  0.16018776750E+04  0.50400001928E-02 0. -1.
        1   -1    0    0  501    0  0.00000000000E+00  0.00000000000E+00 -0.17394938900E+04  0.17394938900E+04  0.50400001928E-02 0.  1.
    10030    2    1    2    0    0  0.00000000000E+00  0.00000000000E+00 -0.13761621502E+03  0.33413715651E+04  0.33385364628E+04 0.  0.
        3    1    3    3  502    0  0.15809049033E+03 -0.10564042668E+04 -0.13526576767E+04  0.17235618291E+04  0.10100000352E+00 0.  1.
       -3    1    3    3    0  502 -0.15809049033E+03  0.10564042668E+04  0.12150414617E+04  0.16178097360E+04  0.10100000352E+00 0. -1.
</event>
<event>
 5   0  0.1880301E-06  0.3400209E+04  0.7818609E-02  0.8137855E-01
        2   -1    0    0  501    0  0.00000000000E+00  0.00000000000E+00  0.27343825603E+04  0.27343825603E+04  0.25500000920E-02 0.  1.
       -2   -1    0    0    0  501  0.00000000000E+00  0.00000000000E+00 -0.10570414780E+04  0.10570414780E+04  0.25500000920E-02 0. -1.
    10030    2    1    2    0    0  0.00000000000E+00  0.00000000000E+00  0.16773410823E+04  0.37914240383E+04  0.34002092777E+04 0.  0.
        4    1    3    3  502    0  0.10574994692E+04 -0.43695298016E+03 -0.56343040817E+03  0.12754169796E+04  0.12699999809E+01 0. -1.
       -4    1    3    3    0  502 -0.10574994692E+04  0.43695298016E+03  0.22407714904E+04  0.25160070587E+04  0.12699999809E+01 0.  1.
</event>
<event>
 5   0  0.6134625E-07  0.3346477E+04  0.7818609E-02  0.8151169E-01
       -1   -1    0    0    0  501  0.00000000000E+00  0.00000000000E+00  0.81859580522E+03  0.81859580524E+03  0.50400001928E-02 0. -1.
        1   -1    0    0  501    0  0.00000000000E+00  0.00000000000E+00 -0.34201571336E+04  0.34201571336E+04  0.50400001928E-02 0.  1.
    10030    2    1    2    0    0  0.00000000000E+00  0.00000000000E+00 -0.26015613284E+04  0.42387529389E+04  0.33464765248E+04 0.  0.
        5    1    3    3  502    0 -0.32867746162E+03 -0.16257639892E+04 -0.15799192889E+04  0.22906995594E+04  0.46999998093E+01 0. -1.
       -5    1    3    3    0  502  0.32867746162E+03  0.16257639892E+04 -0.10216420395E+04  0.19480533794E+04  0.46999998093E+01 0.  1.
</event>
<event>
 5   0  0.1339844E-06  0.3369707E+04  0.7818609E-02  0.8145381E-01
        2   -1    0    0  501    0  0.00000000000E+00  0.00000000000E+00  0.17460004520E+04  0.17460004520E+04  0.25500000920E-02 0. -1.
       -2   -1    0    0    0  501  0.00000000000E+00  0.00000000000E+00 -0.16258481027E+04  0.16258481027E+04  0.25500000920E-02 0.  1.
    10030    2    1    2    0    0  0.00000000000E+00  0.00000000000E+00  0.12015234936E+03  0.33718485547E+04  0.33697071221E+04 0.  0.
        3    1    3    3  502    0  0.46307705081E+03  0.14308209098E+03  0.16747368672E+04  0.17434610476E+04  0.10100000352E+00 0. -1.
       -3    1    3    3    0  502 -0.46307705081E+03 -0.14308209098E+03 -0.15545845179E+04  0.16283875071E+04  0.10100000352E+00 0.  1.
</event>
<event>
 5   0  0.1339844E-06  0.3412394E+04  0.7818609E-02  0.8134871E-01
       -2   -1    0    0    0  501  0.00000000000E+00  0.00000000000E+00  0.14405553438E+04  0.14405553438E+04  0.25500000920E-02 0. -1.
        2   -1    0    0  501    0  0.00000000000E+00  0.00000000000E+00 -0.20208236554E+04  0.20208236554E+04  0.25500000920E-02 0.  1.
    10030    2    1    2    0    0  0.00000000000E+00  0.00000000000E+00 -0.58026831156E+03  0.34613789992E+04  0.34123940661E+04 0.  0.
        3    1    3    3  502    0  0.14240025089E+04 -0.79426320242E+03  0.21954378125E+03  0.16452466873E+04  0.10100000352E+00 0. -1.
       -3    1    3    3    0  502 -0.14240025089E+04  0.79426320242E+03 -0.79981209281E+03  0.18161323118E+04  0.10100000352E+00 0.  1.
</event>
<event>
 5   0  0.6134625E-07  0.3370422E+04  0.7818609E-02  0.8145204E-01
       -1   -1    0    0    0  501  0.00000000000E+00  0.00000000000E+00  0.14683688529E+04  0.14683688529E+04  0.50400001928E-02 0. -1.
        1   -1    0    0  501    0  0.00000000000E+00  0.00000000000E+00 -0.19340754825E+04  0.19340754825E+04  0.50400001928E-02 0.  1.
    10030    2    1    2    0    0  0.00000000000E+00  0.00000000000E+00 -0.46570662966E+03  0.34024443354E+04  0.33704220493E+04 0.  0.
        5    1    3    3  502    0  0.54587779251E+03  0.79256313291E+03 -0.16293895397E+04  0.18923718573E+04  0.46999998093E+01 0.  1.
       -5    1    3    3    0  502 -0.54587779251E+03 -0.79256313291E+03  0.11636829101E+04  0.15100724781E+04  0.46999998093E+01 0. -1.
</event>
<event>
 5   0  0.6134625E-07  0.3497216E+04  0.7818609E-02  0.8114450E-01
       -3   -1    0    0    0  501  0.00000000000E+00  0.00000000000E+00  0.14461815641E+04  0.14461815676E+04  0.10100000352E+00 0.  1.
        3   -1    0    0  501    0  0.00000000000E+00  0.00000000000E+00 -0.21142777369E+04  0.21142777393E+04  0.10100000352E+00 0. -1.
    10030    2    1    2    0    0  0.00000000000E+00  0.00000000000E+00 -0.66809617277E+03  0.35604593069E+04  0.34972157468E+04 0.  0.
        4    1    3    3  502    0  0.16990875090E+04 -0.27174406600E+03 -0.65094000149E+03  0.18396922838E+04  0.12699999809E+01 0.  1.
       -4    1    3    3    0  502 -0.16990875090E+04  0.27174406600E+03 -0.17156171283E+02  0.17207670231E+04  0.12699999809E+01 0. -1.
</event>
<event>
 5   0  0.6134625E-07  0.3430176E+04  0.7818609E-02  0.8130540E-01
        1   -1    0    0  501    0  0.00000000000E+00  0.00000000000E+00  0.21328708122E+04  0.21328708122E+04  0.50400001928E-02 0.  1.
       -1   -1    0    0    0  501  0.00000000000E+00  0.00000000000E+00 -0.13791393261E+04  0.13791393261E+04  0.50400001928E-02 0. -1.
    10030    2    1    2    0    0  0.00000000000E+00  0.00000000000E+00  0.75373148615E+03  0.35120101383E+04  0.34301755142E+04 0.  0.
        5    1    3    3  502    0 -0.19610681721E+02 -0.10219874660E+04  0.17869149595E+04  0.20586233560E+04  0.46999998093E+01 0.  1.
       -5    1    3    3    0  502  0.19610681721E+02  0.10219874660E+04 -0.10331834733E+04  0.14533867823E+04  0.46999998093E+01 0. -1.
</event>
<event>
 5   0  0.6134625E-07  0.2444948E+04  0.7818609E-02  0.8422865E-01
        1   -1    0    0  501    0  0.00000000000E+00  0.00000000000E+00  0.75515470206E+03  0.75515470208E+03  0.50400001928E-02 0.  1.
       -1   -1    0    0    0  501  0.00000000000E+00  0.00000000000E+00 -0.19789888819E+04  0.19789888819E+04  0.50400001928E-02 0. -1.
    10030    2    1    2    0    0  0.00000000000E+00  0.00000000000E+00 -0.12238341798E+04  0.27341435840E+04  0.24449480645E+04 0.  0.
        5    1    3    3  502    0  0.51879115341E+03  0.58347722080E+03 -0.16638348340E+04  0.18379222978E+04  0.46999998093E+01 0. -1.
       -5    1    3    3    0  502 -0.51879115341E+03 -0.58347722080E+03  0.44000065418E+03  0.89622128613E+03  0.46999998093E+01 0.  1.
</event>
<event>
 5   0  0.1339844E-06  0.3364474E+04  0.7818609E-02  0.8146681E-01
       -2   -1    0    0    0  501  0.00000000000E+00  0.00000000000E+00  0.16253558780E+04  0.16253558780E+04  0.25500000920E-02 0.  1.
        2   -1    0    0  501    0  0.00000000000E+00  0.00000000000E+00 -0.17411089319E+04  0.17411089319E+04  0.25500000920E-02 0. -1.
    10030    2    1    2    0    0  0.00000000000E+00  0.00000000000E+00 -0.11575305381E+03  0.33664648099E+04  0.33644741858E+04 0.  0.
        3    1    3    3  502    0  0.15787441304E+04 -0.37799245876E+03  0.38353105401E+03  0.16680549775E+04  0.10100000352E+00 0.  1.
       -3    1    3    3    0  502 -0.15787441304E+04  0.37799245876E+03 -0.49928410782E+03  0.16984098324E+04  0.10100000352E+00 0. -1.
</event>
<event>
 5   0  0.6134625E-07  0.3387842E+04  0.7818609E-02  0.8140897E-01
       -1   -1    0    0    0  501  0.00000000000E+00  0.00000000000E+00  0.17898719857E+04  0.17898719858E+04  0.50400001928E-02 0.  1.
        1   -1    0    0  501    0  0.00000000000E+00  0.00000000000E+00 -0.16031136226E+04  0.16031136226E+04  0.50400001928E-02 0. -1.
    10030    2    1    2    0    0  0.00000000000E+00  0.00000000000E+00  0.18675836317E+03  0.33929856083E+04  0.33878418871E+04 0.  0.
        5    1    3    3  502    0  0.14839206766E+04 -0.77127735250E+03 -0.17620741226E+03  0.16816540878E+04  0.46999998093E+01 0. -1.
       -5    1    3    3    0  502 -0.14839206766E+04  0.77127735250E+03  0.36296577543E+03  0.17113315205E+04  0.46999998093E+01 0.  1.
</event>
<event>
 5   0  0.1797075E-06  0.3342842E+04  0.7818609E-02  0.8152079E-01
        2   -1    0    0  501    0  0.00000000000E+00  0.00000000000E+00  0.20165374985E+04  0.20165374985E+04  0.25500000920E-02 0.  1.
       -2   -1    0    0    0  501  0.00000000000E+00  0.00000000000E+00 -0.13853685715E+04  0.13853685715E+04  0.25500000920E-02 0. -1.
    10030    2    1    2    0    0  0.00000000000E+00  0.00000000000E+00  0.63116892703E+03  0.34019060701E+04  0.33428417095E+04 0.  0.
        2    1    3    3  502    0  0.44417399311E+03  0.14571908178E+03 -0.13174881735E+04  0.13979626870E+04  0.25500000920E-02 0. -1.
       -2    1    3    3    0  502 -0.44417399311E+03 -0.14571908178E+03  0.19486571005E+04  0.20039433830E+04  0.25500000920E-02 0.  1.
</event>
<event>
 5   0  0.1948507E-06  0.3406454E+04  0.7818609E-02  0.8136324E-01
       -2   -1    0    0    0  501  0.00000000000E+00  0.00000000000E+00  0.15894383423E+04  0.15894383423E+04  0.25500000920E-02 0. -1.
        2   -1    0    0  501    0  0.00000000000E+00  0.00000000000E+00 -0.18251621159E+04  0.18251621159E+04  0.25500000920E-02 0.  1.
    10030    2    1    2    0    0  0.00000000000E+00  0.00000000000E+00 -0.23572377361E+03  0.34146004583E+04  0.34064542551E+04 0.  0.
        1    1    3    3  502    0 -0.41355525270E+03  0.93910642982E+03 -0.14805368915E+04  0.18013712334E+04  0.50400001928E-02 0.  1.
       -1    1    3    3    0  502  0.41355525270E+03 -0.93910642982E+03  0.12448131179E+04  0.16132292249E+04  0.50400001928E-02 0. -1.
</event>
<event>
 5   0  0.6134625E-07  0.3432247E+04  0.7818609E-02  0.8130037E-01
        1   -1    0    0  501    0  0.00000000000E+00  0.00000000000E+00  0.13923959868E+04  0.13923959868E+04  0.50400001928E-02 0.  1.
       -1   -1    0    0    0  501  0.00000000000E+00  0.00000000000E+00 -0.21151168239E+04  0.21151168239E+04  0.50400001928E-02 0. -1.
    10030    2    1    2    0    0  0.00000000000E+00  0.00000000000E+00 -0.72272083708E+03  0.35075128107E+04  0.34322471806E+04 0.  0.
        1    1    3    3  502    0  0.36412347958E+03 -0.17624640126E+03 -0.20656951386E+04  0.21049335163E+04  0.50400001928E-02 0. -1.
       -1    1    3    3    0  502 -0.36412347958E+03  0.17624640126E+03  0.13429743015E+04  0.14025792944E+04  0.50400001928E-02 0.  1.
</event>
<event>
 5   0  0.1880301E-06  0.3508538E+04  0.7818609E-02  0.8111770E-01
        2   -1    0    0  501    0  0.00000000000E+00  0.00000000000E+00  0.22456228601E+04  0.22456228601E+04  0.25500000920E-02 0.  1.
       -2   -1    0    0    0  501  0.00000000000E+00  0.00000000000E+00 -0.13704257091E+04  0.13704257091E+04  0.25500000920E-02 0. -1.
    10030    2    1    2    0    0  0.00000000000E+00  0.00000000000E+00  0.87519715106E+03  0.36160485692E+04  0.35085377583E+04 0.  0.
        4    1    3    3  502    0 -0.55435597585E+03 -0.15140560404E+04 -0.27479950497E+03  0.16356016087E+04  0.12699999809E+01 0. -1.
       -4    1    3    3    0  502  0.55435597585E+03  0.15140560404E+04  0.11499966560E+04  0.19804469605E+04  0.12699999809E+01 0.  1.
</event>
<event>
 5   0  0.1880301E-06  0.3384878E+04  0.7818609E-02  0.8141628E-01
       -2   -1    0    0    0  501  0.00000000000E+00  0.00000000000E+00  0.17965182334E+04  0.17965182334E+04  0.25500000920E-02 0. -1.
        2   -1    0    0  501    0  0.00000000000E+00  0.00000000000E+00 -0.15943896783E+04  0.15943896783E+04  0.25500000920E-02 0.  1.
    10030    2    1    2    0    0  0.00000000000E+00  0.00000000000E+00  0.20212855508E+03  0.33909079117E+04  0.33848782124E+04 0.  0.
        4    1    3    3  502    0  0.99999765000E+03 -0.31396701007E+03 -0.12301286164E+04  0.16161029080E+04  0.12699999809E+01 0.  1.
       -4    1    3    3    0  502 -0.99999765000E+03  0.31396701007E+03  0.14322571714E+04  0.17748050038E+04  0.12699999809E+01 0. -1.
</event>
<event>
 5   0  0.1339844E-06  0.3376313E+04  0.7818609E-02  0.8143745E-01
        2   -1    0    0  501    0  0.00000000000E+00  0.00000000000E+00  0.23059253445E+04  0.23059253445E+04  0.25500000920E-02 0. -1.
       -2   -1    0    0    0  501  0.00000000000E+00  0.00000000000E+00 -0.12358906443E+04  0.12358906443E+04  0.25500000920E-02 0.  1.
    10030    2    1    2    0    0  0.00000000000E+00  0.00000000000E+00  0.10700347002E+04  0.35418159888E+04  0.33763125209E+04 0.  0.
        3    1    3    3  502    0  0.16038358901E+04  0.51301221946E+03  0.40913310472E+03  0.17328765124E+04  0.10100000352E+00 0.  1.
       -3    1    3    3    0  502 -0.16038358901E+04 -0.51301221946E+03  0.66090159550E+03  0.18089394763E+04  0.10100000352E+00 0. -1.
</event>
<event>
 5   0  0.6134625E-07  0.3335365E+04  0.7818609E-02  0.8153955E-01
       -3   -1    0    0    0  501  0.00000000000E+00  0.00000000000E+00  0.12679247118E+04  0.12679247158E+04  0.10100000352E+00 0.  1.
        3   -1    0    0  501    0  0.00000000000E+00  0.00000000000E+00 -0.21934783907E+04  0.21934783930E+04  0.10100000352E+00 0. -1.
    10030    2    1    2    0    0  0.00000000000E+00  0.00000000000E+00 -0.92555367888E+03  0.34614031089E+04  0.33353653278E+04 0.  0.
        3    1    3    3  502    0  0.15502150100E+04 -0.59946419656E+03 -0.32108336078E+03  0.16928137626E+04  0.10100000352E+00 0. -1.
       -3    1    3    3    0  502 -0.15502150100E+04  0.59946419656E+03 -0.60447031810E+03  0.17685893463E+04  0.10100000352E+00 0.  1.
</event>
<event>
 5   0  0.6146388E-07  0.3454208E+04  0.7818609E-02  0.8124729E-01
        1   -1    0    0  501    0  0.00000000000E+00  0.00000000000E+00  0.24666396727E+04  0.24666396727E+04  0.50400001928E-02 0. -1.
       -1   -1    0    0    0  501  0.00000000000E+00  0.00000000000E+00 -0.12092922931E+04  0.12092922931E+04  0.50400001928E-02 0.  1.
    10030    2    1    2    0    0  0.00000000000E+00  0.00000000000E+00  0.12573473796E+04  0.36759319657E+04  0.34542080690E+04 0.  0.
        4    1    3    3  502    0 -0.15448828856E+04  0.58282414852E+03  0.11676829042E+04  0.20223333296E+04  0.12699999809E+01 0. -1.
       -4    1    3    3    0  502  0.15448828856E+04 -0.58282414852E+03  0.89664475373E+02  0.16535986361E+04  0.12699999809E+01 0.  1.
</event>
<event>
 5   0  0.1911477E-06  0.3396351E+04  0.7818609E-02  0.8138802E-01
       -2   -1    0    0    0  501  0.00000000000E+00  0.00000000000E+00  0.19466464421E+04  0.19466464422E+04  0.25500000920E-02 0. -1.
        2   -1    0    0  501    0  0.00000000000E+00  0.00000000000E+00 -0.14814197575E+04  0.14814197575E+04  0.25500000920E-02 0.  1.
    10030    2    1    2    0    0  0.00000000000E+00  0.00000000000E+00  0.46522668464E+03  0.34280661997E+04  0.33963512776E+04 0.  0.
        5    1    3    3  502    0  0.12283481847E+03 -0.15358815608E+03  0.19351066714E+04  0.19450803670E+04  0.46999998093E+01 0. -1.
       -5    1    3    3    0  502 -0.12283481847E+03  0.15358815608E+03 -0.14698799868E+04  0.14829858327E+04  0.46999998093E+01 0.  1.
</event>
<event>
 5   0  0.1339844E-06  0.3277549E+04  0.7818609E-02  0.8168632E-01
        2   -1    0    0  501    0  0.00000000000E+00  0.00000000000E+00  0.21763058007E+04  0.21763058007E+04  0.25500000920E-02 0.  1.
       -2   -1    0    0    0  501  0.00000000000E+00  0.00000000000E+00 -0.12340097500E+04  0.12340097500E+04  0.25500000920E-02 0. -1.
    10030    2    1    2    0    0  0.00000000000E+00  0.00000000000E+00  0.94229605066E+03  0.34103155507E+04  0.32775494364E+04 0.  0.
        3    1    3    3  502    0 -0.47077747576E+03  0.11862235878E+04 -0.59851454457E+03  0.14096018949E+04  0.10100000352E+00 0. -1.
       -3    1    3    3    0  502  0.47077747576E+03 -0.11862235878E+04  0.15408105952E+04  0.20007136558E+04  0.10100000352E+00 0.  1.
</event>
<event>
 5   0  0.1880301E-06  0.3379532E+04  0.7818609E-02  0.8142948E-01
       -2   -1    0    0    0  501  0.00000000000E+00  0.00000000000E+00  0.18496063520E+04  0.18496063520E+04  0.25500000920E-02 0. -1.
        2   -1    0    0  501    0  0.00000000000E+00  0.00000000000E+00 -0.15437385491E+04  0.15437385491E+04  0.25500000920E-02 0.  1.
    10030    2    1    2    0    0  0.00000000000E+00  0.00000000000E+00  0.30586780294E+03  0.33933449011E+04  0.33795316990E+04 0.  0.
        4    1    3    3  502    0 -0.44425867723E+03 -0.14721763928E+04 -0.55038458039E+03  0.16332770442E+04  0.12699999809E+01 0.  1.
       -4    1    3    3    0  502  0.44425867723E+03  0.14721763928E+04  0.85625238333E+03  0.17600678569E+04  0.12699999809E+01 0. -1.
</event>
<event>
 5   0  0.1880301E-06  0.3376267E+04  0.7818609E-02  0.8143756E-01
       -2   -1    0    0    0  501  0.00000000000E+00  0.00000000000E+00  0.11686768576E+04  0.11686768576E+04  0.25500000920E-02 0.  1.
        2   -1    0    0  501    0  0.00000000000E+00  0.00000000000E+00 -0.24384801844E+04  0.24384801844E+04  0.25500000920E-02 0. -1.
    10030    2    1    2    0    0  0.00000000000E+00  0.00000000000E+00 -0.12698033268E+04  0.36071570419E+04  0.33762673822E+04 0.  0.
        4    1    3    3  502    0  0.16351840182E+04  0.36942419318E+03 -0.42258365064E+03  0.17288376334E+04  0.12699999809E+01 0.  1.
       -4    1    3    3    0  502 -0.16351840182E+04 -0.36942419318E+03 -0.84721967615E+03  0.18783194085E+04  0.12699999809E+01 0. -1.
</event>
<event>
 5   0  0.6134625E-07  0.3355039E+04  0.7818609E-02  0.8149030E-01
       -1   -1    0    0    0  501  0.00000000000E+00  0.00000000000E+00  0.10656453771E+04  0.10656453771E+04  0.50400001928E-02 0. -1.
        1   -1    0    0  501    0  0.00000000000E+00  0.00000000000E+00 -0.26407205615E+04  0.26407205615E+04  0.50400001928E-02 0.  1.
    10030    2    1    2    0    0  0.00000000000E+00  0.00000000000E+00 -0.15750751844E+04  0.37063659386E+04  0.33550389915E+04 0.  0.
        1    1    3    3  502    0  0.87101982638E+03  0.26466080912E+03  0.76903489282E+03  0.11916944022E+04  0.50400001928E-02 0. -1.
       -1    1    3    3    0  502 -0.87101982638E+03 -0.26466080912E+03 -0.23441100773E+04  0.25146715364E+04  0.50400001928E-02 0.  1.
</event>
<event>
 5   0  0.6134625E-07  0.3409359E+04  0.7818609E-02  0.8135613E-01
       -1   -1    0    0    0  501  0.00000000000E+00  0.00000000000E+00  0.19199498213E+04  0.19199498213E+04  0.50400001928E-02 0.  1.
        1   -1    0    0  501    0  0.00000000000E+00  0.00000000000E+00 -0.15135463299E+04  0.15135463300E+04  0.50400001928E-02 0. -1.
    10030    2    1    2    0    0  0.00000000000E+00  0.00000000000E+00  0.40640349138E+03  0.34334961513E+04  0.34093594740E+04 0.  0.
        1    1    3    3  502    0  0.10944748515E+04  0.98880099292E+02 -0.11092050964E+04  0.15614059115E+04  0.50400001928E-02 0. -1.
       -1    1    3    3    0  502 -0.10944748515E+04 -0.98880099292E+02  0.15156085878E+04  0.18720902398E+04  0.50400001928E-02 0.  1.
</event>
<event>
 5   0  0.6218695E-07  0.3334741E+04  0.7818609E-02  0.8154111E-01
        1   -1    0    0  501    0  0.00000000000E+00  0.00000000000E+00  0.19723783913E+04  0.19723783913E+04  0.50400001928E-02 0. -1.
       -1   -1    0    0    0  501  0.00000000000E+00  0.00000000000E+00 -0.14095289491E+04  0.14095289491E+04  0.50400001928E-02 0.  1.
    10030    2    1    2    0    0  0.00000000000E+00  0.00000000000E+00  0.56284944217E+03  0.33819073404E+04  0.33347410341E+04 0.  0.
        2    1    3    3  502    0 -0.13572006993E+04 -0.90323797667E+03 -0.73223974653E+02  0.16319296342E+04  0.25500000920E-02 0.  1.
       -2    1    3    3    0  502  0.13572006993E+04  0.90323797667E+03  0.63607341682E+03  0.17499777062E+04  0.25500000920E-02 0. -1.
</event>
<event>
 5   0  0.1948507E-06  0.3415286E+04  0.7818609E-02  0.8134165E-01
       -2   -1    0    0    0  501  0.00000000000E+00  0.00000000000E+00  0.14529734247E+04  0.14529734247E+04  0.25500000920E-02 0. -1.
        2   -1    0    0  501    0  0.00000000000E+00  0.00000000000E+00 -0.20069498250E+04  0.20069498250E+04  0.25500000920E-02 0.  1.
    10030    2    1    2    0    0  0.00000000000E+00  0.00000000000E+00 -0.55397640035E+03  0.34599232497E+04  0.34152860849E+04 0.  0.
        1    1    3    3  502    0 -0.44922008559E+03  0.16433616461E+04 -0.39516866904E+03  0.17488837760E+04  0.50400001928E-02 0.  1.
       -1    1    3    3    0  502  0.44922008559E+03 -0.16433616461E+04 -0.15880773131E+03  0.17110394737E+04  0.50400001928E-02 0. -1.
</event>
<event>
 5   0  0.1880301E-06  0.3338072E+04  0.7818609E-02  0.8153275E-01
       -2   -1    0    0    0  501  0.00000000000E+00  0.00000000000E+00  0.18183672871E+04  0.18183672871E+04  0.25500000920E-02 0. -1.
        2   -1    0    0  501    0  0.00000000000E+00  0.00000000000E+00 -0.15319681428E+04  0.15319681428E+04  0.25500000920E-02 0.  1.
    10030    2    1    2    0    0  0.00000000000E+00  0.00000000000E+00  0.28639914427E+03  0.33503354299E+04  0.33380717522E+04 0.  0.
        4    1    3    3  502    0 -0.44764074517E+03 -0.82032883423E+03 -0.12447611149E+04  0.15565196687E+04  0.12699999809E+01 0.  1.
       -4    1    3    3    0  502  0.44764074517E+03  0.82032883423E+03  0.15311602591E+04  0.17938157612E+04  0.12699999809E+01 0. -1.
</event>
<event>
 5   0  0.6134625E-07  0.3300286E+04  0.7818609E-02  0.8162823E-01
        1   -1    0    0  501    0  0.00000000000E+00  0.00000000000E+00  0.29943330665E+04  0.29943330665E+04  0.50400001928E-02 0. -1.
       -1   -1    0    0    0  501  0.00000000000E+00  0.00000000000E+00 -0.90937511478E+03  0.90937511480E+03  0.50400001928E-02 0.  1.
    10030    2    1    2    0    0  0.00000000000E+00  0.00000000000E+00  0.20849579517E+04  0.39037081813E+04  0.33002860337E+04 0.  0.
        3    1    3    3  502    0  0.13466378170E+04 -0.60652356236E+03  0.17193193730E+03  0.14868977245E+04  0.10100000352E+00 0.  1.
       -3    1    3    3    0  502 -0.13466378170E+04  0.60652356236E+03  0.19130260144E+04  0.24168104568E+04  0.10100000352E+00 0. -1.
</event>
<event>
 5   0  0.1880301E-06  0.2584038E+04  0.7818609E-02  0.8373643E-01
        2   -1    0    0  501    0  0.00000000000E+00  0.00000000000E+00  0.16369060114E+04  0.16369060114E+04  0.25500000920E-02 0. -1.
       -2   -1    0    0    0  501  0.00000000000E+00  0.00000000000E+00 -0.10197976189E+04  0.10197976189E+04  0.25500000920E-02 0.  1.
    10030    2    1    2    0    0  0.00000000000E+00  0.00000000000E+00  0.61710839248E+03  0.26567036303E+04  0.25840378115E+04 0.  0.
        4    1    3    3  502    0  0.15540908733E+03 -0.12612156566E+04  0.68549424868E+02  0.12726026691E+04  0.12699999809E+01 0.  1.
       -4    1    3    3    0  502 -0.15540908733E+03  0.12612156566E+04  0.54855896761E+03  0.13841009612E+04  0.12699999809E+01 0. -1.
</event>
<event>
 5   0  0.6134625E-07  0.3381565E+04  0.7818609E-02  0.8142446E-01
       -1   -1    0    0    0  501  0.00000000000E+00  0.00000000000E+00  0.11323566163E+04  0.11323566163E+04  0.50400001928E-02 0. -1.
        1   -1    0    0  501    0  0.00000000000E+00  0.00000000000E+00 -0.25245982694E+04  0.25245982694E+04  0.50400001928E-02 0.  1.
    10030    2    1    2    0    0  0.00000000000E+00  0.00000000000E+00 -0.13922416531E+04  0.36569548857E+04  0.33815650541E+04 0.  0.
        1    1    3    3  502    0  0.15645416838E+04 -0.22573676098E+03 -0.13449819768E+04  0.20755057898E+04  0.50400001928E-02 0.  1.
       -1    1    3    3    0  502 -0.15645416838E+04  0.22573676098E+03 -0.47259676284E+02  0.15814490958E+04  0.50400001928E-02 0. -1.
</event>
<event>
 5   0  0.6134625E-07  0.3401062E+04  0.7818609E-02  0.8137646E-01
        1   -1    0    0  501    0  0.00000000000E+00  0.00000000000E+00  0.19568326985E+04  0.19568326985E+04  0.50400001928E-02 0.  1.
       -1   -1    0    0    0  501  0.00000000000E+00  0.00000000000E+00 -0.14777991770E+04  0.14777991770E+04  0.50400001928E-02 0. -1.
    10030    2    1    2    0    0  0.00000000000E+00  0.00000000000E+00  0.47903352157E+03  0.34346318755E+04  0.34010620408E+04 0.  0.
        5    1    3    3  502    0  0.12989488005E+04  0.33098804010E+03  0.12962497929E+04  0.18647001594E+04  0.46999998093E+01 0.  1.
       -5    1    3    3    0  502 -0.12989488005E+04 -0.33098804010E+03 -0.81721627136E+03  0.15699317161E+04  0.46999998093E+01 0. -1.
</event>
<event>
 5   0  0.6134625E-07  0.3745582E+04  0.7818609E-02  0.8057935E-01
        1   -1    0    0  501    0  0.00000000000E+00  0.00000000000E+00  0.23987528184E+04  0.23987528184E+04  0.50400001928E-02 0.  1.
       -1   -1    0    0    0  501  0.00000000000E+00  0.00000000000E+00 -0.14621536846E+04  0.14621536846E+04  0.50400001928E-02 0. -1.
    10030    2    1    2    0    0  0.00000000000E+00  0.00000000000E+00  0.93659913381E+03  0.38609065029E+04  0.37455815419E+04 0.  0.
        5    1    3    3  502    0  0.16149902724E+04 -0.37805226967E+03 -0.42807620989E+03  0.17130056714E+04  0.46999998093E+01 0. -1.
       -5    1    3    3    0  502 -0.16149902724E+04  0.37805226967E+03  0.13646753437E+04  0.21479008316E+04  0.46999998093E+01 0.  1.
</event>
<event>
 5   0  0.1911477E-06  0.3436207E+04  0.7818609E-02  0.8129077E-01
       -2   -1    0    0    0  501  0.00000000000E+00  0.00000000000E+00  0.14001081451E+04  0.14001081452E+04  0.25500000920E-02 0. -1.
        2   -1    0    0  501    0  0.00000000000E+00  0.00000000000E+00 -0.21083229585E+04  0.21083229585E+04  0.25500000920E-02 0.  1.
    10030    2    1    2    0    0  0.00000000000E+00  0.00000000000E+00 -0.70821481333E+03  0.35084311036E+04  0.34362072969E+04 0.  0.
        5    1    3    3  502    0  0.62754590936E+03 -0.19347053194E+03  0.12669063935E+04  0.14269963612E+04  0.46999998093E+01 0. -1.
       -5    1    3    3    0  502 -0.62754590936E+03  0.19347053194E+03 -0.19751212069E+04  0.20814347424E+04  0.46999998093E+01 0.  1.
</event>
<event>
 5   0  0.1911477E-06  0.3391251E+04  0.7818609E-02  0.8140057E-01
        2   -1    0    0  501    0  0.00000000000E+00  0.00000000000E+00  0.18227800015E+04  0.18227800015E+04  0.25500000920E-02 0. -1.
       -2   -1    0    0    0  501  0.00000000000E+00  0.00000000000E+00 -0.15773413784E+04  0.15773413784E+04  0.25500000920E-02 0.  1.
    10030    2    1    2    0    0  0.00000000000E+00  0.00000000000E+00  0.24543862311E+03  0.34001213798E+04  0.33912512853E+04 0.  0.
        5    1    3    3  502    0 -0.11490187158E+04 -0.24320698133E+03 -0.11034801945E+04  0.16115471680E+04  0.46999998093E+01 0.  1.
       -5    1    3    3    0  502  0.11490187158E+04  0.24320698133E+03  0.13489188176E+04  0.17885742119E+04  0.46999998093E+01 0. -1.
</event>
<event>
 5   0  0.1797075E-06  0.3468460E+04  0.7818609E-02  0.8121306E-01
       -2   -1    0    0    0  501  0.00000000000E+00  0.00000000000E+00  0.20799711044E+04  0.20799711044E+04  0.25500000920E-02 0.  1.
        2   -1    0    0  501    0  0.00000000000E+00  0.00000000000E+00 -0.14459590767E+04  0.14459590767E+04  0.25500000920E-02 0. -1.
    10030    2    1    2    0    0  0.00000000000E+00  0.00000000000E+00  0.63401202764E+03  0.35259301811E+04  0.34684596568E+04 0.  0.
        2    1    3    3  502    0 -0.11369859388E+04 -0.18859270818E+03  0.16343360446E+04  0.19998396289E+04  0.25500000920E-02 0.  1.
       -2    1    3    3    0  502  0.11369859388E+04  0.18859270818E+03 -0.10003240169E+04  0.15260905522E+04  0.25500000920E-02 0. -1.
</event>
<event>
 5   0  0.6134625E-07  0.3438695E+04  0.7818609E-02  0.8128474E-01
        1   -1    0    0  501    0  0.00000000000E+00  0.00000000000E+00  0.96604720557E+03  0.96604720558E+03  0.50400001928E-02 0. -1.
       -1   -1    0    0    0  501  0.00000000000E+00  0.00000000000E+00 -0.30600523683E+04  0.30600523683E+04  0.50400001928E-02 0.  1.
    10030    2    1    2    0    0  0.00000000000E+00  0.00000000000E+00 -0.20940051628E+04  0.40260995739E+04  0.34386945426E+04 0.  0.
        1    1    3    3  502    0  0.66989590947E+03 -0.14291746158E+04 -0.24873333516E+03  0.15978638503E+04  0.50400001928E-02 0. -1.
       -1    1    3    3    0  502 -0.66989590947E+03  0.14291746158E+04 -0.18452718276E+04  0.24282357237E+04  0.50400001928E-02 0.  1.
</event>
<event>
 5   0  0.1911477E-06  0.3396681E+04  0.7818609E-02  0.8138721E-01
       -2   -1    0    0    0  501  0.00000000000E+00  0.00000000000E+00  0.12590246635E+04  0.12590246635E+04  0.25500000920E-02 0. -1.
        2   -1    0    0  501    0  0.00000000000E+00  0.00000000000E+00 -0.22909479596E+04  0.22909479596E+04  0.25500000920E-02 0.  1.
    10030    2    1    2    0    0  0.00000000000E+00  0.00000000000E+00 -0.10319232961E+04  0.35499726232E+04  0.33966807233E+04 0.  0.
        5    1    3    3  502    0  0.16999896350E+02  0.13512770701E+04  0.55910023931E+03  0.14624820970E+04  0.46999998093E+01 0. -1.
       -5    1    3    3    0  502 -0.16999896350E+02 -0.13512770701E+04 -0.15910235354E+04  0.20874905261E+04  0.46999998093E+01 0.  1.
</event>
<event>
 5   0  0.6134625E-07  0.3229740E+04  0.7818609E-02  0.8181007E-01
       -1   -1    0    0    0  501  0.00000000000E+00  0.00000000000E+00  0.12861521199E+04  0.12861521199E+04  0.50400001928E-02 0. -1.
        1   -1    0    0  501    0  0.00000000000E+00  0.00000000000E+00 -0.20276024799E+04  0.20276024799E+04  0.50400001928E-02 0.  1.
    10030    2    1    2    0    0  0.00000000000E+00  0.00000000000E+00 -0.74145035999E+03  0.33137545998E+04  0.32297400687E+04 0.  0.
        3    1    3    3  502    0 -0.63947852010E+03 -0.11420024448E+04  0.59976732107E+03  0.14397302564E+04  0.10100000352E+00 0. -1.
       -3    1    3    3    0  502  0.63947852010E+03  0.11420024448E+04 -0.13412176811E+04  0.18740243434E+04  0.10100000352E+00 0.  1.
</event>
<event>
 5   0  0.1339844E-06  0.3309629E+04  0.7818609E-02  0.8160449E-01
       -2   -1    0    0    0  501  0.00000000000E+00  0.00000000000E+00  0.29563411671E+04  0.29563411671E+04  0.25500000920E-02 0.  1.
        2   -1    0    0  501    0  0.00000000000E+00  0.00000000000E+00 -0.92628411275E+03  0.92628411276E+03  0.25500000920E-02 0. -1.
    10030    2    1    2    0    0  0.00000000000E+00  0.00000000000E+00  0.20300570543E+04  0.38826252799E+04  0.33096294989E+04 0.  0.
        3    1    3    3  502    0  0.52494518343E+03  0.14122613955E+04  0.21217375231E+03  0.15215345563E+04  0.10100000352E+00 0. -1.
       -3    1    3    3    0  502 -0.52494518343E+03 -0.14122613955E+04  0.18178833020E+04  0.23610907235E+04  0.10100000352E+00 0.  1.
</event>
<event>
 5   0  0.1339844E-06  0.3569503E+04  0.7818609E-02  0.8097513E-01
        2   -1    0    0  501    0  0.00000000000E+00  0.00000000000E+00  0.22703339450E+04  0.22703339450E+04  0.25500000920E-02 0.  1.
       -2   -1    0    0    0  501  0.00000000000E+00  0.00000000000E+00 -0.14030259745E+04  0.14030259745E+04  0.25500000920E-02 0. -1.
    10030    2    1    2    0    0  0.00000000000E+00  0.00000000000E+00  0.86730797055E+03  0.36733599195E+04  0.35695027640E+04 0.  0.
        3    1    3    3  502    0  0.89334424672E+03  0.81786527567E+03 -0.91535267230E+03  0.15181693177E+04  0.10100000352E+00 0. -1.
       -3    1    3    3    0  502 -0.89334424672E+03 -0.81786527567E+03  0.17826606428E+04  0.21551906018E+04  0.10100000352E+00 0.  1.
</event>
<event>
 5   0  0.6146388E-07  0.3402748E+04  0.7818609E-02  0.8137232E-01
        1   -1    0    0  501    0  0.00000000000E+00  0.00000000000E+00  0.23570972951E+04  0.23570972951E+04  0.50400001928E-02 0. -1.
       -1   -1    0    0    0  501  0.00000000000E+00  0.00000000000E+00 -0.12280670201E+04  0.12280670201E+04  0.50400001928E-02 0.  1.
    10030    2    1    2    0    0  0.00000000000E+00  0.00000000000E+00  0.11290302750E+04  0.35851643152E+04  0.34027479785E+04 0.  0.
        4    1    3    3  502    0  0.16282997667E+04  0.12108011407E+03  0.10683243808E+04  0.19512404054E+04  0.12699999809E+01 0. -1.
       -4    1    3    3    0  502 -0.16282997667E+04 -0.12108011407E+03  0.60705894232E+02  0.16339239098E+04  0.12699999809E+01 0.  1.
</event>
<event>
 5   0  0.1339844E-06  0.3022570E+04  0.7818609E-02  0.8237315E-01
       -2   -1    0    0    0  501  0.00000000000E+00  0.00000000000E+00  0.13071100353E+04  0.13071100353E+04  0.25500000920E-02 0.  1.
        2   -1    0    0  501    0  0.00000000000E+00  0.00000000000E+00 -0.17473523756E+04  0.17473523757E+04  0.25500000920E-02 0. -1.
    10030    2    1    2    0    0  0.00000000000E+00  0.00000000000E+00 -0.44024234037E+03  0.30544624109E+04  0.30225696521E+04 0.  0.
        3    1    3    3  502    0 -0.99227470603E+03 -0.10663408908E+04 -0.62722399583E+03  0.15859072920E+04  0.10100000352E+00 0.  1.
       -3    1    3    3    0  502  0.99227470603E+03  0.10663408908E+04  0.18698165546E+03  0.14685551189E+04  0.10100000352E+00 0. -1.
</event>
<event>
 5   0  0.1797075E-06  0.3119532E+04  0.7818609E-02  0.8210398E-01
        2   -1    0    0  501    0  0.00000000000E+00  0.00000000000E+00  0.30134037041E+04  0.30134037041E+04  0.25500000920E-02 0. -1.
       -2   -1    0    0    0  501  0.00000000000E+00  0.00000000000E+00 -0.80734936396E+03  0.80734936397E+03  0.25500000920E-02 0.  1.
    10030    2    1    2    0    0  0.00000000000E+00  0.00000000000E+00  0.22060543401E+04  0.38207530680E+04  0.31195317366E+04 0.  0.
        2    1    3    3  502    0 -0.13218453629E+04 -0.10626980249E+02  0.88981718837E+02  0.13248795577E+04  0.25500000920E-02 0.  1.
       -2    1    3    3    0  502  0.13218453629E+04  0.10626980249E+02  0.21170726213E+04  0.24958735104E+04  0.25500000920E-02 0. -1.
</event>
<event>
 5   0  0.1880301E-06  0.3406351E+04  0.7818609E-02  0.8136349E-01
       -2   -1    0    0    0  501  0.00000000000E+00  0.00000000000E+00  0.14087301458E+04  0.14087301458E+04  0.25500000920E-02 0. -1.
        2   -1    0    0  501    0  0.00000000000E+00  0.00000000000E+00 -0.20591646571E+04  0.20591646571E+04  0.25500000920E-02 0.  1.
    10030    2    1    2    0    0  0.00000000000E+00  0.00000000000E+00 -0.65043451131E+03  0.34678948029E+04  0.34063513193E+04 0.  0.
        4    1    3    3  502    0  0.11941237425E+04  0.10715343013E+04 -0.90711056419E+03  0.18430866664E+04  0.12699999809E+01 0.  1.
       -4    1    3    3    0  502 -0.11941237425E+04 -0.10715343013E+04  0.25667605288E+03  0.16248081365E+04  0.12699999809E+01 0. -1.
</event>
<event>
 5   0  0.1339844E-06  0.3358627E+04  0.7818609E-02  0.8148136E-01
       -2   -1    0    0    0  501  0.00000000000E+00  0.00000000000E+00  0.11818134183E+04  0.11818134183E+04  0.25500000920E-02 0. -1.
        2   -1    0    0  501    0  0.00000000000E+00  0.00000000000E+00 -0.23862429431E+04  0.23862429431E+04  0.25500000920E-02 0.  1.
    10030    2    1    2    0    0  0.00000000000E+00  0.00000000000E+00 -0.12044295248E+04  0.35680563615E+04  0.33586270585E+04 0.  0.
        3    1    3    3  502    0  0.85033624318E+03 -0.39004380451E+03  0.87933834731E+03  0.12839165998E+04  0.10100000352E+00 0. -1.
       -3    1    3    3    0  502 -0.85033624318E+03  0.39004380451E+03 -0.20837678721E+04  0.22841397617E+04  0.10100000352E+00 0.  1.
</event>
<event>
 5   0  0.1948507E-06  0.3361925E+04  0.7818609E-02  0.8147315E-01
       -2   -1    0    0    0  501  0.00000000000E+00  0.00000000000E+00  0.10854810181E+04  0.10854810181E+04  0.25500000920E-02 0. -1.
        2   -1    0    0  501    0  0.00000000000E+00  0.00000000000E+00 -0.26031173899E+04  0.26031173899E+04  0.25500000920E-02 0.  1.
    10030    2    1    2    0    0  0.00000000000E+00  0.00000000000E+00 -0.15176363718E+04  0.36885984080E+04  0.33619247550E+04 0.  0.
        1    1    3    3  502    0  0.24257658297E+03  0.71302916174E+03 -0.24076332475E+04  0.25226874239E+04  0.50400001928E-02 0.  1.
       -1    1    3    3    0  502 -0.24257658297E+03 -0.71302916174E+03  0.88999687570E+03  0.11659109841E+04  0.50400001928E-02 0. -1.
</event>
<event>
 5   0  0.1948507E-06  0.2837776E+04  0.7818609E-02  0.8291636E-01
       -2   -1    0    0    0  501  0.00000000000E+00  0.00000000000E+00  0.75396243957E+03  0.75396243957E+03  0.25500000920E-02 0. -1.
        2   -1    0    0  501    0  0.00000000000E+00  0.00000000000E+00 -0.26702158674E+04  0.26702158674E+04  0.25500000920E-02 0.  1.
    10030    2    1    2    0    0  0.00000000000E+00  0.00000000000E+00 -0.19162534278E+04  0.34241783069E+04  0.28377755158E+04 0.  0.
        1    1    3    3  502    0  0.25336317960E+03  0.47707496881E+03  0.62503551541E+03  0.82611308075E+03  0.50400001928E-02 0. -1.
       -1    1    3    3    0  502 -0.25336317960E+03 -0.47707496881E+03 -0.25412889432E+04  0.25980652262E+04  0.50400001928E-02 0.  1.
</event>
<event>
 5   0  0.6146388E-07  0.3412995E+04  0.7818609E-02  0.8134724E-01
       -1   -1    0    0    0  501  0.00000000000E+00  0.00000000000E+00  0.15571596013E+04  0.15571596013E+04  0.50400001928E-02 0.  1.
        1   -1    0    0  501    0  0.00000000000E+00  0.00000000000E+00 -0.18701578383E+04  0.18701578383E+04  0.50400001928E-02 0. -1.
    10030    2    1    2    0    0  0.00000000000E+00  0.00000000000E+00 -0.31299823708E+03  0.34273174396E+04  0.34129953026E+04 0.  0.
        4    1    3    3  502    0 -0.14882827132E+04  0.51055369100E+03  0.50694120923E+03  0.16530703277E+04  0.12699999809E+01 0. -1.
       -4    1    3    3    0  502  0.14882827132E+04 -0.51055369100E+03 -0.81993944631E+03  0.17742471119E+04  0.12699999809E+01 0.  1.
</event>
<event>
 5   0  0.1911477E-06  0.3395580E+04  0.7818609E-02  0.8138992E-01
        2   -1    0    0  501    0  0.00000000000E+00  0.00000000000E+00  0.26872707335E+04  0.26872707335E+04  0.25500000920E-02 0. -1.
       -2   -1    0    0    0  501  0.00000000000E+00  0.00000000000E+00 -0.10726461443E+04  0.10726461443E+04  0.25500000920E-02 0.  1.
    10030    2    1    2    0    0  0.00000000000E+00  0.00000000000E+00  0.16146245892E+04  0.37599168778E+04  0.33955798274E+04 0.  0.
        5    1    3    3  502    0  0.10229334812E+04 -0.10201316224E+04  0.17948621317E+04  0.23040428806E+04  0.46999998093E+01 0. -1.
       -5    1    3    3    0  502 -0.10229334812E+04  0.10201316224E+04 -0.18023754255E+03  0.14558739972E+04  0.46999998093E+01 0.  1.
</event>
<event>
 5   0  0.1948507E-06  0.3297026E+04  0.7818609E-02  0.8163653E-01
        2   -1    0    0  501    0  0.00000000000E+00  0.00000000000E+00  0.15422140790E+04  0.15422140790E+04  0.25500000920E-02 0. -1.
       -2   -1    0    0    0  501  0.00000000000E+00  0.00000000000E+00 -0.17621386588E+04  0.17621386588E+04  0.25500000920E-02 0.  1.
    10030    2    1    2    0    0  0.00000000000E+00  0.00000000000E+00 -0.21992457976E+03  0.33043527378E+04  0.32970259622E+04 0.  0.
        1    1    3    3  502    0  0.57767704855E+03  0.52524090757E+03 -0.15650862220E+04  0.17490236321E+04  0.50400001928E-02 0.  1.
       -1    1    3    3    0  502 -0.57767704855E+03 -0.52524090757E+03  0.13451616422E+04  0.15553291057E+04  0.50400001928E-02 0. -1.
</event>
<event>
 5   0  0.6134625E-07  0.3318427E+04  0.7818609E-02  0.8158223E-01
        1   -1    0    0  501    0  0.00000000000E+00  0.00000000000E+00  0.15970117326E+04  0.15970117326E+04  0.50400001928E-02 0.  1.
       -1   -1    0    0    0  501  0.00000000000E+00  0.00000000000E+00 -0.17238374354E+04  0.17238374354E+04  0.50400001928E-02 0. -1.
    10030    2    1    2    0    0  0.00000000000E+00  0.00000000000E+00 -0.12682570277E+03  0.33208491680E+04  0.33184265003E+04 0.  0.
        3    1    3    3  502    0 -0.40992679313E+03 -0.66106538495E+03  0.14032427317E+04  0.16044119151E+04  0.10100000352E+00 0.  1.
       -3    1    3    3    0  502  0.40992679313E+03  0.66106538495E+03 -0.15300684345E+04  0.17164372530E+04  0.10100000352E+00 0. -1.
</event>
<event>
 5   0  0.1339844E-06  0.3390225E+04  0.7818609E-02  0.8140310E-01
        2   -1    0    0  501    0  0.00000000000E+00  0.00000000000E+00  0.16407935248E+04  0.16407935248E+04  0.25500000920E-02 0.  1.
       -2   -1    0    0    0  501  0.00000000000E+00  0.00000000000E+00 -0.17512296875E+04  0.17512296875E+04  0.25500000920E-02 0. -1.
    10030    2    1    2    0    0  0.00000000000E+00  0.00000000000E+00 -0.11043616272E+03  0.33920232123E+04  0.33902249670E+04 0.  0.
        3    1    3    3  502    0 -0.66666484137E+03  0.53033518282E+02  0.15032190207E+04  0.16452726216E+04  0.10100000352E+00 0.  1.
       -3    1    3    3    0  502  0.66666484137E+03 -0.53033518282E+02 -0.16136551835E+04  0.17467505907E+04  0.10100000352E+00 0. -1.
</event>
<event>
 5   0  0.6134625E-07  0.2664095E+04  0.7818609E-02  0.8346750E-01
        1   -1    0    0  501    0  0.00000000000E+00  0.00000000000E+00  0.26991642095E+04  0.26991642095E+04  0.50400001928E-02 0.  1.
       -1   -1    0    0    0  501  0.00000000000E+00  0.00000000000E+00 -0.65737043340E+03  0.65737043342E+03  0.50400001928E-02 0. -1.
    10030    2    1    2    0    0  0.00000000000E+00  0.00000000000E+00  0.20417937761E+04  0.33565346429E+04  0.26640951531E+04 0.  0.
        1    1    3    3  502    0 -0.74587373654E+03  0.22329339108E+03  0.23826336361E+04  0.25066173648E+04  0.50400001928E-02 0.  1.
       -1    1    3    3    0  502  0.74587373654E+03 -0.22329339108E+03 -0.34083986008E+03  0.84991727809E+03  0.50400001928E-02 0. -1.
</event>
<event>
 5   0  0.1797075E-06  0.3594685E+04  0.7818609E-02  0.8091710E-01
        2   -1    0    0  501    0  0.00000000000E+00  0.00000000000E+00  0.25152569624E+04  0.25152569624E+04  0.25500000920E-02 0. -1.
       -2   -1    0    0    0  501  0.00000000000E+00  0.00000000000E+00 -0.12843380517E+04  0.12843380517E+04  0.25500000920E-02 0.  1.
    10030    2    1    2    0    0  0.00000000000E+00  0.00000000000E+00  0.12309189107E+04  0.37995950140E+04  0.35946850913E+04 0.  0.
        2    1    3    3  502    0  0.13121050253E+04 -0.65493662523E+03 -0.48294917185E+03  0.15439564382E+04  0.25500000920E-02 0.  1.
       -2    1    3    3    0  502 -0.13121050253E+04  0.65493662523E+03  0.17138680825E+04  0.22556385758E+04  0.25500000920E-02 0. -1.
</event>
<event>
 5   0  0.6218695E-07  0.3396778E+04  0.7818609E-02  0.8138698E-01
        1   -1    0    0  501    0  0.00000000000E+00  0.00000000000E+00  0.22746190040E+04  0.22746190040E+04  0.50400001928E-02 0.  1.
       -1   -1    0    0    0  501  0.00000000000E+00  0.00000000000E+00 -0.12681356368E+04  0.12681356368E+04  0.50400001928E-02 0. -1.
    10030    2    1    2    0    0  0.00000000000E+00  0.00000000000E+00  0.10064833672E+04  0.35427546408E+04  0.33967781318E+04 0.  0.
        2    1    3    3  502    0 -0.53698150052E+03  0.10551101254E+04 -0.76684275930E+03  0.14105510718E+04  0.25500000920E-02 0. -1.
       -2    1    3    3    0  502  0.53698150052E+03 -0.10551101254E+04  0.17733261265E+04  0.21322035690E+04  0.25500000920E-02 0.  1.
</event>
<event>
 5   0  0.6134625E-07  0.3412233E+04  0.7818609E-02  0.8134910E-01
        1   -1    0    0  501    0  0.00000000000E+00  0.00000000000E+00  0.20901851246E+04  0.20901851246E+04  0.50400001928E-02 0. -1.
       -1   -1    0    0    0  501  0.00000000000E+00  0.00000000000E+00 -0.13926199492E+04  0.13926199492E+04  0.50400001928E-02 0.  1.
    10030    2    1    2    0    0  0.00000000000E+00  0.00000000000E+00  0.69756517547E+03  0.34828050738E+04  0.34122329944E+04 0.  0.
        5    1    3    3  502    0 -0.77042604301E+03 -0.12872469876E+04  0.11781458612E+04  0.19075143132E+04  0.46999998093E+01 0.  1.
       -5    1    3    3    0  502  0.77042604301E+03  0.12872469876E+04 -0.48058068571E+03  0.15752907606E+04  0.46999998093E+01 0. -1.
</event>
<event>
 5   0  0.6134625E-07  0.3385741E+04  0.7818609E-02  0.8141415E-01
        1   -1    0    0  501    0  0.00000000000E+00  0.00000000000E+00  0.25487849895E+04  0.25487849895E+04  0.50400001928E-02 0. -1.
       -1   -1    0    0    0  501  0.00000000000E+00  0.00000000000E+00 -0.11243828355E+04  0.11243828356E+04  0.50400001928E-02 0.  1.
    10030    2    1    2    0    0  0.00000000000E+00  0.00000000000E+00  0.14244021540E+04  0.36731678251E+04  0.33857407424E+04 0.  0.
        1    1    3    3  502    0 -0.11045054484E+04 -0.12660622367E+04  0.48732640478E+03  0.17493807183E+04  0.50400001928E-02 0. -1.
       -1    1    3    3    0  502  0.11045054484E+04  0.12660622367E+04  0.93707574922E+03  0.19237871068E+04  0.50400001928E-02 0.  1.
</event>
<event>
 5   0  0.6218695E-07  0.3164725E+04  0.7818609E-02  0.8198196E-01
        1   -1    0    0  501    0  0.00000000000E+00  0.00000000000E+00  0.24160489971E+04  0.24160489971E+04  0.50400001928E-02 0. -1.
       -1   -1    0    0    0  501  0.00000000000E+00  0.00000000000E+00 -0.10363494959E+04  0.10363494959E+04  0.50400001928E-02 0.  1.
    10030    2    1    2    0    0  0.00000000000E+00  0.00000000000E+00  0.13796995012E+04  0.34523984929E+04  0.31647250497E+04 0.  0.
        2    1    3    3  502    0  0.83454665444E+03 -0.12463592747E+04  0.12396369332E+04  0.19459134837E+04  0.25500000920E-02 0. -1.
       -2    1    3    3    0  502 -0.83454665444E+03  0.12463592747E+04  0.14006256803E+03  0.15064850092E+04  0.25500000920E-02 0.  1.
</event>
<event>
 5   0  0.1339844E-06  0.3431296E+04  0.7818609E-02  0.8130268E-01
        2   -1    0    0  501    0  0.00000000000E+00  0.00000000000E+00  0.19853678720E+04  0.19853678720E+04  0.25500000920E-02 0.  1.
       -2   -1    0    0    0  501  0.00000000000E+00  0.00000000000E+00 -0.14825705886E+04  0.14825705886E+04  0.25500000920E-02 0. -1.
    10030    2    1    2    0    0  0.00000000000E+00  0.00000000000E+00  0.50279728335E+03  0.34679384606E+04  0.34312959736E+04 0.  0.
        3    1    3    3  502    0  0.10715004785E+04 -0.11219555070E+04  0.99171702127E+03  0.18413039118E+04  0.10100000352E+00 0.  1.
       -3    1    3    3    0  502 -0.10715004785E+04  0.11219555070E+04 -0.48891973792E+03  0.16266345488E+04  0.10100000352E+00 0. -1.
</event>
<event>
 5   0  0.1948507E-06  0.3400107E+04  0.7818609E-02  0.8137880E-01
       -2   -1    0    0    0  501  0.00000000000E+00  0.00000000000E+00  0.14302163532E+04  0.14302163532E+04  0.25500000920E-02 0. -1.
        2   -1    0    0  501    0  0.00000000000E+00  0.00000000000E+00 -0.20208008587E+04  0.20208008587E+04  0.25500000920E-02 0.  1.
    10030    2    1    2    0    0  0.00000000000E+00  0.00000000000E+00 -0.59058450557E+03  0.34510172119E+04  0.34001073128E+04 0.  0.
        1    1    3    3  502    0  0.14491568422E+04  0.71596491521E+03  0.23939831374E+03  0.16340051609E+04  0.50400001928E-02 0. -1.
       -1    1    3    3    0  502 -0.14491568422E+04 -0.71596491521E+03 -0.82998281931E+03  0.18170120510E+04  0.50400001928E-02 0.  1.
</event>
<event>
 5   0  0.1911477E-06  0.2858274E+04  0.7818609E-02  0.8285401E-01
       -2   -1    0    0    0  501  0.00000000000E+00  0.00000000000E+00  0.15445010059E+04  0.15445010059E+04  0.25500000920E-02 0. -1.
        2   -1    0    0  501    0  0.00000000000E+00  0.00000000000E+00 -0.13223903818E+04  0.13223903818E+04  0.25500000920E-02 0.  1.
    10030    2    1    2    0    0  0.00000000000E+00  0.00000000000E+00  0.22211062410E+03  0.28668913877E+04  0.28582744968E+04 0.  0.
        5    1    3    3  502    0  0.11633457002E+04  0.24384553870E+03 -0.68479582839E+03  0.13717876226E+04  0.46999998093E+01 0.  1.
       -5    1    3    3    0  502 -0.11633457002E+04 -0.24384553870E+03  0.90690645249E+03  0.14951037651E+04  0.46999998093E+01 0. -1.
</event>
<event>
 5   0  0.6218695E-07  0.3441856E+04  0.7818609E-02  0.8127709E-01
       -1   -1    0    0    0  501  0.00000000000E+00  0.00000000000E+00  0.20292309790E+04  0.20292309790E+04  0.50400001928E-02 0. -1.
        1   -1    0    0  501    0  0.00000000000E+00  0.00000000000E+00 -0.14594655600E+04  0.14594655600E+04  0.50400001928E-02 0.  1.
    10030    2    1    2    0    0  0.00000000000E+00  0.00000000000E+00  0.56976541903E+03  0.34886965390E+04  0.34418557361E+04 0.  0.
        2    1    3    3  502    0 -0.40135044224E+02 -0.49264349823E+03  0.19557350454E+04  0.20172278022E+04  0.25500000920E-02 0. -1.
       -2    1    3    3    0  502  0.40135044224E+02  0.49264349823E+03 -0.13859696264E+04  0.14714687368E+04  0.25500000920E-02 0.  1.
</event>
<event>
 5   0  0.6134625E-07  0.3325064E+04  0.7818609E-02  0.8156547E-01
        1   -1    0    0  501    0  0.00000000000E+00  0.00000000000E+00  0.27271923963E+04  0.27271923963E+04  0.50400001928E-02 0. -1.
       -1   -1    0    0    0  501  0.00000000000E+00  0.00000000000E+00 -0.10135010111E+04  0.10135010111E+04  0.50400001928E-02 0.  1.
    10030    2    1    2    0    0  0.00000000000E+00  0.00000000000E+00  0.17136913852E+04  0.37406934074E+04  0.33250637595E+04 0.  0.
        3    1    3    3  502    0  0.14230433912E+04 -0.44470546018E+03  0.16844633490E+04  0.22494959933E+04  0.10100000352E+00 0.  1.
       -3    1    3    3    0  502 -0.14230433912E+04  0.44470546018E+03  0.29228036197E+02  0.14911974141E+04  0.10100000352E+00 0. -1.
</event>
<event>
 5   0  0.6146388E-07  0.3365313E+04  0.7818609E-02  0.8146472E-01
       -1   -1    0    0    0  501  0.00000000000E+00  0.00000000000E+00  0.14868992046E+04  0.14868992046E+04  0.50400001928E-02 0. -1.
        1   -1    0    0  501    0  0.00000000000E+00  0.00000000000E+00 -0.19041864704E+04  0.19041864704E+04  0.50400001928E-02 0.  1.
    10030    2    1    2    0    0  0.00000000000E+00  0.00000000000E+00 -0.41728726571E+03  0.33910856750E+04  0.33653132682E+04 0.  0.
        4    1    3    3  502    0 -0.65742491836E+03  0.13562698615E+04 -0.96247456365E+03  0.17883048843E+04  0.12699999809E+01 0.  1.
       -4    1    3    3    0  502  0.65742491836E+03 -0.13562698615E+04  0.54518729794E+03  0.16027807908E+04  0.12699999809E+01 0. -1.
</event>
<event>
 5   0  0.1797075E-06  0.3326631E+04  0.7818609E-02  0.8156152E-01
        2   -1    0    0  501    0  0.00000000000E+00  0.00000000000E+00  0.21029689828E+04  0.21029689828E+04  0.25500000920E-02 0. -1.
       -2   -1    0    0    0  501  0.00000000000E+00  0.00000000000E+00 -0.13155774179E+04  0.13155774179E+04  0.25500000920E-02 0.  1.
    10030    2    1    2    0    0  0.00000000000E+00  0.00000000000E+00  0.78739156497E+03  0.34185464007E+04  0.33266310311E+04 0.  0.
        2    1    3    3  502    0 -0.91256512397E+03  0.48163492523E+03 -0.94690722361E+03  0.14004929835E+04  0.25500000920E-02 0.  1.
       -2    1    3    3    0  502  0.91256512397E+03 -0.48163492523E+03  0.17342987886E+04  0.20180534172E+04  0.25500000920E-02 0. -1.
</event>
<event>
 5   0  0.1948507E-06  0.3423292E+04  0.7818609E-02  0.8132213E-01
       -2   -1    0    0    0  501  0.00000000000E+00  0.00000000000E+00  0.13176747904E+04  0.13176747904E+04  0.25500000920E-02 0. -1.
        2   -1    0    0  501    0  0.00000000000E+00  0.00000000000E+00 -0.22234109914E+04  0.22234109914E+04  0.25500000920E-02 0.  1.
    10030    2    1    2    0    0  0.00000000000E+00  0.00000000000E+00 -0.90573620098E+03  0.35410857818E+04  0.34232923405E+04 0.  0.
        1    1    3    3  502    0  0.83488893126E+03 -0.69880519840E+03 -0.18190579804E+04  0.21199858889E+04  0.50400001928E-02 0.  1.
       -1    1    3    3    0  502 -0.83488893126E+03  0.69880519840E+03  0.91332177944E+03  0.14210998929E+04  0.50400001928E-02 0. -1.
</event>
<event>
 5   0  0.6134625E-07  0.3383590E+04  0.7818609E-02  0.8141946E-01
       -1   -1    0    0    0  501  0.00000000000E+00  0.00000000000E+00  0.15466413775E+04  0.15466413775E+04  0.50400001928E-02 0. -1.
        1   -1    0    0  501    0  0.00000000000E+00  0.00000000000E+00 -0.18505710619E+04  0.18505710619E+04  0.50400001928E-02 0.  1.
    10030    2    1    2    0    0  0.00000000000E+00  0.00000000000E+00 -0.30392968447E+03  0.33972124394E+04  0.33835896775E+04 0.  0.
        5    1    3    3  502    0 -0.10720653580E+04 -0.60677358829E+03  0.10122939871E+04  0.15944464637E+04  0.46999998093E+01 0. -1.
       -5    1    3    3    0  502  0.10720653580E+04  0.60677358829E+03 -0.13162236716E+04  0.18027659757E+04  0.46999998093E+01 0.  1.
</event>
<event>
 5   0  0.6146388E-07  0.3212694E+04  0.7818609E-02  0.8185473E-01
        1   -1    0    0  501    0  0.00000000000E+00  0.00000000000E+00  0.10612920257E+04  0.10612920257E+04  0.50400001928E-02 0. -1.
       -1   -1    0    0    0  501  0.00000000000E+00  0.00000000000E+00 -0.24313291556E+04  0.24313291557E+04  0.50400001928E-02 0.  1.
    10030    2    1    2    0    0  0.00000000000E+00  0.00000000000E+00 -0.13700371299E+04  0.34926211814E+04  0.32126937263E+04 0.  0.
        4    1    3    3  502    0  0.11789202070E+04 -0.96804348969E+03 -0.12322547666E+04  0.19609728389E+04  0.12699999809E+01 0.  1.
       -4    1    3    3    0  502 -0.11789202070E+04  0.96804348969E+03 -0.13778236337E+03  0.15316483424E+04  0.12699999809E+01 0. -1.
</event>
<event>
 5   0  0.1797075E-06  0.3352597E+04  0.7818609E-02  0.8149640E-01
       -2   -1    0    0    0  501  0.00000000000E+00  0.00000000000E+00  0.16709359714E+04  0.16709359714E+04  0.25500000920E-02 0. -1.
        2   -1    0    0  501    0  0.00000000000E+00  0.00000000000E+00 -0.16816782764E+04  0.16816782764E+04  0.25500000920E-02 0.  1.
    10030    2    1    2    0    0  0.00000000000E+00  0.00000000000E+00 -0.10742304994E+02  0.33526142478E+04  0.33525970377E+04 0.  0.
        2    1    3    3  502    0 -0.49186116322E+03 -0.11628910685E+04  0.10972376470E+04  0.16727741913E+04  0.25500000920E-02 0. -1.
       -2    1    3    3    0  502  0.49186116322E+03  0.11628910685E+04 -0.11079799520E+04  0.16798400564E+04  0.25500000920E-02 0.  1.
</event>
<event>
 5   0  0.6134625E-07  0.3362279E+04  0.7818609E-02  0.8147227E-01
        1   -1    0    0  501    0  0.00000000000E+00  0.00000000000E+00  0.20780650049E+04  0.20780650049E+04  0.50400001928E-02 0.  1.
       -1   -1    0    0    0  501  0.00000000000E+00  0.00000000000E+00 -0.13600298293E+04  0.13600298293E+04  0.50400001928E-02 0. -1.
    10030    2    1    2    0    0  0.00000000000E+00  0.00000000000E+00  0.71803517559E+03  0.34380948342E+04  0.33622792234E+04 0.  0.
        1    1    3    3  502    0  0.16048458556E+04  0.24255185822E+03 -0.88887731631E+02  0.16255038152E+04  0.50400001928E-02 0.  1.
       -1    1    3    3    0  502 -0.16048458556E+04 -0.24255185822E+03  0.80692290722E+03  0.18125910191E+04  0.50400001928E-02 0. -1.
</event>
<event>
 5   0  0.1948507E-06  0.3547434E+04  0.7818609E-02  0.8102640E-01
       -2   -1    0    0    0  501  0.00000000000E+00  0.00000000000E+00  0.13171144672E+04  0.13171144672E+04  0.25500000920E-02 0. -1.
        2   -1    0    0  501    0  0.00000000000E+00  0.00000000000E+00 -0.23886096553E+04  0.23886096553E+04  0.25500000920E-02 0.  1.
    10030    2    1    2    0    0  0.00000000000E+00  0.00000000000E+00 -0.10714951880E+04  0.37057241225E+04  0.35474341902E+04 0.  0.
        1    1    3    3  502    0 -0.73419707465E+03 -0.90713546157E+03 -0.19310625782E+04  0.22563117628E+04  0.50400001928E-02 0.  1.
       -1    1    3    3    0  502  0.73419707465E+03  0.90713546157E+03  0.85956739018E+03  0.14494123597E+04  0.50400001928E-02 0. -1.
</event>
<event>
 5   0  0.6134625E-07  0.3382009E+04  0.7818609E-02  0.8142336E-01
        1   -1    0    0  501    0  0.00000000000E+00  0.00000000000E+00  0.19072345506E+04  0.19072345506E+04  0.50400001928E-02 0. -1.
       -1   -1    0    0    0  501  0.00000000000E+00  0.00000000000E+00 -0.14992892787E+04  0.14992892787E+04  0.50400001928E-02 0.  1.
    10030    2    1    2    0    0  0.00000000000E+00  0.00000000000E+00  0.40794527193E+03  0.34065238293E+04  0.33820090560E+04 0.  0.
        3    1    3    3  502    0  0.11829061023E+04  0.11780068799E+04  0.47523731628E+03  0.17357469784E+04  0.10100000352E+00 0. -1.
       -3    1    3    3    0  502 -0.11829061023E+04 -0.11780068799E+04 -0.67292044350E+02  0.16707768509E+04  0.10100000352E+00 0.  1.
</event>
<event>
 5   0  0.1911477E-06  0.3424601E+04  0.7818609E-02  0.8131895E-01
        2   -1    0    0  501    0  0.00000000000E+00  0.00000000000E+00  0.16662484141E+04  0.16662484141E+04  0.25500000920E-02 0.  1.
       -2   -1    0    0    0  501  0.00000000000E+00  0.00000000000E+00 -0.17596255610E+04  0.17596255610E+04  0.25500000920E-02 0. -1.
    10030    2    1    2    0    0  0.00000000000E+00  0.00000000000E+00 -0.93377146864E+02  0.34258739751E+04  0.34246011742E+04 0.  0.
        5    1    3    3  502    0 -0.14710481376E+04 -0.81405348315E+03  0.27790931649E+03  0.17040896029E+04  0.46999998093E+01 0.  1.
       -5    1    3    3    0  502  0.14710481376E+04  0.81405348315E+03 -0.37128646336E+03  0.17217843722E+04  0.46999998093E+01 0. -1.
</event>
<event>
 5   0  0.1948507E-06  0.3313301E+04  0.7818609E-02  0.8159519E-01
        2   -1    0    0  501    0  0.00000000000E+00  0.00000000000E+00  0.17458030085E+04  0.17458030085E+04  0.25500000920E-02 0.  1.
       -2   -1    0    0    0  501  0.00000000000E+00  0.00000000000E+00 -0.15720504621E+04  0.15720504621E+04  0.25500000920E-02 0. -1.
    10030    2    1    2    0    0  0.00000000000E+00  0.00000000000E+00  0.17375254637E+03  0.33178534707E+04  0.33133007267E+04 0.  0.
        1    1    3    3  502    0 -0.61566282493E+03 -0.14473981741E+04  0.60767574921E+03  0.16862004639E+04  0.50400001928E-02 0. -1.
       -1    1    3    3    0  502  0.61566282493E+03  0.14473981741E+04 -0.43392320283E+03  0.16316530067E+04  0.50400001928E-02 0.  1.
</event>
<event>
 5   0  0.6218695E-07  0.3395491E+04  0.7818609E-02  0.8139014E-01
        1   -1    0    0  501    0  0.00000000000E+00  0.00000000000E+00  0.23955825108E+04  0.23955825108E+04  0.50400001928E-02 0.  1.
       -1   -1    0    0    0  501  0.00000000000E+00  0.00000000000E+00 -0.12031892142E+04  0.12031892142E+04  0.50400001928E-02 0. -1.
    10030    2    1    2    0    0  0.00000000000E+00  0.00000000000E+00  0.11923932966E+04  0.35987717249E+04  0.33954905617E+04 0.  0.
        2    1    3    3  502    0 -0.69236064135E+02 -0.12323135402E+04  0.18317266922E+04  0.22087582413E+04  0.25500000920E-02 0.  1.
       -2    1    3    3    0  502  0.69236064135E+02  0.12323135402E+04 -0.63933339558E+03  0.13900134836E+04  0.25500000920E-02 0. -1.
</event>
<event>
 5   0  0.1797075E-06  0.3284210E+04  0.7818609E-02  0.8166925E-01
       -2   -1    0    0    0  501  0.00000000000E+00  0.00000000000E+00  0.13921443451E+04  0.13921443451E+04  0.25500000920E-02 0.  1.
        2   -1    0    0  501    0  0.00000000000E+00  0.00000000000E+00 -0.19369465570E+04  0.19369465570E+04  0.25500000920E-02 0. -1.
    10030    2    1    2    0    0  0.00000000000E+00  0.00000000000E+00 -0.54480221188E+03  0.33290909021E+04  0.32842102224E+04 0.  0.
        2    1    3    3  502    0 -0.95454476494E+03 -0.23497857792E+03 -0.16057234206E+04  0.18827422404E+04  0.25500000920E-02 0. -1.
       -2    1    3    3    0  502  0.95454476494E+03  0.23497857792E+03  0.10609212087E+04  0.14463486618E+04  0.25500000920E-02 0.  1.
</event>
<event>
 5   0  0.1948507E-06  0.3423001E+04  0.7818609E-02  0.8132284E-01
        2   -1    0    0  501    0  0.00000000000E+00  0.00000000000E+00  0.17678486619E+04  0.17678486619E+04  0.25500000920E-02 0. -1.
       -2   -1    0    0    0  501  0.00000000000E+00  0.00000000000E+00 -0.16569482137E+04  0.16569482137E+04  0.25500000920E-02 0.  1.
    10030    2    1    2    0    0  0.00000000000E+00  0.00000000000E+00  0.11090044822E+03  0.34247968757E+04  0.34230008370E+04 0.  0.
        1    1    3    3  502    0  0.12898875810E+04 -0.11226281623E+04  0.12710986895E+03  0.17147188928E+04  0.50400001928E-02 0.  1.
       -1    1    3    3    0  502 -0.12898875810E+04  0.11226281623E+04 -0.16209420735E+02  0.17100779829E+04  0.50400001928E-02 0. -1.
</event>
<event>
 5   0  0.6218695E-07  0.2654759E+04  0.7818609E-02  0.8349835E-01
        1   -1    0    0  501    0  0.00000000000E+00  0.00000000000E+00  0.10934519936E+04  0.10934519936E+04  0.50400001928E-02 0. -1.
       -1   -1    0    0    0  501  0.00000000000E+00  0.00000000000E+00 -0.16113521601E+04  0.16113521601E+04  0.50400001928E-02 0.  1.
    10030    2    1    2    0    0  0.00000000000E+00  0.00000000000E+00 -0.51790016648E+03  0.27048041538E+04  0.26547589208E+04 0.  0.
        2    1    3    3  502    0  0.50797091465E+03  0.79295338441E+03 -0.12120670617E+04  0.15348993720E+04  0.25500000920E-02 0.  1.
       -2    1    3    3    0  502 -0.50797091465E+03 -0.79295338441E+03  0.69416689524E+03  0.11699047818E+04  0.25500000920E-02 0. -1.
</event>
<event>
 5   0  0.6218695E-07  0.3403697E+04  0.7818609E-02  0.8137000E-01
       -1   -1    0    0    0  501  0.00000000000E+00  0.00000000000E+00  0.12047693613E+04  0.12047693613E+04  0.50400001928E-02 0.  1.
        1   -1    0    0  501    0  0.00000000000E+00  0.00000000000E+00 -0.24040188502E+04  0.24040188502E+04  0.50400001928E-02 0. -1.
    10030    2    1    2    0    0  0.00000000000E+00  0.00000000000E+00 -0.11992494889E+04  0.36087882115E+04  0.34036969634E+04 0.  0.
        2    1    3    3  502    0 -0.10461188717E+04 -0.39211969743E+03 -0.19607902810E+04  0.22567279581E+04  0.25500000920E-02 0. -1.
       -2    1    3    3    0  502  0.10461188717E+04  0.39211969743E+03  0.76154079209E+03  0.13520602534E+04  0.25500000920E-02 0.  1.
</event>
<event>
 5   0  0.1911477E-06  0.3488907E+04  0.7818609E-02  0.8116424E-01
       -2   -1    0    0    0  501  0.00000000000E+00  0.00000000000E+00  0.18999412923E+04  0.18999412923E+04  0.25500000920E-02 0. -1.
        2   -1    0    0  501    0  0.00000000000E+00  0.00000000000E+00 -0.16016902931E+04  0.16016902931E+04  0.25500000920E-02 0.  1.
    10030    2    1    2    0    0  0.00000000000E+00  0.00000000000E+00  0.29825099918E+03  0.35016315854E+04  0.34889067201E+04 0.  0.
        5    1    3    3  502    0  0.74522283840E+03 -0.37128558565E+03  0.16876500529E+04  0.18818594145E+04  0.46999998093E+01 0. -1.
       -5    1    3    3    0  502 -0.74522283840E+03  0.37128558565E+03 -0.13893990537E+04  0.16197721709E+04  0.46999998093E+01 0.  1.
</event>
<event>
 5   0  0.6134625E-07  0.3347074E+04  0.7818609E-02  0.8151020E-01
        1   -1    0    0  501    0  0.00000000000E+00  0.00000000000E+00  0.18700411459E+04  0.18700411459E+04  0.50400001928E-02 0. -1.
       -1   -1    0    0    0  501  0.00000000000E+00  0.00000000000E+00 -0.14976812074E+04  0.14976812074E+04  0.50400001928E-02 0.  1.
    10030    2    1    2    0    0  0.00000000000E+00  0.00000000000E+00  0.37235993852E+03  0.33677223533E+04  0.33470736361E+04 0.  0.
        3    1    3    3  502    0  0.58746602022E+00 -0.16722307184E+04  0.11966959549E+03  0.16765073048E+04  0.10100000352E+00 0.  1.
       -3    1    3    3    0  502 -0.58746602022E+00  0.16722307184E+04  0.25269034303E+03  0.16912150485E+04  0.10100000352E+00 0. -1.
</event>
<event>
 5   0  0.6134625E-07  0.3358192E+04  0.7818609E-02  0.8148244E-01
        1   -1    0    0  501    0  0.00000000000E+00  0.00000000000E+00  0.21973099902E+04  0.21973099902E+04  0.50400001928E-02 0. -1.
       -1   -1    0    0    0  501  0.00000000000E+00  0.00000000000E+00 -0.12830978426E+04  0.12830978426E+04  0.50400001928E-02 0.  1.
    10030    2    1    2    0    0  0.00000000000E+00  0.00000000000E+00  0.91421214756E+03  0.34804078328E+04  0.33581921970E+04 0.  0.
        1    1    3    3  502    0  0.50885347634E+03  0.49577612116E+03  0.20338679755E+04  0.21543780459E+04  0.50400001928E-02 0. -1.
       -1    1    3    3    0  502 -0.50885347634E+03 -0.49577612116E+03 -0.11196558280E+04  0.13260297869E+04  0.50400001928E-02 0.  1.
</event>
<event>
 5   0  0.1339844E-06  0.3488025E+04  0.7818609E-02  0.8116634E-01
       -2   -1    0    0    0  501  0.00000000000E+00  0.00000000000E+00  0.12229588133E+04  0.12229588133E+04  0.25500000920E-02 0.  1.
        2   -1    0    0  501    0  0.00000000000E+00  0.00000000000E+00 -0.24870660558E+04  0.24870660558E+04  0.25500000920E-02 0. -1.
    10030    2    1    2    0    0  0.00000000000E+00  0.00000000000E+00 -0.12641072426E+04  0.37100248691E+04  0.34880248578E+04 0.  0.
        3    1    3    3  502    0 -0.37862185313E+03  0.16196712930E+04 -0.74384609773E+02  0.16649993049E+04  0.10100000352E+00 0.  1.
       -3    1    3    3    0  502  0.37862185313E+03 -0.16196712930E+04 -0.11897226328E+04  0.20450255642E+04  0.10100000352E+00 0. -1.
</event>
<event>
 5   0  0.1911477E-06  0.3418101E+04  0.7818609E-02  0.8133478E-01
        2   -1    0    0  501    0  0.00000000000E+00  0.00000000000E+00  0.21086362454E+04  0.21086362454E+04  0.25500000920E-02 0.  1.
       -2   -1    0    0    0  501  0.00000000000E+00  0.00000000000E+00 -0.13851862685E+04  0.13851862685E+04  0.25500000920E-02 0. -1.
    10030    2    1    2    0    0  0.00000000000E+00  0.00000000000E+00  0.72344997688E+03  0.34938225139E+04  0.34181012112E+04 0.  0.
        5    1    3    3  502    0  0.15673213956E+04  0.48110292653E+03  0.85498717125E+03  0.18490488193E+04  0.46999998093E+01 0.  1.
       -5    1    3    3    0  502 -0.15673213956E+04 -0.48110292653E+03 -0.13153719437E+03  0.16447736946E+04  0.46999998093E+01 0. -1.
</event>
<event>
 5   0  0.6134625E-07  0.3041517E+04  0.7818609E-02  0.8231974E-01
        1   -1    0    0  501    0  0.00000000000E+00  0.00000000000E+00  0.87691455184E+03  0.87691455186E+03  0.50400001928E-02 0.  1.
       -1   -1    0    0    0  501  0.00000000000E+00  0.00000000000E+00 -0.26373226071E+04  0.26373226071E+04  0.50400001928E-02 0. -1.
    10030    2    1    2    0    0  0.00000000000E+00  0.00000000000E+00 -0.17604080553E+04  0.35142371590E+04  0.30415171031E+04 0.  0.
        5    1    3    3  502    0  0.15066023033E+04  0.20693334675E+03 -0.87610729477E+03  0.17550663783E+04  0.46999998093E+01 0.  1.
       -5    1    3    3    0  502 -0.15066023033E+04 -0.20693334675E+03 -0.88430076049E+03  0.17591707806E+04  0.46999998093E+01 0. -1.
</event>
<event>
 5   0  0.6218695E-07  0.2713423E+04  0.7818609E-02  0.8330663E-01
       -1   -1    0    0    0  501  0.00000000000E+00  0.00000000000E+00  0.13540439591E+04  0.13540439591E+04  0.50400001928E-02 0. -1.
        1   -1    0    0  501    0  0.00000000000E+00  0.00000000000E+00 -0.13593845236E+04  0.13593845236E+04  0.50400001928E-02 0.  1.
    10030    2    1    2    0    0  0.00000000000E+00  0.00000000000E+00 -0.53405645258E+01  0.27134284827E+04  0.27134232270E+04 0.  0.
        2    1    3    3  502    0  0.52817335911E+03 -0.12286675098E+04  0.22553063168E+03  0.13562650968E+04  0.25500000920E-02 0. -1.
       -2    1    3    3    0  502 -0.52817335911E+03  0.12286675098E+04 -0.23087119621E+03  0.13571633859E+04  0.25500000920E-02 0.  1.
</event>
<event>
 5   0  0.1880301E-06  0.3368559E+04  0.7818609E-02  0.8145666E-01
       -2   -1    0    0    0  501  0.00000000000E+00  0.00000000000E+00  0.20875690758E+04  0.20875690758E+04  0.25500000920E-02 0.  1.
        2   -1    0    0  501    0  0.00000000000E+00  0.00000000000E+00 -0.13588998959E+04  0.13588998959E+04  0.25500000920E-02 0. -1.
    10030    2    1    2    0    0  0.00000000000E+00  0.00000000000E+00  0.72866917990E+03  0.34464689718E+04  0.33685589797E+04 0.  0.
        4    1    3    3  502    0 -0.65209109777E+03 -0.15361035194E+04  0.13111745149E+03  0.16739265877E+04  0.12699999809E+01 0. -1.
       -4    1    3    3    0  502  0.65209109777E+03  0.15361035194E+04  0.59755172841E+03  0.17725423840E+04  0.12699999809E+01 0.  1.
</event>
<event>
 5   0  0.1911477E-06  0.3406755E+04  0.7818609E-02  0.8136250E-01
        2   -1    0    0  501    0  0.00000000000E+00  0.00000000000E+00  0.13525333398E+04  0.13525333398E+04  0.25500000920E-02 0.  1.
       -2   -1    0    0    0  501  0.00000000000E+00  0.00000000000E+00 -0.21452299570E+04  0.21452299570E+04  0.25500000920E-02 0. -1.
    10030    2    1    2    0    0  0.00000000000E+00  0.00000000000E+00 -0.79269661717E+03  0.34977632967E+04  0.34067550768E+04 0.  0.
        5    1    3    3  502    0  0.24082685320E+03  0.14550316369E+04 -0.12713823716E+04  0.19471902481E+04  0.46999998093E+01 0. -1.
       -5    1    3    3    0  502 -0.24082685320E+03 -0.14550316369E+04  0.47868575442E+03  0.15505730486E+04  0.46999998093E+01 0.  1.
</event>
<event>
 5   0  0.6146388E-07  0.3408580E+04  0.7818609E-02  0.8135804E-01
        1   -1    0    0  501    0  0.00000000000E+00  0.00000000000E+00  0.31668277058E+04  0.31668277058E+04  0.50400001928E-02 0. -1.
       -1   -1    0    0    0  501  0.00000000000E+00  0.00000000000E+00 -0.91719660173E+03  0.91719660174E+03  0.50400001928E-02 0.  1.
    10030    2    1    2    0    0  0.00000000000E+00  0.00000000000E+00  0.22496311041E+04  0.40840243076E+04  0.34085795341E+04 0.  0.
        4    1    3    3  502    0  0.10945632707E+04  0.12365259884E+04  0.16296616299E+04  0.23200999794E+04  0.12699999809E+01 0. -1.
       -4    1    3    3    0  502 -0.10945632707E+04 -0.12365259884E+04  0.61996947418E+03  0.17639243281E+04  0.12699999809E+01 0.  1.
</event>
<event>
 5   0  0.1797075E-06  0.3364729E+04  0.7818609E-02  0.8146618E-01
       -2   -1    0    0    0  501  0.00000000000E+00  0.00000000000E+00  0.13198459795E+04  0.13198459795E+04  0.25500000920E-02 0. -1.
        2   -1    0    0  501    0  0.00000000000E+00  0.00000000000E+00 -0.21444552044E+04  0.21444552044E+04  0.25500000920E-02 0.  1.
    10030    2    1    2    0    0  0.00000000000E+00  0.00000000000E+00 -0.82460922488E+03  0.34643011839E+04  0.33647291598E+04 0.  0.
        2    1    3    3  502    0  0.30075745060E+03  0.62320741664E+03  0.11665377311E+04  0.13563380133E+04  0.25500000920E-02 0. -1.
       -2    1    3    3    0  502 -0.30075745060E+03 -0.62320741664E+03 -0.19911469560E+04  0.21079631706E+04  0.25500000920E-02 0.  1.
</event>
<event>
 5   0  0.6134625E-07  0.3395225E+04  0.7818609E-02  0.8139079E-01
       -3   -1    0    0    0  501  0.00000000000E+00  0.00000000000E+00  0.18743574558E+04  0.18743574585E+04  0.10100000352E+00 0. -1.
        3   -1    0    0  501    0  0.00000000000E+00  0.00000000000E+00 -0.15375337880E+04  0.15375337913E+04  0.10100000352E+00 0.  1.
    10030    2    1    2    0    0  0.00000000000E+00  0.00000000000E+00  0.33682366782E+03  0.34118912499E+04  0.33952248405E+04 0.  0.
        2    1    3    3  502    0  0.87845025201E+03  0.55428504391E+03 -0.11809307810E+04  0.15727378245E+04  0.25500000920E-02 0.  1.
       -2    1    3    3    0  502 -0.87845025201E+03 -0.55428504391E+03  0.15177544488E+04  0.18391534254E+04  0.25500000920E-02 0. -1.
</event>
<event>
 5   0  0.6218695E-07  0.3448595E+04  0.7818609E-02  0.8126082E-01
       -1   -1    0    0    0  501  0.00000000000E+00  0.00000000000E+00  0.14896647659E+04  0.14896647659E+04  0.50400001928E-02 0. -1.
        1   -1    0    0  501    0  0.00000000000E+00  0.00000000000E+00 -0.19958863543E+04  0.19958863543E+04  0.50400001928E-02 0.  1.
    10030    2    1    2    0    0  0.00000000000E+00  0.00000000000E+00 -0.50622158840E+03  0.34855511203E+04  0.34485948320E+04 0.  0.
        2    1    3    3  502    0 -0.78378912778E+03  0.15208295766E+04 -0.46977589526E+03  0.17742427651E+04  0.25500000920E-02 0.  1.
       -2    1    3    3    0  502  0.78378912778E+03 -0.15208295766E+04 -0.36445693139E+02  0.17113083552E+04  0.25500000920E-02 0. -1.
</event>
<event>
 5   0  0.1948507E-06  0.3403685E+04  0.7818609E-02  0.8137003E-01
        2   -1    0    0  501    0  0.00000000000E+00  0.00000000000E+00  0.20737926946E+04  0.20737926946E+04  0.25500000920E-02 0.  1.
       -2   -1    0    0    0  501  0.00000000000E+00  0.00000000000E+00 -0.13966039418E+04  0.13966039418E+04  0.25500000920E-02 0. -1.
    10030    2    1    2    0    0  0.00000000000E+00  0.00000000000E+00  0.67718875276E+03  0.34703966364E+04  0.34036845046E+04 0.  0.
        1    1    3    3  502    0  0.13210065867E+04 -0.10729436262E+04  0.33778860551E+03  0.17350410857E+04  0.50400001928E-02 0. -1.
       -1    1    3    3    0  502 -0.13210065867E+04  0.10729436262E+04  0.33940014724E+03  0.17353555506E+04  0.50400001928E-02 0.  1.
</event>
<event>
 5   0  0.6134625E-07  0.3264391E+04  0.7818609E-02  0.8172016E-01
       -1   -1    0    0    0  501  0.00000000000E+00  0.00000000000E+00  0.14518286368E+04  0.14518286368E+04  0.50400001928E-02 0. -1.
        1   -1    0    0  501    0  0.00000000000E+00  0.00000000000E+00 -0.18349700473E+04  0.18349700473E+04  0.50400001928E-02 0.  1.
    10030    2    1    2    0    0  0.00000000000E+00  0.00000000000E+00 -0.38314141047E+03  0.32867986841E+04  0.32643909462E+04 0.  0.
        1    1    3    3  502    0 -0.10481740224E+04  0.27285762441E+03 -0.14209936497E+04  0.17867129083E+04  0.50400001928E-02 0.  1.
       -1    1    3    3    0  502  0.10481740224E+04 -0.27285762441E+03  0.10378522392E+04  0.15000857758E+04  0.50400001928E-02 0. -1.
</event>
<event>
 5   0  0.6134625E-07  0.3074897E+04  0.7818609E-02  0.8222661E-01
       -1   -1    0    0    0  501  0.00000000000E+00  0.00000000000E+00  0.16540369422E+04  0.16540369422E+04  0.50400001928E-02 0.  1.
        1   -1    0    0  501    0  0.00000000000E+00  0.00000000000E+00 -0.14290783725E+04  0.14290783725E+04  0.50400001928E-02 0. -1.
    10030    2    1    2    0    0  0.00000000000E+00  0.00000000000E+00  0.22495856972E+03  0.30831153147E+04  0.30748973455E+04 0.  0.
        1    1    3    3  502    0  0.10571560929E+04  0.11162222177E+04  0.12726240914E+03  0.15426363035E+04  0.50400001928E-02 0.  1.
       -1    1    3    3    0  502 -0.10571560929E+04 -0.11162222177E+04  0.97696160587E+02  0.15404790112E+04  0.50400001928E-02 0. -1.
</event>
<event>
 5   0  0.1880301E-06  0.3444066E+04  0.7818609E-02  0.8127175E-01
       -2   -1    0    0    0  501  0.00000000000E+00  0.00000000000E+00  0.12948761106E+04  0.12948761106E+04  0.25500000920E-02 0. -1.
        2   -1    0    0  501    0  0.00000000000E+00  0.00000000000E+00 -0.22901011792E+04  0.22901011792E+04  0.25500000920E-02 0.  1.
    10030    2    1    2    0    0  0.00000000000E+00  0.00000000000E+00 -0.99522506867E+03  0.35849772898E+04  0.34440657995E+04 0.  0.
        4    1    3    3  502    0 -0.65184333691E+03 -0.14738681056E+04 -0.11292414894E+04  0.19678350751E+04  0.12699999809E+01 0. -1.
       -4    1    3    3    0  502  0.65184333691E+03  0.14738681056E+04  0.13401642074E+03  0.16171422147E+04  0.12699999809E+01 0.  1.
</event>
<event>
 5   0  0.1948507E-06  0.3490105E+04  0.7818609E-02  0.8116139E-01
       -2   -1    0    0    0  501  0.00000000000E+00  0.00000000000E+00  0.11125280304E+04  0.11125280304E+04  0.25500000920E-02 0. -1.
        2   -1    0    0  501    0  0.00000000000E+00  0.00000000000E+00 -0.27371968439E+04  0.27371968439E+04  0.25500000920E-02 0.  1.
    10030    2    1    2    0    0  0.00000000000E+00  0.00000000000E+00 -0.16246688135E+04  0.38497248743E+04  0.34901049918E+04 0.  0.
        1    1    3    3  502    0  0.84577722713E+03 -0.12518029085E+04 -0.17757489926E+04  0.23314446432E+04  0.50400001928E-02 0.  1.
       -1    1    3    3    0  502 -0.84577722713E+03  0.12518029085E+04  0.15108017902E+03  0.15182802311E+04  0.50400001928E-02 0. -1.
</event>
<event>
 5   0  0.1911477E-06  0.2566817E+04  0.7818609E-02  0.8379561E-01
       -2   -1    0    0    0  501  0.00000000000E+00  0.00000000000E+00  0.12941721401E+04  0.12941721401E+04  0.25500000920E-02 0.  1.
        2   -1    0    0  501    0  0.00000000000E+00  0.00000000000E+00 -0.12727348351E+04  0.12727348351E+04  0.25500000920E-02 0. -1.
    10030    2    1    2    0    0  0.00000000000E+00  0.00000000000E+00  0.21437304976E+02  0.25669069752E+04  0.25668174577E+04 0.  0.
        5    1    3    3  502    0 -0.21269982193E+03  0.11502671543E+04 -0.51727716062E+03  0.12790439755E+04  0.46999998093E+01 0. -1.
       -5    1    3    3    0  502  0.21269982193E+03 -0.11502671543E+04  0.53871446559E+03  0.12878629996E+04  0.46999998093E+01 0.  1.
</event>
<event>
 5   0  0.6146388E-07  0.3399848E+04  0.7818609E-02  0.8137944E-01
       -1   -1    0    0    0  501  0.00000000000E+00  0.00000000000E+00  0.16058020005E+04  0.16058020005E+04  0.50400001928E-02 0. -1.
        1   -1    0    0  501    0  0.00000000000E+00  0.00000000000E+00 -0.17995629630E+04  0.17995629630E+04  0.50400001928E-02 0.  1.
    10030    2    1    2    0    0  0.00000000000E+00  0.00000000000E+00 -0.19376096251E+03  0.34053649636E+04  0.33998481178E+04 0.  0.
        4    1    3    3  502    0 -0.14924011505E+04  0.27379691435E+03  0.67085807082E+03  0.16589991285E+04  0.12699999809E+01 0. -1.
       -4    1    3    3    0  502  0.14924011505E+04 -0.27379691435E+03 -0.86461903333E+03  0.17463658351E+04  0.12699999809E+01 0.  1.
</event>
<event>
 5   0  0.6134625E-07  0.3415703E+04  0.7818609E-02  0.8134063E-01
       -1   -1    0    0    0  501  0.00000000000E+00  0.00000000000E+00  0.18633155455E+04  0.18633155455E+04  0.50400001928E-02 0. -1.
        1   -1    0    0  501    0  0.00000000000E+00  0.00000000000E+00 -0.15653586516E+04  0.15653586516E+04  0.50400001928E-02 0.  1.
    10030    2    1    2    0    0  0.00000000000E+00  0.00000000000E+00  0.29795689385E+03  0.34286741971E+04  0.34157032130E+04 0.  0.
        3    1    3    3  502    0 -0.54456187062E+03  0.65393252594E+03 -0.13373814711E+04  0.15851702081E+04  0.10100000352E+00 0.  1.
       -3    1    3    3    0  502  0.54456187062E+03 -0.65393252594E+03  0.16353383649E+04  0.18435039890E+04  0.10100000352E+00 0. -1.
</event>
<event>
 5   0  0.1797075E-06  0.3288534E+04  0.7818609E-02  0.8165819E-01
       -2   -1    0    0    0  501  0.00000000000E+00  0.00000000000E+00  0.17322290603E+04  0.17322290603E+04  0.25500000920E-02 0. -1.
        2   -1    0    0  501    0  0.00000000000E+00  0.00000000000E+00 -0.15607712530E+04  0.15607712530E+04  0.25500000920E-02 0.  1.
    10030    2    1    2    0    0  0.00000000000E+00  0.00000000000E+00  0.17145780735E+03  0.32930003133E+04  0.32885336069E+04 0.  0.
        2    1    3    3  502    0  0.50646195730E+03 -0.10702696975E+04  0.12281695853E+04  0.17059840181E+04  0.25500000920E-02 0. -1.
       -2    1    3    3    0  502 -0.50646195730E+03  0.10702696975E+04 -0.10567117780E+04  0.15870162952E+04  0.25500000920E-02 0.  1.
</event>
<event>
 5   0  0.6146388E-07  0.3602732E+04  0.7818609E-02  0.8089866E-01
        1   -1    0    0  501    0  0.00000000000E+00  0.00000000000E+00  0.15762751236E+04  0.15762751236E+04  0.50400001928E-02 0.  1.
       -1   -1    0    0    0  501  0.00000000000E+00  0.00000000000E+00 -0.20586001832E+04  0.20586001832E+04  0.50400001928E-02 0. -1.
    10030    2    1    2    0    0  0.00000000000E+00  0.00000000000E+00 -0.48232505963E+03  0.36348753069E+04  0.36027324399E+04 0.  0.
        4    1    3    3  502    0 -0.10684629410E+04  0.92219414404E+03  0.88813764196E+03  0.16675866333E+04  0.12699999809E+01 0.  1.
       -4    1    3    3    0  502  0.10684629410E+04 -0.92219414404E+03 -0.13704627016E+04  0.19672886735E+04  0.12699999809E+01 0. -1.
</event>
<event>
 5   0  0.1911477E-06  0.3392364E+04  0.7818609E-02  0.8139783E-01
        2   -1    0    0  501    0  0.00000000000E+00  0.00000000000E+00  0.12064423779E+04  0.12064423779E+04  0.25500000920E-02 0.  1.
       -2   -1    0    0    0  501  0.00000000000E+00  0.00000000000E+00 -0.23847250843E+04  0.23847250843E+04  0.25500000920E-02 0. -1.
    10030    2    1    2    0    0  0.00000000000E+00  0.00000000000E+00 -0.11782827065E+04  0.35911674622E+04  0.33923640143E+04 0.  0.
        5    1    3    3  502    0  0.11374384813E+04 -0.51358696602E+03  0.62685853863E+03  0.13966071702E+04  0.46999998093E+01 0.  1.
       -5    1    3    3    0  502 -0.11374384813E+04  0.51358696602E+03 -0.18051412451E+04  0.21945602920E+04  0.46999998093E+01 0. -1.
</event>
<event>
 5   0  0.6134625E-07  0.3426852E+04  0.7818609E-02  0.8131347E-01
       -1   -1    0    0    0  501  0.00000000000E+00  0.00000000000E+00  0.17044315577E+04  0.17044315577E+04  0.50400001928E-02 0. -1.
        1   -1    0    0  501    0  0.00000000000E+00  0.00000000000E+00 -0.17224683567E+04  0.17224683567E+04  0.50400001928E-02 0.  1.
    10030    2    1    2    0    0  0.00000000000E+00  0.00000000000E+00 -0.18036799001E+02  0.34268999144E+04  0.34268524475E+04 0.  0.
        5    1    3    3  502    0  0.15449785794E+04  0.70611467445E+03 -0.23318793856E+03  0.17146298285E+04  0.46999998093E+01 0.  1.
       -5    1    3    3    0  502 -0.15449785794E+04 -0.70611467445E+03  0.21515113956E+03  0.17122700859E+04  0.46999998093E+01 0. -1.
</event>
<event>
 5   0  0.6146388E-07  0.2962815E+04  0.7818609E-02  0.8254430E-01
       -1   -1    0    0    0  501  0.00000000000E+00  0.00000000000E+00  0.25574910653E+04  0.25574910653E+04  0.50400001928E-02 0. -1.
        1   -1    0    0  501    0  0.00000000000E+00  0.00000000000E+00 -0.85809421741E+03  0.85809421743E+03  0.50400001928E-02 0.  1.
    10030    2    1    2    0    0  0.00000000000E+00  0.00000000000E+00  0.16993968479E+04  0.34155852827E+04  0.29628150764E+04 0.  0.
        4    1    3    3  502    0 -0.67194154308E+03 -0.13009627136E+04  0.59048806092E+03  0.15788246205E+04  0.12699999809E+01 0. -1.
       -4    1    3    3    0  502  0.67194154308E+03  0.13009627136E+04  0.11089087870E+04  0.18367606622E+04  0.12699999809E+01 0.  1.
</event>
<event>
 5   0  0.1797075E-06  0.3397873E+04  0.7818609E-02  0.8138429E-01
       -2   -1    0    0    0  501  0.00000000000E+00  0.00000000000E+00  0.21741977347E+04  0.21741977347E+04  0.25500000920E-02 0. -1.
        2   -1    0    0  501    0  0.00000000000E+00  0.00000000000E+00 -0.13275631006E+04  0.13275631006E+04  0.25500000920E-02 0.  1.
    10030    2    1    2    0    0  0.00000000000E+00  0.00000000000E+00  0.84663463411E+03  0.35017608352E+04  0.33978726791E+04 0.  0.
        2    1    3    3  502    0 -0.67376893755E+03  0.14318312401E+04  0.10605086061E+04  0.19049366880E+04  0.25500000920E-02 0. -1.
       -2    1    3    3    0  502  0.67376893755E+03 -0.14318312401E+04 -0.21387397204E+03  0.15968241473E+04  0.25500000920E-02 0.  1.
</event>
<event>
 5   0  0.6134625E-07  0.3391519E+04  0.7818609E-02  0.8139991E-01
        1   -1    0    0  501    0  0.00000000000E+00  0.00000000000E+00  0.21246571217E+04  0.21246571217E+04  0.50400001928E-02 0. -1.
       -1   -1    0    0    0  501  0.00000000000E+00  0.00000000000E+00 -0.13534424339E+04  0.13534424339E+04  0.50400001928E-02 0.  1.
    10030    2    1    2    0    0  0.00000000000E+00  0.00000000000E+00  0.77121468780E+03  0.34780995556E+04  0.33915194860E+04 0.  0.
        5    1    3    3  502    0  0.13123005017E+04  0.21402029139E+03 -0.69370550127E+03  0.14997288769E+04  0.46999998093E+01 0. -1.
       -5    1    3    3    0  502 -0.13123005017E+04 -0.21402029139E+03  0.14649201891E+04  0.19783706786E+04  0.46999998093E+01 0.  1.
</event>
<event>
 5   0  0.1948507E-06  0.3321360E+04  0.7818609E-02  0.8157481E-01
       -2   -1    0    0    0  501  0.00000000000E+00  0.00000000000E+00  0.16822910376E+04  0.16822910376E+04  0.25500000920E-02 0. -1.
        2   -1    0    0  501    0  0.00000000000E+00  0.00000000000E+00 -0.16393470252E+04  0.16393470252E+04  0.25500000920E-02 0.  1.
    10030    2    1    2    0    0  0.00000000000E+00  0.00000000000E+00  0.42944012325E+02  0.33216380628E+04  0.33213604490E+04 0.  0.
        1    1    3    3  502    0  0.57809033577E+03  0.15451063545E+04  0.21205740996E+03  0.16632830271E+04  0.50400001928E-02 0. -1.
       -1    1    3    3    0  502 -0.57809033577E+03 -0.15451063545E+04 -0.16911339763E+03  0.16583550357E+04  0.50400001928E-02 0.  1.
</event>
<event>
 5   0  0.6146388E-07  0.3354875E+04  0.7818609E-02  0.8149071E-01
       -1   -1    0    0    0  501  0.00000000000E+00  0.00000000000E+00  0.17643126952E+04  0.17643126952E+04  0.50400001928E-02 0.  1.
        1   -1    0    0  501    0  0.00000000000E+00  0.00000000000E+00 -0.15948397017E+04  0.15948397017E+04  0.50400001928E-02 0. -1.
    10030    2    1    2    0    0  0.00000000000E+00  0.00000000000E+00  0.16947299351E+03  0.33591523969E+04  0.33548746221E+04 0.  0.
        4    1    3    3  502    0  0.54000939711E+02  0.71064464208E+03 -0.14357063777E+04  0.16028681558E+04  0.12699999809E+01 0. -1.
       -4    1    3    3    0  502 -0.54000939711E+02 -0.71064464208E+03  0.16051793713E+04  0.17562842411E+04  0.12699999809E+01 0.  1.
</event>
<event>
 5   0  0.6134625E-07  0.2763565E+04  0.7818609E-02  0.8314670E-01
       -4   -1    0    0    0  501  0.00000000000E+00  0.00000000000E+00  0.14107532427E+04  0.14107538143E+04  0.12699999809E+01 0.  1.
        4   -1    0    0  501    0  0.00000000000E+00  0.00000000000E+00 -0.13534059328E+04  0.13534065286E+04  0.12699999809E+01 0. -1.
    10030    2    1    2    0    0  0.00000000000E+00  0.00000000000E+00  0.57347309931E+02  0.27641603430E+04  0.27635653941E+04 0.  0.
        1    1    3    3  502    0 -0.31615452789E+03 -0.25368881927E+03  0.13499469587E+04  0.14094922823E+04  0.50400001928E-02 0.  1.
       -1    1    3    3    0  502  0.31615452789E+03  0.25368881927E+03 -0.12925996488E+04  0.13546680607E+04  0.50400001928E-02 0. -1.
</event>
<event>
 5   0  0.1880301E-06  0.3427153E+04  0.7818609E-02  0.8131274E-01
       -2   -1    0    0    0  501  0.00000000000E+00  0.00000000000E+00  0.13730058732E+04  0.13730058732E+04  0.25500000920E-02 0.  1.
        2   -1    0    0  501    0  0.00000000000E+00  0.00000000000E+00 -0.21386251473E+04  0.21386251473E+04  0.25500000920E-02 0. -1.
    10030    2    1    2    0    0  0.00000000000E+00  0.00000000000E+00 -0.76561927404E+03  0.35116310205E+04  0.34271532722E+04 0.  0.
        4    1    3    3  502    0  0.30154641819E+03 -0.92502658129E+03  0.10625415703E+04  0.14406944922E+04  0.12699999809E+01 0.  1.
       -4    1    3    3    0  502 -0.30154641819E+03  0.92502658129E+03 -0.18281608443E+04  0.20709365283E+04  0.12699999809E+01 0. -1.
</event>
<event>
 5   0  0.1797075E-06  0.3408297E+04  0.7818609E-02  0.8135873E-01
       -2   -1    0    0    0  501  0.00000000000E+00  0.00000000000E+00  0.16199904855E+04  0.16199904855E+04  0.25500000920E-02 0.  1.
        2   -1    0    0  501    0  0.00000000000E+00  0.00000000000E+00 -0.17926781621E+04  0.17926781621E+04  0.25500000920E-02 0. -1.
    10030    2    1    2    0    0  0.00000000000E+00  0.00000000000E+00 -0.17268767664E+03  0.34126686476E+04  0.34082966808E+04 0.  0.
        2    1    3    3  502    0  0.38008639914E+03 -0.16261242911E+04  0.25376183585E+03  0.16891243146E+04  0.25500000920E-02 0. -1.
       -2    1    3    3    0  502 -0.38008639914E+03  0.16261242911E+04 -0.42644951249E+03  0.17235443330E+04  0.25500000920E-02 0.  1.
</event>
<event>
 5   0  0.1880301E-06  0.3412035E+04  0.7818609E-02  0.8134959E-01
        2   -1    0    0  501    0  0.00000000000E+00  0.00000000000E+00  0.11274205652E+04  0.11274205652E+04  0.25500000920E-02 0.  1.
       -2   -1    0    0    0  501  0.00000000000E+00  0.00000000000E+00 -0.25815533158E+04  0.25815533158E+04  0.25500000920E-02 0. -1.
    10030    2    1    2    0    0  0.00000000000E+00  0.00000000000E+00 -0.14541327506E+04  0.37089738809E+04  0.34120353446E+04 0.  0.
        4    1    3    3  502    0  0.53448390344E+03 -0.82893579241E+03 -0.22402167059E+04  0.24477295792E+04  0.12699999809E+01 0. -1.
       -4    1    3    3    0  502 -0.53448390344E+03  0.82893579241E+03  0.78608395524E+03  0.12612443017E+04  0.12699999809E+01 0.  1.
</event>
<event>
 5   0  0.1911477E-06  0.3390291E+04  0.7818609E-02  0.8140293E-01
        2   -1    0    0  501    0  0.00000000000E+00  0.00000000000E+00  0.23572022665E+04  0.23572022666E+04  0.25500000920E-02 0.  1.
       -2   -1    0    0    0  501  0.00000000000E+00  0.00000000000E+00 -0.12190373869E+04  0.12190373869E+04  0.25500000920E-02 0. -1.
    10030    2    1    2    0    0  0.00000000000E+00  0.00000000000E+00  0.11381648796E+04  0.35762396535E+04  0.33902906610E+04 0.  0.
        5    1    3    3  502    0 -0.67474980098E+03 -0.51065804088E+03  0.21184651646E+04  0.22812224075E+04  0.46999998093E+01 0.  1.
       -5    1    3    3    0  502  0.67474980098E+03  0.51065804088E+03 -0.98030028502E+03  0.12950172460E+04  0.46999998093E+01 0. -1.
</event>
<event>
 5   0  0.1948507E-06  0.2767611E+04  0.7818609E-02  0.8313395E-01
        2   -1    0    0  501    0  0.00000000000E+00  0.00000000000E+00  0.13412204653E+04  0.13412204653E+04  0.25500000920E-02 0. -1.
       -2   -1    0    0    0  501  0.00000000000E+00  0.00000000000E+00 -0.14277424666E+04  0.14277424666E+04  0.25500000920E-02 0.  1.
    10030    2    1    2    0    0  0.00000000000E+00  0.00000000000E+00 -0.86522001227E+02  0.27689629319E+04  0.27676108219E+04 0.  0.
        1    1    3    3  502    0  0.66658648668E+02 -0.72314494426E+03 -0.12217734169E+04  0.14213065356E+04  0.50400001928E-02 0.  1.
       -1    1    3    3    0  502 -0.66658648668E+02  0.72314494426E+03  0.11352514156E+04  0.13476563963E+04  0.50400001928E-02 0. -1.
</event>
<event>
 5   0  0.6146388E-07  0.3437114E+04  0.7818609E-02  0.8128857E-01
       -1   -1    0    0    0  501  0.00000000000E+00  0.00000000000E+00  0.11487920726E+04  0.11487920726E+04  0.50400001928E-02 0. -1.
        1   -1    0    0  501    0  0.00000000000E+00  0.00000000000E+00 -0.25709074637E+04  0.25709074637E+04  0.50400001928E-02 0.  1.
    10030    2    1    2    0    0  0.00000000000E+00  0.00000000000E+00 -0.14221153910E+04  0.37196995363E+04  0.34371139718E+04 0.  0.
        4    1    3    3  502    0  0.11246147773E+04 -0.36180417935E+03  0.63966565962E+03  0.13434412643E+04  0.12699999809E+01 0. -1.
       -4    1    3    3    0  502 -0.11246147773E+04  0.36180417935E+03 -0.20617810507E+04  0.23762582720E+04  0.12699999809E+01 0.  1.
</event>
<event>
 5   0  0.6218695E-07  0.3325521E+04  0.7818609E-02  0.8156432E-01
        1   -1    0    0  501    0  0.00000000000E+00  0.00000000000E+00  0.13724141845E+04  0.13724141845E+04  0.50400001928E-02 0.  1.
       -1   -1    0    0    0  501  0.00000000000E+00  0.00000000000E+00 -0.20145315584E+04  0.20145315584E+04  0.50400001928E-02 0. -1.
    10030    2    1    2    0    0  0.00000000000E+00  0.00000000000E+00 -0.64211737386E+03  0.33869457429E+04  0.33255205222E+04 0.  0.
        2    1    3    3  502    0  0.10557943045E+04  0.57975790091E+03  0.84639098417E+03  0.14721408001E+04  0.25500000920E-02 0.  1.
       -2    1    3    3    0  502 -0.10557943045E+04 -0.57975790091E+03 -0.14885083580E+04  0.19148049428E+04  0.25500000920E-02 0. -1.
</event>
<event>
 5   0  0.6146388E-07  0.2760782E+04  0.7818609E-02  0.8315548E-01
       -1   -1    0    0    0  501  0.00000000000E+00  0.00000000000E+00  0.10940631652E+04  0.10940631652E+04  0.50400001928E-02 0.  1.
        1   -1    0    0  501    0  0.00000000000E+00  0.00000000000E+00 -0.17416539345E+04  0.17416539345E+04  0.50400001928E-02 0. -1.
    10030    2    1    2    0    0  0.00000000000E+00  0.00000000000E+00 -0.64759076933E+03  0.28357170998E+04  0.27607820749E+04 0.  0.
        4    1    3    3  502    0 -0.74753053930E+03  0.26148906775E+03 -0.14851024330E+04  0.16830654441E+04  0.12699999809E+01 0. -1.
       -4    1    3    3    0  502  0.74753053930E+03 -0.26148906775E+03  0.83751166363E+03  0.11526516557E+04  0.12699999809E+01 0.  1.
</event>
<event>
 5   0  0.1880301E-06  0.3240208E+04  0.7818609E-02  0.8178278E-01
        2   -1    0    0  501    0  0.00000000000E+00  0.00000000000E+00  0.17145872476E+04  0.17145872476E+04  0.25500000920E-02 0. -1.
       -2   -1    0    0    0  501  0.00000000000E+00  0.00000000000E+00 -0.15308277463E+04  0.15308277463E+04  0.25500000920E-02 0.  1.
    10030    2    1    2    0    0  0.00000000000E+00  0.00000000000E+00  0.18375950131E+03  0.32454149939E+04  0.32402084699E+04 0.  0.
        4    1    3    3  502    0  0.91032789895E+03 -0.10251987696E+04  0.95640439916E+03  0.16716579759E+04  0.12699999809E+01 0.  1.
       -4    1    3    3    0  502 -0.91032789895E+03  0.10251987696E+04 -0.77264489784E+03  0.15737570180E+04  0.12699999809E+01 0. -1.
</event>
<event>
 5   0  0.6134625E-07  0.3393664E+04  0.7818609E-02  0.8139463E-01
        1   -1    0    0  501    0  0.00000000000E+00  0.00000000000E+00  0.24936840426E+04  0.24936840426E+04  0.50400001928E-02 0.  1.
       -1   -1    0    0    0  501  0.00000000000E+00  0.00000000000E+00 -0.11546126519E+04  0.11546126520E+04  0.50400001928E-02 0. -1.
    10030    2    1    2    0    0  0.00000000000E+00  0.00000000000E+00  0.13390713906E+04  0.36482966945E+04  0.33936641823E+04 0.  0.
        1    1    3    3  502    0  0.81033560615E+03 -0.14153349223E+04  0.11731079271E+04  0.20089795781E+04  0.50400001928E-02 0.  1.
       -1    1    3    3    0  502 -0.81033560615E+03  0.14153349223E+04  0.16596346354E+03  0.16393171164E+04  0.50400001928E-02 0. -1.
</event>
<event>
 5   0  0.6134625E-07  0.3382133E+04  0.7818609E-02  0.8142306E-01
        1   -1    0    0  501    0  0.00000000000E+00  0.00000000000E+00  0.15231499602E+04  0.15231499602E+04  0.50400001928E-02 0.  1.
       -1   -1    0    0    0  501  0.00000000000E+00  0.00000000000E+00 -0.18774942868E+04  0.18774942868E+04  0.50400001928E-02 0. -1.
    10030    2    1    2    0    0  0.00000000000E+00  0.00000000000E+00 -0.35434432660E+03  0.34006442471E+04  0.33821326694E+04 0.  0.
        5    1    3    3  502    0 -0.91423188380E+03  0.83006818880E+03 -0.13388529720E+04  0.18213683060E+04  0.46999998093E+01 0. -1.
       -5    1    3    3    0  502  0.91423188380E+03 -0.83006818880E+03  0.98450864536E+03  0.15792759411E+04  0.46999998093E+01 0.  1.
</event>
<event>
 5   0  0.6134625E-07  0.3372728E+04  0.7818609E-02  0.8144632E-01
        1   -1    0    0  501    0  0.00000000000E+00  0.00000000000E+00  0.19347002874E+04  0.19347002874E+04  0.50400001928E-02 0.  1.
       -1   -1    0    0    0  501  0.00000000000E+00  0.00000000000E+00 -0.14699035957E+04  0.14699035957E+04  0.50400001928E-02 0. -1.
    10030    2    1    2    0    0  0.00000000000E+00  0.00000000000E+00  0.46479669177E+03  0.34046038831E+04  0.33727276255E+04 0.  0.
        3    1    3    3  502    0  0.65080242198E+02 -0.14669856219E+04 -0.60461909831E+03  0.15880322784E+04  0.10100000352E+00 0. -1.
       -3    1    3    3    0  502 -0.65080242198E+02  0.14669856219E+04  0.10694157901E+04  0.18165716047E+04  0.10100000352E+00 0.  1.
</event>
<event>
 5   0  0.1797075E-06  0.3398795E+04  0.7818609E-02  0.8138202E-01
       -2   -1    0    0    0  501  0.00000000000E+00  0.00000000000E+00  0.15054388089E+04  0.15054388089E+04  0.25500000920E-02 0. -1.
        2   -1    0    0  501    0  0.00000000000E+00  0.00000000000E+00 -0.19183456795E+04  0.19183456795E+04  0.25500000920E-02 0.  1.
    10030    2    1    2    0    0  0.00000000000E+00  0.00000000000E+00 -0.41290687061E+03  0.34237844884E+04  0.33987951011E+04 0.  0.
        2    1    3    3  502    0 -0.56350693903E+03 -0.95819228399E+03  0.10884076979E+04  0.15557325735E+04  0.25500000920E-02 0. -1.
       -2    1    3    3    0  502  0.56350693903E+03  0.95819228399E+03 -0.15013145685E+04  0.18680519149E+04  0.25500000920E-02 0.  1.
</event>
<event>
 5   0  0.1797075E-06  0.2556065E+04  0.7818609E-02  0.8383280E-01
       -2   -1    0    0    0  501  0.00000000000E+00  0.00000000000E+00  0.15029064274E+04  0.15029064274E+04  0.25500000920E-02 0.  1.
        2   -1    0    0  501    0  0.00000000000E+00  0.00000000000E+00 -0.10868058465E+04  0.10868058465E+04  0.25500000920E-02 0. -1.
    10030    2    1    2    0    0  0.00000000000E+00  0.00000000000E+00  0.41610058094E+03  0.25897122739E+04  0.25560653294E+04 0.  0.
        2    1    3    3  502    0 -0.39749203570E+03 -0.79292413141E+03  0.11402923090E+04  0.14446436054E+04  0.25500000920E-02 0.  1.
       -2    1    3    3    0  502  0.39749203570E+03  0.79292413141E+03 -0.72419172808E+03  0.11450686685E+04  0.25500000920E-02 0. -1.
</event>
<event>
 5   0  0.6134625E-07  0.3462538E+04  0.7818609E-02  0.8122726E-01
       -3   -1    0    0    0  501  0.00000000000E+00  0.00000000000E+00  0.22825970527E+04  0.22825970549E+04  0.10100000352E+00 0.  1.
        3   -1    0    0  501    0  0.00000000000E+00  0.00000000000E+00 -0.13131061873E+04  0.13131061912E+04  0.10100000352E+00 0. -1.
    10030    2    1    2    0    0  0.00000000000E+00  0.00000000000E+00  0.96949086539E+03  0.35957032461E+04  0.34625379848E+04 0.  0.
        2    1    3    3  502    0  0.12583769760E+04 -0.10274620372E+04 -0.13668475865E+03  0.16302986153E+04  0.25500000920E-02 0.  1.
       -2    1    3    3    0  502 -0.12583769760E+04  0.10274620372E+04  0.11061756240E+04  0.19654046309E+04  0.25500000920E-02 0. -1.
</event>
<event>
 5   0  0.1880301E-06  0.3410799E+04  0.7818609E-02  0.8135261E-01
       -2   -1    0    0    0  501  0.00000000000E+00  0.00000000000E+00  0.14715198574E+04  0.14715198574E+04  0.25500000920E-02 0.  1.
        2   -1    0    0  501    0  0.00000000000E+00  0.00000000000E+00 -0.19764514014E+04  0.19764514014E+04  0.25500000920E-02 0. -1.
    10030    2    1    2    0    0  0.00000000000E+00  0.00000000000E+00 -0.50493154399E+03  0.34479712588E+04  0.34107990175E+04 0.  0.
        4    1    3    3  502    0  0.63683168419E+03  0.17830745215E+03 -0.18415510206E+04  0.19566961736E+04  0.12699999809E+01 0. -1.
       -4    1    3    3    0  502 -0.63683168419E+03 -0.17830745215E+03  0.13366194766E+04  0.14912750852E+04  0.12699999809E+01 0.  1.
</event>
<event>
 5   0  0.6134625E-07  0.3127397E+04  0.7818609E-02  0.8208259E-01
        3   -1    0    0  501    0  0.00000000000E+00  0.00000000000E+00  0.13645719122E+04  0.13645719160E+04  0.10100000352E+00 0. -1.
       -3   -1    0    0    0  501  0.00000000000E+00  0.00000000000E+00 -0.17918822902E+04  0.17918822930E+04  0.10100000352E+00 0.  1.
    10030    2    1    2    0    0  0.00000000000E+00  0.00000000000E+00 -0.42731037795E+03  0.31564542090E+04  0.31273965234E+04 0.  0.
        2    1    3    3  502    0 -0.12621899061E+04 -0.62984646320E+03  0.46739013875E+03  0.14860294304E+04  0.25500000920E-02 0. -1.
       -2    1    3    3    0  502  0.12621899061E+04  0.62984646320E+03 -0.89470051671E+03  0.16704247786E+04  0.25500000920E-02 0.  1.
</event>
<event>
 5   0  0.6134625E-07  0.3398867E+04  0.7818609E-02  0.8138184E-01
       -1   -1    0    0    0  501  0.00000000000E+00  0.00000000000E+00  0.16713965361E+04  0.16713965361E+04  0.50400001928E-02 0.  1.
        1   -1    0    0  501    0  0.00000000000E+00  0.00000000000E+00 -0.17279408270E+04  0.17279408270E+04  0.50400001928E-02 0. -1.
    10030    2    1    2    0    0  0.00000000000E+00  0.00000000000E+00 -0.56544290830E+02  0.33993373631E+04  0.33988670541E+04 0.  0.
        5    1    3    3  502    0  0.58291732489E+03  0.15961662713E+04 -0.56228316932E+01  0.16992919348E+04  0.46999998093E+01 0.  1.
       -5    1    3    3    0  502 -0.58291732489E+03 -0.15961662713E+04 -0.50921459137E+02  0.17000454283E+04  0.46999998093E+01 0. -1.
</event>
<event>
 5   0  0.6134625E-07  0.3487515E+04  0.7818609E-02  0.8116755E-01
        1   -1    0    0  501    0  0.00000000000E+00  0.00000000000E+00  0.11783545784E+04  0.11783545784E+04  0.50400001928E-02 0.  1.
       -1   -1    0    0    0  501  0.00000000000E+00  0.00000000000E+00 -0.25804546208E+04  0.25804546208E+04  0.50400001928E-02 0. -1.
    10030    2    1    2    0    0  0.00000000000E+00  0.00000000000E+00 -0.14021000424E+04  0.37588091993E+04  0.34875151709E+04 0.  0.
        1    1    3    3  502    0 -0.68781177480E+03 -0.41637136133E+03  0.96665044478E+03  0.12573238368E+04  0.50400001928E-02 0.  1.
       -1    1    3    3    0  502  0.68781177480E+03  0.41637136133E+03 -0.23687504872E+04  0.25014853625E+04  0.50400001928E-02 0. -1.
</event>
<event>
 5   0  0.6218695E-07  0.3426090E+04  0.7818609E-02  0.8131533E-01
       -1   -1    0    0    0  501  0.00000000000E+00  0.00000000000E+00  0.23013438253E+04  0.23013438253E+04  0.50400001928E-02 0.  1.
        1   -1    0    0  501    0  0.00000000000E+00  0.00000000000E+00 -0.12751344848E+04  0.12751344848E+04  0.50400001928E-02 0. -1.
    10030    2    1    2    0    0  0.00000000000E+00  0.00000000000E+00  0.10262093405E+04  0.35764783100E+04  0.34260898254E+04 0.  0.
        2    1    3    3  502    0  0.35662923496E+03  0.16749025572E+04  0.46595705174E+03  0.17747109515E+04  0.25500000920E-02 0. -1.
       -2    1    3    3    0  502 -0.35662923496E+03 -0.16749025572E+04  0.56025228873E+03  0.18017673586E+04  0.25500000920E-02 0.  1.
</event>
<event>
 5   0  0.1911477E-06  0.3412397E+04  0.7818609E-02  0.8134870E-01
       -2   -1    0    0    0  501  0.00000000000E+00  0.00000000000E+00  0.12942267410E+04  0.12942267410E+04  0.25500000920E-02 0.  1.
        2   -1    0    0  501    0  0.00000000000E+00  0.00000000000E+00 -0.22493073484E+04  0.22493073484E+04  0.25500000920E-02 0. -1.
    10030    2    1    2    0    0  0.00000000000E+00  0.00000000000E+00 -0.95508060745E+03  0.35435340894E+04  0.34123972330E+04 0.  0.
        5    1    3    3  502    0  0.97854936785E+03  0.79588074665E+03 -0.16706531871E+04  0.20933440209E+04  0.46999998093E+01 0. -1.
       -5    1    3    3    0  502 -0.97854936785E+03 -0.79588074665E+03  0.71557257961E+03  0.14501900685E+04  0.46999998093E+01 0.  1.
</event>
<event>
 5   0  0.6134625E-07  0.3328977E+04  0.7818609E-02  0.8155561E-01
       -1   -1    0    0    0  501  0.00000000000E+00  0.00000000000E+00  0.15523549477E+04  0.15523549477E+04  0.50400001928E-02 0.  1.
        1   -1    0    0  501    0  0.00000000000E+00  0.00000000000E+00 -0.17847223558E+04  0.17847223558E+04  0.50400001928E-02 0. -1.
    10030    2    1    2    0    0  0.00000000000E+00  0.00000000000E+00 -0.23236740814E+03  0.33370773035E+04  0.33289773681E+04 0.  0.
        3    1    3    3  502    0  0.14519811973E+04 -0.11172632315E+03 -0.92424084061E+03  0.17248052963E+04  0.10100000352E+00 0. -1.
       -3    1    3    3    0  502 -0.14519811973E+04  0.11172632315E+03  0.69187343247E+03  0.16122720072E+04  0.10100000352E+00 0.  1.
</event>
<event>
 5   0  0.6218695E-07  0.3514924E+04  0.7818609E-02  0.8110262E-01
        1   -1    0    0  501    0  0.00000000000E+00  0.00000000000E+00  0.25521618543E+04  0.25521618543E+04  0.50400001928E-02 0.  1.
       -1   -1    0    0    0  501  0.00000000000E+00  0.00000000000E+00 -0.12102183412E+04  0.12102183412E+04  0.50400001928E-02 0. -1.
    10030    2    1    2    0    0  0.00000000000E+00  0.00000000000E+00  0.13419435131E+04  0.37623801955E+04  0.35149242300E+04 0.  0.
        2    1    3    3  502    0 -0.10547218769E+03  0.19348162781E+01  0.25487699430E+04  0.25509520474E+04  0.25500000920E-02 0.  1.
       -2    1    3    3    0  502  0.10547218769E+03 -0.19348162781E+01 -0.12068264299E+04  0.12114281480E+04  0.25500000920E-02 0. -1.
</event>
<event>
 5   0  0.1339844E-06  0.3416236E+04  0.7818609E-02  0.8133933E-01
       -2   -1    0    0    0  501  0.00000000000E+00  0.00000000000E+00  0.16067076025E+04  0.16067076025E+04  0.25500000920E-02 0.  1.
        2   -1    0    0  501    0  0.00000000000E+00  0.00000000000E+00 -0.18159292896E+04  0.18159292896E+04  0.25500000920E-02 0. -1.
    10030    2    1    2    0    0  0.00000000000E+00  0.00000000000E+00 -0.20922168703E+03  0.34226368921E+04  0.34162361717E+04 0.  0.
        3    1    3    3  502    0 -0.95461773522E+03  0.60963421189E+03 -0.13855674805E+04  0.17896217885E+04  0.10100000352E+00 0. -1.
       -3    1    3    3    0  502  0.95461773522E+03 -0.60963421189E+03  0.11763457934E+04  0.16330151036E+04  0.10100000352E+00 0.  1.
</event>
<event>
 5   0  0.6134625E-07  0.3276264E+04  0.7818609E-02  0.8168961E-01
        1   -1    0    0  501    0  0.00000000000E+00  0.00000000000E+00  0.32122327699E+04  0.32122327699E+04  0.50400001928E-02 0.  1.
       -1   -1    0    0    0  501  0.00000000000E+00  0.00000000000E+00 -0.83539304052E+03  0.83539304054E+03  0.50400001928E-02 0. -1.
    10030    2    1    2    0    0  0.00000000000E+00  0.00000000000E+00  0.23768397294E+04  0.40476258104E+04  0.32762642754E+04 0.  0.
        3    1    3    3  502    0  0.11690177558E+04 -0.75213758053E+03  0.11766846558E+03  0.13950481466E+04  0.10100000352E+00 0. -1.
       -3    1    3    3    0  502 -0.11690177558E+04  0.75213758053E+03  0.22591712638E+04  0.26525776638E+04  0.10100000352E+00 0.  1.
</event>
<event>
 5   0  0.6134625E-07  0.2821925E+04  0.7818609E-02  0.8296494E-01
        1   -1    0    0  501    0  0.00000000000E+00  0.00000000000E+00  0.17541960575E+04  0.17541960575E+04  0.50400001928E-02 0.  1.
       -1   -1    0    0    0  501  0.00000000000E+00  0.00000000000E+00 -0.11348877430E+04  0.11348877431E+04  0.50400001928E-02 0. -1.
    10030    2    1    2    0    0  0.00000000000E+00  0.00000000000E+00  0.61930831442E+03  0.28890838005E+04  0.28219253034E+04 0.  0.
        3    1    3    3  502    0  0.26528884868E+03  0.11384638661E+04  0.11186090710E+04  0.16179506827E+04  0.10100000352E+00 0.  1.
       -3    1    3    3    0  502 -0.26528884868E+03 -0.11384638661E+04 -0.49930075657E+03  0.12711331179E+04  0.10100000352E+00 0. -1.
</event>
<event>
 5   0  0.6134625E-07  0.3367440E+04  0.7818609E-02  0.8145944E-01
        1   -1    0    0  501    0  0.00000000000E+00  0.00000000000E+00  0.20226920917E+04  0.20226920917E+04  0.50400001928E-02 0. -1.
       -1   -1    0    0    0  501  0.00000000000E+00  0.00000000000E+00 -0.14015541214E+04  0.14015541214E+04  0.50400001928E-02 0.  1.
    10030    2    1    2    0    0  0.00000000000E+00  0.00000000000E+00  0.62113797039E+03  0.34242462131E+04  0.33674396431E+04 0.  0.
        1    1    3    3  502    0  0.15057679115E+04 -0.23736686256E+03  0.10376358483E+04  0.18440087268E+04  0.50400001928E-02 0. -1.
       -1    1    3    3    0  502 -0.15057679115E+04  0.23736686256E+03 -0.41649787789E+03  0.15802374863E+04  0.50400001928E-02 0.  1.
</event>
<event>
 5   0  0.1911477E-06  0.3426159E+04  0.7818609E-02  0.8131516E-01
       -2   -1    0    0    0  501  0.00000000000E+00  0.00000000000E+00  0.14014204550E+04  0.14014204550E+04  0.25500000920E-02 0. -1.
        2   -1    0    0  501    0  0.00000000000E+00  0.00000000000E+00 -0.20940478028E+04  0.20940478028E+04  0.25500000920E-02 0.  1.
    10030    2    1    2    0    0  0.00000000000E+00  0.00000000000E+00 -0.69262734779E+03  0.34954682578E+04  0.34261590299E+04 0.  0.
        5    1    3    3  502    0 -0.88357872269E+03 -0.11931728667E+04 -0.12181452271E+04  0.19204876291E+04  0.46999998093E+01 0.  1.
       -5    1    3    3    0  502  0.88357872269E+03  0.11931728667E+04  0.52551787935E+03  0.15749806287E+04  0.46999998093E+01 0. -1.
</event>
<event>
 5   0  0.6218695E-07  0.3418951E+04  0.7818609E-02  0.8133271E-01
       -1   -1    0    0    0  501  0.00000000000E+00  0.00000000000E+00  0.14105177429E+04  0.14105177429E+04  0.50400001928E-02 0.  1.
        1   -1    0    0  501    0  0.00000000000E+00  0.00000000000E+00 -0.20717966060E+04  0.20717966060E+04  0.50400001928E-02 0. -1.
    10030    2    1    2    0    0  0.00000000000E+00  0.00000000000E+00 -0.66127886313E+03  0.34823143489E+04  0.34189506416E+04 0.  0.
        2    1    3    3  502    0  0.39613723124E+03 -0.16450473362E+04 -0.57846012350E+03  0.17882174249E+04  0.25500000920E-02 0. -1.
       -2    1    3    3    0  502 -0.39613723124E+03  0.16450473362E+04 -0.82818739637E+02  0.16940969240E+04  0.25500000920E-02 0.  1.
</event>
<event>
 5   0  0.6218695E-07  0.3041564E+04  0.7818609E-02  0.8231961E-01
        1   -1    0    0  501    0  0.00000000000E+00  0.00000000000E+00  0.16062150078E+04  0.16062150078E+04  0.50400001928E-02 0.  1.
       -1   -1    0    0    0  501  0.00000000000E+00  0.00000000000E+00 -0.14398928898E+04  0.14398928898E+04  0.50400001928E-02 0. -1.
    10030    2    1    2    0    0  0.00000000000E+00  0.00000000000E+00  0.16632211800E+03  0.30461078976E+04  0.30415637881E+04 0.  0.
        2    1    3    3  502    0  0.10234775471E+04  0.11246205746E+04  0.60770487794E+02  0.15218313896E+04  0.25500000920E-02 0. -1.
       -2    1    3    3    0  502 -0.10234775471E+04 -0.11246205746E+04  0.10555163020E+03  0.15242765080E+04  0.25500000920E-02 0.  1.
</event>
<event>
 5   0  0.1339844E-06  0.3413122E+04  0.7818609E-02  0.8134693E-01
        2   -1    0    0  501    0  0.00000000000E+00  0.00000000000E+00  0.15908419890E+04  0.15908419890E+04  0.25500000920E-02 0. -1.
       -2   -1    0    0    0  501  0.00000000000E+00  0.00000000000E+00 -0.18306975029E+04  0.18306975029E+04  0.25500000920E-02 0.  1.
    10030    2    1    2    0    0  0.00000000000E+00  0.00000000000E+00 -0.23985551389E+03  0.34215394919E+04  0.34131220058E+04 0.  0.
        3    1    3    3  502    0 -0.10816622284E+04  0.35439228956E+03 -0.13945837006E+04  0.18001252121E+04  0.10100000352E+00 0.  1.
       -3    1    3    3    0  502  0.10816622284E+04 -0.35439228956E+03  0.11547281867E+04  0.16214142797E+04  0.10100000352E+00 0. -1.
</event>
<event>
 5   0  0.1880301E-06  0.3389623E+04  0.7818609E-02  0.8140458E-01
       -2   -1    0    0    0  501  0.00000000000E+00  0.00000000000E+00  0.13538060655E+04  0.13538060655E+04  0.25500000920E-02 0.  1.
        2   -1    0    0  501    0  0.00000000000E+00  0.00000000000E+00 -0.21217111736E+04  0.21217111736E+04  0.25500000920E-02 0. -1.
    10030    2    1    2    0    0  0.00000000000E+00  0.00000000000E+00 -0.76790510811E+03  0.34755172391E+04  0.33896226669E+04 0.  0.
        4    1    3    3  502    0 -0.14165642834E+04 -0.60038471549E+02 -0.13359881245E+04  0.19481080229E+04  0.12699999809E+01 0. -1.
       -4    1    3    3    0  502  0.14165642834E+04  0.60038471549E+02  0.56808301642E+03  0.15274092162E+04  0.12699999809E+01 0.  1.
</event>
<event>
 5   0  0.1880301E-06  0.3433720E+04  0.7818609E-02  0.8129680E-01
       -2   -1    0    0    0  501  0.00000000000E+00  0.00000000000E+00  0.10022510185E+04  0.10022510185E+04  0.25500000920E-02 0.  1.
        2   -1    0    0  501    0  0.00000000000E+00  0.00000000000E+00 -0.29409875418E+04  0.29409875418E+04  0.25500000920E-02 0. -1.
    10030    2    1    2    0    0  0.00000000000E+00  0.00000000000E+00 -0.19387365233E+04  0.39432385603E+04  0.34337197084E+04 0.  0.
        4    1    3    3  502    0 -0.23870947019E+03  0.16984367726E+04 -0.88088682880E+03  0.19281164124E+04  0.12699999809E+01 0.  1.
       -4    1    3    3    0  502  0.23870947019E+03 -0.16984367726E+04 -0.10578496945E+04  0.20151221479E+04  0.12699999809E+01 0. -1.
</event>
<event>
 5   0  0.6134625E-07  0.3404098E+04  0.7818609E-02  0.8136901E-01
       -1   -1    0    0    0  501  0.00000000000E+00  0.00000000000E+00  0.14378305544E+04  0.14378305544E+04  0.50400001928E-02 0. -1.
        1   -1    0    0  501    0  0.00000000000E+00  0.00000000000E+00 -0.20148202182E+04  0.20148202182E+04  0.50400001928E-02 0.  1.
    10030    2    1    2    0    0  0.00000000000E+00  0.00000000000E+00 -0.57698966381E+03  0.34526507726E+04  0.34040975729E+04 0.  0.
        5    1    3    3  502    0  0.15976315285E+04 -0.18734142424E+03 -0.85268838852E+03  0.18206105811E+04  0.46999998093E+01 0.  1.
       -5    1    3    3    0  502 -0.15976315285E+04  0.18734142424E+03  0.27569872471E+03  0.16320401916E+04  0.46999998093E+01 0. -1.
</event>
<event>
 5   0  0.6134625E-07  0.3410668E+04  0.7818609E-02  0.8135293E-01
        1   -1    0    0  501    0  0.00000000000E+00  0.00000000000E+00  0.20654198096E+04  0.20654198096E+04  0.50400001928E-02 0.  1.
       -1   -1    0    0    0  501  0.00000000000E+00  0.00000000000E+00 -0.14080257655E+04  0.14080257655E+04  0.50400001928E-02 0. -1.
    10030    2    1    2    0    0  0.00000000000E+00  0.00000000000E+00  0.65739404407E+03  0.34734455752E+04  0.34106681507E+04 0.  0.
        3    1    3    3  502    0 -0.81731033633E+03 -0.14830843202E+04  0.53397348814E+03  0.17755739869E+04  0.10100000352E+00 0.  1.
       -3    1    3    3    0  502  0.81731033633E+03  0.14830843202E+04  0.12342055593E+03  0.16978715883E+04  0.10100000352E+00 0. -1.
</event>
<event>
 5   0  0.1880301E-06  0.3440350E+04  0.7818609E-02  0.8128074E-01
       -2   -1    0    0    0  501  0.00000000000E+00  0.00000000000E+00  0.11421575901E+04  0.11421575901E+04  0.25500000920E-02 0.  1.
        2   -1    0    0  501    0  0.00000000000E+00  0.00000000000E+00 -0.25907118482E+04  0.25907118482E+04  0.25500000920E-02 0. -1.
    10030    2    1    2    0    0  0.00000000000E+00  0.00000000000E+00 -0.14485542581E+04  0.37328694383E+04  0.34403495178E+04 0.  0.
        4    1    3    3  502    0  0.29920848747E+03  0.81910545425E+02  0.11115553447E+04  0.11540329084E+04  0.12699999809E+01 0.  1.
       -4    1    3    3    0  502 -0.29920848747E+03 -0.81910545425E+02 -0.25601096028E+04  0.25788365299E+04  0.12699999809E+01 0. -1.
</event>
<event>
 5   0  0.6134625E-07  0.3300505E+04  0.7818609E-02  0.8162767E-01
       -3   -1    0    0    0  501  0.00000000000E+00  0.00000000000E+00  0.13424807294E+04  0.13424807332E+04  0.10100000352E+00 0.  1.
        3   -1    0    0  501    0  0.00000000000E+00  0.00000000000E+00 -0.20285831449E+04  0.20285831475E+04  0.10100000352E+00 0. -1.
    10030    2    1    2    0    0  0.00000000000E+00  0.00000000000E+00 -0.68610241551E+03  0.33710638807E+04  0.33005052891E+04 0.  0.
        2    1    3    3  502    0 -0.92539107009E+03 -0.10380301605E+04  0.56446985850E+03  0.15008269280E+04  0.25500000920E-02 0.  1.
       -2    1    3    3    0  502  0.92539107009E+03  0.10380301605E+04 -0.12505722740E+04  0.18702369527E+04  0.25500000920E-02 0. -1.
</event>
<event>
 5   0  0.1911477E-06  0.3415165E+04  0.7818609E-02  0.8134194E-01
       -2   -1    0    0    0  501  0.00000000000E+00  0.00000000000E+00  0.27492047964E+04  0.27492047964E+04  0.25500000920E-02 0.  1.
        2   -1    0    0  501    0  0.00000000000E+00  0.00000000000E+00 -0.10606113634E+04  0.10606113634E+04  0.25500000920E-02 0. -1.
    10030    2    1    2    0    0  0.00000000000E+00  0.00000000000E+00  0.16885934330E+04  0.38098161598E+04  0.34151649139E+04 0.  0.
        5    1    3    3  502    0 -0.16031010990E+04 -0.19000972862E+03  0.14651918772E+04  0.21801023273E+04  0.46999998093E+01 0.  1.
       -5    1    3    3    0  502  0.16031010990E+04  0.19000972862E+03  0.22340155576E+03  0.16297138324E+04  0.46999998093E+01 0. -1.
</event>
<event>
 5   0  0.6134625E-07  0.3287794E+04  0.7818609E-02  0.8166008E-01
       -1   -1    0    0    0  501  0.00000000000E+00  0.00000000000E+00  0.14674374355E+04  0.14674374355E+04  0.50400001928E-02 0. -1.
        1   -1    0    0  501    0  0.00000000000E+00  0.00000000000E+00 -0.18415758693E+04  0.18415758693E+04  0.50400001928E-02 0.  1.
    10030    2    1    2    0    0  0.00000000000E+00  0.00000000000E+00 -0.37413843383E+03  0.33090133048E+04  0.32877940148E+04 0.  0.
        3    1    3    3  502    0  0.44427229672E+03  0.68495175196E+00  0.14058708148E+04  0.14743985556E+04  0.10100000352E+00 0. -1.
       -3    1    3    3    0  502 -0.44427229672E+03 -0.68495175196E+00 -0.17800092486E+04  0.18346147492E+04  0.10100000352E+00 0.  1.
</event>
<event>
 5   0  0.6134625E-07  0.3392090E+04  0.7818609E-02  0.8139851E-01
        1   -1    0    0  501    0  0.00000000000E+00  0.00000000000E+00  0.15199143881E+04  0.15199143881E+04  0.50400001928E-02 0. -1.
       -1   -1    0    0    0  501  0.00000000000E+00  0.00000000000E+00 -0.18925854748E+04  0.18925854748E+04  0.50400001928E-02 0.  1.
    10030    2    1    2    0    0  0.00000000000E+00  0.00000000000E+00 -0.37267108671E+03  0.34124998629E+04  0.33920895589E+04 0.  0.
        1    1    3    3  502    0 -0.10720949063E+04 -0.47885185501E+03  0.10449081896E+04  0.15717886982E+04  0.50400001928E-02 0. -1.
       -1    1    3    3    0  502  0.10720949063E+04  0.47885185501E+03 -0.14175792763E+04  0.18407111647E+04  0.50400001928E-02 0.  1.
</event>
<event>
 5   0  0.1797075E-06  0.3404703E+04  0.7818609E-02  0.8136753E-01
       -2   -1    0    0    0  501  0.00000000000E+00  0.00000000000E+00  0.13990592667E+04  0.13990592667E+04  0.25500000920E-02 0. -1.
        2   -1    0    0  501    0  0.00000000000E+00  0.00000000000E+00 -0.20713919102E+04  0.20713919102E+04  0.25500000920E-02 0.  1.
    10030    2    1    2    0    0  0.00000000000E+00  0.00000000000E+00 -0.67233264350E+03  0.34704511769E+04  0.34047026577E+04 0.  0.
        2    1    3    3  502    0  0.86192460879E+03  0.38527374282E+03  0.11077518471E+04  0.14554944325E+04  0.25500000920E-02 0. -1.
       -2    1    3    3    0  502 -0.86192460879E+03 -0.38527374282E+03 -0.17800844906E+04  0.20149567444E+04  0.25500000920E-02 0.  1.
</event>
<event>
 5   0  0.1339844E-06  0.2924886E+04  0.7818609E-02  0.8265512E-01
        2   -1    0    0  501    0  0.00000000000E+00  0.00000000000E+00  0.15184461066E+04  0.15184461066E+04  0.25500000920E-02 0.  1.
       -2   -1    0    0    0  501  0.00000000000E+00  0.00000000000E+00 -0.14085051116E+04  0.14085051116E+04  0.25500000920E-02 0. -1.
    10030    2    1    2    0    0  0.00000000000E+00  0.00000000000E+00  0.10994099495E+03  0.29269512182E+04  0.29248857091E+04 0.  0.
        3    1    3    3  502    0 -0.52229930694E+03  0.64439852728E+03  0.12602682624E+04  0.15087485315E+04  0.10100000352E+00 0.  1.
       -3    1    3    3    0  502  0.52229930694E+03 -0.64439852728E+03 -0.11503272675E+04  0.14182026867E+04  0.10100000352E+00 0. -1.
</event>
<event>
 5   0  0.1948507E-06  0.3413851E+04  0.7818609E-02  0.8134515E-01
        2   -1    0    0  501    0  0.00000000000E+00  0.00000000000E+00  0.24017840529E+04  0.24017840529E+04  0.25500000920E-02 0.  1.
       -2   -1    0    0    0  501  0.00000000000E+00  0.00000000000E+00 -0.12130960686E+04  0.12130960686E+04  0.25500000920E-02 0. -1.
    10030    2    1    2    0    0  0.00000000000E+00  0.00000000000E+00  0.11886879842E+04  0.36148801215E+04  0.34138510759E+04 0.  0.
        1    1    3    3  502    0  0.87201382604E+02 -0.10144007441E+04  0.20450498455E+04  0.22844784572E+04  0.50400001928E-02 0.  1.
       -1    1    3    3    0  502 -0.87201382604E+02  0.10144007441E+04 -0.85636186127E+03  0.13304016643E+04  0.50400001928E-02 0. -1.
</event>
<event>
 5   0  0.1880301E-06  0.3060907E+04  0.7818609E-02  0.8226549E-01
       -2   -1    0    0    0  501  0.00000000000E+00  0.00000000000E+00  0.74216977090E+03  0.74216977090E+03  0.25500000920E-02 0.  1.
        2   -1    0    0  501    0  0.00000000000E+00  0.00000000000E+00 -0.31560010602E+04  0.31560010602E+04  0.25500000920E-02 0. -1.
    10030    2    1    2    0    0  0.00000000000E+00  0.00000000000E+00 -0.24138312893E+04  0.38981708311E+04  0.30609074366E+04 0.  0.
        4    1    3    3  502    0 -0.28645400763E+03  0.12171283257E+04 -0.23308266565E+04  0.26450353070E+04  0.12699999809E+01 0. -1.
       -4    1    3    3    0  502  0.28645400763E+03 -0.12171283257E+04 -0.83004632788E+02  0.12531355241E+04  0.12699999809E+01 0.  1.
</event>
<event>
 5   0  0.1911477E-06  0.3364914E+04  0.7818609E-02  0.8146572E-01
        2   -1    0    0  501    0  0.00000000000E+00  0.00000000000E+00  0.21932823337E+04  0.21932823337E+04  0.25500000920E-02 0.  1.
       -2   -1    0    0    0  501  0.00000000000E+00  0.00000000000E+00 -0.12906048774E+04  0.12906048775E+04  0.25500000920E-02 0. -1.
    10030    2    1    2    0    0  0.00000000000E+00  0.00000000000E+00  0.90267745625E+03  0.34838872112E+04  0.33649135962E+04 0.  0.
        5    1    3    3  502    0  0.15767005736E+04  0.46501900766E+03  0.80323291660E+02  0.16458132632E+04  0.46999998093E+01 0. -1.
       -5    1    3    3    0  502 -0.15767005736E+04 -0.46501900766E+03  0.82235416459E+03  0.18380739480E+04  0.46999998093E+01 0.  1.
</event>
<event>
 5   0  0.1339844E-06  0.3384981E+04  0.7818609E-02  0.8141602E-01
       -2   -1    0    0    0  501  0.00000000000E+00  0.00000000000E+00  0.97472242135E+03  0.97472242135E+03  0.25500000920E-02 0.  1.
        2   -1    0    0  501    0  0.00000000000E+00  0.00000000000E+00 -0.29388092505E+04  0.29388092505E+04  0.25500000920E-02 0. -1.
    10030    2    1    2    0    0  0.00000000000E+00  0.00000000000E+00 -0.19640868292E+04  0.39135316719E+04  0.33849805131E+04 0.  0.
        3    1    3    3  502    0 -0.30436382715E+03  0.15970136345E+04 -0.15260876528E+04  0.22298056916E+04  0.10100000352E+00 0.  1.
       -3    1    3    3    0  502  0.30436382715E+03 -0.15970136345E+04 -0.43799917635E+03  0.16837259803E+04  0.10100000352E+00 0. -1.
</event>
<event>
 5   0  0.6218695E-07  0.3403300E+04  0.7818609E-02  0.8137097E-01
        1   -1    0    0  501    0  0.00000000000E+00  0.00000000000E+00  0.21539700713E+04  0.21539700713E+04  0.50400001928E-02 0.  1.
       -1   -1    0    0    0  501  0.00000000000E+00  0.00000000000E+00 -0.13443139157E+04  0.13443139157E+04  0.50400001928E-02 0. -1.
    10030    2    1    2    0    0  0.00000000000E+00  0.00000000000E+00  0.80965615563E+03  0.34982839870E+04  0.34032995407E+04 0.  0.
        2    1    3    3  502    0 -0.78561497777E+03 -0.14716657342E+04  0.59871362235E+02  0.16693038988E+04  0.25500000920E-02 0. -1.
       -2    1    3    3    0  502  0.78561497777E+03  0.14716657342E+04  0.74978479339E+03  0.18289800882E+04  0.25500000920E-02 0.  1.
</event>
<event>
 5   0  0.1911477E-06  0.3531338E+04  0.7818609E-02  0.8106403E-01
        2   -1    0    0  501    0  0.00000000000E+00  0.00000000000E+00  0.29149422194E+04  0.29149422194E+04  0.25500000920E-02 0.  1.
       -2   -1    0    0    0  501  0.00000000000E+00  0.00000000000E+00 -0.10695190783E+04  0.10695190783E+04  0.25500000920E-02 0. -1.
    10030    2    1    2    0    0  0.00000000000E+00  0.00000000000E+00  0.18454231410E+04  0.39844612977E+04  0.35313376026E+04 0.  0.
        5    1    3    3  502    0  0.65603593892E+03  0.16325581826E+04  0.10898197616E+04  0.20696276418E+04  0.46999998093E+01 0. -1.
       -5    1    3    3    0  502 -0.65603593892E+03 -0.16325581826E+04  0.75560337940E+03  0.19148336559E+04  0.46999998093E+01 0.  1.
</event>
<event>
 5   0  0.6134625E-07  0.3412606E+04  0.7818609E-02  0.8134819E-01
        1   -1    0    0  501    0  0.00000000000E+00  0.00000000000E+00  0.19407861477E+04  0.19407861477E+04  0.50400001928E-02 0. -1.
       -1   -1    0    0    0  501  0.00000000000E+00  0.00000000000E+00 -0.15001495900E+04  0.15001495900E+04  0.50400001928E-02 0.  1.
    10030    2    1    2    0    0  0.00000000000E+00  0.00000000000E+00  0.44063655768E+03  0.34409357377E+04  0.34126057749E+04 0.  0.
        5    1    3    3  502    0 -0.10951143200E+04  0.81502672848E+03 -0.81185137948E+03  0.15882911240E+04  0.46999998093E+01 0.  1.
       -5    1    3    3    0  502  0.10951143200E+04 -0.81502672848E+03  0.12524879372E+04  0.18526446137E+04  0.46999998093E+01 0. -1.
</event>
<event>
 5   0  0.6134625E-07  0.3381429E+04  0.7818609E-02  0.8142479E-01
       -1   -1    0    0    0  501  0.00000000000E+00  0.00000000000E+00  0.19255388249E+04  0.19255388249E+04  0.50400001928E-02 0.  1.
        1   -1    0    0  501    0  0.00000000000E+00  0.00000000000E+00 -0.14845272767E+04  0.14845272767E+04  0.50400001928E-02 0. -1.
    10030    2    1    2    0    0  0.00000000000E+00  0.00000000000E+00  0.44101154821E+03  0.34100661016E+04  0.33814286377E+04 0.  0.
        3    1    3    3  502    0  0.70717487247E+03  0.26113897062E+03  0.17466713382E+04  0.19024065381E+04  0.10100000352E+00 0.  1.
       -3    1    3    3    0  502 -0.70717487247E+03 -0.26113897062E+03 -0.13056597900E+04  0.15076595636E+04  0.10100000352E+00 0. -1.
</event>
<event>
 5   0  0.6134625E-07  0.3365750E+04  0.7818609E-02  0.8146364E-01
        1   -1    0    0  501    0  0.00000000000E+00  0.00000000000E+00  0.25534895615E+04  0.25534895615E+04  0.50400001928E-02 0. -1.
       -1   -1    0    0    0  501  0.00000000000E+00  0.00000000000E+00 -0.11090970157E+04  0.11090970157E+04  0.50400001928E-02 0.  1.
    10030    2    1    2    0    0  0.00000000000E+00  0.00000000000E+00  0.14443925458E+04  0.36625865772E+04  0.33657496356E+04 0.  0.
        3    1    3    3  502    0  0.43383930493E+03 -0.16139077379E+04  0.50687440777E+03  0.17463780817E+04  0.10100000352E+00 0. -1.
       -3    1    3    3    0  502 -0.43383930493E+03  0.16139077379E+04  0.93751813799E+03  0.19162084955E+04  0.10100000352E+00 0.  1.
</event>
<event>
 5   0  0.6146388E-07  0.2646572E+04  0.7818609E-02  0.8352552E-01
        1   -1    0    0  501    0  0.00000000000E+00  0.00000000000E+00  0.17076411211E+04  0.17076411211E+04  0.50400001928E-02 0. -1.
       -1   -1    0    0    0  501  0.00000000000E+00  0.00000000000E+00 -0.10254411610E+04  0.10254411610E+04  0.50400001928E-02 0.  1.
    10030    2    1    2    0    0  0.00000000000E+00  0.00000000000E+00  0.68219996006E+03  0.27330822821E+04  0.26465717401E+04 0.  0.
        4    1    3    3  502    0 -0.64943934364E+03  0.11307884269E+04  0.57346609677E+03  0.14245416472E+04  0.12699999809E+01 0.  1.
       -4    1    3    3    0  502  0.64943934364E+03 -0.11307884269E+04  0.10873386330E+03  0.13085406350E+04  0.12699999809E+01 0. -1.
</event>
<event>
 5   0  0.1339844E-06  0.3411300E+04  0.7818609E-02  0.8135138E-01
       -2   -1    0    0    0  501  0.00000000000E+00  0.00000000000E+00  0.11957315243E+04  0.11957315243E+04  0.25500000920E-02 0.  1.
        2   -1    0    0  501    0  0.00000000000E+00  0.00000000000E+00 -0.24330232218E+04  0.24330232218E+04  0.25500000920E-02 0. -1.
    10030    2    1    2    0    0  0.00000000000E+00  0.00000000000E+00 -0.12372916975E+04  0.36287547462E+04  0.34113003771E+04 0.  0.
        3    1    3    3  502    0  0.38590830101E+03  0.15078937946E+03 -0.23786798446E+04  0.24144938325E+04  0.10100000352E+00 0. -1.
       -3    1    3    3    0  502 -0.38590830101E+03 -0.15078937946E+03  0.11413881471E+04  0.12142609136E+04  0.10100000352E+00 0.  1.
</event>
<event>
 5   0  0.1911477E-06  0.3426147E+04  0.7818609E-02  0.8131519E-01
       -2   -1    0    0    0  501  0.00000000000E+00  0.00000000000E+00  0.11991176554E+04  0.11991176554E+04  0.25500000920E-02 0.  1.
        2   -1    0    0  501    0  0.00000000000E+00  0.00000000000E+00 -0.24473174877E+04  0.24473174877E+04  0.25500000920E-02 0. -1.
    10030    2    1    2    0    0  0.00000000000E+00  0.00000000000E+00 -0.12481998324E+04  0.36464351431E+04  0.34261474620E+04 0.  0.
        5    1    3    3  502    0 -0.14418792154E+04  0.73335316051E+03 -0.24138026484E+02  0.16178464897E+04  0.46999998093E+01 0.  1.
       -5    1    3    3    0  502  0.14418792154E+04 -0.73335316051E+03 -0.12240618059E+04  0.20285886534E+04  0.46999998093E+01 0. -1.
</event>
<event>
 5   0  0.6146388E-07  0.3365843E+04  0.7818609E-02  0.8146341E-01
       -1   -1    0    0    0  501  0.00000000000E+00  0.00000000000E+00  0.15108483018E+04  0.15108483018E+04  0.50400001928E-02 0. -1.
        1   -1    0    0  501    0  0.00000000000E+00  0.00000000000E+00 -0.18745925344E+04  0.18745925344E+04  0.50400001928E-02 0.  1.
    10030    2    1    2    0    0  0.00000000000E+00  0.00000000000E+00 -0.36374423259E+03  0.33854408363E+04  0.33658431023E+04 0.  0.
        4    1    3    3  502    0  0.18011010143E+03 -0.39702686790E+03  0.14530624324E+04  0.15170570285E+04  0.12699999809E+01 0. -1.
       -4    1    3    3    0  502 -0.18011010143E+03  0.39702686790E+03 -0.18168066649E+04  0.18683838078E+04  0.12699999809E+01 0.  1.
</event>
<event>
 5   0  0.1797075E-06  0.2513540E+04  0.7818609E-02  0.8398178E-01
        2   -1    0    0  501    0  0.00000000000E+00  0.00000000000E+00  0.11586763039E+04  0.11586763039E+04  0.25500000920E-02 0.  1.
       -2   -1    0    0    0  501  0.00000000000E+00  0.00000000000E+00 -0.13631686124E+04  0.13631686125E+04  0.25500000920E-02 0. -1.
    10030    2    1    2    0    0  0.00000000000E+00  0.00000000000E+00 -0.20449230859E+03  0.25218449163E+04  0.25135402678E+04 0.  0.
        2    1    3    3  502    0 -0.88919195635E+02 -0.60989651813E+03  0.99663085867E+03  0.11718163058E+04  0.25500000920E-02 0.  1.
       -2    1    3    3    0  502  0.88919195635E+02  0.60989651813E+03 -0.12011231673E+04  0.13500286105E+04  0.25500000920E-02 0. -1.
</event>
<event>
 5   0  0.1797075E-06  0.3472813E+04  0.7818609E-02  0.8120263E-01
        2   -1    0    0  501    0  0.00000000000E+00  0.00000000000E+00  0.17546651496E+04  0.17546651496E+04  0.25500000920E-02 0.  1.
       -2   -1    0    0    0  501  0.00000000000E+00  0.00000000000E+00 -0.17183380065E+04  0.17183380065E+04  0.25500000920E-02 0. -1.
    10030    2    1    2    0    0  0.00000000000E+00  0.00000000000E+00  0.36327143103E+02  0.34730031560E+04  0.34728131623E+04 0.  0.
        2    1    3    3  502    0  0.16048161871E+04  0.65843604582E+03 -0.60165641513E+02  0.17356822650E+04  0.25500000920E-02 0.  1.
       -2    1    3    3    0  502 -0.16048161871E+04 -0.65843604582E+03  0.96492784615E+02  0.17373208910E+04  0.25500000920E-02 0. -1.
</event>
<event>
 5   0  0.6146388E-07  0.3417524E+04  0.7818609E-02  0.8133619E-01
        1   -1    0    0  501    0  0.00000000000E+00  0.00000000000E+00  0.26763144484E+04  0.26763144484E+04  0.50400001928E-02 0. -1.
       -1   -1    0    0    0  501  0.00000000000E+00  0.00000000000E+00 -0.10910028662E+04  0.10910028662E+04  0.50400001928E-02 0.  1.
    10030    2    1    2    0    0  0.00000000000E+00  0.00000000000E+00  0.15853115822E+04  0.37673173145E+04  0.34175235092E+04 0.  0.
        4    1    3    3  502    0 -0.14885679232E+04  0.81639934941E+03  0.10061903080E+04  0.19735153682E+04  0.12699999809E+01 0.  1.
       -4    1    3    3    0  502  0.14885679232E+04 -0.81639934941E+03  0.57912127415E+03  0.17938019463E+04  0.12699999809E+01 0. -1.
</event>
<event>
 5   0  0.1339844E-06  0.3354993E+04  0.7818609E-02  0.8149042E-01
        2   -1    0    0  501    0  0.00000000000E+00  0.00000000000E+00  0.22280261134E+04  0.22280261134E+04  0.25500000920E-02 0. -1.
       -2   -1    0    0    0  501  0.00000000000E+00  0.00000000000E+00 -0.12629990272E+04  0.12629990272E+04  0.25500000920E-02 0.  1.
    10030    2    1    2    0    0  0.00000000000E+00  0.00000000000E+00  0.96502708619E+03  0.34910251407E+04  0.33549931826E+04 0.  0.
        3    1    3    3  502    0  0.15073353982E+04 -0.43295150542E+03  0.11020430245E+04  0.19167696384E+04  0.10100000352E+00 0. -1.
       -3    1    3    3    0  502 -0.15073353982E+04  0.43295150542E+03 -0.13701593832E+03  0.15742555022E+04  0.10100000352E+00 0.  1.
</event>
<event>
 5   0  0.6134625E-07  0.3055291E+04  0.7818609E-02  0.8228116E-01
        3   -1    0    0  501    0  0.00000000000E+00  0.00000000000E+00  0.10196595541E+04  0.10196595591E+04  0.10100000352E+00 0. -1.
       -3   -1    0    0    0  501  0.00000000000E+00  0.00000000000E+00 -0.22887054099E+04  0.22887054122E+04  0.10100000352E+00 0.  1.
    10030    2    1    2    0    0  0.00000000000E+00  0.00000000000E+00 -0.12690458559E+04  0.33083649712E+04  0.30552907224E+04 0.  0.
        1    1    3    3  502    0 -0.99903117602E+03 -0.72770696146E+03 -0.16067100137E+04  0.20271008314E+04  0.50400001928E-02 0.  1.
       -1    1    3    3    0  502  0.99903117602E+03  0.72770696146E+03  0.33766415788E+03  0.12812641398E+04  0.50400001928E-02 0. -1.
</event>
<event>
 5   0  0.6134625E-07  0.3406213E+04  0.7818609E-02  0.8136383E-01
       -1   -1    0    0    0  501  0.00000000000E+00  0.00000000000E+00  0.21095824635E+04  0.21095824635E+04  0.50400001928E-02 0. -1.
        1   -1    0    0  501    0  0.00000000000E+00  0.00000000000E+00 -0.13749506881E+04  0.13749506881E+04  0.50400001928E-02 0.  1.
    10030    2    1    2    0    0  0.00000000000E+00  0.00000000000E+00  0.73463177538E+03  0.34845331516E+04  0.34062130643E+04 0.  0.
        1    1    3    3  502    0 -0.84953031692E+03 -0.60023636140E+03  0.17468732434E+04  0.20331137640E+04  0.50400001928E-02 0. -1.
       -1    1    3    3    0  502  0.84953031692E+03  0.60023636140E+03 -0.10122414680E+04  0.14514193876E+04  0.50400001928E-02 0.  1.
</event>
<event>
 5   0  0.1880301E-06  0.3453552E+04  0.7818609E-02  0.8124887E-01
        2   -1    0    0  501    0  0.00000000000E+00  0.00000000000E+00  0.22527234357E+04  0.22527234357E+04  0.25500000920E-02 0. -1.
       -2   -1    0    0    0  501  0.00000000000E+00  0.00000000000E+00 -0.13236221696E+04  0.13236221696E+04  0.25500000920E-02 0.  1.
    10030    2    1    2    0    0  0.00000000000E+00  0.00000000000E+00  0.92910126612E+03  0.35763456053E+04  0.34535516105E+04 0.  0.
        4    1    3    3  502    0  0.10623263293E+04 -0.12132688061E+04  0.11039127858E+04  0.19542731328E+04  0.12699999809E+01 0. -1.
       -4    1    3    3    0  502 -0.10623263293E+04  0.12132688061E+04 -0.17481151972E+03  0.16220724726E+04  0.12699999809E+01 0.  1.
</event>
<event>
 5   0  0.6134625E-07  0.3423935E+04  0.7818609E-02  0.8132057E-01
        1   -1    0    0  501    0  0.00000000000E+00  0.00000000000E+00  0.16760368381E+04  0.16760368382E+04  0.50400001928E-02 0.  1.
       -1   -1    0    0    0  501  0.00000000000E+00  0.00000000000E+00 -0.17486687463E+04  0.17486687463E+04  0.50400001928E-02 0. -1.
    10030    2    1    2    0    0  0.00000000000E+00  0.00000000000E+00 -0.72631908186E+02  0.34247055845E+04  0.34239353011E+04 0.  0.
        5    1    3    3  502    0 -0.24549468832E+03 -0.15626108138E+04 -0.69128458020E+03  0.17262435107E+04  0.46999998093E+01 0. -1.
       -5    1    3    3    0  502  0.24549468832E+03  0.15626108138E+04  0.61865267201E+03  0.16984620738E+04  0.46999998093E+01 0.  1.
</event>
<event>
 5   0  0.1911477E-06  0.3394556E+04  0.7818609E-02  0.8139244E-01
        2   -1    0    0  501    0  0.00000000000E+00  0.00000000000E+00  0.16663479584E+04  0.16663479584E+04  0.25500000920E-02 0. -1.
       -2   -1    0    0    0  501  0.00000000000E+00  0.00000000000E+00 -0.17287817742E+04  0.17287817742E+04  0.25500000920E-02 0.  1.
    10030    2    1    2    0    0  0.00000000000E+00  0.00000000000E+00 -0.62433815759E+02  0.33951297326E+04  0.33945556292E+04 0.  0.
        5    1    3    3  502    0 -0.35122844554E+03 -0.64671390133E+03  0.14984630832E+04  0.16694352317E+04  0.46999998093E+01 0. -1.
       -5    1    3    3    0  502  0.35122844554E+03  0.64671390133E+03 -0.15608968990E+04  0.17256945009E+04  0.46999998093E+01 0.  1.
</event>
<event>
 5   0  0.6134625E-07  0.3267044E+04  0.7818609E-02  0.8171332E-01
       -1   -1    0    0    0  501  0.00000000000E+00  0.00000000000E+00  0.20438632797E+04  0.20438632797E+04  0.50400001928E-02 0. -1.
        1   -1    0    0  501    0  0.00000000000E+00  0.00000000000E+00 -0.13055639266E+04  0.13055639266E+04  0.50400001928E-02 0.  1.
    10030    2    1    2    0    0  0.00000000000E+00  0.00000000000E+00  0.73829935313E+03  0.33494272063E+04  0.32670440272E+04 0.  0.
        1    1    3    3  502    0  0.82554092033E+03  0.12851440978E+04  0.96278540532E+03  0.18055660885E+04  0.50400001928E-02 0. -1.
       -1    1    3    3    0  502 -0.82554092033E+03 -0.12851440978E+04 -0.22448605219E+03  0.15438611178E+04  0.50400001928E-02 0.  1.
</event>
<event>
 5   0  0.6146388E-07  0.3496880E+04  0.7818609E-02  0.8114530E-01
       -1   -1    0    0    0  501  0.00000000000E+00  0.00000000000E+00  0.13579724316E+04  0.13579724316E+04  0.50400001928E-02 0.  1.
        1   -1    0    0  501    0  0.00000000000E+00  0.00000000000E+00 -0.22511816160E+04  0.22511816160E+04  0.50400001928E-02 0. -1.
    10030    2    1    2    0    0  0.00000000000E+00  0.00000000000E+00 -0.89320918434E+03  0.36091540476E+04  0.34968800798E+04 0.  0.
        4    1    3    3  502    0  0.75204803223E+03 -0.27100316533E+02  0.11822714336E+04  0.14014556809E+04  0.12699999809E+01 0.  1.
       -4    1    3    3    0  502 -0.75204803223E+03  0.27100316533E+02 -0.20754806180E+04  0.22076983667E+04  0.12699999809E+01 0. -1.
</event>
<event>
 5   0  0.6134625E-07  0.3321146E+04  0.7818609E-02  0.8157536E-01
       -1   -1    0    0    0  501  0.00000000000E+00  0.00000000000E+00  0.13005671394E+04  0.13005671394E+04  0.50400001928E-02 0.  1.
        1   -1    0    0  501    0  0.00000000000E+00  0.00000000000E+00 -0.21202311292E+04  0.21202311293E+04  0.50400001928E-02 0. -1.
    10030    2    1    2    0    0  0.00000000000E+00  0.00000000000E+00 -0.81966398981E+03  0.34207982687E+04  0.33211461484E+04 0.  0.
        3    1    3    3  502    0 -0.14221341398E+04 -0.70027363441E+03  0.99634770468E+02  0.15883248322E+04  0.10100000352E+00 0. -1.
       -3    1    3    3    0  502  0.14221341398E+04  0.70027363441E+03 -0.91929876028E+03  0.18324734365E+04  0.10100000352E+00 0.  1.
</event>
<event>
 5   0  0.1880301E-06  0.3306882E+04  0.7818609E-02  0.8161147E-01
       -2   -1    0    0    0  501  0.00000000000E+00  0.00000000000E+00  0.14427816508E+04  0.14427816508E+04  0.25500000920E-02 0. -1.
        2   -1    0    0  501    0  0.00000000000E+00  0.00000000000E+00 -0.18948580259E+04  0.18948580259E+04  0.25500000920E-02 0.  1.
    10030    2    1    2    0    0  0.00000000000E+00  0.00000000000E+00 -0.45207637505E+03  0.33376396767E+04  0.33068815465E+04 0.  0.
        4    1    3    3  502    0 -0.14182967902E+04  0.69558699873E+03 -0.71890151448E+03  0.17355771542E+04  0.12699999809E+01 0.  1.
       -4    1    3    3    0  502  0.14182967902E+04 -0.69558699873E+03  0.26682513944E+03  0.16020625225E+04  0.12699999809E+01 0. -1.
</event>
<event>
 5   0  0.1948507E-06  0.3325441E+04  0.7818609E-02  0.8156452E-01
       -2   -1    0    0    0  501  0.00000000000E+00  0.00000000000E+00  0.21978292801E+04  0.21978292801E+04  0.25500000920E-02 0. -1.
        2   -1    0    0  501    0  0.00000000000E+00  0.00000000000E+00 -0.12578956689E+04  0.12578956689E+04  0.25500000920E-02 0.  1.
    10030    2    1    2    0    0  0.00000000000E+00  0.00000000000E+00  0.93993361118E+03  0.34557249490E+04  0.33254412835E+04 0.  0.
        1    1    3    3  502    0 -0.15109223238E+04 -0.44999015651E+03 -0.79189801463E+02  0.15784956237E+04  0.50400001928E-02 0.  1.
       -1    1    3    3    0  502  0.15109223238E+04  0.44999015651E+03  0.10191234126E+04  0.18772293253E+04  0.50400001928E-02 0. -1.
</event>
<event>
 5   0  0.1911477E-06  0.3391372E+04  0.7818609E-02  0.8140027E-01
       -2   -1    0    0    0  501  0.00000000000E+00  0.00000000000E+00  0.15787559971E+04  0.15787559971E+04  0.25500000920E-02 0.  1.
        2   -1    0    0  501    0  0.00000000000E+00  0.00000000000E+00 -0.18212767536E+04  0.18212767536E+04  0.25500000920E-02 0. -1.
    10030    2    1    2    0    0  0.00000000000E+00  0.00000000000E+00 -0.24252075649E+03  0.34000327507E+04  0.33913723459E+04 0.  0.
        5    1    3    3  502    0  0.10523995241E+04  0.36267416288E+03  0.11611669013E+04  0.16085421876E+04  0.46999998093E+01 0.  1.
       -5    1    3    3    0  502 -0.10523995241E+04 -0.36267416288E+03 -0.14036876577E+04  0.17914905630E+04  0.46999998093E+01 0. -1.
</event>
<event>
 5   0  0.1911477E-06  0.3409584E+04  0.7818609E-02  0.8135558E-01
        2   -1    0    0  501    0  0.00000000000E+00  0.00000000000E+00  0.26554451887E+04  0.26554451887E+04  0.25500000920E-02 0.  1.
       -2   -1    0    0    0  501  0.00000000000E+00  0.00000000000E+00 -0.10944737985E+04  0.10944737985E+04  0.25500000920E-02 0. -1.
    10030    2    1    2    0    0  0.00000000000E+00  0.00000000000E+00  0.15609713902E+04  0.37499189871E+04  0.34095836592E+04 0.  0.
        5    1    3    3  502    0 -0.16866279322E+04 -0.24759853407E+03  0.76227129484E+03  0.18673774210E+04  0.46999998093E+01 0. -1.
       -5    1    3    3    0  502  0.16866279322E+04  0.24759853407E+03  0.79870009537E+03  0.18825415661E+04  0.46999998093E+01 0.  1.
</event>
<event>
 5   0  0.6134625E-07  0.3375958E+04  0.7818609E-02  0.8143832E-01
       -3   -1    0    0    0  501  0.00000000000E+00  0.00000000000E+00  0.16729411773E+04  0.16729411804E+04  0.10100000352E+00 0. -1.
        3   -1    0    0  501    0  0.00000000000E+00  0.00000000000E+00 -0.17031521617E+04  0.17031521647E+04  0.10100000352E+00 0.  1.
    10030    2    1    2    0    0  0.00000000000E+00  0.00000000000E+00 -0.30210984391E+02  0.33760933451E+04  0.33759581709E+04 0.  0.
        2    1    3    3  502    0 -0.13347411522E+04  0.60635354735E+03 -0.85184373597E+03  0.16955342280E+04  0.25500000920E-02 0.  1.
       -2    1    3    3    0  502  0.13347411522E+04 -0.60635354735E+03  0.82163275158E+03  0.16805591171E+04  0.25500000920E-02 0. -1.
</event>
<event>
 5   0  0.6134625E-07  0.3371734E+04  0.7818609E-02  0.8144879E-01
       -1   -1    0    0    0  501  0.00000000000E+00  0.00000000000E+00  0.24090801151E+04  0.24090801151E+04  0.50400001928E-02 0.  1.
        1   -1    0    0  501    0  0.00000000000E+00  0.00000000000E+00 -0.11797649643E+04  0.11797649643E+04  0.50400001928E-02 0. -1.
    10030    2    1    2    0    0  0.00000000000E+00  0.00000000000E+00  0.12293151508E+04  0.35888450794E+04  0.33717344593E+04 0.  0.
        5    1    3    3  502    0 -0.62252665040E+03  0.47389111267E+03 -0.97482269886E+03  0.12499654401E+04  0.46999998093E+01 0. -1.
       -5    1    3    3    0  502  0.62252665040E+03 -0.47389111267E+03  0.22041378497E+04  0.23388796394E+04  0.46999998093E+01 0.  1.
</event>
<event>
 5   0  0.1880301E-06  0.3393840E+04  0.7818609E-02  0.8139420E-01
        2   -1    0    0  501    0  0.00000000000E+00  0.00000000000E+00  0.17373418256E+04  0.17373418256E+04  0.25500000920E-02 0. -1.
       -2   -1    0    0    0  501  0.00000000000E+00  0.00000000000E+00 -0.16574385451E+04  0.16574385451E+04  0.25500000920E-02 0.  1.
    10030    2    1    2    0    0  0.00000000000E+00  0.00000000000E+00  0.79903280549E+02  0.33947803707E+04  0.33938398948E+04 0.  0.
        4    1    3    3  502    0  0.12752885135E+04 -0.13025189568E+03  0.11521092637E+04  0.17235671491E+04  0.12699999809E+01 0.  1.
       -4    1    3    3    0  502 -0.12752885135E+04  0.13025189568E+03 -0.10722059832E+04  0.16712132216E+04  0.12699999809E+01 0. -1.
</event>
<event>
 5   0  0.6134625E-07  0.3410016E+04  0.7818609E-02  0.8135452E-01
       -1   -1    0    0    0  501  0.00000000000E+00  0.00000000000E+00  0.12978160765E+04  0.12978160765E+04  0.50400001928E-02 0.  1.
        1   -1    0    0  501    0  0.00000000000E+00  0.00000000000E+00 -0.22399577131E+04  0.22399577131E+04  0.50400001928E-02 0. -1.
    10030    2    1    2    0    0  0.00000000000E+00  0.00000000000E+00 -0.94214163654E+03  0.35377737896E+04  0.34100164990E+04 0.  0.
        3    1    3    3  502    0 -0.11345970599E+04 -0.56843646144E+03 -0.16524256908E+04  0.20834925421E+04  0.10100000352E+00 0. -1.
       -3    1    3    3    0  502  0.11345970599E+04  0.56843646144E+03  0.71028405422E+03  0.14542812476E+04  0.10100000352E+00 0.  1.
</event>
<event>
 5   0  0.1880301E-06  0.3231818E+04  0.7818609E-02  0.8180464E-01
       -2   -1    0    0    0  501  0.00000000000E+00  0.00000000000E+00  0.12516747661E+04  0.12516747661E+04  0.25500000920E-02 0. -1.
        2   -1    0    0  501    0  0.00000000000E+00  0.00000000000E+00 -0.20861340283E+04  0.20861340283E+04  0.25500000920E-02 0.  1.
    10030    2    1    2    0    0  0.00000000000E+00  0.00000000000E+00 -0.83445926226E+03  0.33378087944E+04  0.32318176446E+04 0.  0.
        4    1    3    3  502    0  0.73139865455E+03  0.21197939872E+03  0.10547423774E+04  0.13009082800E+04  0.12699999809E+01 0. -1.
       -4    1    3    3    0  502 -0.73139865455E+03 -0.21197939872E+03 -0.18892016397E+04  0.20369005144E+04  0.12699999809E+01 0.  1.
</event>
<event>
 5   0  0.6134625E-07  0.3355596E+04  0.7818609E-02  0.8148891E-01
       -1   -1    0    0    0  501  0.00000000000E+00  0.00000000000E+00  0.15521777071E+04  0.15521777071E+04  0.50400001928E-02 0. -1.
        1   -1    0    0  501    0  0.00000000000E+00  0.00000000000E+00 -0.18135853248E+04  0.18135853248E+04  0.50400001928E-02 0.  1.
    10030    2    1    2    0    0  0.00000000000E+00  0.00000000000E+00 -0.26140761765E+03  0.33657630319E+04  0.33555963470E+04 0.  0.
        1    1    3    3  502    0 -0.43664932085E+03 -0.15973570256E+04  0.13991840814E+03  0.16618631886E+04  0.50400001928E-02 0. -1.
       -1    1    3    3    0  502  0.43664932085E+03  0.15973570256E+04 -0.40132602579E+03  0.17038998432E+04  0.50400001928E-02 0.  1.
</event>
<event>
 5   0  0.6134625E-07  0.3420047E+04  0.7818609E-02  0.8133004E-01
        1   -1    0    0  501    0  0.00000000000E+00  0.00000000000E+00  0.16783701725E+04  0.16783701725E+04  0.50400001928E-02 0.  1.
       -1   -1    0    0    0  501  0.00000000000E+00  0.00000000000E+00 -0.17422734928E+04  0.17422734928E+04  0.50400001928E-02 0. -1.
    10030    2    1    2    0    0  0.00000000000E+00  0.00000000000E+00 -0.63903320363E+02  0.34206436653E+04  0.34200467030E+04 0.  0.
        1    1    3    3  502    0  0.52747232611E+03  0.15218521661E+04  0.54253417574E+03  0.16995894805E+04  0.50400001928E-02 0.  1.
       -1    1    3    3    0  502 -0.52747232611E+03 -0.15218521661E+04 -0.60643749610E+03  0.17210541848E+04  0.50400001928E-02 0. -1.
</event>
<event>
 5   0  0.1880301E-06  0.3019180E+04  0.7818609E-02  0.8238275E-01
       -2   -1    0    0    0  501  0.00000000000E+00  0.00000000000E+00  0.11126997766E+04  0.11126997767E+04  0.25500000920E-02 0.  1.
        2   -1    0    0  501    0  0.00000000000E+00  0.00000000000E+00 -0.20480479443E+04  0.20480479443E+04  0.25500000920E-02 0. -1.
    10030    2    1    2    0    0  0.00000000000E+00  0.00000000000E+00 -0.93534816764E+03  0.31607477209E+04  0.30191803458E+04 0.  0.
        4    1    3    3  502    0  0.77572238809E+03  0.45140301090E+03 -0.17384058459E+04  0.19564167244E+04  0.12699999809E+01 0. -1.
       -4    1    3    3    0  502 -0.77572238809E+03 -0.45140301090E+03  0.80305767826E+03  0.12043309965E+04  0.12699999809E+01 0.  1.
</event>
<event>
 5   0  0.1948507E-06  0.3431600E+04  0.7818609E-02  0.8130194E-01
       -2   -1    0    0    0  501  0.00000000000E+00  0.00000000000E+00  0.15340178437E+04  0.15340178437E+04  0.25500000920E-02 0. -1.
        2   -1    0    0  501    0  0.00000000000E+00  0.00000000000E+00 -0.19191238495E+04  0.19191238495E+04  0.25500000920E-02 0.  1.
    10030    2    1    2    0    0  0.00000000000E+00  0.00000000000E+00 -0.38510600581E+03  0.34531416932E+04  0.34316003436E+04 0.  0.
        1    1    3    3  502    0  0.21524069436E+03  0.16700291655E+04 -0.52423438050E+03  0.17635610723E+04  0.50400001928E-02 0.  1.
       -1    1    3    3    0  502 -0.21524069436E+03 -0.16700291655E+04  0.13912837468E+03  0.16895806209E+04  0.50400001928E-02 0. -1.
</event>
<event>
 5   0  0.1797075E-06  0.2910572E+04  0.7818609E-02  0.8269739E-01
        2   -1    0    0  501    0  0.00000000000E+00  0.00000000000E+00  0.24123555239E+04  0.24123555239E+04  0.25500000920E-02 0. -1.
       -2   -1    0    0    0  501  0.00000000000E+00  0.00000000000E+00 -0.87792071672E+03  0.87792071673E+03  0.25500000920E-02 0.  1.
    10030    2    1    2    0    0  0.00000000000E+00  0.00000000000E+00  0.15344348072E+04  0.32902762407E+04  0.29105716899E+04 0.  0.
        2    1    3    3  502    0 -0.86564421347E+03 -0.95092955074E+02  0.20852907080E+04  0.22598274074E+04  0.25500000920E-02 0. -1.
       -2    1    3    3    0  502  0.86564421347E+03  0.95092955074E+02 -0.55085590082E+03  0.10304488332E+04  0.25500000920E-02 0.  1.
</event>
<event>
 5   0  0.1880301E-06  0.3389541E+04  0.7818609E-02  0.8140478E-01
        2   -1    0    0  501    0  0.00000000000E+00  0.00000000000E+00  0.22602922845E+04  0.22602922845E+04  0.25500000920E-02 0.  1.
       -2   -1    0    0    0  501  0.00000000000E+00  0.00000000000E+00 -0.12707413963E+04  0.12707413963E+04  0.25500000920E-02 0. -1.
    10030    2    1    2    0    0  0.00000000000E+00  0.00000000000E+00  0.98955088823E+03  0.35310336808E+04  0.33895409563E+04 0.  0.
        4    1    3    3  502    0  0.74328350087E+03 -0.62928226828E+03  0.19396779500E+04  0.21704420513E+04  0.12699999809E+01 0.  1.
       -4    1    3    3    0  502 -0.74328350087E+03  0.62928226828E+03 -0.95012706172E+03  0.13605916295E+04  0.12699999809E+01 0. -1.
</event>
<event>
 5   0  0.6134625E-07  0.3447314E+04  0.7818609E-02  0.8126390E-01
        1   -1    0    0  501    0  0.00000000000E+00  0.00000000000E+00  0.20013966631E+04  0.20013966631E+04  0.50400001928E-02 0. -1.
       -1   -1    0    0    0  501  0.00000000000E+00  0.00000000000E+00 -0.14844604656E+04  0.14844604656E+04  0.50400001928E-02 0.  1.
    10030    2    1    2    0    0  0.00000000000E+00  0.00000000000E+00  0.51693619748E+03  0.34858571287E+04  0.34473144460E+04 0.  0.
        1    1    3    3  502    0  0.12102735012E+04  0.12105555862E+04  0.54251072552E+02  0.17126441410E+04  0.50400001928E-02 0.  1.
       -1    1    3    3    0  502 -0.12102735012E+04 -0.12105555862E+04  0.46268512493E+03  0.17732129877E+04  0.50400001928E-02 0. -1.
</event>
<event>
 5   0  0.6134625E-07  0.3366696E+04  0.7818609E-02  0.8146129E-01
       -1   -1    0    0    0  501  0.00000000000E+00  0.00000000000E+00  0.23989037607E+04  0.23989037607E+04  0.50400001928E-02 0.  1.
        1   -1    0    0  501    0  0.00000000000E+00  0.00000000000E+00 -0.11812314846E+04  0.11812314846E+04  0.50400001928E-02 0. -1.
    10030    2    1    2    0    0  0.00000000000E+00  0.00000000000E+00  0.12176722762E+04  0.35801352453E+04  0.33666960960E+04 0.  0.
        1    1    3    3  502    0  0.26067583416E+03  0.87217291720E+03 -0.89692198519E+03  0.12779305676E+04  0.50400001928E-02 0. -1.
       -1    1    3    3    0  502 -0.26067583416E+03 -0.87217291720E+03  0.21145942614E+04  0.23022046777E+04  0.50400001928E-02 0.  1.
</event>
<event>
 5   0  0.1797075E-06  0.3344720E+04  0.7818609E-02  0.8151609E-01
       -2   -1    0    0    0  501  0.00000000000E+00  0.00000000000E+00  0.10099015342E+04  0.10099015342E+04  0.25500000920E-02 0. -1.
        2   -1    0    0  501    0  0.00000000000E+00  0.00000000000E+00 -0.27693672390E+04  0.27693672390E+04  0.25500000920E-02 0.  1.
    10030    2    1    2    0    0  0.00000000000E+00  0.00000000000E+00 -0.17594657049E+04  0.37792687732E+04  0.33447201518E+04 0.  0.
        2    1    3    3  502    0 -0.11537328888E+04  0.12079156688E+04 -0.78774049606E+03  0.18468066848E+04  0.25500000920E-02 0.  1.
       -2    1    3    3    0  502  0.11537328888E+04 -0.12079156688E+04 -0.97172520881E+03  0.19324620884E+04  0.25500000920E-02 0. -1.
</event>
<event>
 5   0  0.6134625E-07  0.3439166E+04  0.7818609E-02  0.8128360E-01
        1   -1    0    0  501    0  0.00000000000E+00  0.00000000000E+00  0.97431174200E+03  0.97431174201E+03  0.50400001928E-02 0.  1.
       -1   -1    0    0    0  501  0.00000000000E+00  0.00000000000E+00 -0.30349272876E+04  0.30349272876E+04  0.50400001928E-02 0. -1.
    10030    2    1    2    0    0  0.00000000000E+00  0.00000000000E+00 -0.20606155456E+04  0.40092390296E+04  0.34391657666E+04 0.  0.
        5    1    3    3  502    0  0.21235737159E+03  0.14621062330E+04 -0.20559724190E+04  0.25317770374E+04  0.46999998093E+01 0. -1.
       -5    1    3    3    0  502 -0.21235737159E+03 -0.14621062330E+04 -0.46431266523E+01  0.14774619922E+04  0.46999998093E+01 0.  1.
</event>
<event>
 5   0  0.6218695E-07  0.3460370E+04  0.7818609E-02  0.8123246E-01
       -1   -1    0    0    0  501  0.00000000000E+00  0.00000000000E+00  0.18789596598E+04  0.18789596598E+04  0.50400001928E-02 0. -1.
        1   -1    0    0  501    0  0.00000000000E+00  0.00000000000E+00 -0.15931906247E+04  0.15931906247E+04  0.50400001928E-02 0.  1.
    10030    2    1    2    0    0  0.00000000000E+00  0.00000000000E+00  0.28576903509E+03  0.34721502844E+04  0.34603704507E+04 0.  0.
        2    1    3    3  502    0 -0.13127490376E+03  0.14241415643E+04  0.11199182259E+04  0.18164881305E+04  0.25500000920E-02 0. -1.
       -2    1    3    3    0  502  0.13127490376E+03 -0.14241415643E+04 -0.83414919083E+03  0.16556621539E+04  0.25500000920E-02 0.  1.
</event>
<event>
 5   0  0.6218695E-07  0.2778625E+04  0.7818609E-02  0.8309935E-01
        1   -1    0    0  501    0  0.00000000000E+00  0.00000000000E+00  0.11345232876E+04  0.11345232876E+04  0.50400001928E-02 0.  1.
       -1   -1    0    0    0  501  0.00000000000E+00  0.00000000000E+00 -0.17013219510E+04  0.17013219510E+04  0.50400001928E-02 0. -1.
    10030    2    1    2    0    0  0.00000000000E+00  0.00000000000E+00 -0.56679866338E+03  0.28358452386E+04  0.27786251083E+04 0.  0.
        2    1    3    3  502    0 -0.58991239724E+03 -0.25833132925E+03  0.97299067760E+03  0.11668087122E+04  0.25500000920E-02 0.  1.
       -2    1    3    3    0  502  0.58991239724E+03  0.25833132925E+03 -0.15397893410E+04  0.16690365265E+04  0.25500000920E-02 0. -1.
</event>
<event>
 5   0  0.6146388E-07  0.3534711E+04  0.7818609E-02  0.8105613E-01
        1   -1    0    0  501    0  0.00000000000E+00  0.00000000000E+00  0.19307100698E+04  0.19307100698E+04  0.50400001928E-02 0. -1.
       -1   -1    0    0    0  501  0.00000000000E+00  0.00000000000E+00 -0.16178219039E+04  0.16178219039E+04  0.50400001928E-02 0.  1.
    10030    2    1    2    0    0  0.00000000000E+00  0.00000000000E+00  0.31288816587E+03  0.35485319737E+04  0.35347107610E+04 0.  0.
        4    1    3    3  502    0 -0.11192234545E+04  0.54173297872E+03 -0.11044157636E+04  0.16630909636E+04  0.12699999809E+01 0.  1.
       -4    1    3    3    0  502  0.11192234545E+04 -0.54173297872E+03  0.14173039295E+04  0.18854410101E+04  0.12699999809E+01 0. -1.
</event>
<event>
 5   0  0.1797075E-06  0.3396305E+04  0.7818609E-02  0.8138814E-01
        2   -1    0    0  501    0  0.00000000000E+00  0.00000000000E+00  0.10735564448E+04  0.10735564448E+04  0.25500000920E-02 0.  1.
       -2   -1    0    0    0  501  0.00000000000E+00  0.00000000000E+00 -0.26861388474E+04  0.26861388474E+04  0.25500000920E-02 0. -1.
    10030    2    1    2    0    0  0.00000000000E+00  0.00000000000E+00 -0.16125824026E+04  0.37596952922E+04  0.33963048575E+04 0.  0.
        2    1    3    3  502    0  0.94784314842E+03  0.12845455042E+04 -0.14472579241E+04  0.21547666429E+04  0.25500000920E-02 0. -1.
       -2    1    3    3    0  502 -0.94784314842E+03 -0.12845455042E+04 -0.16532447852E+03  0.16049286494E+04  0.25500000920E-02 0.  1.
</event>
<event>
 5   0  0.6134625E-07  0.3378773E+04  0.7818609E-02  0.8143136E-01
       -1   -1    0    0    0  501  0.00000000000E+00  0.00000000000E+00  0.11453696393E+04  0.11453696393E+04  0.50400001928E-02 0. -1.
        1   -1    0    0  501    0  0.00000000000E+00  0.00000000000E+00 -0.24917954453E+04  0.24917954453E+04  0.50400001928E-02 0.  1.
    10030    2    1    2    0    0  0.00000000000E+00  0.00000000000E+00 -0.13464258060E+04  0.36371650847E+04  0.33787730617E+04 0.  0.
        1    1    3    3  502    0  0.82447526909E+03  0.33191533273E+02  0.91369020828E+03  0.12311340073E+04  0.50400001928E-02 0. -1.
       -1    1    3    3    0  502 -0.82447526909E+03 -0.33191533273E+02 -0.22601160143E+04  0.24060310774E+04  0.50400001928E-02 0.  1.
</event>
<event>
 5   0  0.1797075E-06  0.3392615E+04  0.7818609E-02  0.8139721E-01
       -2   -1    0    0    0  501  0.00000000000E+00  0.00000000000E+00  0.13289774653E+04  0.13289774653E+04  0.25500000920E-02 0. -1.
        2   -1    0    0  501    0  0.00000000000E+00  0.00000000000E+00 -0.21651676557E+04  0.21651676557E+04  0.25500000920E-02 0.  1.
    10030    2    1    2    0    0  0.00000000000E+00  0.00000000000E+00 -0.83619019039E+03  0.34941451209E+04  0.33926149342E+04 0.  0.
        2    1    3    3  502    0  0.73450776158E+03 -0.12474221217E+04  0.49261615989E+03  0.15291286024E+04  0.25500000920E-02 0.  1.
       -2    1    3    3    0  502 -0.73450776158E+03  0.12474221217E+04 -0.13288063503E+04  0.19650165185E+04  0.25500000920E-02 0. -1.
</event>
<event>
 5   0  0.1797075E-06  0.3436131E+04  0.7818609E-02  0.8129095E-01
       -2   -1    0    0    0  501  0.00000000000E+00  0.00000000000E+00  0.20533442776E+04  0.20533442776E+04  0.25500000920E-02 0. -1.
        2   -1    0    0  501    0  0.00000000000E+00  0.00000000000E+00 -0.14375325720E+04  0.14375325720E+04  0.25500000920E-02 0.  1.
    10030    2    1    2    0    0  0.00000000000E+00  0.00000000000E+00  0.61581170558E+03  0.34908768496E+04  0.34361311271E+04 0.  0.
        2    1    3    3  502    0 -0.67190223764E+03 -0.55333417420E+02  0.19133473904E+04  0.20286479834E+04  0.25500000920E-02 0. -1.
       -2    1    3    3    0  502  0.67190223764E+03  0.55333417420E+02 -0.12975356848E+04  0.14622288663E+04  0.25500000920E-02 0.  1.
</event>
<event>
 5   0  0.1797075E-06  0.3423108E+04  0.7818609E-02  0.8132258E-01
       -2   -1    0    0    0  501  0.00000000000E+00  0.00000000000E+00  0.13152984534E+04  0.13152984534E+04  0.25500000920E-02 0. -1.
        2   -1    0    0  501    0  0.00000000000E+00  0.00000000000E+00 -0.22271884922E+04  0.22271884922E+04  0.25500000920E-02 0.  1.
    10030    2    1    2    0    0  0.00000000000E+00  0.00000000000E+00 -0.91189003883E+03  0.35424869456E+04  0.34231082829E+04 0.  0.
        2    1    3    3  502    0 -0.31331050917E+02 -0.10761581133E+03 -0.22233864256E+04  0.22262097824E+04  0.25500000920E-02 0.  1.
       -2    1    3    3    0  502  0.31331050917E+02  0.10761581133E+03  0.13114963868E+04  0.13162771632E+04  0.25500000920E-02 0. -1.
</event>
<event>
 5   0  0.1948507E-06  0.2875017E+04  0.7818609E-02  0.8280350E-01
        2   -1    0    0  501    0  0.00000000000E+00  0.00000000000E+00  0.21359568442E+04  0.21359568442E+04  0.25500000920E-02 0. -1.
       -2   -1    0    0    0  501  0.00000000000E+00  0.00000000000E+00 -0.96744991309E+03  0.96744991310E+03  0.25500000920E-02 0.  1.
    10030    2    1    2    0    0  0.00000000000E+00  0.00000000000E+00  0.11685069311E+04  0.31034067573E+04  0.28750174005E+04 0.  0.
        1    1    3    3  502    0 -0.82756844317E+03 -0.90043038706E+03  0.13997745705E+04  0.18587665960E+04  0.50400001928E-02 0. -1.
       -1    1    3    3    0  502  0.82756844317E+03  0.90043038706E+03 -0.23126763942E+03  0.12446401613E+04  0.50400001928E-02 0.  1.
</event>
<event>
 5   0  0.6218695E-07  0.3349268E+04  0.7818609E-02  0.8150471E-01
        1   -1    0    0  501    0  0.00000000000E+00  0.00000000000E+00  0.14657504108E+04  0.14657504108E+04  0.50400001928E-02 0.  1.
       -1   -1    0    0    0  501  0.00000000000E+00  0.00000000000E+00 -0.19132855023E+04  0.19132855023E+04  0.50400001928E-02 0. -1.
    10030    2    1    2    0    0  0.00000000000E+00  0.00000000000E+00 -0.44753509149E+03  0.33790359131E+04  0.33492679863E+04 0.  0.
        2    1    3    3  502    0 -0.47280341490E+02 -0.16732118638E+04 -0.27446994862E+03  0.16962332165E+04  0.25500000920E-02 0.  1.
       -2    1    3    3    0  502  0.47280341490E+02  0.16732118638E+04 -0.17306514287E+03  0.16828026966E+04  0.25500000920E-02 0. -1.
</event>
<event>
 5   0  0.1880301E-06  0.3395914E+04  0.7818609E-02  0.8138910E-01
        2   -1    0    0  501    0  0.00000000000E+00  0.00000000000E+00  0.19573619921E+04  0.19573619921E+04  0.25500000920E-02 0.  1.
       -2   -1    0    0    0  501  0.00000000000E+00  0.00000000000E+00 -0.14729300878E+04  0.14729300878E+04  0.25500000920E-02 0. -1.
    10030    2    1    2    0    0  0.00000000000E+00  0.00000000000E+00  0.48443190433E+03  0.34302920799E+04  0.33959136449E+04 0.  0.
        4    1    3    3  502    0  0.31840810951E+03  0.13713464505E+04 -0.71664661778E+03  0.15797337748E+04  0.12699999809E+01 0. -1.
       -4    1    3    3    0  502 -0.31840810951E+03 -0.13713464505E+04  0.12010785221E+04  0.18505583051E+04  0.12699999809E+01 0.  1.
</event>
<event>
 5   0  0.1911477E-06  0.3525010E+04  0.7818609E-02  0.8107888E-01
       -2   -1    0    0    0  501  0.00000000000E+00  0.00000000000E+00  0.14476796352E+04  0.14476796352E+04  0.25500000920E-02 0. -1.
        2   -1    0    0  501    0  0.00000000000E+00  0.00000000000E+00 -0.21457957076E+04  0.21457957076E+04  0.25500000920E-02 0.  1.
    10030    2    1    2    0    0  0.00000000000E+00  0.00000000000E+00 -0.69811607239E+03  0.35934753429E+04  0.35250104949E+04 0.  0.
        5    1    3    3  502    0 -0.10805500159E+03 -0.11400400293E+04  0.10167534997E+04  0.15313970488E+04  0.46999998093E+01 0. -1.
       -5    1    3    3    0  502  0.10805500159E+03  0.11400400293E+04 -0.17148695721E+04  0.20620782941E+04  0.46999998093E+01 0.  1.
</event>
<event>
 5   0  0.6134625E-07  0.3575134E+04  0.7818609E-02  0.8096211E-01
       -1   -1    0    0    0  501  0.00000000000E+00  0.00000000000E+00  0.11014950361E+04  0.11014950361E+04  0.50400001928E-02 0.  1.
        1   -1    0    0  501    0  0.00000000000E+00  0.00000000000E+00 -0.29009628259E+04  0.29009628259E+04  0.50400001928E-02 0. -1.
    10030    2    1    2    0    0  0.00000000000E+00  0.00000000000E+00 -0.17994677898E+04  0.40024578620E+04  0.35751342087E+04 0.  0.
        3    1    3    3  502    0  0.91047462674E+03 -0.73327834194E+03  0.61421007867E+03  0.13205738161E+04  0.10100000352E+00 0. -1.
       -3    1    3    3    0  502 -0.91047462674E+03  0.73327834194E+03 -0.24136778685E+04  0.26818840459E+04  0.10100000352E+00 0.  1.
</event>
<event>
 5   0  0.1339844E-06  0.3317071E+04  0.7818609E-02  0.8158565E-01
       -2   -1    0    0    0  501  0.00000000000E+00  0.00000000000E+00  0.16026245960E+04  0.16026245960E+04  0.25500000920E-02 0. -1.
        2   -1    0    0  501    0  0.00000000000E+00  0.00000000000E+00 -0.17163973174E+04  0.17163973174E+04  0.25500000920E-02 0.  1.
    10030    2    1    2    0    0  0.00000000000E+00  0.00000000000E+00 -0.11377272134E+03  0.33190219134E+04  0.33170713332E+04 0.  0.
        3    1    3    3  502    0 -0.50874366893E+03 -0.56902436322E+03  0.14164372152E+04  0.16090069115E+04  0.10100000352E+00 0. -1.
       -3    1    3    3    0  502  0.50874366893E+03  0.56902436322E+03 -0.15302099365E+04  0.17100150019E+04  0.10100000352E+00 0.  1.
</event>
<event>
 5   0  0.6134625E-07  0.3382461E+04  0.7818609E-02  0.8142225E-01
       -1   -1    0    0    0  501  0.00000000000E+00  0.00000000000E+00  0.16590248716E+04  0.16590248716E+04  0.50400001928E-02 0.  1.
        1   -1    0    0  501    0  0.00000000000E+00  0.00000000000E+00 -0.17240609044E+04  0.17240609044E+04  0.50400001928E-02 0. -1.
    10030    2    1    2    0    0  0.00000000000E+00  0.00000000000E+00 -0.65036032859E+02  0.33830857760E+04  0.33824605958E+04 0.  0.
        3    1    3    3  502    0 -0.13901691787E+04 -0.83807269844E+03 -0.50728850604E+03  0.17006698186E+04  0.10100000352E+00 0. -1.
       -3    1    3    3    0  502  0.13901691787E+04  0.83807269844E+03  0.44225247318E+03  0.16824159574E+04  0.10100000352E+00 0.  1.
</event>
<event>
 5   0  0.1339844E-06  0.3415254E+04  0.7818609E-02  0.8134173E-01
        2   -1    0    0  501    0  0.00000000000E+00  0.00000000000E+00  0.26611776426E+04  0.26611776426E+04  0.25500000920E-02 0. -1.
       -2   -1    0    0    0  501  0.00000000000E+00  0.00000000000E+00 -0.10957516393E+04  0.10957516393E+04  0.25500000920E-02 0.  1.
    10030    2    1    2    0    0  0.00000000000E+00  0.00000000000E+00  0.15654260033E+04  0.37569292819E+04  0.34152538789E+04 0.  0.
        3    1    3    3  502    0 -0.15214470300E+04 -0.29704845881E+03  0.15705709594E+04  0.22067469272E+04  0.10100000352E+00 0. -1.
       -3    1    3    3    0  502  0.15214470300E+04  0.29704845881E+03 -0.51449561124E+01  0.15501823547E+04  0.10100000352E+00 0.  1.
</event>
<event>
 5   0  0.1797075E-06  0.3313622E+04  0.7818609E-02  0.8159438E-01
        2   -1    0    0  501    0  0.00000000000E+00  0.00000000000E+00  0.22615552769E+04  0.22615552769E+04  0.25500000920E-02 0.  1.
       -2   -1    0    0    0  501  0.00000000000E+00  0.00000000000E+00 -0.12137767342E+04  0.12137767342E+04  0.25500000920E-02 0. -1.
    10030    2    1    2    0    0  0.00000000000E+00  0.00000000000E+00  0.10477785427E+04  0.34753320111E+04  0.33136222948E+04 0.  0.
        2    1    3    3  502    0  0.11862957749E+04  0.49162863034E+03  0.16218931755E+04  0.20687034221E+04  0.25500000920E-02 0. -1.
       -2    1    3    3    0  502 -0.11862957749E+04 -0.49162863034E+03 -0.57411463280E+03  0.14066285890E+04  0.25500000920E-02 0.  1.
</event>
<event>
 5   0  0.6146388E-07  0.2985156E+04  0.7818609E-02  0.8247983E-01
        1   -1    0    0  501    0  0.00000000000E+00  0.00000000000E+00  0.24185105300E+04  0.24185105300E+04  0.50400001928E-02 0. -1.
       -1   -1    0    0    0  501  0.00000000000E+00  0.00000000000E+00 -0.92114074595E+03  0.92114074596E+03  0.50400001928E-02 0.  1.
    10030    2    1    2    0    0  0.00000000000E+00  0.00000000000E+00  0.14973697840E+04  0.33396512759E+04  0.29851556701E+04 0.  0.
        4    1    3    3  502    0 -0.89790051502E+03 -0.96509984817E+03 -0.34557077217E+02  0.13186503920E+04  0.12699999809E+01 0.  1.
       -4    1    3    3    0  502  0.89790051502E+03  0.96509984817E+03  0.15319268612E+04  0.20210008839E+04  0.12699999809E+01 0. -1.
</event>
<event>
 5   0  0.6134625E-07  0.3370412E+04  0.7818609E-02  0.8145207E-01
       -1   -1    0    0    0  501  0.00000000000E+00  0.00000000000E+00  0.14948942543E+04  0.14948942543E+04  0.50400001928E-02 0. -1.
        1   -1    0    0  501    0  0.00000000000E+00  0.00000000000E+00 -0.18997455461E+04  0.18997455461E+04  0.50400001928E-02 0.  1.
    10030    2    1    2    0    0  0.00000000000E+00  0.00000000000E+00 -0.40485129180E+03  0.33946398005E+04  0.33704116672E+04 0.  0.
        1    1    3    3  502    0 -0.37645787340E+03 -0.83036207102E+02  0.14498863654E+04  0.15002619820E+04  0.50400001928E-02 0. -1.
       -1    1    3    3    0  502  0.37645787340E+03  0.83036207102E+02 -0.18547376572E+04  0.18943778185E+04  0.50400001928E-02 0.  1.
</event>
<event>
 5   0  0.1880301E-06  0.3377707E+04  0.7818609E-02  0.8143400E-01
        2   -1    0    0  501    0  0.00000000000E+00  0.00000000000E+00  0.94447909938E+03  0.94447909938E+03  0.25500000920E-02 0.  1.
       -2   -1    0    0    0  501  0.00000000000E+00  0.00000000000E+00 -0.30198926894E+04  0.30198926894E+04  0.25500000920E-02 0. -1.
    10030    2    1    2    0    0  0.00000000000E+00  0.00000000000E+00 -0.20754135900E+04  0.39643717888E+04  0.33777066347E+04 0.  0.
        4    1    3    3  502    0 -0.56801070418E+03 -0.13021883334E+04 -0.21094918379E+04  0.25432829262E+04  0.12699999809E+01 0. -1.
       -4    1    3    3    0  502  0.56801070418E+03  0.13021883334E+04  0.34078247842E+02  0.14210888626E+04  0.12699999809E+01 0.  1.
</event>
<event>
 5   0  0.1880301E-06  0.3516512E+04  0.7818609E-02  0.8109888E-01
       -2   -1    0    0    0  501  0.00000000000E+00  0.00000000000E+00  0.12365926456E+04  0.12365926456E+04  0.25500000920E-02 0.  1.
        2   -1    0    0  501    0  0.00000000000E+00  0.00000000000E+00 -0.24999858084E+04  0.24999858084E+04  0.25500000920E-02 0. -1.
    10030    2    1    2    0    0  0.00000000000E+00  0.00000000000E+00 -0.12633931628E+04  0.37365784540E+04  0.35165119449E+04 0.  0.
        4    1    3    3  502    0  0.77321169013E+03 -0.21326321102E+03 -0.22942622074E+04  0.24304275764E+04  0.12699999809E+01 0. -1.
       -4    1    3    3    0  502 -0.77321169013E+03  0.21326321102E+03  0.10308690446E+04  0.13061508776E+04  0.12699999809E+01 0.  1.
</event>
<event>
 5   0  0.1948507E-06  0.3407491E+04  0.7818609E-02  0.8136070E-01
       -2   -1    0    0    0  501  0.00000000000E+00  0.00000000000E+00  0.14874125158E+04  0.14874125158E+04  0.25500000920E-02 0. -1.
        2   -1    0    0  501    0  0.00000000000E+00  0.00000000000E+00 -0.19515423771E+04  0.19515423771E+04  0.25500000920E-02 0.  1.
    10030    2    1    2    0    0  0.00000000000E+00  0.00000000000E+00 -0.46412986134E+03  0.34389548928E+04  0.34074908990E+04 0.  0.
        1    1    3    3  502    0 -0.14935795102E+04 -0.25766134490E+03 -0.10174404031E+04  0.18254736634E+04  0.50400001928E-02 0.  1.
       -1    1    3    3    0  502  0.14935795102E+04  0.25766134490E+03  0.55331054181E+03  0.16134812294E+04  0.50400001928E-02 0. -1.
</event>
<event>
 5   0  0.1911477E-06  0.3417915E+04  0.7818609E-02  0.8133523E-01
       -2   -1    0    0    0  501  0.00000000000E+00  0.00000000000E+00  0.12032150522E+04  0.12032150522E+04  0.25500000920E-02 0. -1.
        2   -1    0    0  501    0  0.00000000000E+00  0.00000000000E+00 -0.24272766547E+04  0.24272766547E+04  0.25500000920E-02 0.  1.
    10030    2    1    2    0    0  0.00000000000E+00  0.00000000000E+00 -0.12240616025E+04  0.36304917069E+04  0.34179150409E+04 0.  0.
        5    1    3    3  502    0  0.47186194752E+03  0.15856579647E+04 -0.15695891552E+03  0.16618131874E+04  0.46999998093E+01 0.  1.
       -5    1    3    3    0  502 -0.47186194752E+03 -0.15856579647E+04 -0.10671026870E+04  0.19686785195E+04  0.46999998093E+01 0. -1.
</event>
<event>
 5   0  0.6134625E-07  0.3281692E+04  0.7818609E-02  0.8167570E-01
        1   -1    0    0  501    0  0.00000000000E+00  0.00000000000E+00  0.17285642149E+04  0.17285642149E+04  0.50400001928E-02 0.  1.
       -1   -1    0    0    0  501  0.00000000000E+00  0.00000000000E+00 -0.15575791962E+04  0.15575791962E+04  0.50400001928E-02 0. -1.
    10030    2    1    2    0    0  0.00000000000E+00  0.00000000000E+00  0.17098501869E+03  0.32861434111E+04  0.32816920394E+04 0.  0.
        3    1    3    3  502    0  0.20029171569E+03  0.52437385674E+03  0.16294305096E+04  0.17234060777E+04  0.10100000352E+00 0.  1.
       -3    1    3    3    0  502 -0.20029171569E+03 -0.52437385674E+03 -0.14584454909E+04  0.15627373334E+04  0.10100000352E+00 0. -1.
</event>
<event>
 5   0  0.6134625E-07  0.3375051E+04  0.7818609E-02  0.8144057E-01
       -1   -1    0    0    0  501  0.00000000000E+00  0.00000000000E+00  0.11348371262E+04  0.11348371262E+04  0.50400001928E-02 0. -1.
        1   -1    0    0  501    0  0.00000000000E+00  0.00000000000E+00 -0.25093841936E+04  0.25093841936E+04  0.50400001928E-02 0.  1.
    10030    2    1    2    0    0  0.00000000000E+00  0.00000000000E+00 -0.13745470674E+04  0.36442213198E+04  0.33750510200E+04 0.  0.
        1    1    3    3  502    0 -0.20878689792E+03 -0.16137788659E+04 -0.20455252686E+03  0.16400353450E+04  0.50400001928E-02 0.  1.
       -1    1    3    3    0  502  0.20878689792E+03  0.16137788659E+04 -0.11699945405E+04  0.20041859748E+04  0.50400001928E-02 0. -1.
</event>
<event>
 5   0  0.1797075E-06  0.3430537E+04  0.7818609E-02  0.8130452E-01
       -2   -1    0    0    0  501  0.00000000000E+00  0.00000000000E+00  0.17671565833E+04  0.17671565833E+04  0.25500000920E-02 0.  1.
        2   -1    0    0  501    0  0.00000000000E+00  0.00000000000E+00 -0.16649040959E+04  0.16649040959E+04  0.25500000920E-02 0. -1.
    10030    2    1    2    0    0  0.00000000000E+00  0.00000000000E+00  0.10225248738E+03  0.34320606793E+04  0.34305371205E+04 0.  0.
        2    1    3    3  502    0 -0.64399135634E+03 -0.99231338075E+03 -0.11914944283E+04  0.16790085424E+04  0.25500000920E-02 0. -1.
       -2    1    3    3    0  502  0.64399135634E+03  0.99231338075E+03  0.12937469157E+04  0.17530521369E+04  0.25500000920E-02 0.  1.
</event>
<event>
 5   0  0.6134625E-07  0.3330907E+04  0.7818609E-02  0.8155075E-01
        1   -1    0    0  501    0  0.00000000000E+00  0.00000000000E+00  0.18357653346E+04  0.18357653346E+04  0.50400001928E-02 0.  1.
       -1   -1    0    0    0  501  0.00000000000E+00  0.00000000000E+00 -0.15109421482E+04  0.15109421482E+04  0.50400001928E-02 0. -1.
    10030    2    1    2    0    0  0.00000000000E+00  0.00000000000E+00  0.32482318639E+03  0.33467074829E+04  0.33309069146E+04 0.  0.
        3    1    3    3  502    0  0.30951676541E+03 -0.14273545734E+04 -0.64175591758E+03  0.15953032232E+04  0.10100000352E+00 0. -1.
       -3    1    3    3    0  502 -0.30951676541E+03  0.14273545734E+04  0.96657910398E+03  0.17514042596E+04  0.10100000352E+00 0.  1.
</event>
<event>
 5   0  0.6134625E-07  0.2923363E+04  0.7818609E-02  0.8265960E-01
        1   -1    0    0  501    0  0.00000000000E+00  0.00000000000E+00  0.11902487752E+04  0.11902487752E+04  0.50400001928E-02 0. -1.
       -1   -1    0    0    0  501  0.00000000000E+00  0.00000000000E+00 -0.17950140735E+04  0.17950140735E+04  0.50400001928E-02 0.  1.
    10030    2    1    2    0    0  0.00000000000E+00  0.00000000000E+00 -0.60476529828E+03  0.29852628487E+04  0.29233633386E+04 0.  0.
        1    1    3    3  502    0  0.58598966329E+03  0.56515157162E+03  0.93729622867E+03  0.12414928130E+04  0.50400001928E-02 0. -1.
       -1    1    3    3    0  502 -0.58598966329E+03 -0.56515157162E+03 -0.15420615270E+04  0.17437700357E+04  0.50400001928E-02 0.  1.
</event>
<event>
 5   0  0.6218695E-07  0.3450155E+04  0.7818609E-02  0.8125705E-01
        1   -1    0    0  501    0  0.00000000000E+00  0.00000000000E+00  0.20600914782E+04  0.20600914782E+04  0.50400001928E-02 0. -1.
       -1   -1    0    0    0  501  0.00000000000E+00  0.00000000000E+00 -0.14445436507E+04  0.14445436507E+04  0.50400001928E-02 0.  1.
    10030    2    1    2    0    0  0.00000000000E+00  0.00000000000E+00  0.61554782755E+03  0.35046351289E+04  0.34501548167E+04 0.  0.
        2    1    3    3  502    0 -0.13207284547E+03 -0.29110751426E+03  0.20297429453E+04  0.20547611164E+04  0.25500000920E-02 0. -1.
       -2    1    3    3    0  502  0.13207284547E+03  0.29110751426E+03 -0.14141951177E+04  0.14498740126E+04  0.25500000920E-02 0.  1.
</event>
<event>
 5   0  0.1797075E-06  0.3579339E+04  0.7818609E-02  0.8095241E-01
       -2   -1    0    0    0  501  0.00000000000E+00  0.00000000000E+00  0.15317050246E+04  0.15317050246E+04  0.25500000920E-02 0.  1.
        2   -1    0    0  501    0  0.00000000000E+00  0.00000000000E+00 -0.20910791527E+04  0.20910791527E+04  0.25500000920E-02 0. -1.
    10030    2    1    2    0    0  0.00000000000E+00  0.00000000000E+00 -0.55937412812E+03  0.36227841773E+04  0.35793387350E+04 0.  0.
        2    1    3    3  502    0  0.16086536414E+04  0.26973033431E+03 -0.10251012993E+04  0.19264873904E+04  0.25500000920E-02 0. -1.
       -2    1    3    3    0  502 -0.16086536414E+04 -0.26973033431E+03  0.46572717118E+03  0.16962967869E+04  0.25500000920E-02 0.  1.
</event>
<event>
 5   0  0.1339844E-06  0.3298385E+04  0.7818609E-02  0.8163306E-01
        2   -1    0    0  501    0  0.00000000000E+00  0.00000000000E+00  0.15612477564E+04  0.15612477564E+04  0.25500000920E-02 0. -1.
       -2   -1    0    0    0  501  0.00000000000E+00  0.00000000000E+00 -0.17420912401E+04  0.17420912401E+04  0.25500000920E-02 0.  1.
    10030    2    1    2    0    0  0.00000000000E+00  0.00000000000E+00 -0.18084348373E+03  0.33033389966E+04  0.32983850837E+04 0.  0.
        3    1    3    3  502    0 -0.14599239863E+04 -0.76707674441E+03 -0.97591566008E+02  0.16520620151E+04  0.10100000352E+00 0. -1.
       -3    1    3    3    0  502  0.14599239863E+04  0.76707674441E+03 -0.83251917723E+02  0.16512769815E+04  0.10100000352E+00 0.  1.
</event>
<event>
 5   0  0.6134625E-07  0.3448017E+04  0.7818609E-02  0.8126221E-01
        1   -1    0    0  501    0  0.00000000000E+00  0.00000000000E+00  0.14349847556E+04  0.14349847556E+04  0.50400001928E-02 0.  1.
       -1   -1    0    0    0  501  0.00000000000E+00  0.00000000000E+00 -0.20712449281E+04  0.20712449281E+04  0.50400001928E-02 0. -1.
    10030    2    1    2    0    0  0.00000000000E+00  0.00000000000E+00 -0.63626017252E+03  0.35062296837E+04  0.34480167615E+04 0.  0.
        5    1    3    3  502    0  0.15409162943E+04 -0.66214032589E+03  0.87770548657E+02  0.16794578281E+04  0.46999998093E+01 0. -1.
       -5    1    3    3    0  502 -0.15409162943E+04  0.66214032589E+03 -0.72403072118E+03  0.18267718556E+04  0.46999998093E+01 0.  1.
</event>
<event>
 5   0  0.6146388E-07  0.3420388E+04  0.7818609E-02  0.8132921E-01
        1   -1    0    0  501    0  0.00000000000E+00  0.00000000000E+00  0.26146923950E+04  0.26146923950E+04  0.50400001928E-02 0. -1.
       -1   -1    0    0    0  501  0.00000000000E+00  0.00000000000E+00 -0.11185878103E+04  0.11185878103E+04  0.50400001928E-02 0.  1.
    10030    2    1    2    0    0  0.00000000000E+00  0.00000000000E+00  0.14961045847E+04  0.37332802053E+04  0.34203877212E+04 0.  0.
        4    1    3    3  502    0 -0.11361969999E+04 -0.72377616508E+03 -0.40187415116E+03  0.14058093775E+04  0.12699999809E+01 0.  1.
       -4    1    3    3    0  502  0.11361969999E+04  0.72377616508E+03  0.18979787358E+04  0.23274708278E+04  0.12699999809E+01 0. -1.
</event>
<event>
 5   0  0.6134625E-07  0.3349767E+04  0.7818609E-02  0.8150346E-01
        1   -1    0    0  501    0  0.00000000000E+00  0.00000000000E+00  0.18943698204E+04  0.18943698204E+04  0.50400001928E-02 0.  1.
       -1   -1    0    0    0  501  0.00000000000E+00  0.00000000000E+00 -0.14808270714E+04  0.14808270714E+04  0.50400001928E-02 0. -1.
    10030    2    1    2    0    0  0.00000000000E+00  0.00000000000E+00  0.41354274895E+03  0.33751968918E+04  0.33497666266E+04 0.  0.
        3    1    3    3  502    0 -0.78669694341E+03  0.13337179744E+04  0.85000512254E+03  0.17664100415E+04  0.10100000352E+00 0.  1.
       -3    1    3    3    0  502  0.78669694341E+03 -0.13337179744E+04 -0.43646237359E+03  0.16087868503E+04  0.10100000352E+00 0. -1.
</event>
<event>
 5   0  0.1339844E-06  0.3241796E+04  0.7818609E-02  0.8177865E-01
        2   -1    0    0  501    0  0.00000000000E+00  0.00000000000E+00  0.16865845437E+04  0.16865845437E+04  0.25500000920E-02 0.  1.
       -2   -1    0    0    0  501  0.00000000000E+00  0.00000000000E+00 -0.15577696402E+04  0.15577696402E+04  0.25500000920E-02 0. -1.
    10030    2    1    2    0    0  0.00000000000E+00  0.00000000000E+00  0.12881490353E+03  0.32443541840E+04  0.32417959207E+04 0.  0.
        3    1    3    3  502    0 -0.23286791919E+02  0.14156921697E+04  0.85406978795E+03  0.16535301046E+04  0.10100000352E+00 0. -1.
       -3    1    3    3    0  502  0.23286791919E+02 -0.14156921697E+04 -0.72525488442E+03  0.15908240794E+04  0.10100000352E+00 0.  1.
</event>
<event>
 5   0  0.6134625E-07  0.2654933E+04  0.7818609E-02  0.8349778E-01
       -1   -1    0    0    0  501  0.00000000000E+00  0.00000000000E+00  0.18248054456E+04  0.18248054456E+04  0.50400001928E-02 0.  1.
        1   -1    0    0  501    0  0.00000000000E+00  0.00000000000E+00 -0.96567374499E+03  0.96567374500E+03  0.50400001928E-02 0. -1.
    10030    2    1    2    0    0  0.00000000000E+00  0.00000000000E+00  0.85913170058E+03  0.27904791906E+04  0.26549325479E+04 0.  0.
        5    1    3    3  502    0 -0.65964325786E+03 -0.46597798786E+03 -0.67772902710E+03  0.10543260582E+04  0.46999998093E+01 0. -1.
       -5    1    3    3    0  502  0.65964325786E+03  0.46597798786E+03  0.15368607277E+04  0.17361531324E+04  0.46999998093E+01 0.  1.
</event>
<event>
 5   0  0.1797075E-06  0.3385864E+04  0.7818609E-02  0.8141384E-01
       -2   -1    0    0    0  501  0.00000000000E+00  0.00000000000E+00  0.12302115714E+04  0.12302115714E+04  0.25500000920E-02 0. -1.
        2   -1    0    0  501    0  0.00000000000E+00  0.00000000000E+00 -0.23296959658E+04  0.23296959658E+04  0.25500000920E-02 0.  1.
    10030    2    1    2    0    0  0.00000000000E+00  0.00000000000E+00 -0.10994843945E+04  0.35599075372E+04  0.33858641053E+04 0.  0.
        2    1    3    3  502    0  0.15159521239E+04 -0.43055224784E+01  0.24257874527E+03  0.15352438983E+04  0.25500000920E-02 0. -1.
       -2    1    3    3    0  502 -0.15159521239E+04  0.43055224784E+01 -0.13420631398E+04  0.20246636389E+04  0.25500000920E-02 0.  1.
</event>
<event>
 5   0  0.1797075E-06  0.2759670E+04  0.7818609E-02  0.8315900E-01
       -2   -1    0    0    0  501  0.00000000000E+00  0.00000000000E+00  0.73427193860E+03  0.73427193861E+03  0.25500000920E-02 0. -1.
        2   -1    0    0  501    0  0.00000000000E+00  0.00000000000E+00 -0.25929691795E+04  0.25929691795E+04  0.25500000920E-02 0.  1.
    10030    2    1    2    0    0  0.00000000000E+00  0.00000000000E+00 -0.18586972409E+04  0.33272411181E+04  0.27596699123E+04 0.  0.
        2    1    3    3  502    0  0.88202351769E+03 -0.41374854973E+03  0.24874913896E+03  0.10054996183E+04  0.25500000920E-02 0. -1.
       -2    1    3    3    0  502 -0.88202351769E+03  0.41374854973E+03 -0.21074463798E+04  0.23217414998E+04  0.25500000920E-02 0.  1.
</event>
<event>
 5   0  0.1911477E-06  0.3440759E+04  0.7818609E-02  0.8127974E-01
        2   -1    0    0  501    0  0.00000000000E+00  0.00000000000E+00  0.13127450976E+04  0.13127450976E+04  0.25500000920E-02 0.  1.
       -2   -1    0    0    0  501  0.00000000000E+00  0.00000000000E+00 -0.22545931691E+04  0.22545931691E+04  0.25500000920E-02 0. -1.
    10030    2    1    2    0    0  0.00000000000E+00  0.00000000000E+00 -0.94184807147E+03  0.35673382666E+04  0.34407592940E+04 0.  0.
        5    1    3    3  502    0  0.39366858886E+03  0.14383852108E+04  0.41839424977E+03  0.15488714636E+04  0.46999998093E+01 0.  1.
       -5    1    3    3    0  502 -0.39366858886E+03 -0.14383852108E+04 -0.13602423212E+04  0.20184668030E+04  0.46999998093E+01 0. -1.
</event>
<event>
 5   0  0.1948507E-06  0.3409421E+04  0.7818609E-02  0.8135598E-01
       -2   -1    0    0    0  501  0.00000000000E+00  0.00000000000E+00  0.14559400923E+04  0.14559400923E+04  0.25500000920E-02 0.  1.
        2   -1    0    0  501    0  0.00000000000E+00  0.00000000000E+00 -0.19959877640E+04  0.19959877640E+04  0.25500000920E-02 0. -1.
    10030    2    1    2    0    0  0.00000000000E+00  0.00000000000E+00 -0.54004767171E+03  0.34519278563E+04  0.34094214227E+04 0.  0.
        1    1    3    3  502    0  0.15112377919E+03 -0.47619993311E+03 -0.19202008243E+04  0.19841310387E+04  0.50400001928E-02 0. -1.
       -1    1    3    3    0  502 -0.15112377919E+03  0.47619993311E+03  0.13801531526E+04  0.14677968176E+04  0.50400001928E-02 0.  1.
</event>
<event>
 5   0  0.1797075E-06  0.3389523E+04  0.7818609E-02  0.8140483E-01
        2   -1    0    0  501    0  0.00000000000E+00  0.00000000000E+00  0.14161640249E+04  0.14161640249E+04  0.25500000920E-02 0.  1.
       -2   -1    0    0    0  501  0.00000000000E+00  0.00000000000E+00 -0.20281659801E+04  0.20281659801E+04  0.25500000920E-02 0. -1.
    10030    2    1    2    0    0  0.00000000000E+00  0.00000000000E+00 -0.61200195524E+03  0.34443300050E+04  0.33895225017E+04 0.  0.
        2    1    3    3  502    0 -0.13178010892E+04 -0.43653800939E+03 -0.12938572322E+04  0.18976911450E+04  0.25500000920E-02 0. -1.
       -2    1    3    3    0  502  0.13178010892E+04  0.43653800939E+03  0.68185527697E+03  0.15466388600E+04  0.25500000920E-02 0.  1.
</event>
<event>
 5   0  0.1948507E-06  0.3388607E+04  0.7818609E-02  0.8140708E-01
        2   -1    0    0  501    0  0.00000000000E+00  0.00000000000E+00  0.24860749885E+04  0.24860749885E+04  0.25500000920E-02 0. -1.
       -2   -1    0    0    0  501  0.00000000000E+00  0.00000000000E+00 -0.11546971919E+04  0.11546971919E+04  0.25500000920E-02 0.  1.
    10030    2    1    2    0    0  0.00000000000E+00  0.00000000000E+00  0.13313777966E+04  0.36407721804E+04  0.33886066801E+04 0.  0.
        1    1    3    3  502    0 -0.18642568980E+03 -0.27034419923E+03  0.24515550052E+04  0.24734515292E+04  0.50400001928E-02 0. -1.
       -1    1    3    3    0  502  0.18642568980E+03  0.27034419923E+03 -0.11201772087E+04  0.11673206512E+04  0.50400001928E-02 0.  1.
</event>
<event>
 5   0  0.6218695E-07  0.3390904E+04  0.7818609E-02  0.8140142E-01
        1   -1    0    0  501    0  0.00000000000E+00  0.00000000000E+00  0.22581459317E+04  0.22581459317E+04  0.50400001928E-02 0.  1.
       -1   -1    0    0    0  501  0.00000000000E+00  0.00000000000E+00 -0.12729721711E+04  0.12729721711E+04  0.50400001928E-02 0. -1.
    10030    2    1    2    0    0  0.00000000000E+00  0.00000000000E+00  0.98517376061E+03  0.35311181028E+04  0.33909036727E+04 0.  0.
        2    1    3    3  502    0 -0.12926789511E+04 -0.71472113862E+03 -0.37412164534E+03  0.15237493830E+04  0.25500000920E-02 0. -1.
       -2    1    3    3    0  502  0.12926789511E+04  0.71472113862E+03  0.13592954060E+04  0.20073687198E+04  0.25500000920E-02 0.  1.
</event>
<event>
 5   0  0.6146388E-07  0.3403385E+04  0.7818609E-02  0.8137076E-01
       -1   -1    0    0    0  501  0.00000000000E+00  0.00000000000E+00  0.12188573725E+04  0.12188573725E+04  0.50400001928E-02 0. -1.
        1   -1    0    0  501    0  0.00000000000E+00  0.00000000000E+00 -0.23757963602E+04  0.23757963602E+04  0.50400001928E-02 0.  1.
    10030    2    1    2    0    0  0.00000000000E+00  0.00000000000E+00 -0.11569389877E+04  0.35946537328E+04  0.34033847325E+04 0.  0.
        4    1    3    3  502    0  0.16690836231E+04  0.17515694458E+03 -0.28116252061E+03  0.17016386432E+04  0.12699999809E+01 0.  1.
       -4    1    3    3    0  502 -0.16690836231E+04 -0.17515694458E+03 -0.87577646706E+03  0.18930150896E+04  0.12699999809E+01 0. -1.
</event>
<event>
 5   0  0.6146388E-07  0.3355891E+04  0.7818609E-02  0.8148818E-01
       -1   -1    0    0    0  501  0.00000000000E+00  0.00000000000E+00  0.10840600707E+04  0.10840600707E+04  0.50400001928E-02 0.  1.
        1   -1    0    0  501    0  0.00000000000E+00  0.00000000000E+00 -0.25971824633E+04  0.25971824633E+04  0.50400001928E-02 0. -1.
    10030    2    1    2    0    0  0.00000000000E+00  0.00000000000E+00 -0.15131223926E+04  0.36812425340E+04  0.33558914195E+04 0.  0.
        4    1    3    3  502    0  0.60839982191E+03  0.61445469429E+03  0.82083322368E+03  0.11922557228E+04  0.12699999809E+01 0.  1.
       -4    1    3    3    0  502 -0.60839982191E+03 -0.61445469429E+03 -0.23339556163E+04  0.24889868112E+04  0.12699999809E+01 0. -1.
</event>
<event>
 5   0  0.1880301E-06  0.3430890E+04  0.7818609E-02  0.8130366E-01
       -2   -1    0    0    0  501  0.00000000000E+00  0.00000000000E+00  0.23190809305E+04  0.23190809305E+04  0.25500000920E-02 0.  1.
        2   -1    0    0  501    0  0.00000000000E+00  0.00000000000E+00 -0.12689298976E+04  0.12689298976E+04  0.25500000920E-02 0. -1.
    10030    2    1    2    0    0  0.00000000000E+00  0.00000000000E+00  0.10501510330E+04  0.35880108281E+04  0.34308897549E+04 0.  0.
        4    1    3    3  502    0 -0.12191227532E+03 -0.11070010452E+04 -0.83945209412E+03  0.13946309003E+04  0.12699999809E+01 0. -1.
       -4    1    3    3    0  502  0.12191227532E+03  0.11070010452E+04  0.18896031271E+04  0.21933799278E+04  0.12699999809E+01 0.  1.
</event>
<event>
 5   0  0.6134625E-07  0.2863661E+04  0.7818609E-02  0.8283772E-01
       -1   -1    0    0    0  501  0.00000000000E+00  0.00000000000E+00  0.16223834220E+04  0.16223834220E+04  0.50400001928E-02 0. -1.
        1   -1    0    0  501    0  0.00000000000E+00  0.00000000000E+00 -0.12636585525E+04  0.12636585526E+04  0.50400001928E-02 0.  1.
    10030    2    1    2    0    0  0.00000000000E+00  0.00000000000E+00  0.35872486941E+03  0.28860419745E+04  0.28636610740E+04 0.  0.
        5    1    3    3  502    0 -0.34999238708E+03  0.60666899922E+03 -0.10792270844E+04  0.12865827355E+04  0.46999998093E+01 0.  1.
       -5    1    3    3    0  502  0.34999238708E+03 -0.60666899922E+03  0.14379519538E+04  0.15994592390E+04  0.46999998093E+01 0. -1.
</event>
<event>
 5   0  0.1911477E-06  0.3415843E+04  0.7818609E-02  0.8134029E-01
       -2   -1    0    0    0  501  0.00000000000E+00  0.00000000000E+00  0.13964522129E+04  0.13964522129E+04  0.25500000920E-02 0.  1.
        2   -1    0    0  501    0  0.00000000000E+00  0.00000000000E+00 -0.20888620268E+04  0.20888620268E+04  0.25500000920E-02 0. -1.
    10030    2    1    2    0    0  0.00000000000E+00  0.00000000000E+00 -0.69240981386E+03  0.34853142397E+04  0.34158430876E+04 0.  0.
        5    1    3    3  502    0 -0.10455540439E+03 -0.97443710037E+03  0.10809974498E+04  0.14591220208E+04  0.46999998093E+01 0.  1.
       -5    1    3    3    0  502  0.10455540439E+03  0.97443710037E+03 -0.17734072637E+04  0.20261922189E+04  0.46999998093E+01 0. -1.
</event>
<event>
 5   0  0.6146388E-07  0.3404080E+04  0.7818609E-02  0.8136906E-01
       -1   -1    0    0    0  501  0.00000000000E+00  0.00000000000E+00  0.19146027430E+04  0.19146027430E+04  0.50400001928E-02 0. -1.
        1   -1    0    0  501    0  0.00000000000E+00  0.00000000000E+00 -0.15130761436E+04  0.15130761436E+04  0.50400001928E-02 0.  1.
    10030    2    1    2    0    0  0.00000000000E+00  0.00000000000E+00  0.40152659940E+03  0.34276788865E+04  0.34040797492E+04 0.  0.
        4    1    3    3  502    0 -0.28392730806E+03 -0.81134567052E+03 -0.12784483222E+04  0.15405610143E+04  0.12699999809E+01 0.  1.
       -4    1    3    3    0  502  0.28392730806E+03  0.81134567052E+03  0.16799749216E+04  0.18871178722E+04  0.12699999809E+01 0. -1.
</event>
<event>
 5   0  0.6146388E-07  0.3358072E+04  0.7818609E-02  0.8148274E-01
        1   -1    0    0  501    0  0.00000000000E+00  0.00000000000E+00  0.19336207675E+04  0.19336207675E+04  0.50400001928E-02 0. -1.
       -1   -1    0    0    0  501  0.00000000000E+00  0.00000000000E+00 -0.14579706728E+04  0.14579706728E+04  0.50400001928E-02 0.  1.
    10030    2    1    2    0    0  0.00000000000E+00  0.00000000000E+00  0.47565009472E+03  0.33915914403E+04  0.33580722871E+04 0.  0.
        4    1    3    3  502    0 -0.75088201569E+03 -0.10038641117E+04  0.13659315280E+04  0.18540058005E+04  0.12699999809E+01 0. -1.
       -4    1    3    3    0  502  0.75088201569E+03  0.10038641117E+04 -0.89028143332E+03  0.15375856398E+04  0.12699999809E+01 0.  1.
</event>
<event>
 5   0  0.1339844E-06  0.3377133E+04  0.7818609E-02  0.8143541E-01
       -2   -1    0    0    0  501  0.00000000000E+00  0.00000000000E+00  0.86024110336E+03  0.86024110337E+03  0.25500000920E-02 0. -1.
        2   -1    0    0  501    0  0.00000000000E+00  0.00000000000E+00 -0.33144865840E+04  0.33144865840E+04  0.25500000920E-02 0.  1.
    10030    2    1    2    0    0  0.00000000000E+00  0.00000000000E+00 -0.24542454806E+04  0.41747276874E+04  0.33771334567E+04 0.  0.
        3    1    3    3  502    0 -0.27664894634E+03 -0.16067327776E+04 -0.68386256906E+03  0.17679911995E+04  0.10100000352E+00 0. -1.
       -3    1    3    3    0  502  0.27664894634E+03  0.16067327776E+04 -0.17703829116E+04  0.24067364878E+04  0.10100000352E+00 0.  1.
</event>
<event>
 5   0  0.6218695E-07  0.3358381E+04  0.7818609E-02  0.8148197E-01
       -1   -1    0    0    0  501  0.00000000000E+00  0.00000000000E+00  0.28994326825E+04  0.28994326825E+04  0.50400001928E-02 0.  1.
        1   -1    0    0  501    0  0.00000000000E+00  0.00000000000E+00 -0.97249408082E+03  0.97249408084E+03  0.50400001928E-02 0. -1.
    10030    2    1    2    0    0  0.00000000000E+00  0.00000000000E+00  0.19269386017E+04  0.38719267634E+04  0.33583812300E+04 0.  0.
        2    1    3    3  502    0  0.47754823160E+03  0.12436505185E+04  0.21420177200E+04  0.25224906023E+04  0.25500000920E-02 0.  1.
       -2    1    3    3    0  502 -0.47754823160E+03 -0.12436505185E+04 -0.21507911835E+03  0.13494361611E+04  0.25500000920E-02 0. -1.
</event>
<event>
 5   0  0.1339844E-06  0.3422770E+04  0.7818609E-02  0.8132340E-01
        2   -1    0    0  501    0  0.00000000000E+00  0.00000000000E+00  0.23978991386E+04  0.23978991386E+04  0.25500000920E-02 0. -1.
       -2   -1    0    0    0  501  0.00000000000E+00  0.00000000000E+00 -0.12214185136E+04  0.12214185136E+04  0.25500000920E-02 0.  1.
    10030    2    1    2    0    0  0.00000000000E+00  0.00000000000E+00  0.11764806250E+04  0.36193176522E+04  0.34227698735E+04 0.  0.
        3    1    3    3  502    0  0.31545298314E+03 -0.11153111455E+04  0.19196743033E+04  0.22424493253E+04  0.10100000352E+00 0. -1.
       -3    1    3    3    0  502 -0.31545298314E+03  0.11153111455E+04 -0.74319367833E+03  0.13768683269E+04  0.10100000352E+00 0.  1.
</event>
<event>
 5   0  0.6134625E-07  0.3192971E+04  0.7818609E-02  0.8190676E-01
       -1   -1    0    0    0  501  0.00000000000E+00  0.00000000000E+00  0.14291158183E+04  0.14291158183E+04  0.50400001928E-02 0.  1.
        1   -1    0    0  501    0  0.00000000000E+00  0.00000000000E+00 -0.17834564680E+04  0.17834564680E+04  0.50400001928E-02 0. -1.
    10030    2    1    2    0    0  0.00000000000E+00  0.00000000000E+00 -0.35434064968E+03  0.32125722863E+04  0.31929709360E+04 0.  0.
        5    1    3    3  502    0  0.42821745589E+03 -0.44684853053E+03 -0.16578362686E+04  0.17696007975E+04  0.46999998093E+01 0. -1.
       -5    1    3    3    0  502 -0.42821745589E+03  0.44684853053E+03  0.13034956190E+04  0.14429714888E+04  0.46999998093E+01 0.  1.
</event>
<event>
 5   0  0.1339844E-06  0.3397017E+04  0.7818609E-02  0.8138639E-01
        2   -1    0    0  501    0  0.00000000000E+00  0.00000000000E+00  0.14395268872E+04  0.14395268872E+04  0.25500000920E-02 0. -1.
       -2   -1    0    0    0  501  0.00000000000E+00  0.00000000000E+00 -0.20040827464E+04  0.20040827464E+04  0.25500000920E-02 0.  1.
    10030    2    1    2    0    0  0.00000000000E+00  0.00000000000E+00 -0.56455585920E+03  0.34436096336E+04  0.33970169252E+04 0.  0.
        3    1    3    3  502    0  0.13983848184E+04  0.52084041303E+03 -0.11046858311E+04  0.18566328748E+04  0.10100000352E+00 0.  1.
       -3    1    3    3    0  502 -0.13983848184E+04 -0.52084041303E+03  0.54012997191E+03  0.15869767588E+04  0.10100000352E+00 0. -1.
</event>
<event>
 5   0  0.6134625E-07  0.3461929E+04  0.7818609E-02  0.8122872E-01
        1   -1    0    0  501    0  0.00000000000E+00  0.00000000000E+00  0.21105370778E+04  0.21105370778E+04  0.50400001928E-02 0. -1.
       -1   -1    0    0    0  501  0.00000000000E+00  0.00000000000E+00 -0.14196564126E+04  0.14196564126E+04  0.50400001928E-02 0.  1.
    10030    2    1    2    0    0  0.00000000000E+00  0.00000000000E+00  0.69088066520E+03  0.35301934904E+04  0.34619286513E+04 0.  0.
        1    1    3    3  502    0 -0.31836997255E+03 -0.82152188637E+03  0.18647801262E+04  0.20624409248E+04  0.50400001928E-02 0. -1.
       -1    1    3    3    0  502  0.31836997255E+03  0.82152188637E+03 -0.11738994610E+04  0.14677525656E+04  0.50400001928E-02 0.  1.
</event>
<event>
 5   0  0.6134625E-07  0.3374235E+04  0.7818609E-02  0.8144259E-01
        1   -1    0    0  501    0  0.00000000000E+00  0.00000000000E+00  0.20299826596E+04  0.20299826596E+04  0.50400001928E-02 0.  1.
       -1   -1    0    0    0  501  0.00000000000E+00  0.00000000000E+00 -0.14021624375E+04  0.14021624375E+04  0.50400001928E-02 0. -1.
    10030    2    1    2    0    0  0.00000000000E+00  0.00000000000E+00  0.62782022203E+03  0.34321450971E+04  0.33742349854E+04 0.  0.
        3    1    3    3  502    0 -0.14103645224E+04 -0.51887461172E+03  0.10938863453E+04  0.18587485831E+04  0.10100000352E+00 0.  1.
       -3    1    3    3    0  502  0.14103645224E+04  0.51887461172E+03 -0.46606612326E+03  0.15733965140E+04  0.10100000352E+00 0. -1.
</event>
<event>
 5   0  0.1339844E-06  0.3320663E+04  0.7818609E-02  0.8157657E-01
        2   -1    0    0  501    0  0.00000000000E+00  0.00000000000E+00  0.27053093299E+04  0.27053093299E+04  0.25500000920E-02 0. -1.
       -2   -1    0    0    0  501  0.00000000000E+00  0.00000000000E+00 -0.10189966934E+04  0.10189966934E+04  0.25500000920E-02 0.  1.
    10030    2    1    2    0    0  0.00000000000E+00  0.00000000000E+00  0.16863126365E+04  0.37243060233E+04  0.33206633444E+04 0.  0.
        3    1    3    3  502    0  0.37293439320E+03  0.14969173186E+04  0.15316665177E+04  0.21739006077E+04  0.10100000352E+00 0. -1.
       -3    1    3    3    0  502 -0.37293439320E+03 -0.14969173186E+04  0.15464611884E+03  0.15504054156E+04  0.10100000352E+00 0.  1.
</event>
<event>
 5   0  0.6134625E-07  0.3374456E+04  0.7818609E-02  0.8144204E-01
       -1   -1    0    0    0  501  0.00000000000E+00  0.00000000000E+00  0.10633790590E+04  0.10633790590E+04  0.50400001928E-02 0. -1.
        1   -1    0    0  501    0  0.00000000000E+00  0.00000000000E+00 -0.26770683589E+04  0.26770683589E+04  0.50400001928E-02 0.  1.
    10030    2    1    2    0    0  0.00000000000E+00  0.00000000000E+00 -0.16136892998E+04  0.37404474179E+04  0.33744560642E+04 0.  0.
        1    1    3    3  502    0  0.45404676264E+03  0.10877887554E+04 -0.21449601513E+04  0.24475083023E+04  0.50400001928E-02 0.  1.
       -1    1    3    3    0  502 -0.45404676264E+03 -0.10877887554E+04  0.53127085142E+03  0.12929391156E+04  0.50400001928E-02 0. -1.
</event>
<event>
 5   0  0.6218695E-07  0.3384270E+04  0.7818609E-02  0.8141778E-01
       -1   -1    0    0    0  501  0.00000000000E+00  0.00000000000E+00  0.24523872358E+04  0.24523872358E+04  0.50400001928E-02 0.  1.
        1   -1    0    0  501    0  0.00000000000E+00  0.00000000000E+00 -0.11675646681E+04  0.11675646681E+04  0.50400001928E-02 0. -1.
    10030    2    1    2    0    0  0.00000000000E+00  0.00000000000E+00  0.12848225677E+04  0.36199519039E+04  0.33842699001E+04 0.  0.
        2    1    3    3  502    0  0.99019927285E+03  0.12033006583E+04  0.13478013264E+04  0.20603386832E+04  0.25500000920E-02 0.  1.
       -2    1    3    3    0  502 -0.99019927285E+03 -0.12033006583E+04 -0.62978758672E+02  0.15596132207E+04  0.25500000920E-02 0. -1.
</event>
<event>
 5   0  0.1797075E-06  0.2517147E+04  0.7818609E-02  0.8396902E-01
       -2   -1    0    0    0  501  0.00000000000E+00  0.00000000000E+00  0.86888444801E+03  0.86888444801E+03  0.25500000920E-02 0. -1.
        2   -1    0    0  501    0  0.00000000000E+00  0.00000000000E+00 -0.18230360182E+04  0.18230360182E+04  0.25500000920E-02 0.  1.
    10030    2    1    2    0    0  0.00000000000E+00  0.00000000000E+00 -0.95415157015E+03  0.26919204662E+04  0.25171473094E+04 0.  0.
        2    1    3    3  502    0 -0.10475350549E+04 -0.54063073529E+03 -0.94859311334E+03  0.15130896133E+04  0.25500000920E-02 0.  1.
       -2    1    3    3    0  502  0.10475350549E+04  0.54063073529E+03 -0.55584568154E+01  0.11788308529E+04  0.25500000920E-02 0. -1.
</event>
<event>
 5   0  0.1797075E-06  0.2903593E+04  0.7818609E-02  0.8271809E-01
        2   -1    0    0  501    0  0.00000000000E+00  0.00000000000E+00  0.16531719976E+04  0.16531719976E+04  0.25500000920E-02 0.  1.
       -2   -1    0    0    0  501  0.00000000000E+00  0.00000000000E+00 -0.12749506140E+04  0.12749506140E+04  0.25500000920E-02 0. -1.
    10030    2    1    2    0    0  0.00000000000E+00  0.00000000000E+00  0.37822138353E+03  0.29281226116E+04  0.29035927080E+04 0.  0.
        2    1    3    3  502    0 -0.24582796737E+03  0.90841089590E+03 -0.92570163996E+03  0.13200626014E+04  0.25500000920E-02 0. -1.
       -2    1    3    3    0  502  0.24582796737E+03 -0.90841089590E+03  0.13039230235E+04  0.16080600102E+04  0.25500000920E-02 0.  1.
</event>
<event>
 5   0  0.1880301E-06  0.3085065E+04  0.7818609E-02  0.8219849E-01
       -2   -1    0    0    0  501  0.00000000000E+00  0.00000000000E+00  0.13795541491E+04  0.13795541491E+04  0.25500000920E-02 0.  1.
        2   -1    0    0  501    0  0.00000000000E+00  0.00000000000E+00 -0.17247643155E+04  0.17247643155E+04  0.25500000920E-02 0. -1.
    10030    2    1    2    0    0  0.00000000000E+00  0.00000000000E+00 -0.34521016645E+03  0.31043184646E+04  0.30850645165E+04 0.  0.
        4    1    3    3  502    0 -0.20276611993E+03  0.11849064830E+03 -0.17066689450E+04  0.17227520523E+04  0.12699999809E+01 0. -1.
       -4    1    3    3    0  502  0.20276611993E+03 -0.11849064830E+03  0.13614587785E+04  0.13815664123E+04  0.12699999809E+01 0.  1.
</event>
<event>
 5   0  0.1948507E-06  0.2484819E+04  0.7818609E-02  0.8408414E-01
       -2   -1    0    0    0  501  0.00000000000E+00  0.00000000000E+00  0.65919676569E+03  0.65919676570E+03  0.25500000920E-02 0. -1.
        2   -1    0    0  501    0  0.00000000000E+00  0.00000000000E+00 -0.23416097353E+04  0.23416097353E+04  0.25500000920E-02 0.  1.
    10030    2    1    2    0    0  0.00000000000E+00  0.00000000000E+00 -0.16824129697E+04  0.30008065010E+04  0.24848191597E+04 0.  0.
        1    1    3    3  502    0 -0.20389911623E+03 -0.61506648462E+03  0.43896568768E+03  0.78267011256E+03  0.50400001928E-02 0. -1.
       -1    1    3    3    0  502  0.20389911623E+03  0.61506648462E+03 -0.21213786573E+04  0.22181363885E+04  0.50400001928E-02 0.  1.
</event>
<event>
 5   0  0.1911477E-06  0.3364510E+04  0.7818609E-02  0.8146672E-01
       -2   -1    0    0    0  501  0.00000000000E+00  0.00000000000E+00  0.18825881743E+04  0.18825881743E+04  0.25500000920E-02 0.  1.
        2   -1    0    0  501    0  0.00000000000E+00  0.00000000000E+00 -0.15032400377E+04  0.15032400377E+04  0.25500000920E-02 0. -1.
    10030    2    1    2    0    0  0.00000000000E+00  0.00000000000E+00  0.37934813668E+03  0.33858282120E+04  0.33645100196E+04 0.  0.
        5    1    3    3  502    0 -0.11995721253E+04 -0.66105133736E+03  0.11725908528E+04  0.18030400862E+04  0.46999998093E+01 0.  1.
       -5    1    3    3    0  502  0.11995721253E+04  0.66105133736E+03 -0.79324271607E+03  0.15827881258E+04  0.46999998093E+01 0. -1.
</event>
<event>
 5   0  0.1797075E-06  0.3810886E+04  0.7818609E-02  0.8043823E-01
        2   -1    0    0  501    0  0.00000000000E+00  0.00000000000E+00  0.23003134293E+04  0.23003134293E+04  0.25500000920E-02 0. -1.
       -2   -1    0    0    0  501  0.00000000000E+00  0.00000000000E+00 -0.15783561502E+04  0.15783561502E+04  0.25500000920E-02 0.  1.
    10030    2    1    2    0    0  0.00000000000E+00  0.00000000000E+00  0.72195727915E+03  0.38786695795E+04  0.38108864316E+04 0.  0.
        2    1    3    3  502    0  0.11173451607E+03  0.16097893040E+04  0.13923173617E+04  0.21313033198E+04  0.25500000920E-02 0. -1.
       -2    1    3    3    0  502 -0.11173451607E+03 -0.16097893040E+04 -0.67036008253E+03  0.17473662597E+04  0.25500000920E-02 0.  1.
</event>
<event>
 5   0  0.1948507E-06  0.3406841E+04  0.7818609E-02  0.8136229E-01
       -2   -1    0    0    0  501  0.00000000000E+00  0.00000000000E+00  0.13437659853E+04  0.13437659853E+04  0.25500000920E-02 0. -1.
        2   -1    0    0  501    0  0.00000000000E+00  0.00000000000E+00 -0.21593355838E+04  0.21593355838E+04  0.25500000920E-02 0.  1.
    10030    2    1    2    0    0  0.00000000000E+00  0.00000000000E+00 -0.81556959848E+03  0.35031015691E+04  0.34068411811E+04 0.  0.
        1    1    3    3  502    0  0.44299483002E+02  0.14932501194E+04 -0.12493745376E+04  0.19474842999E+04  0.50400001928E-02 0.  1.
       -1    1    3    3    0  502 -0.44299483002E+02 -0.14932501194E+04  0.43380493908E+03  0.15556172692E+04  0.50400001928E-02 0. -1.
</event>
<event>
 5   0  0.6134625E-07  0.3389208E+04  0.7818609E-02  0.8140560E-01
       -1   -1    0    0    0  501  0.00000000000E+00  0.00000000000E+00  0.16368363209E+04  0.16368363209E+04  0.50400001928E-02 0. -1.
        1   -1    0    0  501    0  0.00000000000E+00  0.00000000000E+00 -0.17544107804E+04  0.17544107804E+04  0.50400001928E-02 0.  1.
    10030    2    1    2    0    0  0.00000000000E+00  0.00000000000E+00 -0.11757445948E+03  0.33912471013E+04  0.33892083365E+04 0.  0.
        5    1    3    3  502    0 -0.19139809029E+03 -0.94331392092E+01 -0.17435277743E+04  0.17540334668E+04  0.46999998093E+01 0.  1.
       -5    1    3    3    0  502  0.19139809029E+03  0.94331392092E+01  0.16259533148E+04  0.16372136345E+04  0.46999998093E+01 0. -1.
</event>
<event>
 5   0  0.6134625E-07  0.3452234E+04  0.7818609E-02  0.8125204E-01
        1   -1    0    0  501    0  0.00000000000E+00  0.00000000000E+00  0.15068520047E+04  0.15068520047E+04  0.50400001928E-02 0.  1.
       -1   -1    0    0    0  501  0.00000000000E+00  0.00000000000E+00 -0.19772875224E+04  0.19772875224E+04  0.50400001928E-02 0. -1.
    10030    2    1    2    0    0  0.00000000000E+00  0.00000000000E+00 -0.47043551774E+03  0.34841395271E+04  0.34522338663E+04 0.  0.
        5    1    3    3  502    0 -0.74761598366E+03  0.12149078617E+04 -0.12160674819E+04  0.18745060634E+04  0.46999998093E+01 0. -1.
       -5    1    3    3    0  502  0.74761598366E+03 -0.12149078617E+04  0.74563196413E+03  0.16096334636E+04  0.46999998093E+01 0.  1.
</event>
<event>
 5   0  0.6134625E-07  0.3397999E+04  0.7818609E-02  0.8138398E-01
       -1   -1    0    0    0  501  0.00000000000E+00  0.00000000000E+00  0.11542222761E+04  0.11542222761E+04  0.50400001928E-02 0. -1.
        1   -1    0    0  501    0  0.00000000000E+00  0.00000000000E+00 -0.25009039918E+04  0.25009039918E+04  0.50400001928E-02 0.  1.
    10030    2    1    2    0    0  0.00000000000E+00  0.00000000000E+00 -0.13466817158E+04  0.36551262679E+04  0.33979988803E+04 0.  0.
        1    1    3    3  502    0  0.54289292146E+03  0.71954929604E+03 -0.22224984097E+04  0.23983292298E+04  0.50400001928E-02 0.  1.
       -1    1    3    3    0  502 -0.54289292146E+03 -0.71954929604E+03  0.87581669390E+03  0.12567970381E+04  0.50400001928E-02 0. -1.
</event>
<event>
 5   0  0.6134625E-07  0.3381323E+04  0.7818609E-02  0.8142505E-01
        3   -1    0    0  501    0  0.00000000000E+00  0.00000000000E+00  0.27508288024E+04  0.27508288043E+04  0.10100000352E+00 0.  1.
       -3   -1    0    0    0  501  0.00000000000E+00  0.00000000000E+00 -0.10390819257E+04  0.10390819306E+04  0.10100000352E+00 0. -1.
    10030    2    1    2    0    0  0.00000000000E+00  0.00000000000E+00  0.17117468767E+04  0.37899107348E+04  0.33813231150E+04 0.  0.
        3    1    3    3  502    0 -0.15031158907E+04 -0.75671574959E+03  0.10378511434E+04  0.19771472157E+04  0.10100000352E+00 0. -1.
       -3    1    3    3    0  502  0.15031158907E+04  0.75671574959E+03  0.67389573338E+03  0.18127635191E+04  0.10100000352E+00 0.  1.
</event>
<event>
 5   0  0.1911477E-06  0.3391496E+04  0.7818609E-02  0.8139997E-01
       -2   -1    0    0    0  501  0.00000000000E+00  0.00000000000E+00  0.26659741697E+04  0.26659741697E+04  0.25500000920E-02 0.  1.
        2   -1    0    0  501    0  0.00000000000E+00  0.00000000000E+00 -0.10786156456E+04  0.10786156456E+04  0.25500000920E-02 0. -1.
    10030    2    1    2    0    0  0.00000000000E+00  0.00000000000E+00  0.15873585241E+04  0.37445898153E+04  0.33914961006E+04 0.  0.
        5    1    3    3  502    0  0.74403686026E+03 -0.17128029438E+03  0.24654555835E+04  0.25809729005E+04  0.46999998093E+01 0.  1.
       -5    1    3    3    0  502 -0.74403686026E+03  0.17128029438E+03 -0.87809705940E+03  0.11636169148E+04  0.46999998093E+01 0. -1.
</event>
<event>
 5   0  0.6146388E-07  0.3191009E+04  0.7818609E-02  0.8191196E-01
        1   -1    0    0  501    0  0.00000000000E+00  0.00000000000E+00  0.14596111463E+04  0.14596111463E+04  0.50400001928E-02 0.  1.
       -1   -1    0    0    0  501  0.00000000000E+00  0.00000000000E+00 -0.17440496572E+04  0.17440496572E+04  0.50400001928E-02 0. -1.
    10030    2    1    2    0    0  0.00000000000E+00  0.00000000000E+00 -0.28443851088E+03  0.32036608036E+04  0.31910088182E+04 0.  0.
        4    1    3    3  502    0  0.44569084582E+03 -0.14883396965E+04  0.22231446972E+03  0.15694651059E+04  0.12699999809E+01 0.  1.
       -4    1    3    3    0  502 -0.44569084582E+03  0.14883396965E+04 -0.50675298060E+03  0.16341956977E+04  0.12699999809E+01 0. -1.
</event>
<event>
 5   0  0.1948507E-06  0.3166162E+04  0.7818609E-02  0.8197811E-01
        2   -1    0    0  501    0  0.00000000000E+00  0.00000000000E+00  0.13992971995E+04  0.13992971995E+04  0.25500000920E-02 0. -1.
       -2   -1    0    0    0  501  0.00000000000E+00  0.00000000000E+00 -0.17910029274E+04  0.17910029274E+04  0.25500000920E-02 0.  1.
    10030    2    1    2    0    0  0.00000000000E+00  0.00000000000E+00 -0.39170572792E+03  0.31903001269E+04  0.31661619545E+04 0.  0.
        1    1    3    3  502    0 -0.34264775423E+03  0.11905134162E+04  0.79726541393E+03  0.14732147901E+04  0.50400001928E-02 0. -1.
       -1    1    3    3    0  502  0.34264775423E+03 -0.11905134162E+04 -0.11889711418E+04  0.17170853368E+04  0.50400001928E-02 0.  1.
</event>
<event>
 5   0  0.6134625E-07  0.3161489E+04  0.7818609E-02  0.8199063E-01
       -1   -1    0    0    0  501  0.00000000000E+00  0.00000000000E+00  0.12790408084E+04  0.12790408084E+04  0.50400001928E-02 0. -1.
        1   -1    0    0  501    0  0.00000000000E+00  0.00000000000E+00 -0.19536143270E+04  0.19536143270E+04  0.50400001928E-02 0.  1.
    10030    2    1    2    0    0  0.00000000000E+00  0.00000000000E+00 -0.67457351860E+03  0.32326551355E+04  0.31614885407E+04 0.  0.
        5    1    3    3  502    0  0.11656700391E+04  0.12093143757E+03 -0.14219767902E+04  0.18426749942E+04  0.46999998093E+01 0.  1.
       -5    1    3    3    0  502 -0.11656700391E+04 -0.12093143757E+03  0.74740327156E+03  0.13899801412E+04  0.46999998093E+01 0. -1.
</event>
<event>
 5   0  0.1797075E-06  0.3538204E+04  0.7818609E-02  0.8104795E-01
        2   -1    0    0  501    0  0.00000000000E+00  0.00000000000E+00  0.21025374811E+04  0.21025374811E+04  0.25500000920E-02 0.  1.
       -2   -1    0    0    0  501  0.00000000000E+00  0.00000000000E+00 -0.14885449552E+04  0.14885449552E+04  0.25500000920E-02 0. -1.
    10030    2    1    2    0    0  0.00000000000E+00  0.00000000000E+00  0.61399252584E+03  0.35910824363E+04  0.35382038159E+04 0.  0.
        2    1    3    3  502    0  0.17655997209E+04  0.61076299881E+02  0.21260707320E+03  0.17794028370E+04  0.25500000920E-02 0. -1.
       -2    1    3    3    0  502 -0.17655997209E+04 -0.61076299881E+02  0.40138545264E+03  0.18116795993E+04  0.25500000920E-02 0.  1.
</event>
<event>
 5   0  0.6134625E-07  0.3404242E+04  0.7818609E-02  0.8136866E-01
        1   -1    0    0  501    0  0.00000000000E+00  0.00000000000E+00  0.15938023833E+04  0.15938023833E+04  0.50400001928E-02 0. -1.
       -1   -1    0    0    0  501  0.00000000000E+00  0.00000000000E+00 -0.18178016652E+04  0.18178016652E+04  0.50400001928E-02 0.  1.
    10030    2    1    2    0    0  0.00000000000E+00  0.00000000000E+00 -0.22399928186E+03  0.34116040485E+04  0.34042424275E+04 0.  0.
        5    1    3    3  502    0 -0.14416158415E+04  0.64410652446E+03  0.52503610801E+03  0.16639754968E+04  0.46999998093E+01 0.  1.
       -5    1    3    3    0  502  0.14416158415E+04 -0.64410652446E+03 -0.74903538987E+03  0.17476285516E+04  0.46999998093E+01 0. -1.
</event>
<event>
 5   0  0.1797075E-06  0.3404807E+04  0.7818609E-02  0.8136728E-01
        2   -1    0    0  501    0  0.00000000000E+00  0.00000000000E+00  0.17104247413E+04  0.17104247413E+04  0.25500000920E-02 0. -1.
       -2   -1    0    0    0  501  0.00000000000E+00  0.00000000000E+00 -0.16944194358E+04  0.16944194358E+04  0.25500000920E-02 0.  1.
    10030    2    1    2    0    0  0.00000000000E+00  0.00000000000E+00  0.16005305522E+02  0.34048441772E+04  0.34048065585E+04 0.  0.
        2    1    3    3  502    0 -0.47863259378E+02  0.98131849530E+02  0.17069199412E+04  0.17104082662E+04  0.25500000920E-02 0. -1.
       -2    1    3    3    0  502  0.47863259378E+02 -0.98131849530E+02 -0.16909146356E+04  0.16944359110E+04  0.25500000920E-02 0.  1.
</event>
<event>
 5   0  0.1339844E-06  0.3371052E+04  0.7818609E-02  0.8145048E-01
        2   -1    0    0  501    0  0.00000000000E+00  0.00000000000E+00  0.24142290650E+04  0.24142290650E+04  0.25500000920E-02 0.  1.
       -2   -1    0    0    0  501  0.00000000000E+00  0.00000000000E+00 -0.11767726459E+04  0.11767726459E+04  0.25500000920E-02 0. -1.
    10030    2    1    2    0    0  0.00000000000E+00  0.00000000000E+00  0.12374564191E+04  0.35910017109E+04  0.33710524912E+04 0.  0.
        3    1    3    3  502    0  0.15328759413E+04  0.18208502531E+03  0.13397474987E+04  0.20439635462E+04  0.10100000352E+00 0.  1.
       -3    1    3    3    0  502 -0.15328759413E+04 -0.18208502531E+03 -0.10229107964E+03  0.15470381647E+04  0.10100000352E+00 0. -1.
</event>
<event>
 5   0  0.6146388E-07  0.3443650E+04  0.7818609E-02  0.8127276E-01
       -1   -1    0    0    0  501  0.00000000000E+00  0.00000000000E+00  0.17755044915E+04  0.17755044915E+04  0.50400001928E-02 0.  1.
        1   -1    0    0  501    0  0.00000000000E+00  0.00000000000E+00 -0.16697681278E+04  0.16697681278E+04  0.50400001928E-02 0. -1.
    10030    2    1    2    0    0  0.00000000000E+00  0.00000000000E+00  0.10573636369E+03  0.34452726194E+04  0.34436496981E+04 0.  0.
        4    1    3    3  502    0  0.15530701702E+04 -0.51681104321E+03 -0.48176048288E+03  0.17062284090E+04  0.12699999809E+01 0. -1.
       -4    1    3    3    0  502 -0.15530701702E+04  0.51681104321E+03  0.58749684656E+03  0.17390442104E+04  0.12699999809E+01 0.  1.
</event>
<event>
 5   0  0.1948507E-06  0.3424975E+04  0.7818609E-02  0.8131804E-01
        2   -1    0    0  501    0  0.00000000000E+00  0.00000000000E+00  0.10820963110E+04  0.10820963110E+04  0.25500000920E-02 0.  1.
       -2   -1    0    0    0  501  0.00000000000E+00  0.00000000000E+00 -0.27101221746E+04  0.27101221746E+04  0.25500000920E-02 0. -1.
    10030    2    1    2    0    0  0.00000000000E+00  0.00000000000E+00 -0.16280258636E+04  0.37922184856E+04  0.34249748656E+04 0.  0.
        1    1    3    3  502    0  0.59237919034E+02 -0.21702489200E+03 -0.26936901265E+04  0.27030677817E+04  0.50400001928E-02 0. -1.
       -1    1    3    3    0  502 -0.59237919034E+02  0.21702489200E+03  0.10656642629E+04  0.10891507040E+04  0.50400001928E-02 0.  1.
</event>
<event>
 5   0  0.6134625E-07  0.3388368E+04  0.7818609E-02  0.8140767E-01
       -1   -1    0    0    0  501  0.00000000000E+00  0.00000000000E+00  0.11939617163E+04  0.11939617163E+04  0.50400001928E-02 0. -1.
        1   -1    0    0  501    0  0.00000000000E+00  0.00000000000E+00 -0.24039789444E+04  0.24039789444E+04  0.50400001928E-02 0.  1.
    10030    2    1    2    0    0  0.00000000000E+00  0.00000000000E+00 -0.12100172281E+04  0.35979406607E+04  0.33883676461E+04 0.  0.
        5    1    3    3  502    0  0.12620902414E+04 -0.94824924456E+02 -0.18008869473E+04  0.22011541133E+04  0.46999998093E+01 0.  1.
       -5    1    3    3    0  502 -0.12620902414E+04  0.94824924456E+02  0.59086971914E+03  0.13967865473E+04  0.46999998093E+01 0. -1.
</event>
<event>
 5   0  0.6134625E-07  0.3462147E+04  0.7818609E-02  0.8122820E-01
        1   -1    0    0  501    0  0.00000000000E+00  0.00000000000E+00  0.34420946595E+04  0.34420946595E+04  0.50400001928E-02 0.  1.
       -1   -1    0    0    0  501  0.00000000000E+00  0.00000000000E+00 -0.87057902941E+03  0.87057902943E+03  0.50400001928E-02 0. -1.
    10030    2    1    2    0    0  0.00000000000E+00  0.00000000000E+00  0.25715156301E+04  0.43126736889E+04  0.34621469800E+04 0.  0.
        1    1    3    3  502    0 -0.10446559964E+04  0.55885004701E+03 -0.28644448505E+03  0.12188806213E+04  0.50400001928E-02 0. -1.
       -1    1    3    3    0  502  0.10446559964E+04 -0.55885004701E+03  0.28579601151E+04  0.30937930676E+04  0.50400001928E-02 0.  1.
</event>
<event>
 5   0  0.6134625E-07  0.3408974E+04  0.7818609E-02  0.8135707E-01
        1   -1    0    0  501    0  0.00000000000E+00  0.00000000000E+00  0.19229096877E+04  0.19229096878E+04  0.50400001928E-02 0.  1.
       -1   -1    0    0    0  501  0.00000000000E+00  0.00000000000E+00 -0.15108752959E+04  0.15108752959E+04  0.50400001928E-02 0. -1.
    10030    2    1    2    0    0  0.00000000000E+00  0.00000000000E+00  0.41203439187E+03  0.34337849836E+04  0.34089744754E+04 0.  0.
        3    1    3    3  502    0 -0.12099300990E+04 -0.78138257744E+02  0.14127514981E+04  0.18616936476E+04  0.10100000352E+00 0. -1.
       -3    1    3    3    0  502  0.12099300990E+04  0.78138257744E+02 -0.10007171063E+04  0.15720913360E+04  0.10100000352E+00 0.  1.
</event>
<event>
 5   0  0.6146388E-07  0.3461327E+04  0.7818609E-02  0.8123017E-01
        1   -1    0    0  501    0  0.00000000000E+00  0.00000000000E+00  0.19291506576E+04  0.19291506576E+04  0.50400001928E-02 0.  1.
       -1   -1    0    0    0  501  0.00000000000E+00  0.00000000000E+00 -0.15525982442E+04  0.15525982442E+04  0.50400001928E-02 0. -1.
    10030    2    1    2    0    0  0.00000000000E+00  0.00000000000E+00  0.37655241344E+03  0.34817489019E+04  0.34613268692E+04 0.  0.
        4    1    3    3  502    0 -0.16286889977E+04  0.58174276171E+03  0.25301288058E+03  0.17478757458E+04  0.12699999809E+01 0.  1.
       -4    1    3    3    0  502  0.16286889977E+04 -0.58174276171E+03  0.12353953286E+03  0.17338731560E+04  0.12699999809E+01 0. -1.
</event>
<event>
 5   0  0.1339844E-06  0.3250871E+04  0.7818609E-02  0.8175510E-01
       -2   -1    0    0    0  501  0.00000000000E+00  0.00000000000E+00  0.97495396771E+03  0.97495396771E+03  0.25500000920E-02 0. -1.
        2   -1    0    0  501    0  0.00000000000E+00  0.00000000000E+00 -0.27099132932E+04  0.27099132932E+04  0.25500000920E-02 0.  1.
    10030    2    1    2    0    0  0.00000000000E+00  0.00000000000E+00 -0.17349593255E+04  0.36848672610E+04  0.32508710940E+04 0.  0.
        3    1    3    3  502    0  0.24827282406E+03  0.12555365095E+03 -0.26827240438E+04  0.26971116810E+04  0.10100000352E+00 0.  1.
       -3    1    3    3    0  502 -0.24827282406E+03 -0.12555365095E+03  0.94776471824E+03  0.98775557998E+03  0.10100000352E+00 0. -1.
</event>
<event>
 5   0  0.6134625E-07  0.3384323E+04  0.7818609E-02  0.8141765E-01
        1   -1    0    0  501    0  0.00000000000E+00  0.00000000000E+00  0.11352525923E+04  0.11352525923E+04  0.50400001928E-02 0.  1.
       -1   -1    0    0    0  501  0.00000000000E+00  0.00000000000E+00 -0.25222675958E+04  0.25222675958E+04  0.50400001928E-02 0. -1.
    10030    2    1    2    0    0  0.00000000000E+00  0.00000000000E+00 -0.13870150035E+04  0.36575201881E+04  0.33843231682E+04 0.  0.
        5    1    3    3  502    0 -0.10159824962E+04  0.11844018888E+04  0.13818458808E+02  0.15605259712E+04  0.46999998093E+01 0.  1.
       -5    1    3    3    0  502  0.10159824962E+04 -0.11844018888E+04 -0.14008334623E+04  0.20969942170E+04  0.46999998093E+01 0. -1.
</event>
<event>
 5   0  0.1339844E-06  0.3458646E+04  0.7818609E-02  0.8123661E-01
       -2   -1    0    0    0  501  0.00000000000E+00  0.00000000000E+00  0.12513069108E+04  0.12513069108E+04  0.25500000920E-02 0.  1.
        2   -1    0    0  501    0  0.00000000000E+00  0.00000000000E+00 -0.23899477926E+04  0.23899477926E+04  0.25500000920E-02 0. -1.
    10030    2    1    2    0    0  0.00000000000E+00  0.00000000000E+00 -0.11386408818E+04  0.36412547035E+04  0.34586460874E+04 0.  0.
        3    1    3    3  502    0 -0.81234397697E+03 -0.30166759084E+03 -0.21448814182E+04  0.23133141552E+04  0.10100000352E+00 0. -1.
       -3    1    3    3    0  502  0.81234397697E+03  0.30166759084E+03  0.10062405364E+04  0.13279405482E+04  0.10100000352E+00 0.  1.
</event>
<event>
 5   0  0.1911477E-06  0.3170151E+04  0.7818609E-02  0.8196745E-01
       -2   -1    0    0    0  501  0.00000000000E+00  0.00000000000E+00  0.18245236601E+04  0.18245236601E+04  0.25500000920E-02 0. -1.
        2   -1    0    0  501    0  0.00000000000E+00  0.00000000000E+00 -0.13770524570E+04  0.13770524570E+04  0.25500000920E-02 0.  1.
    10030    2    1    2    0    0  0.00000000000E+00  0.00000000000E+00  0.44747120307E+03  0.32015761172E+04  0.31701512829E+04 0.  0.
        5    1    3    3  502    0 -0.64730928718E+03 -0.12631727811E+04 -0.48882772184E+03  0.15011959964E+04  0.46999998093E+01 0.  1.
       -5    1    3    3    0  502  0.64730928718E+03  0.12631727811E+04  0.93629892492E+03  0.17003801207E+04  0.46999998093E+01 0. -1.
</event>
<event>
 5   0  0.6218695E-07  0.3397692E+04  0.7818609E-02  0.8138473E-01
        1   -1    0    0  501    0  0.00000000000E+00  0.00000000000E+00  0.19521051085E+04  0.19521051085E+04  0.50400001928E-02 0.  1.
       -1   -1    0    0    0  501  0.00000000000E+00  0.00000000000E+00 -0.14784439153E+04  0.14784439153E+04  0.50400001928E-02 0. -1.
    10030    2    1    2    0    0  0.00000000000E+00  0.00000000000E+00  0.47366119318E+03  0.34305490238E+04  0.33976921107E+04 0.  0.
        2    1    3    3  502    0  0.15808680084E+04 -0.62152516242E+03  0.21127312809E+03  0.17117457528E+04  0.25500000920E-02 0. -1.
       -2    1    3    3    0  502 -0.15808680084E+04  0.62152516242E+03  0.26238806508E+03  0.17188032710E+04  0.25500000920E-02 0.  1.
</event>
<event>
 5   0  0.6146388E-07  0.3404738E+04  0.7818609E-02  0.8136744E-01
        1   -1    0    0  501    0  0.00000000000E+00  0.00000000000E+00  0.18487499745E+04  0.18487499745E+04  0.50400001928E-02 0. -1.
       -1   -1    0    0    0  501  0.00000000000E+00  0.00000000000E+00 -0.15675780402E+04  0.15675780402E+04  0.50400001928E-02 0.  1.
    10030    2    1    2    0    0  0.00000000000E+00  0.00000000000E+00  0.28117193428E+03  0.34163280147E+04  0.34047377943E+04 0.  0.
        4    1    3    3  502    0  0.14338481604E+04  0.90894596682E+03  0.13843148569E+02  0.16977327715E+04  0.12699999809E+01 0. -1.
       -4    1    3    3    0  502 -0.14338481604E+04 -0.90894596682E+03  0.26732878571E+03  0.17185952433E+04  0.12699999809E+01 0.  1.
</event>
<event>
 5   0  0.1797075E-06  0.3407494E+04  0.7818609E-02  0.8136070E-01
        2   -1    0    0  501    0  0.00000000000E+00  0.00000000000E+00  0.10071193074E+04  0.10071193074E+04  0.25500000920E-02 0. -1.
       -2   -1    0    0    0  501  0.00000000000E+00  0.00000000000E+00 -0.28822335879E+04  0.28822335879E+04  0.25500000920E-02 0.  1.
    10030    2    1    2    0    0  0.00000000000E+00  0.00000000000E+00 -0.18751142805E+04  0.38893528953E+04  0.34074935626E+04 0.  0.
        2    1    3    3  502    0 -0.12434756954E+04  0.17014194119E+03 -0.22526957053E+04  0.25787241082E+04  0.25500000920E-02 0.  1.
       -2    1    3    3    0  502  0.12434756954E+04 -0.17014194119E+03  0.37758142482E+03  0.13106287871E+04  0.25500000920E-02 0. -1.
</event>
<event>
 5   0  0.1339844E-06  0.3408519E+04  0.7818609E-02  0.8135819E-01
        2   -1    0    0  501    0  0.00000000000E+00  0.00000000000E+00  0.24310943400E+04  0.24310943400E+04  0.25500000920E-02 0.  1.
       -2   -1    0    0    0  501  0.00000000000E+00  0.00000000000E+00 -0.11947296190E+04  0.11947296190E+04  0.25500000920E-02 0. -1.
    10030    2    1    2    0    0  0.00000000000E+00  0.00000000000E+00  0.12363647210E+04  0.36258239590E+04  0.34085189831E+04 0.  0.
        3    1    3    3  502    0  0.15374446536E+04  0.55550343806E+03  0.11307529164E+04  0.19876927078E+04  0.10100000352E+00 0.  1.
       -3    1    3    3    0  502 -0.15374446536E+04 -0.55550343806E+03  0.10561180456E+03  0.16381312511E+04  0.10100000352E+00 0. -1.
</event>
<event>
 5   0  0.6134625E-07  0.3387044E+04  0.7818609E-02  0.8141093E-01
        1   -1    0    0  501    0  0.00000000000E+00  0.00000000000E+00  0.14577751695E+04  0.14577751696E+04  0.50400001928E-02 0.  1.
       -1   -1    0    0    0  501  0.00000000000E+00  0.00000000000E+00 -0.19673936411E+04  0.19673936411E+04  0.50400001928E-02 0. -1.
    10030    2    1    2    0    0  0.00000000000E+00  0.00000000000E+00 -0.50961847154E+03  0.34251688106E+04  0.33870444926E+04 0.  0.
        1    1    3    3  502    0  0.98286614074E+03 -0.80682002781E+03  0.87627642080E+03  0.15442942639E+04  0.50400001928E-02 0.  1.
       -1    1    3    3    0  502 -0.98286614074E+03  0.80682002781E+03 -0.13858948923E+04  0.18808745467E+04  0.50400001928E-02 0. -1.
</event>
<event>
 5   0  0.1339844E-06  0.3345829E+04  0.7818609E-02  0.8151331E-01
       -2   -1    0    0    0  501  0.00000000000E+00  0.00000000000E+00  0.12441548750E+04  0.12441548750E+04  0.25500000920E-02 0.  1.
        2   -1    0    0  501    0  0.00000000000E+00  0.00000000000E+00 -0.22494335290E+04  0.22494335290E+04  0.25500000920E-02 0. -1.
    10030    2    1    2    0    0  0.00000000000E+00  0.00000000000E+00 -0.10052786540E+04  0.34935884040E+04  0.33458294583E+04 0.  0.
        3    1    3    3  502    0  0.95876355324E+03 -0.80362077677E+03  0.65709053013E+03  0.14130824034E+04  0.10100000352E+00 0.  1.
       -3    1    3    3    0  502 -0.95876355324E+03  0.80362077677E+03 -0.16623691841E+04  0.20805060006E+04  0.10100000352E+00 0. -1.
</event>
<event>
 5   0  0.6146388E-07  0.3394279E+04  0.7818609E-02  0.8139312E-01
        1   -1    0    0  501    0  0.00000000000E+00  0.00000000000E+00  0.29810704721E+04  0.29810704721E+04  0.50400001928E-02 0. -1.
       -1   -1    0    0    0  501  0.00000000000E+00  0.00000000000E+00 -0.96619080257E+03  0.96619080259E+03  0.50400001928E-02 0.  1.
    10030    2    1    2    0    0  0.00000000000E+00  0.00000000000E+00  0.20148796695E+04  0.39472612747E+04  0.33942792295E+04 0.  0.
        4    1    3    3  502    0  0.33823696350E+03 -0.94356834938E+03 -0.58518432792E+03  0.11606755722E+04  0.12699999809E+01 0.  1.
       -4    1    3    3    0  502 -0.33823696350E+03  0.94356834938E+03  0.26000639974E+04  0.27865857024E+04  0.12699999809E+01 0. -1.
</event>
<event>
 5   0  0.6134625E-07  0.3343754E+04  0.7818609E-02  0.8151851E-01
        1   -1    0    0  501    0  0.00000000000E+00  0.00000000000E+00  0.11411288217E+04  0.11411288217E+04  0.50400001928E-02 0.  1.
       -1   -1    0    0    0  501  0.00000000000E+00  0.00000000000E+00 -0.24494801199E+04  0.24494801199E+04  0.50400001928E-02 0. -1.
    10030    2    1    2    0    0  0.00000000000E+00  0.00000000000E+00 -0.13083512982E+04  0.35906089416E+04  0.33437537965E+04 0.  0.
        3    1    3    3  502    0 -0.29009996740E+03 -0.15716095899E+04 -0.11813985696E+04  0.19874147239E+04  0.10100000352E+00 0.  1.
       -3    1    3    3    0  502  0.29009996740E+03  0.15716095899E+04 -0.12695272863E+03  0.16031942177E+04  0.10100000352E+00 0. -1.
</event>
<event>
 5   0  0.1797075E-06  0.3360485E+04  0.7818609E-02  0.8147673E-01
       -2   -1    0    0    0  501  0.00000000000E+00  0.00000000000E+00  0.18819725902E+04  0.18819725902E+04  0.25500000920E-02 0. -1.
        2   -1    0    0  501    0  0.00000000000E+00  0.00000000000E+00 -0.15001359965E+04  0.15001359965E+04  0.25500000920E-02 0.  1.
    10030    2    1    2    0    0  0.00000000000E+00  0.00000000000E+00  0.38183659363E+03  0.33821085867E+04  0.33604849811E+04 0.  0.
        2    1    3    3  502    0  0.14572546083E+04 -0.77668727408E+03 -0.12153179226E+03  0.16557789985E+04  0.25500000920E-02 0.  1.
       -2    1    3    3    0  502 -0.14572546083E+04  0.77668727408E+03  0.50336838589E+03  0.17263295882E+04  0.25500000920E-02 0. -1.
</event>
<event>
 5   0  0.6146388E-07  0.2984801E+04  0.7818609E-02  0.8248085E-01
        1   -1    0    0  501    0  0.00000000000E+00  0.00000000000E+00  0.14497004340E+04  0.14497004340E+04  0.50400001928E-02 0. -1.
       -1   -1    0    0    0  501  0.00000000000E+00  0.00000000000E+00 -0.15363577803E+04  0.15363577803E+04  0.50400001928E-02 0.  1.
    10030    2    1    2    0    0  0.00000000000E+00  0.00000000000E+00 -0.86657346309E+02  0.29860582142E+04  0.29848005232E+04 0.  0.
        4    1    3    3  502    0  0.37030958797E+03 -0.14350778128E+04  0.13190051376E+03  0.14879438425E+04  0.12699999809E+01 0. -1.
       -4    1    3    3    0  502 -0.37030958797E+03  0.14350778128E+04 -0.21855786007E+03  0.14981143718E+04  0.12699999809E+01 0.  1.
</event>
<event>
 5   0  0.6134625E-07  0.3385607E+04  0.7818609E-02  0.8141448E-01
       -4   -1    0    0    0  501  0.00000000000E+00  0.00000000000E+00  0.15025107190E+04  0.15025112557E+04  0.12699999809E+01 0. -1.
        4   -1    0    0  501    0  0.00000000000E+00  0.00000000000E+00 -0.19071959536E+04  0.19071963764E+04  0.12699999809E+01 0.  1.
    10030    2    1    2    0    0  0.00000000000E+00  0.00000000000E+00 -0.40468523464E+03  0.34097076321E+04  0.33856071830E+04 0.  0.
        3    1    3    3  502    0  0.14851344677E+04 -0.22879090640E+03  0.58270242570E+03  0.16116798048E+04  0.10100000352E+00 0. -1.
       -3    1    3    3    0  502 -0.14851344677E+04  0.22879090640E+03 -0.98738766034E+03  0.17980278274E+04  0.10100000352E+00 0.  1.
</event>
<event>
 5   0  0.1911477E-06  0.3459021E+04  0.7818609E-02  0.8123571E-01
       -2   -1    0    0    0  501  0.00000000000E+00  0.00000000000E+00  0.12964837023E+04  0.12964837023E+04  0.25500000920E-02 0.  1.
        2   -1    0    0  501    0  0.00000000000E+00  0.00000000000E+00 -0.23071684229E+04  0.23071684229E+04  0.25500000920E-02 0. -1.
    10030    2    1    2    0    0  0.00000000000E+00  0.00000000000E+00 -0.10106847206E+04  0.36036521253E+04  0.34590208203E+04 0.  0.
        5    1    3    3  502    0  0.13838461736E+04  0.57614814556E+03  0.39340294059E+03  0.15497628468E+04  0.46999998093E+01 0.  1.
       -5    1    3    3    0  502 -0.13838461736E+04 -0.57614814556E+03 -0.14040876612E+04  0.20538892784E+04  0.46999998093E+01 0. -1.
</event>
<event>
 5   0  0.1880301E-06  0.3178478E+04  0.7818609E-02  0.8194524E-01
        2   -1    0    0  501    0  0.00000000000E+00  0.00000000000E+00  0.22625005237E+04  0.22625005237E+04  0.25500000920E-02 0. -1.
       -2   -1    0    0    0  501  0.00000000000E+00  0.00000000000E+00 -0.11163226429E+04  0.11163226429E+04  0.25500000920E-02 0.  1.
    10030    2    1    2    0    0  0.00000000000E+00  0.00000000000E+00  0.11461778808E+04  0.33788231665E+04  0.31784779780E+04 0.  0.
        4    1    3    3  502    0 -0.94554618252E+03 -0.85234122709E+03  0.15844427805E+04  0.20324870696E+04  0.12699999809E+01 0. -1.
       -4    1    3    3    0  502  0.94554618252E+03  0.85234122709E+03 -0.43826489969E+03  0.13463360969E+04  0.12699999809E+01 0.  1.
</event>
<event>
 5   0  0.6134625E-07  0.3360064E+04  0.7818609E-02  0.8147778E-01
        4   -1    0    0  501    0  0.00000000000E+00  0.00000000000E+00  0.24938068333E+04  0.24938071567E+04  0.12699999809E+01 0.  1.
       -4   -1    0    0    0  501  0.00000000000E+00  0.00000000000E+00 -0.11318061508E+04  0.11318068634E+04  0.12699999809E+01 0. -1.
    10030    2    1    2    0    0  0.00000000000E+00  0.00000000000E+00  0.13620006825E+04  0.36256140200E+04  0.33600641606E+04 0.  0.
        5    1    3    3  502    0  0.86500136240E+03  0.78152438258E+03  0.19863507030E+04  0.23031758341E+04  0.46999998093E+01 0.  1.
       -5    1    3    3    0  502 -0.86500136240E+03 -0.78152438258E+03 -0.62435002051E+03  0.13224381859E+04  0.46999998093E+01 0. -1.
</event>
<event>
 5   0  0.6134625E-07  0.3363034E+04  0.7818609E-02  0.8147039E-01
        1   -1    0    0  501    0  0.00000000000E+00  0.00000000000E+00  0.14284745554E+04  0.14284745554E+04  0.50400001928E-02 0.  1.
       -1   -1    0    0    0  501  0.00000000000E+00  0.00000000000E+00 -0.19793840531E+04  0.19793840531E+04  0.50400001928E-02 0. -1.
    10030    2    1    2    0    0  0.00000000000E+00  0.00000000000E+00 -0.55090949772E+03  0.34078586086E+04  0.33630341987E+04 0.  0.
        3    1    3    3  502    0 -0.54756875115E+03  0.13287543474E+04  0.60915270070E+03  0.15609249424E+04  0.10100000352E+00 0.  1.
       -3    1    3    3    0  502  0.54756875115E+03 -0.13287543474E+04 -0.11600621984E+04  0.18469336662E+04  0.10100000352E+00 0. -1.
</event>
<event>
 5   0  0.6218695E-07  0.3393906E+04  0.7818609E-02  0.8139404E-01
       -1   -1    0    0    0  501  0.00000000000E+00  0.00000000000E+00  0.27986879725E+04  0.27986879725E+04  0.50400001928E-02 0. -1.
        1   -1    0    0  501    0  0.00000000000E+00  0.00000000000E+00 -0.10289283013E+04  0.10289283013E+04  0.50400001928E-02 0.  1.
    10030    2    1    2    0    0  0.00000000000E+00  0.00000000000E+00  0.17697596711E+04  0.38276162738E+04  0.33939058687E+04 0.  0.
        2    1    3    3  502    0 -0.68061145983E+03 -0.82714046381E+03 -0.59946440297E+03  0.12274978112E+04  0.25500000920E-02 0.  1.
       -2    1    3    3    0  502  0.68061145983E+03  0.82714046381E+03  0.23692240741E+04  0.26001184626E+04  0.25500000920E-02 0. -1.
</event>
<event>
 5   0  0.1339844E-06  0.3380697E+04  0.7818609E-02  0.8142660E-01
        2   -1    0    0  501    0  0.00000000000E+00  0.00000000000E+00  0.92161565760E+03  0.92161565760E+03  0.25500000920E-02 0. -1.
       -2   -1    0    0    0  501  0.00000000000E+00  0.00000000000E+00 -0.31002923687E+04  0.31002923687E+04  0.25500000920E-02 0.  1.
    10030    2    1    2    0    0  0.00000000000E+00  0.00000000000E+00 -0.21786767111E+04  0.40219080263E+04  0.33806969637E+04 0.  0.
        3    1    3    3  502    0  0.10781974313E+04 -0.12114022099E+04 -0.16564907635E+04  0.23181817605E+04  0.10100000352E+00 0.  1.
       -3    1    3    3    0  502 -0.10781974313E+04  0.12114022099E+04 -0.52218594763E+03  0.17037262659E+04  0.10100000352E+00 0. -1.
</event>
<event>
 5   0  0.6134625E-07  0.3694451E+04  0.7818609E-02  0.8069193E-01
        1   -1    0    0  501    0  0.00000000000E+00  0.00000000000E+00  0.21460774432E+04  0.21460774432E+04  0.50400001928E-02 0.  1.
       -1   -1    0    0    0  501  0.00000000000E+00  0.00000000000E+00 -0.15899899207E+04  0.15899899207E+04  0.50400001928E-02 0. -1.
    10030    2    1    2    0    0  0.00000000000E+00  0.00000000000E+00  0.55608752253E+03  0.37360673639E+04  0.36944507055E+04 0.  0.
        5    1    3    3  502    0  0.61751611493E+02 -0.15184803650E+04  0.13399311200E+04  0.20260881957E+04  0.46999998093E+01 0.  1.
       -5    1    3    3    0  502 -0.61751611493E+02  0.15184803650E+04 -0.78384359744E+03  0.17099791682E+04  0.46999998093E+01 0. -1.
</event>
<event>
 5   0  0.6146388E-07  0.3361662E+04  0.7818609E-02  0.8147380E-01
        1   -1    0    0  501    0  0.00000000000E+00  0.00000000000E+00  0.12123262578E+04  0.12123262578E+04  0.50400001928E-02 0.  1.
       -1   -1    0    0    0  501  0.00000000000E+00  0.00000000000E+00 -0.23303893942E+04  0.23303893942E+04  0.50400001928E-02 0. -1.
    10030    2    1    2    0    0  0.00000000000E+00  0.00000000000E+00 -0.11180631364E+04  0.35427156520E+04  0.33616616447E+04 0.  0.
        4    1    3    3  502    0  0.27526589813E+03  0.61768436564E+03  0.10626389910E+04  0.12595668019E+04  0.12699999809E+01 0.  1.
       -4    1    3    3    0  502 -0.27526589813E+03 -0.61768436564E+03 -0.21807021274E+04  0.22831488501E+04  0.12699999809E+01 0. -1.
</event>
<event>
 5   0  0.6134625E-07  0.3387284E+04  0.7818609E-02  0.8141034E-01
        1   -1    0    0  501    0  0.00000000000E+00  0.00000000000E+00  0.19771814336E+04  0.19771814336E+04  0.50400001928E-02 0. -1.
       -1   -1    0    0    0  501  0.00000000000E+00  0.00000000000E+00 -0.14507638807E+04  0.14507638807E+04  0.50400001928E-02 0.  1.
    10030    2    1    2    0    0  0.00000000000E+00  0.00000000000E+00  0.52641755292E+03  0.34279453144E+04  0.33872841095E+04 0.  0.
        1    1    3    3  502    0  0.32315677174E+02 -0.31767845028E+03  0.19464424833E+04  0.19724609607E+04  0.50400001928E-02 0. -1.
       -1    1    3    3    0  502 -0.32315677174E+02  0.31767845028E+03 -0.14200249304E+04  0.14554843536E+04  0.50400001928E-02 0.  1.
</event>
<event>
 5   0  0.1948507E-06  0.3365706E+04  0.7818609E-02  0.8146375E-01
       -2   -1    0    0    0  501  0.00000000000E+00  0.00000000000E+00  0.26940255435E+04  0.26940255435E+04  0.25500000920E-02 0.  1.
        2   -1    0    0  501    0  0.00000000000E+00  0.00000000000E+00 -0.10512127000E+04  0.10512127000E+04  0.25500000920E-02 0. -1.
    10030    2    1    2    0    0  0.00000000000E+00  0.00000000000E+00  0.16428128435E+04  0.37452382435E+04  0.33657057895E+04 0.  0.
        1    1    3    3  502    0  0.10600332883E+04  0.81557808663E+03  0.19579284630E+04  0.23711436174E+04  0.50400001928E-02 0.  1.
       -1    1    3    3    0  502 -0.10600332883E+04 -0.81557808663E+03 -0.31511561953E+03  0.13740946261E+04  0.50400001928E-02 0. -1.
</event>
<event>
 5   0  0.6134625E-07  0.3365862E+04  0.7818609E-02  0.8146336E-01
        1   -1    0    0  501    0  0.00000000000E+00  0.00000000000E+00  0.18501221456E+04  0.18501221456E+04  0.50400001928E-02 0. -1.
       -1   -1    0    0    0  501  0.00000000000E+00  0.00000000000E+00 -0.15308488384E+04  0.15308488384E+04  0.50400001928E-02 0.  1.
    10030    2    1    2    0    0  0.00000000000E+00  0.00000000000E+00  0.31927330716E+03  0.33809709840E+04  0.33658623486E+04 0.  0.
        1    1    3    3  502    0 -0.11965659926E+04  0.11827122766E+04  0.11847916126E+03  0.16865988900E+04  0.50400001928E-02 0.  1.
       -1    1    3    3    0  502  0.11965659926E+04 -0.11827122766E+04  0.20079414590E+03  0.16943720940E+04  0.50400001928E-02 0. -1.
</event>
<event>
 5   0  0.1339844E-06  0.3399567E+04  0.7818609E-02  0.8138013E-01
       -2   -1    0    0    0  501  0.00000000000E+00  0.00000000000E+00  0.22958596124E+04  0.22958596124E+04  0.25500000920E-02 0.  1.
        2   -1    0    0  501    0  0.00000000000E+00  0.00000000000E+00 -0.12584673192E+04  0.12584673192E+04  0.25500000920E-02 0. -1.
    10030    2    1    2    0    0  0.00000000000E+00  0.00000000000E+00  0.10373922932E+04  0.35543269316E+04  0.33995672028E+04 0.  0.
        3    1    3    3  502    0 -0.13546061538E+04 -0.62339315589E+03  0.13717352060E+04  0.20261377901E+04  0.10100000352E+00 0.  1.
       -3    1    3    3    0  502  0.13546061538E+04  0.62339315589E+03 -0.33434291288E+03  0.15281891415E+04  0.10100000352E+00 0. -1.
</event>
<event>
 5   0  0.1339844E-06  0.3392909E+04  0.7818609E-02  0.8139649E-01
       -2   -1    0    0    0  501  0.00000000000E+00  0.00000000000E+00  0.11658793094E+04  0.11658793094E+04  0.25500000920E-02 0.  1.
        2   -1    0    0  501    0  0.00000000000E+00  0.00000000000E+00 -0.24684876763E+04  0.24684876763E+04  0.25500000920E-02 0. -1.
    10030    2    1    2    0    0  0.00000000000E+00  0.00000000000E+00 -0.13026083669E+04  0.36343669857E+04  0.33929094932E+04 0.  0.
        3    1    3    3  502    0 -0.55633029942E+02 -0.15828169714E+04 -0.13248738363E+00  0.15837943764E+04  0.10100000352E+00 0.  1.
       -3    1    3    3    0  502  0.55633029942E+02  0.15828169714E+04 -0.13024758795E+04  0.20505726093E+04  0.10100000352E+00 0. -1.
</event>
<event>
 5   0  0.1880301E-06  0.3270652E+04  0.7818609E-02  0.8170403E-01
       -2   -1    0    0    0  501  0.00000000000E+00  0.00000000000E+00  0.11136606956E+04  0.11136606956E+04  0.25500000920E-02 0. -1.
        2   -1    0    0  501    0  0.00000000000E+00  0.00000000000E+00 -0.24013525285E+04  0.24013525285E+04  0.25500000920E-02 0.  1.
    10030    2    1    2    0    0  0.00000000000E+00  0.00000000000E+00 -0.12876918329E+04  0.35150132242E+04  0.32706524899E+04 0.  0.
        4    1    3    3  502    0 -0.15375339243E+04 -0.46124557869E+03 -0.30821132823E+03  0.16345500567E+04  0.12699999809E+01 0. -1.
       -4    1    3    3    0  502  0.15375339243E+04  0.46124557869E+03 -0.97948050465E+03  0.18804631674E+04  0.12699999809E+01 0.  1.
</event>
<event>
 5   0  0.6134625E-07  0.3431805E+04  0.7818609E-02  0.8130144E-01
       -1   -1    0    0    0  501  0.00000000000E+00  0.00000000000E+00  0.17493403050E+04  0.17493403050E+04  0.50400001928E-02 0. -1.
        1   -1    0    0  501    0  0.00000000000E+00  0.00000000000E+00 -0.16831043085E+04  0.16831043085E+04  0.50400001928E-02 0.  1.
    10030    2    1    2    0    0  0.00000000000E+00  0.00000000000E+00  0.66235996484E+02  0.34324446135E+04  0.34318054749E+04 0.  0.
        3    1    3    3  502    0  0.22632865238E+03  0.15611912537E+04  0.70835809550E+03  0.17292524371E+04  0.10100000352E+00 0.  1.
       -3    1    3    3    0  502 -0.22632865238E+03 -0.15611912537E+04 -0.64212209901E+03  0.17031921764E+04  0.10100000352E+00 0. -1.
</event>
<event>
 5   0  0.1880301E-06  0.3357201E+04  0.7818609E-02  0.8148491E-01
       -2   -1    0    0    0  501  0.00000000000E+00  0.00000000000E+00  0.14103529479E+04  0.14103529479E+04  0.25500000920E-02 0. -1.
        2   -1    0    0  501    0  0.00000000000E+00  0.00000000000E+00 -0.19978681190E+04  0.19978681190E+04  0.25500000920E-02 0.  1.
    10030    2    1    2    0    0  0.00000000000E+00  0.00000000000E+00 -0.58751517103E+03  0.34082210669E+04  0.33572007335E+04 0.  0.
        4    1    3    3  502    0 -0.66639334835E+03  0.30023316986E+03  0.12403252763E+04  0.14396626185E+04  0.12699999809E+01 0. -1.
       -4    1    3    3    0  502  0.66639334835E+03 -0.30023316986E+03 -0.18278404474E+04  0.19685584484E+04  0.12699999809E+01 0.  1.
</event>
<event>
 5   0  0.6134625E-07  0.3391764E+04  0.7818609E-02  0.8139931E-01
       -1   -1    0    0    0  501  0.00000000000E+00  0.00000000000E+00  0.14367925766E+04  0.14367925766E+04  0.50400001928E-02 0.  1.
        1   -1    0    0  501    0  0.00000000000E+00  0.00000000000E+00 -0.20016913542E+04  0.20016913542E+04  0.50400001928E-02 0. -1.
    10030    2    1    2    0    0  0.00000000000E+00  0.00000000000E+00 -0.56489877753E+03  0.34384839308E+04  0.33917637173E+04 0.  0.
        3    1    3    3  502    0 -0.77205962474E+03  0.74600063677E+03  0.10484255812E+04  0.15005962894E+04  0.10100000352E+00 0.  1.
       -3    1    3    3    0  502  0.77205962474E+03 -0.74600063677E+03 -0.16133243587E+04  0.19378876414E+04  0.10100000352E+00 0. -1.
</event>
<event>
 5   0  0.1948507E-06  0.3360088E+04  0.7818609E-02  0.8147772E-01
       -2   -1    0    0    0  501  0.00000000000E+00  0.00000000000E+00  0.15204043993E+04  0.15204043993E+04  0.25500000920E-02 0.  1.
        2   -1    0    0  501    0  0.00000000000E+00  0.00000000000E+00 -0.18564456947E+04  0.18564456947E+04  0.25500000920E-02 0. -1.
    10030    2    1    2    0    0  0.00000000000E+00  0.00000000000E+00 -0.33604129539E+03  0.33768500939E+04  0.33600882138E+04 0.  0.
        1    1    3    3  502    0 -0.52881372912E+02  0.73530222176E+03  0.13491733523E+04  0.15374441556E+04  0.50400001928E-02 0.  1.
       -1    1    3    3    0  502  0.52881372912E+02 -0.73530222176E+03 -0.16852146477E+04  0.18394059383E+04  0.50400001928E-02 0. -1.
</event>
<event>
 5   0  0.1911477E-06  0.3398857E+04  0.7818609E-02  0.8138187E-01
        2   -1    0    0  501    0  0.00000000000E+00  0.00000000000E+00  0.24320806266E+04  0.24320806266E+04  0.25500000920E-02 0. -1.
       -2   -1    0    0    0  501  0.00000000000E+00  0.00000000000E+00 -0.11874839160E+04  0.11874839160E+04  0.25500000920E-02 0.  1.
    10030    2    1    2    0    0  0.00000000000E+00  0.00000000000E+00  0.12445967106E+04  0.36195645425E+04  0.33988566468E+04 0.  0.
        5    1    3    3  502    0  0.69247477482E+03 -0.56834389380E+03  0.21601994716E+04  0.23385935822E+04  0.46999998093E+01 0. -1.
       -5    1    3    3    0  502 -0.69247477482E+03  0.56834389380E+03 -0.91560276099E+03  0.12809709604E+04  0.46999998093E+01 0.  1.
</event>
<event>
 5   0  0.1911477E-06  0.3396243E+04  0.7818609E-02  0.8138829E-01
        2   -1    0    0  501    0  0.00000000000E+00  0.00000000000E+00  0.28040553654E+04  0.28040553654E+04  0.25500000920E-02 0. -1.
       -2   -1    0    0    0  501  0.00000000000E+00  0.00000000000E+00 -0.10283735451E+04  0.10283735451E+04  0.25500000920E-02 0.  1.
    10030    2    1    2    0    0  0.00000000000E+00  0.00000000000E+00  0.17756818203E+04  0.38324289105E+04  0.33962428399E+04 0.  0.
        5    1    3    3  502    0 -0.34264981396E+03  0.10285654433E+04  0.23626969287E+04  0.25995604692E+04  0.46999998093E+01 0. -1.
       -5    1    3    3    0  502  0.34264981396E+03 -0.10285654433E+04 -0.58701510839E+03  0.12328684413E+04  0.46999998093E+01 0.  1.
</event>
<event>
 5   0  0.6134625E-07  0.3436350E+04  0.7818609E-02  0.8129042E-01
       -1   -1    0    0    0  501  0.00000000000E+00  0.00000000000E+00  0.16859346329E+04  0.16859346329E+04  0.50400001928E-02 0. -1.
        1   -1    0    0  501    0  0.00000000000E+00  0.00000000000E+00 -0.17510322746E+04  0.17510322746E+04  0.50400001928E-02 0.  1.
    10030    2    1    2    0    0  0.00000000000E+00  0.00000000000E+00 -0.65097641790E+02  0.34369669075E+04  0.34363503634E+04 0.  0.
        3    1    3    3  502    0  0.70470774130E+03 -0.12950261011E+04  0.84989080443E+03  0.17017696651E+04  0.10100000352E+00 0. -1.
       -3    1    3    3    0  502 -0.70470774130E+03  0.12950261011E+04 -0.91498844622E+03  0.17351972424E+04  0.10100000352E+00 0.  1.
</event>
<event>
 5   0  0.6134625E-07  0.3522906E+04  0.7818609E-02  0.8108383E-01
       -1   -1    0    0    0  501  0.00000000000E+00  0.00000000000E+00  0.14820717620E+04  0.14820717620E+04  0.50400001928E-02 0.  1.
        1   -1    0    0  501    0  0.00000000000E+00  0.00000000000E+00 -0.20934990957E+04  0.20934990958E+04  0.50400001928E-02 0. -1.
    10030    2    1    2    0    0  0.00000000000E+00  0.00000000000E+00 -0.61142733379E+03  0.35755708577E+04  0.35229055585E+04 0.  0.
        1    1    3    3  502    0 -0.10406889633E+04 -0.10871837270E+04 -0.12346634847E+04  0.19466370732E+04  0.50400001928E-02 0. -1.
       -1    1    3    3    0  502  0.10406889633E+04  0.10871837270E+04  0.62323615088E+03  0.16289337845E+04  0.50400001928E-02 0.  1.
</event>
<event>
 5   0  0.6134625E-07  0.3186796E+04  0.7818609E-02  0.8192313E-01
       -3   -1    0    0    0  501  0.00000000000E+00  0.00000000000E+00  0.11730263937E+04  0.11730263981E+04  0.10100000352E+00 0.  1.
        3   -1    0    0  501    0  0.00000000000E+00  0.00000000000E+00 -0.21644158705E+04  0.21644158728E+04  0.10100000352E+00 0. -1.
    10030    2    1    2    0    0  0.00000000000E+00  0.00000000000E+00 -0.99138947678E+03  0.33374422709E+04  0.31867958543E+04 0.  0.
        1    1    3    3  502    0  0.50417184185E+03 -0.11149373852E+04  0.57316035224E+03  0.13512170101E+04  0.50400001928E-02 0.  1.
       -1    1    3    3    0  502 -0.50417184185E+03  0.11149373852E+04 -0.15645498290E+04  0.19862252608E+04  0.50400001928E-02 0. -1.
</event>
<event>
 5   0  0.6134625E-07  0.3366917E+04  0.7818609E-02  0.8146074E-01
       -1   -1    0    0    0  501  0.00000000000E+00  0.00000000000E+00  0.17320820890E+04  0.17320820891E+04  0.50400001928E-02 0. -1.
        1   -1    0    0  501    0  0.00000000000E+00  0.00000000000E+00 -0.16362000228E+04  0.16362000229E+04  0.50400001928E-02 0.  1.
    10030    2    1    2    0    0  0.00000000000E+00  0.00000000000E+00  0.95882066205E+02  0.33682821119E+04  0.33669171381E+04 0.  0.
        5    1    3    3  502    0  0.81508743145E+03  0.14605105190E+04  0.23920475085E+03  0.16895856000E+04  0.46999998093E+01 0. -1.
       -5    1    3    3    0  502 -0.81508743145E+03 -0.14605105190E+04 -0.14332268465E+03  0.16786965119E+04  0.46999998093E+01 0.  1.
</event>
<event>
 5   0  0.6134625E-07  0.3354965E+04  0.7818609E-02  0.8149049E-01
        1   -1    0    0  501    0  0.00000000000E+00  0.00000000000E+00  0.22141281377E+04  0.22141281377E+04  0.50400001928E-02 0.  1.
       -1   -1    0    0    0  501  0.00000000000E+00  0.00000000000E+00 -0.12709056787E+04  0.12709056787E+04  0.50400001928E-02 0. -1.
    10030    2    1    2    0    0  0.00000000000E+00  0.00000000000E+00  0.94322245898E+03  0.34850338164E+04  0.33549652896E+04 0.  0.
        1    1    3    3  502    0 -0.16370753712E+04 -0.16604995897E+03  0.13283928031E+03  0.16508284691E+04  0.50400001928E-02 0.  1.
       -1    1    3    3    0  502  0.16370753712E+04  0.16604995897E+03  0.81038317867E+03  0.18342053473E+04  0.50400001928E-02 0. -1.
</event>
<event>
 5   0  0.6218695E-07  0.3414862E+04  0.7818609E-02  0.8134268E-01
       -1   -1    0    0    0  501  0.00000000000E+00  0.00000000000E+00  0.10969101568E+04  0.10969101568E+04  0.50400001928E-02 0. -1.
        1   -1    0    0  501    0  0.00000000000E+00  0.00000000000E+00 -0.26577571672E+04  0.26577571673E+04  0.50400001928E-02 0.  1.
    10030    2    1    2    0    0  0.00000000000E+00  0.00000000000E+00 -0.15608470104E+04  0.37546673241E+04  0.34148621238E+04 0.  0.
        2    1    3    3  502    0 -0.12792649161E+04  0.92747933699E+03 -0.69063085245E+02  0.15816151099E+04  0.25500000920E-02 0.  1.
       -2    1    3    3    0  502  0.12792649161E+04 -0.92747933699E+03 -0.14917839252E+04  0.21730522142E+04  0.25500000920E-02 0. -1.
</event>
<event>
 5   0  0.6134625E-07  0.3254595E+04  0.7818609E-02  0.8174546E-01
        1   -1    0    0  501    0  0.00000000000E+00  0.00000000000E+00  0.19701517484E+04  0.19701517484E+04  0.50400001928E-02 0. -1.
       -1   -1    0    0    0  501  0.00000000000E+00  0.00000000000E+00 -0.13441083718E+04  0.13441083718E+04  0.50400001928E-02 0.  1.
    10030    2    1    2    0    0  0.00000000000E+00  0.00000000000E+00  0.62604337658E+03  0.33142601202E+04  0.32545951875E+04 0.  0.
        3    1    3    3  502    0 -0.35111714931E+02 -0.16111498464E+04  0.54313056450E+03  0.17005962132E+04  0.10100000352E+00 0.  1.
       -3    1    3    3    0  502  0.35111714931E+02  0.16111498464E+04  0.82912812080E+02  0.16136639070E+04  0.10100000352E+00 0. -1.
</event>
<event>
 5   0  0.1911477E-06  0.3400188E+04  0.7818609E-02  0.8137860E-01
        2   -1    0    0  501    0  0.00000000000E+00  0.00000000000E+00  0.17122849586E+04  0.17122849586E+04  0.25500000920E-02 0.  1.
       -2   -1    0    0    0  501  0.00000000000E+00  0.00000000000E+00 -0.16879898379E+04  0.16879898379E+04  0.25500000920E-02 0. -1.
    10030    2    1    2    0    0  0.00000000000E+00  0.00000000000E+00  0.24295120733E+02  0.34002747965E+04  0.34001880005E+04 0.  0.
        5    1    3    3  502    0  0.14650202448E+04 -0.15248731660E+03  0.86114556879E+03  0.17062035283E+04  0.46999998093E+01 0.  1.
       -5    1    3    3    0  502 -0.14650202448E+04  0.15248731660E+03 -0.83685044805E+03  0.16940712682E+04  0.46999998093E+01 0. -1.
</event>
<event>
 5   0  0.6134625E-07  0.3401370E+04  0.7818609E-02  0.8137570E-01
        1   -1    0    0  501    0  0.00000000000E+00  0.00000000000E+00  0.18583250300E+04  0.18583250301E+04  0.50400001928E-02 0. -1.
       -1   -1    0    0    0  501  0.00000000000E+00  0.00000000000E+00 -0.15564173098E+04  0.15564173098E+04  0.50400001928E-02 0.  1.
    10030    2    1    2    0    0  0.00000000000E+00  0.00000000000E+00  0.30190772023E+03  0.34147423399E+04  0.34013698676E+04 0.  0.
        5    1    3    3  502    0 -0.47670884721E+03  0.98548451083E+03 -0.11556528995E+04  0.15918501061E+04  0.46999998093E+01 0.  1.
       -5    1    3    3    0  502  0.47670884721E+03 -0.98548451083E+03  0.14575606197E+04  0.18228922338E+04  0.46999998093E+01 0. -1.
</event>
<event>
 5   0  0.1948507E-06  0.3385569E+04  0.7818609E-02  0.8141457E-01
       -2   -1    0    0    0  501  0.00000000000E+00  0.00000000000E+00  0.21545631329E+04  0.21545631329E+04  0.25500000920E-02 0.  1.
        2   -1    0    0  501    0  0.00000000000E+00  0.00000000000E+00 -0.13299767255E+04  0.13299767255E+04  0.25500000920E-02 0. -1.
    10030    2    1    2    0    0  0.00000000000E+00  0.00000000000E+00  0.82458640746E+03  0.34845398584E+04  0.33855686792E+04 0.  0.
        1    1    3    3  502    0  0.13570574051E+04  0.14338161514E+03  0.14432519239E+04  0.19862374491E+04  0.50400001928E-02 0.  1.
       -1    1    3    3    0  502 -0.13570574051E+04 -0.14338161514E+03 -0.61866551646E+03  0.14983024093E+04  0.50400001928E-02 0. -1.
</event>
<event>
 5   0  0.6134625E-07  0.3376935E+04  0.7818609E-02  0.8143591E-01
       -1   -1    0    0    0  501  0.00000000000E+00  0.00000000000E+00  0.15745339009E+04  0.15745339009E+04  0.50400001928E-02 0. -1.
        1   -1    0    0  501    0  0.00000000000E+00  0.00000000000E+00 -0.18106449383E+04  0.18106449383E+04  0.50400001928E-02 0.  1.
    10030    2    1    2    0    0  0.00000000000E+00  0.00000000000E+00 -0.23611103733E+03  0.33851788392E+04  0.33769346087E+04 0.  0.
        1    1    3    3  502    0  0.25749030397E+03  0.48176060388E+03 -0.17196190255E+04  0.18042960203E+04  0.50400001928E-02 0.  1.
       -1    1    3    3    0  502 -0.25749030397E+03 -0.48176060388E+03  0.14835079882E+04  0.15808828189E+04  0.50400001928E-02 0. -1.
</event>
<event>
 5   0  0.1880301E-06  0.3371379E+04  0.7818609E-02  0.8144967E-01
       -2   -1    0    0    0  501  0.00000000000E+00  0.00000000000E+00  0.18623865901E+04  0.18623865901E+04  0.25500000920E-02 0.  1.
        2   -1    0    0  501    0  0.00000000000E+00  0.00000000000E+00 -0.15257566758E+04  0.15257566758E+04  0.25500000920E-02 0. -1.
    10030    2    1    2    0    0  0.00000000000E+00  0.00000000000E+00  0.33662991433E+03  0.33881432659E+04  0.33713788116E+04 0.  0.
        4    1    3    3  502    0  0.94693591487E+03 -0.22363576564E+03 -0.12150642340E+04  0.15566256095E+04  0.12699999809E+01 0. -1.
       -4    1    3    3    0  502 -0.94693591487E+03  0.22363576564E+03  0.15516941484E+04  0.18315176564E+04  0.12699999809E+01 0.  1.
</event>
<event>
 5   0  0.1339844E-06  0.3355167E+04  0.7818609E-02  0.8148998E-01
        2   -1    0    0  501    0  0.00000000000E+00  0.00000000000E+00  0.24001527297E+04  0.24001527297E+04  0.25500000920E-02 0.  1.
       -2   -1    0    0    0  501  0.00000000000E+00  0.00000000000E+00 -0.11725446045E+04  0.11725446045E+04  0.25500000920E-02 0. -1.
    10030    2    1    2    0    0  0.00000000000E+00  0.00000000000E+00  0.12276081251E+04  0.35726973342E+04  0.33551668413E+04 0.  0.
        3    1    3    3  502    0 -0.14856528631E+04 -0.67154942640E+03  0.19303533973E+03  0.16417690807E+04  0.10100000352E+00 0. -1.
       -3    1    3    3    0  502  0.14856528631E+04  0.67154942640E+03  0.10345727854E+04  0.19309282535E+04  0.10100000352E+00 0.  1.
</event>
<event>
 5   0  0.6134625E-07  0.3434248E+04  0.7818609E-02  0.8129552E-01
        1   -1    0    0  501    0  0.00000000000E+00  0.00000000000E+00  0.21537825244E+04  0.21537825244E+04  0.50400001928E-02 0.  1.
       -1   -1    0    0    0  501  0.00000000000E+00  0.00000000000E+00 -0.13689933787E+04  0.13689933787E+04  0.50400001928E-02 0. -1.
    10030    2    1    2    0    0  0.00000000000E+00  0.00000000000E+00  0.78478914569E+03  0.35227759031E+04  0.34342475246E+04 0.  0.
        1    1    3    3  502    0  0.45106778037E+03 -0.79974580146E+03  0.18808189305E+04  0.20929728471E+04  0.50400001928E-02 0.  1.
       -1    1    3    3    0  502 -0.45106778037E+03  0.79974580146E+03 -0.10960297848E+04  0.14298030559E+04  0.50400001928E-02 0. -1.
</event>
<event>
 5   0  0.6134625E-07  0.3365405E+04  0.7818609E-02  0.8146450E-01
       -1   -1    0    0    0  501  0.00000000000E+00  0.00000000000E+00  0.10511878473E+04  0.10511878473E+04  0.50400001928E-02 0.  1.
        1   -1    0    0  501    0  0.00000000000E+00  0.00000000000E+00 -0.26936072449E+04  0.26936072449E+04  0.50400001928E-02 0. -1.
    10030    2    1    2    0    0  0.00000000000E+00  0.00000000000E+00 -0.16424193976E+04  0.37447950922E+04  0.33654047015E+04 0.  0.
        5    1    3    3  502    0 -0.47833608845E+03  0.15034502045E+04 -0.14722268385E+04  0.21579253659E+04  0.46999998093E+01 0. -1.
       -5    1    3    3    0  502  0.47833608845E+03 -0.15034502045E+04 -0.17019255910E+03  0.15868697262E+04  0.46999998093E+01 0.  1.
</event>
<event>
 5   0  0.6134625E-07  0.3377253E+04  0.7818609E-02  0.8143512E-01
       -1   -1    0    0    0  501  0.00000000000E+00  0.00000000000E+00  0.12387653335E+04  0.12387653335E+04  0.50400001928E-02 0.  1.
        1   -1    0    0  501    0  0.00000000000E+00  0.00000000000E+00 -0.23018561198E+04  0.23018561198E+04  0.50400001928E-02 0. -1.
    10030    2    1    2    0    0  0.00000000000E+00  0.00000000000E+00 -0.10630907862E+04  0.35406214533E+04  0.33772530636E+04 0.  0.
        5    1    3    3  502    0  0.12240771541E+03 -0.16414681330E+04 -0.13643777392E+03  0.16516775220E+04  0.46999998093E+01 0.  1.
       -5    1    3    3    0  502 -0.12240771541E+03  0.16414681330E+04 -0.92665301231E+03  0.18889439313E+04  0.46999998093E+01 0. -1.
</event>
<event>
 5   0  0.6218695E-07  0.3349855E+04  0.7818609E-02  0.8150324E-01
       -1   -1    0    0    0  501  0.00000000000E+00  0.00000000000E+00  0.23293068551E+04  0.23293068552E+04  0.50400001928E-02 0. -1.
        1   -1    0    0  501    0  0.00000000000E+00  0.00000000000E+00 -0.12043853092E+04  0.12043853092E+04  0.50400001928E-02 0.  1.
    10030    2    1    2    0    0  0.00000000000E+00  0.00000000000E+00  0.11249215460E+04  0.35336921644E+04  0.33498554936E+04 0.  0.
        2    1    3    3  502    0 -0.13813522488E+04  0.30308562617E+03  0.15091451818E+04  0.20682151996E+04  0.25500000920E-02 0. -1.
       -2    1    3    3    0  502  0.13813522488E+04 -0.30308562617E+03 -0.38422363584E+03  0.14654769648E+04  0.25500000920E-02 0.  1.
</event>
<event>
 5   0  0.1339844E-06  0.3336760E+04  0.7818609E-02  0.8153604E-01
       -2   -1    0    0    0  501  0.00000000000E+00  0.00000000000E+00  0.24747084028E+04  0.24747084028E+04  0.25500000920E-02 0. -1.
        2   -1    0    0  501    0  0.00000000000E+00  0.00000000000E+00 -0.11247755553E+04  0.11247755553E+04  0.25500000920E-02 0.  1.
    10030    2    1    2    0    0  0.00000000000E+00  0.00000000000E+00  0.13499328475E+04  0.35994839581E+04  0.33367598163E+04 0.  0.
        3    1    3    3  502    0  0.15434153675E+03 -0.24193706169E+03  0.24478841158E+04  0.24646483534E+04  0.10100000352E+00 0. -1.
       -3    1    3    3    0  502 -0.15434153675E+03  0.24193706169E+03 -0.10979512683E+04  0.11348356046E+04  0.10100000352E+00 0.  1.
</event>
<event>
 5   0  0.1797075E-06  0.3480757E+04  0.7818609E-02  0.8118365E-01
       -2   -1    0    0    0  501  0.00000000000E+00  0.00000000000E+00  0.10709350618E+04  0.10709350618E+04  0.25500000920E-02 0. -1.
        2   -1    0    0  501    0  0.00000000000E+00  0.00000000000E+00 -0.28282922514E+04  0.28282922514E+04  0.25500000920E-02 0.  1.
    10030    2    1    2    0    0  0.00000000000E+00  0.00000000000E+00 -0.17573571896E+04  0.38992273132E+04  0.34807570079E+04 0.  0.
        2    1    3    3  502    0 -0.34228487617E+03 -0.11244124984E+03 -0.27860602295E+04  0.28092585451E+04  0.25500000920E-02 0.  1.
       -2    1    3    3    0  502  0.34228487617E+03  0.11244124984E+03  0.10287030399E+04  0.10899687681E+04  0.25500000920E-02 0. -1.
</event>
<event>
 5   0  0.1339844E-06  0.3469892E+04  0.7818609E-02  0.8120962E-01
       -2   -1    0    0    0  501  0.00000000000E+00  0.00000000000E+00  0.14405474132E+04  0.14405474132E+04  0.25500000920E-02 0. -1.
        2   -1    0    0  501    0  0.00000000000E+00  0.00000000000E+00 -0.20895097194E+04  0.20895097194E+04  0.25500000920E-02 0.  1.
    10030    2    1    2    0    0  0.00000000000E+00  0.00000000000E+00 -0.64896230624E+03  0.35300571326E+04  0.34698921142E+04 0.  0.
        3    1    3    3  502    0 -0.52640562671E+03 -0.65980146805E+03 -0.18665461717E+04  0.20485203153E+04  0.10100000352E+00 0.  1.
       -3    1    3    3    0  502  0.52640562671E+03  0.65980146805E+03  0.12175838655E+04  0.14815368172E+04  0.10100000352E+00 0. -1.
</event>
<event>
 5   0  0.1797075E-06  0.2788831E+04  0.7818609E-02  0.8306744E-01
        2   -1    0    0  501    0  0.00000000000E+00  0.00000000000E+00  0.98884632504E+03  0.98884632504E+03  0.25500000920E-02 0.  1.
       -2   -1    0    0    0  501  0.00000000000E+00  0.00000000000E+00 -0.19663267835E+04  0.19663267835E+04  0.25500000920E-02 0. -1.
    10030    2    1    2    0    0  0.00000000000E+00  0.00000000000E+00 -0.97748045847E+03  0.29551731086E+04  0.27888313063E+04 0.  0.
        2    1    3    3  502    0  0.72612729848E+03 -0.11349560101E+04 -0.86934191828E+03  0.16034778980E+04  0.25500000920E-02 0.  1.
       -2    1    3    3    0  502 -0.72612729848E+03  0.11349560101E+04 -0.10813854020E+03  0.13516952106E+04  0.25500000920E-02 0. -1.
</event>
<event>
 5   0  0.1339844E-06  0.3424873E+04  0.7818609E-02  0.8131829E-01
       -2   -1    0    0    0  501  0.00000000000E+00  0.00000000000E+00  0.16409850302E+04  0.16409850302E+04  0.25500000920E-02 0. -1.
        2   -1    0    0  501    0  0.00000000000E+00  0.00000000000E+00 -0.17869986112E+04  0.17869986112E+04  0.25500000920E-02 0.  1.
    10030    2    1    2    0    0  0.00000000000E+00  0.00000000000E+00 -0.14601358104E+03  0.34279836415E+04  0.34248725349E+04 0.  0.
        3    1    3    3  502    0 -0.12287944479E+04 -0.23889766494E+03  0.10965708565E+04  0.16641741324E+04  0.10100000352E+00 0. -1.
       -3    1    3    3    0  502  0.12287944479E+04  0.23889766494E+03 -0.12425844375E+04  0.17638095090E+04  0.10100000352E+00 0.  1.
</event>
<event>
 5   0  0.1339844E-06  0.3398466E+04  0.7818609E-02  0.8138283E-01
        2   -1    0    0  501    0  0.00000000000E+00  0.00000000000E+00  0.22664588735E+04  0.22664588735E+04  0.25500000920E-02 0. -1.
       -2   -1    0    0    0  501  0.00000000000E+00  0.00000000000E+00 -0.12739665156E+04  0.12739665156E+04  0.25500000920E-02 0.  1.
    10030    2    1    2    0    0  0.00000000000E+00  0.00000000000E+00  0.99249235788E+03  0.35404253891E+04  0.33984659562E+04 0.  0.
        3    1    3    3  502    0  0.14390756370E+04  0.14206813365E+03  0.14258606584E+04  0.20308128104E+04  0.10100000352E+00 0. -1.
       -3    1    3    3    0  502 -0.14390756370E+04 -0.14206813365E+03 -0.43336830049E+03  0.15096125787E+04  0.10100000352E+00 0.  1.
</event>
<event>
 5   0  0.1880301E-06  0.3415798E+04  0.7818609E-02  0.8134040E-01
       -2   -1    0    0    0  501  0.00000000000E+00  0.00000000000E+00  0.12739269833E+04  0.12739269833E+04  0.25500000920E-02 0.  1.
        2   -1    0    0  501    0  0.00000000000E+00  0.00000000000E+00 -0.22897060436E+04  0.22897060436E+04  0.25500000920E-02 0. -1.
    10030    2    1    2    0    0  0.00000000000E+00  0.00000000000E+00 -0.10157790603E+04  0.35636330269E+04  0.34157976011E+04 0.  0.
        4    1    3    3  502    0 -0.54294922394E+03  0.74836549982E+03  0.99025167841E+03  0.13547858800E+04  0.12699999809E+01 0.  1.
       -4    1    3    3    0  502  0.54294922394E+03 -0.74836549982E+03 -0.20060307387E+04  0.22088471470E+04  0.12699999809E+01 0. -1.
</event>
<event>
 5   0  0.1880301E-06  0.3458450E+04  0.7818609E-02  0.8123708E-01
        2   -1    0    0  501    0  0.00000000000E+00  0.00000000000E+00  0.24290993215E+04  0.24290993215E+04  0.25500000920E-02 0.  1.
       -2   -1    0    0    0  501  0.00000000000E+00  0.00000000000E+00 -0.12309992609E+04  0.12309992609E+04  0.25500000920E-02 0. -1.
    10030    2    1    2    0    0  0.00000000000E+00  0.00000000000E+00  0.11981000606E+04  0.36600985824E+04  0.34584502133E+04 0.  0.
        4    1    3    3  502    0  0.54446622712E+03  0.16235151585E+04  0.34423571588E+03  0.17466381375E+04  0.12699999809E+01 0.  1.
       -4    1    3    3    0  502 -0.54446622712E+03 -0.16235151585E+04  0.85386434473E+03  0.19134604449E+04  0.12699999809E+01 0. -1.
</event>
<event>
 5   0  0.6134625E-07  0.3407541E+04  0.7818609E-02  0.8136058E-01
        1   -1    0    0  501    0  0.00000000000E+00  0.00000000000E+00  0.19931754503E+04  0.19931754504E+04  0.50400001928E-02 0.  1.
       -1   -1    0    0    0  501  0.00000000000E+00  0.00000000000E+00 -0.14563862121E+04  0.14563862121E+04  0.50400001928E-02 0. -1.
    10030    2    1    2    0    0  0.00000000000E+00  0.00000000000E+00  0.53678923822E+03  0.34495616625E+04  0.34075406053E+04 0.  0.
        1    1    3    3  502    0 -0.62058064941E+03 -0.82994967580E+03  0.16374386934E+04  0.19378189496E+04  0.50400001928E-02 0.  1.
       -1    1    3    3    0  502  0.62058064941E+03  0.82994967580E+03 -0.11006494552E+04  0.15117427129E+04  0.50400001928E-02 0. -1.
</event>
<event>
 5   0  0.1797075E-06  0.3415628E+04  0.7818609E-02  0.8134081E-01
       -2   -1    0    0    0  501  0.00000000000E+00  0.00000000000E+00  0.11760058030E+04  0.11760058030E+04  0.25500000920E-02 0.  1.
        2   -1    0    0  501    0  0.00000000000E+00  0.00000000000E+00 -0.24801136683E+04  0.24801136683E+04  0.25500000920E-02 0. -1.
    10030    2    1    2    0    0  0.00000000000E+00  0.00000000000E+00 -0.13041078653E+04  0.36561194712E+04  0.34156276530E+04 0.  0.
        2    1    3    3  502    0 -0.11215743768E+04  0.67623160884E+03 -0.18253171134E+04  0.22465531011E+04  0.25500000920E-02 0. -1.
       -2    1    3    3    0  502  0.11215743768E+04 -0.67623160884E+03  0.52120924811E+03  0.14095663701E+04  0.25500000920E-02 0.  1.
</event>
<event>
 5   0  0.6134625E-07  0.2943906E+04  0.7818609E-02  0.8259933E-01
       -1   -1    0    0    0  501  0.00000000000E+00  0.00000000000E+00  0.90675594364E+03  0.90675594366E+03  0.50400001928E-02 0. -1.
        1   -1    0    0  501    0  0.00000000000E+00  0.00000000000E+00 -0.23894473880E+04  0.23894473880E+04  0.50400001928E-02 0.  1.
    10030    2    1    2    0    0  0.00000000000E+00  0.00000000000E+00 -0.14826914443E+04  0.32962033316E+04  0.29439059911E+04 0.  0.
        5    1    3    3  502    0  0.19223813364E+03 -0.30478491085E+03 -0.23392895111E+04  0.23668854743E+04  0.46999998093E+01 0.  1.
       -5    1    3    3    0  502 -0.19223813364E+03  0.30478491085E+03  0.85659806677E+03  0.92931785730E+03  0.46999998093E+01 0. -1.
</event>
<event>
 5   0  0.6146388E-07  0.3432751E+04  0.7818609E-02  0.8129915E-01
       -1   -1    0    0    0  501  0.00000000000E+00  0.00000000000E+00  0.11583570732E+04  0.11583570733E+04  0.50400001928E-02 0.  1.
        1   -1    0    0  501    0  0.00000000000E+00  0.00000000000E+00 -0.25432090475E+04  0.25432090475E+04  0.50400001928E-02 0. -1.
    10030    2    1    2    0    0  0.00000000000E+00  0.00000000000E+00 -0.13848519743E+04  0.37015661208E+04  0.34327506108E+04 0.  0.
        4    1    3    3  502    0  0.49285323722E+03  0.15225300641E+04 -0.13614474377E+04  0.21010813521E+04  0.12699999809E+01 0. -1.
       -4    1    3    3    0  502 -0.49285323722E+03 -0.15225300641E+04 -0.23404536601E+02  0.16004847687E+04  0.12699999809E+01 0.  1.
</event>
<event>
 5   0  0.6134625E-07  0.3499435E+04  0.7818609E-02  0.8113924E-01
        1   -1    0    0  501    0  0.00000000000E+00  0.00000000000E+00  0.10312066731E+04  0.10312066731E+04  0.50400001928E-02 0. -1.
       -1   -1    0    0    0  501  0.00000000000E+00  0.00000000000E+00 -0.29688625386E+04  0.29688625386E+04  0.50400001928E-02 0.  1.
    10030    2    1    2    0    0  0.00000000000E+00  0.00000000000E+00 -0.19376558655E+04  0.40000692117E+04  0.34994347323E+04 0.  0.
        3    1    3    3  502    0 -0.83102716352E+03  0.92691795404E+03  0.43659297267E+03  0.13192408704E+04  0.10100000352E+00 0. -1.
       -3    1    3    3    0  502  0.83102716352E+03 -0.92691795404E+03 -0.23742488382E+04  0.26808283414E+04  0.10100000352E+00 0.  1.
</event>
<event>
 5   0  0.1948507E-06  0.3396192E+04  0.7818609E-02  0.8138842E-01
       -2   -1    0    0    0  501  0.00000000000E+00  0.00000000000E+00  0.14959953064E+04  0.14959953064E+04  0.25500000920E-02 0. -1.
        2   -1    0    0  501    0  0.00000000000E+00  0.00000000000E+00 -0.19274989307E+04  0.19274989307E+04  0.25500000920E-02 0.  1.
    10030    2    1    2    0    0  0.00000000000E+00  0.00000000000E+00 -0.43150362430E+03  0.34234942370E+04  0.33961916043E+04 0.  0.
        1    1    3    3  502    0 -0.11457086602E+04 -0.89703972557E+03 -0.10981176868E+04  0.18229621656E+04  0.50400001928E-02 0.  1.
       -1    1    3    3    0  502  0.11457086602E+04  0.89703972557E+03  0.66661406248E+03  0.16005320714E+04  0.50400001928E-02 0. -1.
</event>
<event>
 5   0  0.1339844E-06  0.3114983E+04  0.7818609E-02  0.8211638E-01
        2   -1    0    0  501    0  0.00000000000E+00  0.00000000000E+00  0.20538277050E+04  0.20538277050E+04  0.25500000920E-02 0.  1.
       -2   -1    0    0    0  501  0.00000000000E+00  0.00000000000E+00 -0.11811020665E+04  0.11811020665E+04  0.25500000920E-02 0. -1.
    10030    2    1    2    0    0  0.00000000000E+00  0.00000000000E+00  0.87272563848E+03  0.32349297715E+04  0.31149832402E+04 0.  0.
        3    1    3    3  502    0 -0.14530581434E+04  0.37668778819E+03  0.86769748681E+03  0.17338311904E+04  0.10100000352E+00 0.  1.
       -3    1    3    3    0  502  0.14530581434E+04 -0.37668778819E+03  0.50281516626E+01  0.15010985812E+04  0.10100000352E+00 0. -1.
</event>
<event>
 5   0  0.1911477E-06  0.3397133E+04  0.7818609E-02  0.8138610E-01
       -2   -1    0    0    0  501  0.00000000000E+00  0.00000000000E+00  0.16310422754E+04  0.16310422754E+04  0.25500000920E-02 0.  1.
        2   -1    0    0  501    0  0.00000000000E+00  0.00000000000E+00 -0.17688856974E+04  0.17688856974E+04  0.25500000920E-02 0. -1.
    10030    2    1    2    0    0  0.00000000000E+00  0.00000000000E+00 -0.13784342203E+03  0.33999279728E+04  0.33971325278E+04 0.  0.
        5    1    3    3  502    0  0.38819522714E+03 -0.13153688667E+04  0.93400792586E+03  0.16593021682E+04  0.46999998093E+01 0.  1.
       -5    1    3    3    0  502 -0.38819522714E+03  0.13153688667E+04 -0.10718513479E+04  0.17406258046E+04  0.46999998093E+01 0. -1.
</event>
<event>
 5   0  0.6134625E-07  0.3305168E+04  0.7818609E-02  0.8161582E-01
       -1   -1    0    0    0  501  0.00000000000E+00  0.00000000000E+00  0.16272226792E+04  0.16272226792E+04  0.50400001928E-02 0.  1.
        1   -1    0    0  501    0  0.00000000000E+00  0.00000000000E+00 -0.16783405227E+04  0.16783405227E+04  0.50400001928E-02 0. -1.
    10030    2    1    2    0    0  0.00000000000E+00  0.00000000000E+00 -0.51117843577E+02  0.33055632019E+04  0.33051679304E+04 0.  0.
        5    1    3    3  502    0  0.49911060342E+03  0.39444296631E+03 -0.15509675472E+04  0.16763708034E+04  0.46999998093E+01 0. -1.
       -5    1    3    3    0  502 -0.49911060342E+03 -0.39444296631E+03  0.14998497036E+04  0.16291923985E+04  0.46999998093E+01 0.  1.
</event>
<event>
 5   0  0.1339844E-06  0.3140757E+04  0.7818609E-02  0.8204641E-01
       -2   -1    0    0    0  501  0.00000000000E+00  0.00000000000E+00  0.15901036416E+04  0.15901036416E+04  0.25500000920E-02 0. -1.
        2   -1    0    0  501    0  0.00000000000E+00  0.00000000000E+00 -0.15508981784E+04  0.15508981784E+04  0.25500000920E-02 0.  1.
    10030    2    1    2    0    0  0.00000000000E+00  0.00000000000E+00  0.39205463155E+02  0.31410018200E+04  0.31407571324E+04 0.  0.
        3    1    3    3  502    0 -0.39850910037E+03 -0.10647643598E+04 -0.10637896490E+04  0.15569781862E+04  0.10100000352E+00 0.  1.
       -3    1    3    3    0  502  0.39850910037E+03  0.10647643598E+04  0.11029951121E+04  0.15840236338E+04  0.10100000352E+00 0. -1.
</event>
<event>
 5   0  0.1880301E-06  0.3410135E+04  0.7818609E-02  0.8135423E-01
       -2   -1    0    0    0  501  0.00000000000E+00  0.00000000000E+00  0.13217682694E+04  0.13217682694E+04  0.25500000920E-02 0. -1.
        2   -1    0    0  501    0  0.00000000000E+00  0.00000000000E+00 -0.21995200102E+04  0.21995200102E+04  0.25500000920E-02 0.  1.
    10030    2    1    2    0    0  0.00000000000E+00  0.00000000000E+00 -0.87775174081E+03  0.35212882796E+04  0.34101353389E+04 0.  0.
        4    1    3    3  502    0  0.33233176133E+03  0.85611905999E+03 -0.19223197617E+04  0.21304222876E+04  0.12699999809E+01 0.  1.
       -4    1    3    3    0  502 -0.33233176133E+03 -0.85611905999E+03  0.10445680209E+04  0.13908659920E+04  0.12699999809E+01 0. -1.
</event>
<event>
 5   0  0.1911477E-06  0.3396781E+04  0.7818609E-02  0.8138697E-01
       -2   -1    0    0    0  501  0.00000000000E+00  0.00000000000E+00  0.22710219698E+04  0.22710219698E+04  0.25500000920E-02 0.  1.
        2   -1    0    0  501    0  0.00000000000E+00  0.00000000000E+00 -0.12701461211E+04  0.12701461211E+04  0.25500000920E-02 0. -1.
    10030    2    1    2    0    0  0.00000000000E+00  0.00000000000E+00  0.10008758486E+04  0.35411680909E+04  0.33967806793E+04 0.  0.
        5    1    3    3  502    0  0.66736061773E+02 -0.23017325233E+01  0.22696461424E+04  0.22706331059E+04  0.46999998093E+01 0.  1.
       -5    1    3    3    0  502 -0.66736061773E+02  0.23017325233E+01 -0.12687702937E+04  0.12705349850E+04  0.46999998093E+01 0. -1.
</event>
<event>
 5   0  0.6134625E-07  0.3490201E+04  0.7818609E-02  0.8116116E-01
       -1   -1    0    0    0  501  0.00000000000E+00  0.00000000000E+00  0.17235522998E+04  0.17235522998E+04  0.50400001928E-02 0.  1.
        1   -1    0    0  501    0  0.00000000000E+00  0.00000000000E+00 -0.17669176090E+04  0.17669176090E+04  0.50400001928E-02 0. -1.
    10030    2    1    2    0    0  0.00000000000E+00  0.00000000000E+00 -0.43365309220E+02  0.34904699088E+04  0.34902005149E+04 0.  0.
        3    1    3    3  502    0 -0.13578367844E+04  0.10439902178E+04 -0.35598168298E+03  0.17493882579E+04  0.10100000352E+00 0.  1.
       -3    1    3    3    0  502  0.13578367844E+04 -0.10439902178E+04  0.31261637376E+03  0.17410816510E+04  0.10100000352E+00 0. -1.
</event>
<event>
 5   0  0.1339844E-06  0.3441544E+04  0.7818609E-02  0.8127785E-01
        2   -1    0    0  501    0  0.00000000000E+00  0.00000000000E+00  0.19224802297E+04  0.19224802297E+04  0.25500000920E-02 0.  1.
       -2   -1    0    0    0  501  0.00000000000E+00  0.00000000000E+00 -0.15402273830E+04  0.15402273830E+04  0.25500000920E-02 0. -1.
    10030    2    1    2    0    0  0.00000000000E+00  0.00000000000E+00  0.38225284666E+03  0.34627076127E+04  0.34415442424E+04 0.  0.
        3    1    3    3  502    0 -0.13790471018E+04 -0.49521453745E+03  0.10989209526E+04  0.18315664381E+04  0.10100000352E+00 0.  1.
       -3    1    3    3    0  502  0.13790471018E+04  0.49521453745E+03 -0.71666810591E+03  0.16311411746E+04  0.10100000352E+00 0. -1.
</event>
<event>
 5   0  0.1948507E-06  0.2997397E+04  0.7818609E-02  0.8244474E-01
        2   -1    0    0  501    0  0.00000000000E+00  0.00000000000E+00  0.20445843342E+04  0.20445843342E+04  0.25500000920E-02 0. -1.
       -2   -1    0    0    0  501  0.00000000000E+00  0.00000000000E+00 -0.10985596154E+04  0.10985596154E+04  0.25500000920E-02 0.  1.
    10030    2    1    2    0    0  0.00000000000E+00  0.00000000000E+00  0.94602471882E+03  0.31431439496E+04  0.29973973910E+04 0.  0.
        1    1    3    3  502    0  0.50989289331E+02  0.14275973215E+04  0.94833397212E+03  0.17146344633E+04  0.50400001928E-02 0.  1.
       -1    1    3    3    0  502 -0.50989289331E+02 -0.14275973215E+04 -0.23092532935E+01  0.14285094863E+04  0.50400001928E-02 0. -1.
</event>
<event>
 5   0  0.1880301E-06  0.3362358E+04  0.7818609E-02  0.8147207E-01
       -2   -1    0    0    0  501  0.00000000000E+00  0.00000000000E+00  0.16185557553E+04  0.16185557553E+04  0.25500000920E-02 0.  1.
        2   -1    0    0  501    0  0.00000000000E+00  0.00000000000E+00 -0.17462254025E+04  0.17462254025E+04  0.25500000920E-02 0. -1.
    10030    2    1    2    0    0  0.00000000000E+00  0.00000000000E+00 -0.12766964719E+03  0.33647811578E+04  0.33623582054E+04 0.  0.
        4    1    3    3  502    0 -0.16221730083E+04 -0.31452329541E+03  0.24621321278E+03  0.16706264488E+04  0.12699999809E+01 0.  1.
       -4    1    3    3    0  502  0.16221730083E+04  0.31452329541E+03 -0.37388285997E+03  0.16941547090E+04  0.12699999809E+01 0. -1.
</event>
<event>
 5   0  0.1948507E-06  0.3154088E+04  0.7818609E-02  0.8201049E-01
       -2   -1    0    0    0  501  0.00000000000E+00  0.00000000000E+00  0.11815539211E+04  0.11815539211E+04  0.25500000920E-02 0. -1.
        2   -1    0    0  501    0  0.00000000000E+00  0.00000000000E+00 -0.21049121227E+04  0.21049121227E+04  0.25500000920E-02 0.  1.
    10030    2    1    2    0    0  0.00000000000E+00  0.00000000000E+00 -0.92335820163E+03  0.32864660438E+04  0.31540876159E+04 0.  0.
        1    1    3    3  502    0 -0.58985884521E+03  0.33061252088E+03 -0.19461959488E+04  0.20603195790E+04  0.50400001928E-02 0.  1.
       -1    1    3    3    0  502  0.58985884521E+03 -0.33061252088E+03  0.10228377472E+04  0.12261464649E+04  0.50400001928E-02 0. -1.
</event>
<event>
 5   0  0.1339844E-06  0.3419198E+04  0.7818609E-02  0.8133210E-01
        2   -1    0    0  501    0  0.00000000000E+00  0.00000000000E+00  0.23449621155E+04  0.23449621155E+04  0.25500000920E-02 0. -1.
       -2   -1    0    0    0  501  0.00000000000E+00  0.00000000000E+00 -0.12463865013E+04  0.12463865013E+04  0.25500000920E-02 0.  1.
    10030    2    1    2    0    0  0.00000000000E+00  0.00000000000E+00  0.10985756142E+04  0.35913486168E+04  0.34191982258E+04 0.  0.
        3    1    3    3  502    0  0.59465764531E+03  0.10691977336E+04 -0.70495616953E+03  0.14120073370E+04  0.10100000352E+00 0.  1.
       -3    1    3    3    0  502 -0.59465764531E+03 -0.10691977336E+04  0.18035317838E+04  0.21793412798E+04  0.10100000352E+00 0. -1.
</event>
<event>
 5   0  0.1797075E-06  0.2953886E+04  0.7818609E-02  0.8257023E-01
        2   -1    0    0  501    0  0.00000000000E+00  0.00000000000E+00  0.27237986505E+04  0.27237986505E+04  0.25500000920E-02 0. -1.
       -2   -1    0    0    0  501  0.00000000000E+00  0.00000000000E+00 -0.80085223180E+03  0.80085223181E+03  0.25500000920E-02 0.  1.
    10030    2    1    2    0    0  0.00000000000E+00  0.00000000000E+00  0.19229464187E+04  0.35246508823E+04  0.29538857312E+04 0.  0.
        2    1    3    3  502    0  0.13371820344E+04  0.39442630403E+03  0.37968283044E+03  0.14449176289E+04  0.25500000920E-02 0.  1.
       -2    1    3    3    0  502 -0.13371820344E+04 -0.39442630403E+03  0.15432635882E+04  0.20797332534E+04  0.25500000920E-02 0. -1.
</event>
<event>
 5   0  0.1948507E-06  0.3352678E+04  0.7818609E-02  0.8149619E-01
       -2   -1    0    0    0  501  0.00000000000E+00  0.00000000000E+00  0.12198252641E+04  0.12198252641E+04  0.25500000920E-02 0. -1.
        2   -1    0    0  501    0  0.00000000000E+00  0.00000000000E+00 -0.23037013045E+04  0.23037013045E+04  0.25500000920E-02 0.  1.
    10030    2    1    2    0    0  0.00000000000E+00  0.00000000000E+00 -0.10838760405E+04  0.35235265686E+04  0.33526783634E+04 0.  0.
        1    1    3    3  502    0 -0.10637656005E+04 -0.11476306532E+04 -0.11737903492E+04  0.19561281024E+04  0.50400001928E-02 0.  1.
       -1    1    3    3    0  502  0.10637656005E+04  0.11476306532E+04  0.89914308734E+02  0.15673984662E+04  0.50400001928E-02 0. -1.
</event>
<event>
 5   0  0.1797075E-06  0.3385898E+04  0.7818609E-02  0.8141376E-01
        2   -1    0    0  501    0  0.00000000000E+00  0.00000000000E+00  0.20937994976E+04  0.20937994976E+04  0.25500000920E-02 0. -1.
       -2   -1    0    0    0  501  0.00000000000E+00  0.00000000000E+00 -0.13688397730E+04  0.13688397730E+04  0.25500000920E-02 0.  1.
    10030    2    1    2    0    0  0.00000000000E+00  0.00000000000E+00  0.72495972455E+03  0.34626392706E+04  0.33858978301E+04 0.  0.
        2    1    3    3  502    0  0.24686603615E+03 -0.17645086986E+03  0.20657616187E+04  0.20879293126E+04  0.25500000920E-02 0. -1.
       -2    1    3    3    0  502 -0.24686603615E+03  0.17645086986E+03 -0.13408018941E+04  0.13747099580E+04  0.25500000920E-02 0.  1.
</event>
<event>
 5   0  0.6146388E-07  0.3393460E+04  0.7818609E-02  0.8139513E-01
        1   -1    0    0  501    0  0.00000000000E+00  0.00000000000E+00  0.25821845074E+04  0.25821845074E+04  0.50400001928E-02 0.  1.
       -1   -1    0    0    0  501  0.00000000000E+00  0.00000000000E+00 -0.11149060742E+04  0.11149060742E+04  0.50400001928E-02 0. -1.
    10030    2    1    2    0    0  0.00000000000E+00  0.00000000000E+00  0.14672784333E+04  0.36970905816E+04  0.33934602942E+04 0.  0.
        4    1    3    3  502    0 -0.95682970339E+02 -0.11289525960E+04  0.21096606995E+04  0.23946521824E+04  0.12699999809E+01 0.  1.
       -4    1    3    3    0  502  0.95682970339E+02  0.11289525960E+04 -0.64238226622E+03  0.13024383992E+04  0.12699999809E+01 0. -1.
</event>
<event>
 5   0  0.6218695E-07  0.2566285E+04  0.7818609E-02  0.8379744E-01
       -1   -1    0    0    0  501  0.00000000000E+00  0.00000000000E+00  0.15793546777E+04  0.15793546777E+04  0.50400001928E-02 0.  1.
        1   -1    0    0  501    0  0.00000000000E+00  0.00000000000E+00 -0.10424855337E+04  0.10424855337E+04  0.50400001928E-02 0. -1.
    10030    2    1    2    0    0  0.00000000000E+00  0.00000000000E+00  0.53686914397E+03  0.26218402114E+04  0.25662847886E+04 0.  0.
        2    1    3    3  502    0  0.29886098838E+03  0.57341565881E+03 -0.86385908852E+03  0.10790625250E+04  0.25500000920E-02 0. -1.
       -2    1    3    3    0  502 -0.29886098838E+03 -0.57341565881E+03  0.14007282325E+04  0.15427776863E+04  0.25500000920E-02 0.  1.
</event>
<event>
 5   0  0.6218695E-07  0.3322412E+04  0.7818609E-02  0.8157216E-01
       -1   -1    0    0    0  501  0.00000000000E+00  0.00000000000E+00  0.11717553836E+04  0.11717553836E+04  0.50400001928E-02 0.  1.
        1   -1    0    0  501    0  0.00000000000E+00  0.00000000000E+00 -0.23551034408E+04  0.23551034408E+04  0.50400001928E-02 0. -1.
    10030    2    1    2    0    0  0.00000000000E+00  0.00000000000E+00 -0.11833480572E+04  0.35268588245E+04  0.33224118564E+04 0.  0.
        2    1    3    3  502    0  0.75367032805E+02  0.45511099065E+03  0.11023982562E+04  0.11950264092E+04  0.25500000920E-02 0.  1.
       -2    1    3    3    0  502 -0.75367032805E+02 -0.45511099065E+03 -0.22857463134E+04  0.23318324152E+04  0.25500000920E-02 0. -1.
</event>
<event>
 5   0  0.6134625E-07  0.3458745E+04  0.7818609E-02  0.8123637E-01
       -3   -1    0    0    0  501  0.00000000000E+00  0.00000000000E+00  0.11695116888E+04  0.11695116932E+04  0.10100000352E+00 0. -1.
        3   -1    0    0  501    0  0.00000000000E+00  0.00000000000E+00 -0.25572463473E+04  0.25572463493E+04  0.10100000352E+00 0.  1.
    10030    2    1    2    0    0  0.00000000000E+00  0.00000000000E+00 -0.13877346585E+04  0.37267580424E+04  0.34587451517E+04 0.  0.
        5    1    3    3  502    0 -0.46023242218E+03 -0.96180548439E+03  0.77318921879E+03  0.13170904792E+04  0.46999998093E+01 0. -1.
       -5    1    3    3    0  502  0.46023242218E+03  0.96180548439E+03 -0.21609238772E+04  0.24096675633E+04  0.46999998093E+01 0.  1.
</event>
<event>
 5   0  0.6134625E-07  0.3423044E+04  0.7818609E-02  0.8132274E-01
        1   -1    0    0  501    0  0.00000000000E+00  0.00000000000E+00  0.21962140976E+04  0.21962140976E+04  0.50400001928E-02 0. -1.
       -1   -1    0    0    0  501  0.00000000000E+00  0.00000000000E+00 -0.13337985524E+04  0.13337985524E+04  0.50400001928E-02 0.  1.
    10030    2    1    2    0    0  0.00000000000E+00  0.00000000000E+00  0.86241554516E+03  0.35300126500E+04  0.34230437824E+04 0.  0.
        5    1    3    3  502    0 -0.11718892822E+04 -0.21415069753E+02 -0.85496435699E+03  0.14507822844E+04  0.46999998093E+01 0.  1.
       -5    1    3    3    0  502  0.11718892822E+04  0.21415069753E+02  0.17173799021E+04  0.20792303656E+04  0.46999998093E+01 0. -1.
</event>
<event>
 5   0  0.1339844E-06  0.3339703E+04  0.7818609E-02  0.8152866E-01
       -2   -1    0    0    0  501  0.00000000000E+00  0.00000000000E+00  0.25414422426E+04  0.25414422426E+04  0.25500000920E-02 0.  1.
        2   -1    0    0  501    0  0.00000000000E+00  0.00000000000E+00 -0.10971741270E+04  0.10971741270E+04  0.25500000920E-02 0. -1.
    10030    2    1    2    0    0  0.00000000000E+00  0.00000000000E+00  0.14442681156E+04  0.36386163696E+04  0.33397033843E+04 0.  0.
        3    1    3    3  502    0  0.11267920011E+04  0.99332405294E+03 -0.72569799267E+02  0.15038681039E+04  0.10100000352E+00 0. -1.
       -3    1    3    3    0  502 -0.11267920011E+04 -0.99332405294E+03  0.15168379148E+04  0.21347482657E+04  0.10100000352E+00 0.  1.
</event>
<event>
 5   0  0.6134625E-07  0.2989353E+04  0.7818609E-02  0.8246778E-01
       -1   -1    0    0    0  501  0.00000000000E+00  0.00000000000E+00  0.12805739514E+04  0.12805739514E+04  0.50400001928E-02 0. -1.
        1   -1    0    0  501    0  0.00000000000E+00  0.00000000000E+00 -0.17445753580E+04  0.17445753580E+04  0.50400001928E-02 0.  1.
    10030    2    1    2    0    0  0.00000000000E+00  0.00000000000E+00 -0.46400140662E+03  0.30251493094E+04  0.29893529465E+04 0.  0.
        5    1    3    3  502    0  0.84002691630E+03 -0.35314780833E+03  0.96695523708E+03  0.13286772050E+04  0.46999998093E+01 0. -1.
       -5    1    3    3    0  502 -0.84002691630E+03  0.35314780833E+03 -0.14309566437E+04  0.16964721043E+04  0.46999998093E+01 0.  1.
</event>
<event>
 5   0  0.1339844E-06  0.3418131E+04  0.7818609E-02  0.8133471E-01
       -2   -1    0    0    0  501  0.00000000000E+00  0.00000000000E+00  0.16799375150E+04  0.16799375150E+04  0.25500000920E-02 0.  1.
        2   -1    0    0  501    0  0.00000000000E+00  0.00000000000E+00 -0.17386989980E+04  0.17386989980E+04  0.25500000920E-02 0. -1.
    10030    2    1    2    0    0  0.00000000000E+00  0.00000000000E+00 -0.58761483028E+02  0.34186365131E+04  0.34181314627E+04 0.  0.
        3    1    3    3  502    0 -0.46333445719E+03  0.15189284033E+02 -0.16746150243E+04  0.17375974860E+04  0.10100000352E+00 0. -1.
       -3    1    3    3    0  502  0.46333445719E+03 -0.15189284033E+02  0.16158535413E+04  0.16810390271E+04  0.10100000352E+00 0.  1.
</event>
<event>
 5   0  0.6134625E-07  0.3451075E+04  0.7818609E-02  0.8125483E-01
       -1   -1    0    0    0  501  0.00000000000E+00  0.00000000000E+00  0.25060075605E+04  0.25060075605E+04  0.50400001928E-02 0.  1.
        1   -1    0    0  501    0  0.00000000000E+00  0.00000000000E+00 -0.11881370628E+04  0.11881370628E+04  0.50400001928E-02 0. -1.
    10030    2    1    2    0    0  0.00000000000E+00  0.00000000000E+00  0.13178704977E+04  0.36941446234E+04  0.34510754628E+04 0.  0.
        1    1    3    3  502    0 -0.68661997533E+03 -0.90350900165E+03 -0.73250600991E+03  0.13506815173E+04  0.50400001928E-02 0. -1.
       -1    1    3    3    0  502  0.68661997533E+03  0.90350900165E+03  0.20503765076E+04  0.23434631061E+04  0.50400001928E-02 0.  1.
</event>
<event>
 5   0  0.6218695E-07  0.3445225E+04  0.7818609E-02  0.8126895E-01
        1   -1    0    0  501    0  0.00000000000E+00  0.00000000000E+00  0.26714223975E+04  0.26714223975E+04  0.50400001928E-02 0. -1.
       -1   -1    0    0    0  501  0.00000000000E+00  0.00000000000E+00 -0.11107919454E+04  0.11107919454E+04  0.50400001928E-02 0.  1.
    10030    2    1    2    0    0  0.00000000000E+00  0.00000000000E+00  0.15606304521E+04  0.37822143429E+04  0.34452253812E+04 0.  0.
        2    1    3    3  502    0 -0.10999736077E+04  0.37535387807E+03  0.21761200132E+04  0.24670490030E+04  0.25500000920E-02 0. -1.
       -2    1    3    3    0  502  0.10999736077E+04 -0.37535387807E+03 -0.61548956104E+03  0.13151653399E+04  0.25500000920E-02 0.  1.
</event>
<event>
 5   0  0.6134625E-07  0.3411271E+04  0.7818609E-02  0.8135146E-01
       -1   -1    0    0    0  501  0.00000000000E+00  0.00000000000E+00  0.17233514334E+04  0.17233514334E+04  0.50400001928E-02 0.  1.
        1   -1    0    0  501    0  0.00000000000E+00  0.00000000000E+00 -0.16881015874E+04  0.16881015874E+04  0.50400001928E-02 0. -1.
    10030    2    1    2    0    0  0.00000000000E+00  0.00000000000E+00  0.35249846017E+02  0.34114530208E+04  0.34112709012E+04 0.  0.
        5    1    3    3  502    0 -0.13190057291E+04 -0.41607763931E+03 -0.98056336842E+03  0.16954124350E+04  0.46999998093E+01 0. -1.
       -5    1    3    3    0  502  0.13190057291E+04  0.41607763931E+03  0.10158132144E+04  0.17160405858E+04  0.46999998093E+01 0.  1.
</event>
<event>
 5   0  0.1880301E-06  0.3349478E+04  0.7818609E-02  0.8150418E-01
       -2   -1    0    0    0  501  0.00000000000E+00  0.00000000000E+00  0.17681973501E+04  0.17681973501E+04  0.25500000920E-02 0. -1.
        2   -1    0    0  501    0  0.00000000000E+00  0.00000000000E+00 -0.15862208374E+04  0.15862208374E+04  0.25500000920E-02 0.  1.
    10030    2    1    2    0    0  0.00000000000E+00  0.00000000000E+00  0.18197651266E+03  0.33544181875E+04  0.33494784557E+04 0.  0.
        4    1    3    3  502    0 -0.29882427830E+03  0.87107032874E+03 -0.13098921878E+04  0.16012116111E+04  0.12699999809E+01 0.  1.
       -4    1    3    3    0  502  0.29882427830E+03 -0.87107032874E+03  0.14918687005E+04  0.17532065763E+04  0.12699999809E+01 0. -1.
</event>
<event>
 5   0  0.1880301E-06  0.3406099E+04  0.7818609E-02  0.8136411E-01
        2   -1    0    0  501    0  0.00000000000E+00  0.00000000000E+00  0.10595713865E+04  0.10595713865E+04  0.25500000920E-02 0.  1.
       -2   -1    0    0    0  501  0.00000000000E+00  0.00000000000E+00 -0.27373126419E+04  0.27373126419E+04  0.25500000920E-02 0. -1.
    10030    2    1    2    0    0  0.00000000000E+00  0.00000000000E+00 -0.16777412554E+04  0.37968840284E+04  0.34060993240E+04 0.  0.
        4    1    3    3  502    0 -0.80030484801E+02  0.32038180694E+03 -0.27012810557E+04  0.27213912500E+04  0.12699999809E+01 0. -1.
       -4    1    3    3    0  502  0.80030484801E+02 -0.32038180694E+03  0.10235398003E+04  0.10754927784E+04  0.12699999809E+01 0.  1.
</event>
<event>
 5   0  0.1339844E-06  0.3386533E+04  0.7818609E-02  0.8141219E-01
        2   -1    0    0  501    0  0.00000000000E+00  0.00000000000E+00  0.18613221295E+04  0.18613221295E+04  0.25500000920E-02 0.  1.
       -2   -1    0    0    0  501  0.00000000000E+00  0.00000000000E+00 -0.15403847167E+04  0.15403847167E+04  0.25500000920E-02 0. -1.
    10030    2    1    2    0    0  0.00000000000E+00  0.00000000000E+00  0.32093741278E+03  0.34017068462E+04  0.33865334258E+04 0.  0.
        3    1    3    3  502    0 -0.75551599254E+03  0.13402248536E+04  0.87084672912E+03  0.17678747436E+04  0.10100000352E+00 0.  1.
       -3    1    3    3    0  502  0.75551599254E+03 -0.13402248536E+04 -0.54990931634E+03  0.16338321026E+04  0.10100000352E+00 0. -1.
</event>
<event>
 5   0  0.6146388E-07  0.3428819E+04  0.7818609E-02  0.8130869E-01
        1   -1    0    0  501    0  0.00000000000E+00  0.00000000000E+00  0.19379430785E+04  0.19379430785E+04  0.50400001928E-02 0.  1.
       -1   -1    0    0    0  501  0.00000000000E+00  0.00000000000E+00 -0.15166599749E+04  0.15166599750E+04  0.50400001928E-02 0. -1.
    10030    2    1    2    0    0  0.00000000000E+00  0.00000000000E+00  0.42128310359E+03  0.34546030535E+04  0.34288194475E+04 0.  0.
        4    1    3    3  502    0 -0.10464211144E+04 -0.13353774722E+04  0.45941720793E+03  0.17576393047E+04  0.12699999809E+01 0. -1.
       -4    1    3    3    0  502  0.10464211144E+04  0.13353774722E+04 -0.38134104344E+02  0.16969637487E+04  0.12699999809E+01 0.  1.
</event>
<event>
 5   0  0.1880301E-06  0.3397138E+04  0.7818609E-02  0.8138609E-01
        2   -1    0    0  501    0  0.00000000000E+00  0.00000000000E+00  0.13535781006E+04  0.13535781006E+04  0.25500000920E-02 0.  1.
       -2   -1    0    0    0  501  0.00000000000E+00  0.00000000000E+00 -0.21314892503E+04  0.21314892503E+04  0.25500000920E-02 0. -1.
    10030    2    1    2    0    0  0.00000000000E+00  0.00000000000E+00 -0.77791114966E+03  0.34850673509E+04  0.33971383080E+04 0.  0.
        4    1    3    3  502    0 -0.37496750300E+03  0.11751027846E+04  0.80903204844E+03  0.14751276728E+04  0.12699999809E+01 0.  1.
       -4    1    3    3    0  502  0.37496750300E+03 -0.11751027846E+04 -0.15869431981E+04  0.20099396781E+04  0.12699999809E+01 0. -1.
</event>
<event>
 5   0  0.6218695E-07  0.3399958E+04  0.7818609E-02  0.8137917E-01
        1   -1    0    0  501    0  0.00000000000E+00  0.00000000000E+00  0.26799221866E+04  0.26799221866E+04  0.50400001928E-02 0. -1.
       -1   -1    0    0    0  501  0.00000000000E+00  0.00000000000E+00 -0.10783628044E+04  0.10783628045E+04  0.50400001928E-02 0.  1.
    10030    2    1    2    0    0  0.00000000000E+00  0.00000000000E+00  0.16015593822E+04  0.37582849911E+04  0.33999578850E+04 0.  0.
        2    1    3    3  502    0 -0.57499001624E+03 -0.15733003556E+04  0.48032881696E+03  0.17425852347E+04  0.25500000920E-02 0.  1.
       -2    1    3    3    0  502  0.57499001624E+03  0.15733003556E+04  0.11212305652E+04  0.20156997564E+04  0.25500000920E-02 0. -1.
</event>
<event>
 5   0  0.1948507E-06  0.3114373E+04  0.7818609E-02  0.8211804E-01
       -2   -1    0    0    0  501  0.00000000000E+00  0.00000000000E+00  0.17008473255E+04  0.17008473255E+04  0.25500000920E-02 0.  1.
        2   -1    0    0  501    0  0.00000000000E+00  0.00000000000E+00 -0.14256600538E+04  0.14256600538E+04  0.25500000920E-02 0. -1.
    10030    2    1    2    0    0  0.00000000000E+00  0.00000000000E+00  0.27518727174E+03  0.31265073793E+04  0.31143731887E+04 0.  0.
        1    1    3    3  502    0 -0.77248535845E+03 -0.17051573677E+03  0.14840953288E+04  0.16817693630E+04  0.50400001928E-02 0.  1.
       -1    1    3    3    0  502  0.77248535845E+03  0.17051573677E+03 -0.12089080570E+04  0.14447380163E+04  0.50400001928E-02 0. -1.
</event>
<event>
 5   0  0.1339844E-06  0.3385091E+04  0.7818609E-02  0.8141575E-01
        2   -1    0    0  501    0  0.00000000000E+00  0.00000000000E+00  0.19664161879E+04  0.19664161879E+04  0.25500000920E-02 0. -1.
       -2   -1    0    0    0  501  0.00000000000E+00  0.00000000000E+00 -0.14568176818E+04  0.14568176818E+04  0.25500000920E-02 0.  1.
    10030    2    1    2    0    0  0.00000000000E+00  0.00000000000E+00  0.50959850617E+03  0.34232338697E+04  0.33850907653E+04 0.  0.
        3    1    3    3  502    0 -0.10035245635E+03  0.32969738955E+03  0.19305587349E+04  0.19610782808E+04  0.10100000352E+00 0. -1.
       -3    1    3    3    0  502  0.10035245635E+03 -0.32969738955E+03 -0.14209602288E+04  0.14621555889E+04  0.10100000352E+00 0.  1.
</event>
<event>
 5   0  0.6146388E-07  0.3125707E+04  0.7818609E-02  0.8208718E-01
       -1   -1    0    0    0  501  0.00000000000E+00  0.00000000000E+00  0.12792000871E+04  0.12792000871E+04  0.50400001928E-02 0.  1.
        1   -1    0    0  501    0  0.00000000000E+00  0.00000000000E+00 -0.19094048338E+04  0.19094048338E+04  0.50400001928E-02 0. -1.
    10030    2    1    2    0    0  0.00000000000E+00  0.00000000000E+00 -0.63020474675E+03  0.31886049209E+04  0.31257068511E+04 0.  0.
        4    1    3    3  502    0  0.10534154745E+04 -0.75964046449E+03  0.57174258119E+03  0.14190239566E+04  0.12699999809E+01 0.  1.
       -4    1    3    3    0  502 -0.10534154745E+04  0.75964046449E+03 -0.12019473279E+04  0.17695809643E+04  0.12699999809E+01 0. -1.
</event>
<event>
 5   0  0.6146388E-07  0.3399076E+04  0.7818609E-02  0.8138133E-01
       -1   -1    0    0    0  501  0.00000000000E+00  0.00000000000E+00  0.12071700495E+04  0.12071700496E+04  0.50400001928E-02 0.  1.
        1   -1    0    0  501    0  0.00000000000E+00  0.00000000000E+00 -0.23927271958E+04  0.23927271958E+04  0.50400001928E-02 0. -1.
    10030    2    1    2    0    0  0.00000000000E+00  0.00000000000E+00 -0.11855571462E+04  0.35998972453E+04  0.33990755258E+04 0.  0.
        4    1    3    3  502    0 -0.34222009320E+03  0.34556258306E+03 -0.23174555739E+04  0.23679379301E+04  0.12699999809E+01 0. -1.
       -4    1    3    3    0  502  0.34222009320E+03 -0.34556258306E+03  0.11318984276E+04  0.12319593152E+04  0.12699999809E+01 0.  1.
</event>
<event>
 5   0  0.6146388E-07  0.3135922E+04  0.7818609E-02  0.8205948E-01
       -1   -1    0    0    0  501  0.00000000000E+00  0.00000000000E+00  0.10753229030E+04  0.10753229030E+04  0.50400001928E-02 0.  1.
        1   -1    0    0  501    0  0.00000000000E+00  0.00000000000E+00 -0.22862921762E+04  0.22862921762E+04  0.50400001928E-02 0. -1.
    10030    2    1    2    0    0  0.00000000000E+00  0.00000000000E+00 -0.12109692733E+04  0.33616150792E+04  0.31359224097E+04 0.  0.
        4    1    3    3  502    0  0.52040473364E+03 -0.11843447000E+04  0.34428769644E+03  0.13386669063E+04  0.12699999809E+01 0.  1.
       -4    1    3    3    0  502 -0.52040473364E+03  0.11843447000E+04 -0.15552569697E+04  0.20229481729E+04  0.12699999809E+01 0. -1.
</event>
<event>
 5   0  0.1880301E-06  0.3392773E+04  0.7818609E-02  0.8139682E-01
       -2   -1    0    0    0  501  0.00000000000E+00  0.00000000000E+00  0.15974201672E+04  0.15974201672E+04  0.25500000920E-02 0.  1.
        2   -1    0    0  501    0  0.00000000000E+00  0.00000000000E+00 -0.18014840249E+04  0.18014840249E+04  0.25500000920E-02 0. -1.
    10030    2    1    2    0    0  0.00000000000E+00  0.00000000000E+00 -0.20406385773E+03  0.33989041921E+04  0.33927728555E+04 0.  0.
        4    1    3    3  502    0 -0.14439860412E+04 -0.41182735124E+01  0.78986493815E+03  0.16459042745E+04  0.12699999809E+01 0.  1.
       -4    1    3    3    0  502  0.14439860412E+04  0.41182735124E+01 -0.99392879588E+03  0.17529999177E+04  0.12699999809E+01 0. -1.
</event>
<event>
 5   0  0.6146388E-07  0.3383008E+04  0.7818609E-02  0.8142089E-01
       -1   -1    0    0    0  501  0.00000000000E+00  0.00000000000E+00  0.19274555943E+04  0.19274555943E+04  0.50400001928E-02 0.  1.
        1   -1    0    0  501    0  0.00000000000E+00  0.00000000000E+00 -0.14844365694E+04  0.14844365694E+04  0.50400001928E-02 0. -1.
    10030    2    1    2    0    0  0.00000000000E+00  0.00000000000E+00  0.44301902489E+03  0.34118921636E+04  0.33830078746E+04 0.  0.
        4    1    3    3  502    0 -0.32339058359E+03 -0.76705111662E+03  0.17065745379E+04  0.18987751713E+04  0.12699999809E+01 0.  1.
       -4    1    3    3    0  502  0.32339058359E+03  0.76705111662E+03 -0.12635555130E+04  0.15131169923E+04  0.12699999809E+01 0. -1.
</event>
<event>
 5   0  0.1880301E-06  0.3354556E+04  0.7818609E-02  0.8149151E-01
       -2   -1    0    0    0  501  0.00000000000E+00  0.00000000000E+00  0.11603007612E+04  0.11603007612E+04  0.25500000920E-02 0.  1.
        2   -1    0    0  501    0  0.00000000000E+00  0.00000000000E+00 -0.24245961680E+04  0.24245961680E+04  0.25500000920E-02 0. -1.
    10030    2    1    2    0    0  0.00000000000E+00  0.00000000000E+00 -0.12642954069E+04  0.35848969292E+04  0.33545555767E+04 0.  0.
        4    1    3    3  502    0 -0.90938905912E+03 -0.23886441345E+03  0.85218733941E+03  0.12689639645E+04  0.12699999809E+01 0.  1.
       -4    1    3    3    0  502  0.90938905912E+03  0.23886441345E+03 -0.21164827463E+04  0.23159329647E+04  0.12699999809E+01 0. -1.
</event>
<event>
 5   0  0.6134625E-07  0.3368843E+04  0.7818609E-02  0.8145596E-01
        1   -1    0    0  501    0  0.00000000000E+00  0.00000000000E+00  0.20569803078E+04  0.20569803078E+04  0.50400001928E-02 0.  1.
       -1   -1    0    0    0  501  0.00000000000E+00  0.00000000000E+00 -0.13793399558E+04  0.13793399559E+04  0.50400001928E-02 0. -1.
    10030    2    1    2    0    0  0.00000000000E+00  0.00000000000E+00  0.67764035197E+03  0.34363202637E+04  0.33688426066E+04 0.  0.
        5    1    3    3  502    0 -0.13725040475E+04  0.57282356086E+03 -0.46781574931E+03  0.15590919978E+04  0.46999998093E+01 0. -1.
       -5    1    3    3    0  502  0.13725040475E+04 -0.57282356086E+03  0.11454561013E+04  0.18772282659E+04  0.46999998093E+01 0.  1.
</event>
<event>
 5   0  0.6134625E-07  0.3373002E+04  0.7818609E-02  0.8144564E-01
        1   -1    0    0  501    0  0.00000000000E+00  0.00000000000E+00  0.16100365264E+04  0.16100365264E+04  0.50400001928E-02 0.  1.
       -1   -1    0    0    0  501  0.00000000000E+00  0.00000000000E+00 -0.17665968722E+04  0.17665968722E+04  0.50400001928E-02 0. -1.
    10030    2    1    2    0    0  0.00000000000E+00  0.00000000000E+00 -0.15656034577E+03  0.33766333986E+04  0.33730019221E+04 0.  0.
        5    1    3    3  502    0 -0.13195423046E+04  0.73687927314E+02  0.97053171604E+03  0.16396876855E+04  0.46999998093E+01 0.  1.
       -5    1    3    3    0  502  0.13195423046E+04 -0.73687927314E+02 -0.11270920618E+04  0.17369457131E+04  0.46999998093E+01 0. -1.
</event>
<event>
 5   0  0.1339844E-06  0.3379294E+04  0.7818609E-02  0.8143007E-01
        2   -1    0    0  501    0  0.00000000000E+00  0.00000000000E+00  0.19106792015E+04  0.19106792015E+04  0.25500000920E-02 0. -1.
       -2   -1    0    0    0  501  0.00000000000E+00  0.00000000000E+00 -0.14941845958E+04  0.14941845958E+04  0.25500000920E-02 0.  1.
    10030    2    1    2    0    0  0.00000000000E+00  0.00000000000E+00  0.41649460574E+03  0.34048637973E+04  0.33792942638E+04 0.  0.
        3    1    3    3  502    0 -0.37751832108E+03  0.11079914241E+04  0.14359671582E+04  0.18526107979E+04  0.10100000352E+00 0. -1.
       -3    1    3    3    0  502  0.37751832108E+03 -0.11079914241E+04 -0.10194725525E+04  0.15522529994E+04  0.10100000352E+00 0.  1.
</event>
<event>
 5   0  0.6146388E-07  0.3365163E+04  0.7818609E-02  0.8146510E-01
       -1   -1    0    0    0  501  0.00000000000E+00  0.00000000000E+00  0.12512282385E+04  0.12512282385E+04  0.50400001928E-02 0.  1.
        1   -1    0    0  501    0  0.00000000000E+00  0.00000000000E+00 -0.22626412208E+04  0.22626412208E+04  0.50400001928E-02 0. -1.
    10030    2    1    2    0    0  0.00000000000E+00  0.00000000000E+00 -0.10114129823E+04  0.35138694593E+04  0.33651630505E+04 0.  0.
        4    1    3    3  502    0  0.11299573436E+04 -0.52128893600E+03  0.67682801883E+03  0.14165604587E+04  0.12699999809E+01 0.  1.
       -4    1    3    3    0  502 -0.11299573436E+04  0.52128893600E+03 -0.16882410011E+04  0.20973090006E+04  0.12699999809E+01 0. -1.
</event>
<event>
 5   0  0.6134625E-07  0.3394034E+04  0.7818609E-02  0.8139372E-01
       -1   -1    0    0    0  501  0.00000000000E+00  0.00000000000E+00  0.12478898205E+04  0.12478898205E+04  0.50400001928E-02 0. -1.
        1   -1    0    0  501    0  0.00000000000E+00  0.00000000000E+00 -0.23077886669E+04  0.23077886669E+04  0.50400001928E-02 0.  1.
    10030    2    1    2    0    0  0.00000000000E+00  0.00000000000E+00 -0.10598988464E+04  0.35556784874E+04  0.33940335799E+04 0.  0.
        5    1    3    3  502    0  0.98738527918E+03 -0.12457887507E+04 -0.11523175048E+04  0.19633586077E+04  0.46999998093E+01 0. -1.
       -5    1    3    3    0  502 -0.98738527918E+03  0.12457887507E+04  0.92418658384E+02  0.15923198797E+04  0.46999998093E+01 0.  1.
</event>
<event>
 5   0  0.6134625E-07  0.3416061E+04  0.7818609E-02  0.8133976E-01
        1   -1    0    0  501    0  0.00000000000E+00  0.00000000000E+00  0.14637872611E+04  0.14637872611E+04  0.50400001928E-02 0.  1.
       -1   -1    0    0    0  501  0.00000000000E+00  0.00000000000E+00 -0.19930280241E+04  0.19930280241E+04  0.50400001928E-02 0. -1.
    10030    2    1    2    0    0  0.00000000000E+00  0.00000000000E+00 -0.52924076293E+03  0.34568152852E+04  0.34160614940E+04 0.  0.
        5    1    3    3  502    0  0.14204701114E+04 -0.93278797061E+03 -0.43847870285E+03  0.17550254694E+04  0.46999998093E+01 0.  1.
       -5    1    3    3    0  502 -0.14204701114E+04  0.93278797061E+03 -0.90762060082E+02  0.17017898158E+04  0.46999998093E+01 0. -1.
</event>
<event>
 5   0  0.1339844E-06  0.3341218E+04  0.7818609E-02  0.8152486E-01
        2   -1    0    0  501    0  0.00000000000E+00  0.00000000000E+00  0.17519224549E+04  0.17519224549E+04  0.25500000920E-02 0.  1.
       -2   -1    0    0    0  501  0.00000000000E+00  0.00000000000E+00 -0.15930693127E+04  0.15930693127E+04  0.25500000920E-02 0. -1.
    10030    2    1    2    0    0  0.00000000000E+00  0.00000000000E+00  0.15885314221E+03  0.33449917676E+04  0.33412176829E+04 0.  0.
        3    1    3    3  502    0  0.53203110188E+03 -0.27189053750E+03 -0.14824485834E+04  0.15983226740E+04  0.10100000352E+00 0. -1.
       -3    1    3    3    0  502 -0.53203110188E+03  0.27189053750E+03  0.16413017256E+04  0.17466690935E+04  0.10100000352E+00 0.  1.
</event>
<event>
 5   0  0.6134625E-07  0.3420108E+04  0.7818609E-02  0.8132989E-01
       -1   -1    0    0    0  501  0.00000000000E+00  0.00000000000E+00  0.15971571245E+04  0.15971571245E+04  0.50400001928E-02 0. -1.
        1   -1    0    0  501    0  0.00000000000E+00  0.00000000000E+00 -0.18309313465E+04  0.18309313466E+04  0.50400001928E-02 0.  1.
    10030    2    1    2    0    0  0.00000000000E+00  0.00000000000E+00 -0.23377422201E+03  0.34280884711E+04  0.34201082116E+04 0.  0.
        1    1    3    3  502    0  0.11441653679E+04 -0.11373836487E+04 -0.68524554734E+03  0.17528027310E+04  0.50400001928E-02 0.  1.
       -1    1    3    3    0  502 -0.11441653679E+04  0.11373836487E+04  0.45147132533E+03  0.16752857401E+04  0.50400001928E-02 0. -1.
</event>
<event>
 5   0  0.6134625E-07  0.3387209E+04  0.7818609E-02  0.8141053E-01
       -1   -1    0    0    0  501  0.00000000000E+00  0.00000000000E+00  0.21037097457E+04  0.21037097457E+04  0.50400001928E-02 0. -1.
        1   -1    0    0  501    0  0.00000000000E+00  0.00000000000E+00 -0.13634471184E+04  0.13634471184E+04  0.50400001928E-02 0.  1.
    10030    2    1    2    0    0  0.00000000000E+00  0.00000000000E+00  0.74026262731E+03  0.34671568641E+04  0.33872094655E+04 0.  0.
        5    1    3    3  502    0  0.98169998511E+03  0.10305395167E+04 -0.56942690695E+03  0.15329760757E+04  0.46999998093E+01 0.  1.
       -5    1    3    3    0  502 -0.98169998511E+03 -0.10305395167E+04  0.13096895343E+04  0.19341807884E+04  0.46999998093E+01 0. -1.
</event>
<event>
 5   0  0.6134625E-07  0.3404095E+04  0.7818609E-02  0.8136902E-01
       -1   -1    0    0    0  501  0.00000000000E+00  0.00000000000E+00  0.16584997100E+04  0.16584997100E+04  0.50400001928E-02 0. -1.
        1   -1    0    0  501    0  0.00000000000E+00  0.00000000000E+00 -0.17467386214E+04  0.17467386214E+04  0.50400001928E-02 0.  1.
    10030    2    1    2    0    0  0.00000000000E+00  0.00000000000E+00 -0.88238911391E+02  0.34052383314E+04  0.34040948853E+04 0.  0.
        1    1    3    3  502    0  0.30571170950E+03 -0.12174478445E+04  0.11057563716E+04  0.16728227810E+04  0.50400001928E-02 0. -1.
       -1    1    3    3    0  502 -0.30571170950E+03  0.12174478445E+04 -0.11939952830E+04  0.17324155504E+04  0.50400001928E-02 0.  1.
</event>
<event>
 5   0  0.1880301E-06  0.3355806E+04  0.7818609E-02  0.8148839E-01
        2   -1    0    0  501    0  0.00000000000E+00  0.00000000000E+00  0.21227342068E+04  0.21227342068E+04  0.25500000920E-02 0.  1.
       -2   -1    0    0    0  501  0.00000000000E+00  0.00000000000E+00 -0.13262885700E+04  0.13262885700E+04  0.25500000920E-02 0. -1.
    10030    2    1    2    0    0  0.00000000000E+00  0.00000000000E+00  0.79644563681E+03  0.34490227769E+04  0.33558057844E+04 0.  0.
        4    1    3    3  502    0  0.15314813523E+04 -0.10703603295E+03  0.10941313732E+04  0.18852100466E+04  0.12699999809E+01 0.  1.
       -4    1    3    3    0  502 -0.15314813523E+04  0.10703603295E+03 -0.29768573643E+03  0.15638127303E+04  0.12699999809E+01 0. -1.
</event>
<event>
 5   0  0.1911477E-06  0.2783526E+04  0.7818609E-02  0.8308401E-01
       -2   -1    0    0    0  501  0.00000000000E+00  0.00000000000E+00  0.75791268369E+03  0.75791268370E+03  0.25500000920E-02 0.  1.
        2   -1    0    0  501    0  0.00000000000E+00  0.00000000000E+00 -0.25557094116E+04  0.25557094116E+04  0.25500000920E-02 0. -1.
    10030    2    1    2    0    0  0.00000000000E+00  0.00000000000E+00 -0.17977967279E+04  0.33136220953E+04  0.27835262376E+04 0.  0.
        5    1    3    3  502    0  0.32309248706E+03 -0.13380971621E+04 -0.65467024270E+03  0.15243057394E+04  0.46999998093E+01 0.  1.
       -5    1    3    3    0  502 -0.32309248706E+03  0.13380971621E+04 -0.11431264852E+04  0.17893163559E+04  0.46999998093E+01 0. -1.
</event>
<event>
 5   0  0.6134625E-07  0.3365758E+04  0.7818609E-02  0.8146362E-01
       -1   -1    0    0    0  501  0.00000000000E+00  0.00000000000E+00  0.21088848736E+04  0.21088848736E+04  0.50400001928E-02 0. -1.
        1   -1    0    0  501    0  0.00000000000E+00  0.00000000000E+00 -0.13429285873E+04  0.13429285873E+04  0.50400001928E-02 0.  1.
    10030    2    1    2    0    0  0.00000000000E+00  0.00000000000E+00  0.76595628636E+03  0.34518134609E+04  0.33657580329E+04 0.  0.
        5    1    3    3  502    0  0.63234571336E+02  0.51395152520E+03  0.20251410242E+04  0.20903021406E+04  0.46999998093E+01 0. -1.
       -5    1    3    3    0  502 -0.63234571336E+02 -0.51395152520E+03 -0.12591847378E+04  0.13615113203E+04  0.46999998093E+01 0.  1.
</event>
<event>
 5   0  0.1948507E-06  0.3498425E+04  0.7818609E-02  0.8114163E-01
        2   -1    0    0  501    0  0.00000000000E+00  0.00000000000E+00  0.26448050914E+04  0.26448050914E+04  0.25500000920E-02 0. -1.
       -2   -1    0    0    0  501  0.00000000000E+00  0.00000000000E+00 -0.11568884119E+04  0.11568884119E+04  0.25500000920E-02 0.  1.
    10030    2    1    2    0    0  0.00000000000E+00  0.00000000000E+00  0.14879166795E+04  0.38016935032E+04  0.34984249952E+04 0.  0.
        1    1    3    3  502    0  0.11314252617E+04  0.61184158284E+02  0.21921000578E+04  0.24676242193E+04  0.50400001928E-02 0. -1.
       -1    1    3    3    0  502 -0.11314252617E+04 -0.61184158284E+02 -0.70418337830E+03  0.13340692840E+04  0.50400001928E-02 0.  1.
</event>
<event>
 5   0  0.1880301E-06  0.3413207E+04  0.7818609E-02  0.8134673E-01
       -2   -1    0    0    0  501  0.00000000000E+00  0.00000000000E+00  0.14842135090E+04  0.14842135090E+04  0.25500000920E-02 0.  1.
        2   -1    0    0  501    0  0.00000000000E+00  0.00000000000E+00 -0.19623152179E+04  0.19623152179E+04  0.25500000920E-02 0. -1.
    10030    2    1    2    0    0  0.00000000000E+00  0.00000000000E+00 -0.47810170890E+03  0.34465287269E+04  0.34132065600E+04 0.  0.
        4    1    3    3  502    0  0.13470714798E+04 -0.60628354322E+03  0.62387503843E+03  0.16035594729E+04  0.12699999809E+01 0.  1.
       -4    1    3    3    0  502 -0.13470714798E+04  0.60628354322E+03 -0.11019767473E+04  0.18429692540E+04  0.12699999809E+01 0. -1.
</event>
<event>
 5   0  0.1880301E-06  0.2820540E+04  0.7818609E-02  0.8296920E-01
        2   -1    0    0  501    0  0.00000000000E+00  0.00000000000E+00  0.16475450028E+04  0.16475450028E+04  0.25500000920E-02 0.  1.
       -2   -1    0    0    0  501  0.00000000000E+00  0.00000000000E+00 -0.12071665370E+04  0.12071665370E+04  0.25500000920E-02 0. -1.
    10030    2    1    2    0    0  0.00000000000E+00  0.00000000000E+00  0.44037846575E+03  0.28547115398E+04  0.28205398034E+04 0.  0.
        4    1    3    3  502    0 -0.74158141006E+03 -0.69202940918E+03 -0.77148334503E+03  0.12743766537E+04  0.12699999809E+01 0. -1.
       -4    1    3    3    0  502  0.74158141006E+03  0.69202940918E+03  0.12118618108E+04  0.15803348861E+04  0.12699999809E+01 0.  1.
</event>
<event>
 5   0  0.1797075E-06  0.3426498E+04  0.7818609E-02  0.8131433E-01
        2   -1    0    0  501    0  0.00000000000E+00  0.00000000000E+00  0.22199221090E+04  0.22199221090E+04  0.25500000920E-02 0. -1.
       -2   -1    0    0    0  501  0.00000000000E+00  0.00000000000E+00 -0.13222182656E+04  0.13222182656E+04  0.25500000920E-02 0.  1.
    10030    2    1    2    0    0  0.00000000000E+00  0.00000000000E+00  0.89770384342E+03  0.35421403747E+04  0.34264976643E+04 0.  0.
        2    1    3    3  502    0  0.37776195595E+03  0.15802146603E+03 -0.12708881294E+04  0.13352271404E+04  0.25500000920E-02 0.  1.
       -2    1    3    3    0  502 -0.37776195595E+03 -0.15802146603E+03  0.21685919728E+04  0.22069132343E+04  0.25500000920E-02 0. -1.
</event>
<event>
 5   0  0.1339844E-06  0.3318112E+04  0.7818609E-02  0.8158302E-01
       -2   -1    0    0    0  501  0.00000000000E+00  0.00000000000E+00  0.14233054886E+04  0.14233054886E+04  0.25500000920E-02 0. -1.
        2   -1    0    0  501    0  0.00000000000E+00  0.00000000000E+00 -0.19338554560E+04  0.19338554560E+04  0.25500000920E-02 0.  1.
    10030    2    1    2    0    0  0.00000000000E+00  0.00000000000E+00 -0.51054996736E+03  0.33571609446E+04  0.33181121648E+04 0.  0.
        3    1    3    3  502    0 -0.14998014023E+04 -0.70577485565E+03 -0.32642094405E+03  0.16894002001E+04  0.10100000352E+00 0.  1.
       -3    1    3    3    0  502  0.14998014023E+04  0.70577485565E+03 -0.18412902331E+03  0.16677607444E+04  0.10100000352E+00 0. -1.
</event>
<event>
 5   0  0.6134625E-07  0.3238323E+04  0.7818609E-02  0.8178769E-01
       -1   -1    0    0    0  501  0.00000000000E+00  0.00000000000E+00  0.17534605266E+04  0.17534605266E+04  0.50400001928E-02 0. -1.
        1   -1    0    0  501    0  0.00000000000E+00  0.00000000000E+00 -0.14951485391E+04  0.14951485391E+04  0.50400001928E-02 0.  1.
    10030    2    1    2    0    0  0.00000000000E+00  0.00000000000E+00  0.25831198755E+03  0.32486090657E+04  0.32383229887E+04 0.  0.
        1    1    3    3  502    0  0.10884201491E+03  0.22939167593E+03  0.17333654247E+04  0.17518626718E+04  0.50400001928E-02 0. -1.
       -1    1    3    3    0  502 -0.10884201491E+03 -0.22939167593E+03 -0.14750534372E+04  0.14967463939E+04  0.50400001928E-02 0.  1.
</event>
<event>
 5   0  0.6146388E-07  0.3551437E+04  0.7818609E-02  0.8101707E-01
       -1   -1    0    0    0  501  0.00000000000E+00  0.00000000000E+00  0.14278343545E+04  0.14278343545E+04  0.50400001928E-02 0. -1.
        1   -1    0    0  501    0  0.00000000000E+00  0.00000000000E+00 -0.22083626000E+04  0.22083626001E+04  0.50400001928E-02 0.  1.
    10030    2    1    2    0    0  0.00000000000E+00  0.00000000000E+00 -0.78052824554E+03  0.36361969546E+04  0.35514368853E+04 0.  0.
        4    1    3    3  502    0  0.23795575979E+03 -0.14292868334E+04  0.66072893238E+03  0.15924974508E+04  0.12699999809E+01 0. -1.
       -4    1    3    3    0  502 -0.23795575979E+03  0.14292868334E+04 -0.14412571779E+04  0.20436995038E+04  0.12699999809E+01 0.  1.
</event>
<event>
 5   0  0.1339844E-06  0.3355075E+04  0.7818609E-02  0.8149021E-01
        2   -1    0    0  501    0  0.00000000000E+00  0.00000000000E+00  0.88413434795E+03  0.88413434795E+03  0.25500000920E-02 0. -1.
       -2   -1    0    0    0  501  0.00000000000E+00  0.00000000000E+00 -0.31829230893E+04  0.31829230893E+04  0.25500000920E-02 0.  1.
    10030    2    1    2    0    0  0.00000000000E+00  0.00000000000E+00 -0.22987887414E+04  0.40670574373E+04  0.33550747414E+04 0.  0.
        3    1    3    3  502    0  0.72853633140E+03 -0.11401444820E+03 -0.29759216066E+04  0.30659213786E+04  0.10100000352E+00 0.  1.
       -3    1    3    3    0  502 -0.72853633140E+03  0.11401444820E+03  0.67713286527E+03  0.10011360587E+04  0.10100000352E+00 0. -1.
</event>
<event>
 5   0  0.1797075E-06  0.3316054E+04  0.7818609E-02  0.8158823E-01
        2   -1    0    0  501    0  0.00000000000E+00  0.00000000000E+00  0.23677666274E+04  0.23677666274E+04  0.25500000920E-02 0. -1.
       -2   -1    0    0    0  501  0.00000000000E+00  0.00000000000E+00 -0.11610320498E+04  0.11610320498E+04  0.25500000920E-02 0.  1.
    10030    2    1    2    0    0  0.00000000000E+00  0.00000000000E+00  0.12067345776E+04  0.35287986773E+04  0.33160536431E+04 0.  0.
        2    1    3    3  502    0 -0.13991272115E+03  0.45728031052E+03  0.22927874215E+04  0.23421261734E+04  0.25500000920E-02 0. -1.
       -2    1    3    3    0  502  0.13991272115E+03 -0.45728031052E+03 -0.10860528438E+04  0.11866725039E+04  0.25500000920E-02 0.  1.
</event>
<event>
 5   0  0.6134625E-07  0.3373982E+04  0.7818609E-02  0.8144322E-01
       -1   -1    0    0    0  501  0.00000000000E+00  0.00000000000E+00  0.23354091585E+04  0.23354091585E+04  0.50400001928E-02 0.  1.
        1   -1    0    0  501    0  0.00000000000E+00  0.00000000000E+00 -0.12186035945E+04  0.12186035945E+04  0.50400001928E-02 0. -1.
    10030    2    1    2    0    0  0.00000000000E+00  0.00000000000E+00  0.11168055640E+04  0.35540127530E+04  0.33739816213E+04 0.  0.
        1    1    3    3  502    0  0.10869736949E+04 -0.67919056473E+02 -0.79867854316E+03  0.13505599679E+04  0.50400001928E-02 0. -1.
       -1    1    3    3    0  502 -0.10869736949E+04  0.67919056473E+02  0.19154841071E+04  0.22034527851E+04  0.50400001928E-02 0.  1.
</event>
<event>
 5   0  0.1948507E-06  0.3115795E+04  0.7818609E-02  0.8211416E-01
       -2   -1    0    0    0  501  0.00000000000E+00  0.00000000000E+00  0.13527833975E+04  0.13527833975E+04  0.25500000920E-02 0.  1.
        2   -1    0    0  501    0  0.00000000000E+00  0.00000000000E+00 -0.17941116487E+04  0.17941116487E+04  0.25500000920E-02 0. -1.
    10030    2    1    2    0    0  0.00000000000E+00  0.00000000000E+00 -0.44132825120E+03  0.31468950463E+04  0.31157948917E+04 0.  0.
        1    1    3    3  502    0 -0.97424104884E+01 -0.48364311175E+03 -0.17163368136E+04  0.17832043158E+04  0.50400001928E-02 0. -1.
       -1    1    3    3    0  502  0.97424104884E+01  0.48364311175E+03  0.12750085624E+04  0.13636907305E+04  0.50400001928E-02 0.  1.
</event>
<event>
 5   0  0.6218695E-07  0.3332013E+04  0.7818609E-02  0.8154797E-01
       -1   -1    0    0    0  501  0.00000000000E+00  0.00000000000E+00  0.16474320972E+04  0.16474320972E+04  0.50400001928E-02 0. -1.
        1   -1    0    0  501    0  0.00000000000E+00  0.00000000000E+00 -0.16847906633E+04  0.16847906633E+04  0.50400001928E-02 0.  1.
    10030    2    1    2    0    0  0.00000000000E+00  0.00000000000E+00 -0.37358566030E+02  0.33322227605E+04  0.33320133348E+04 0.  0.
        2    1    3    3  502    0  0.13179583373E+04 -0.95000920236E+03  0.35018878926E+03  0.16619758878E+04  0.25500000920E-02 0. -1.
       -2    1    3    3    0  502 -0.13179583373E+04  0.95000920236E+03 -0.38754735529E+03  0.16702468728E+04  0.25500000920E-02 0.  1.
</event>
<event>
 5   0  0.1339844E-06  0.3458305E+04  0.7818609E-02  0.8123743E-01
        2   -1    0    0  501    0  0.00000000000E+00  0.00000000000E+00  0.25266451271E+04  0.25266451271E+04  0.25500000920E-02 0. -1.
       -2   -1    0    0    0  501  0.00000000000E+00  0.00000000000E+00 -0.11833749475E+04  0.11833749475E+04  0.25500000920E-02 0.  1.
    10030    2    1    2    0    0  0.00000000000E+00  0.00000000000E+00  0.13432701796E+04  0.37100200746E+04  0.34583051020E+04 0.  0.
        3    1    3    3  502    0 -0.91356801450E+03 -0.14451264642E+04  0.39401043492E+03  0.17544917348E+04  0.10100000352E+00 0.  1.
       -3    1    3    3    0  502  0.91356801450E+03  0.14451264642E+04  0.94925974465E+03  0.19555283398E+04  0.10100000352E+00 0. -1.
</event>
<event>
 5   0  0.1911477E-06  0.3293502E+04  0.7818609E-02  0.8164551E-01
       -2   -1    0    0    0  501  0.00000000000E+00  0.00000000000E+00  0.11838515863E+04  0.11838515863E+04  0.25500000920E-02 0.  1.
        2   -1    0    0  501    0  0.00000000000E+00  0.00000000000E+00 -0.22906493327E+04  0.22906493327E+04  0.25500000920E-02 0. -1.
    10030    2    1    2    0    0  0.00000000000E+00  0.00000000000E+00 -0.11067977464E+04  0.34745009190E+04  0.32935019941E+04 0.  0.
        5    1    3    3  502    0 -0.90150568636E+03  0.24872401197E+03  0.87652069621E+03  0.12817514414E+04  0.46999998093E+01 0.  1.
       -5    1    3    3    0  502  0.90150568636E+03 -0.24872401197E+03 -0.19833184427E+04  0.21927494776E+04  0.46999998093E+01 0. -1.
</event>
<event>
 5   0  0.6134625E-07  0.3474936E+04  0.7818609E-02  0.8119756E-01
       -1   -1    0    0    0  501  0.00000000000E+00  0.00000000000E+00  0.13303547039E+04  0.13303547039E+04  0.50400001928E-02 0.  1.
        1   -1    0    0  501    0  0.00000000000E+00  0.00000000000E+00 -0.22691653102E+04  0.22691653102E+04  0.50400001928E-02 0. -1.
    10030    2    1    2    0    0  0.00000000000E+00  0.00000000000E+00 -0.93881060631E+03  0.35995200141E+04  0.34749358235E+04 0.  0.
        1    1    3    3  502    0  0.14142714230E+03 -0.13872312474E+04  0.60428067688E+03  0.15197260631E+04  0.50400001928E-02 0.  1.
       -1    1    3    3    0  502 -0.14142714230E+03  0.13872312474E+04 -0.15430912832E+04  0.20797939510E+04  0.50400001928E-02 0. -1.
</event>
<event>
 5   0  0.6134625E-07  0.3332235E+04  0.7818609E-02  0.8154741E-01
        1   -1    0    0  501    0  0.00000000000E+00  0.00000000000E+00  0.26267418413E+04  0.26267418413E+04  0.50400001928E-02 0.  1.
       -1   -1    0    0    0  501  0.00000000000E+00  0.00000000000E+00 -0.10568026676E+04  0.10568026676E+04  0.50400001928E-02 0. -1.
    10030    2    1    2    0    0  0.00000000000E+00  0.00000000000E+00  0.15699391737E+04  0.36835445088E+04  0.33322351567E+04 0.  0.
        5    1    3    3  502    0  0.11827672386E+04 -0.11560860241E+04  0.56263719372E+03  0.17470134337E+04  0.46999998093E+01 0.  1.
       -5    1    3    3    0  502 -0.11827672386E+04  0.11560860241E+04  0.10073019800E+04  0.19365310751E+04  0.46999998093E+01 0. -1.
</event>
<event>
 5   0  0.1948507E-06  0.3530557E+04  0.7818609E-02  0.8106586E-01
       -2   -1    0    0    0  501  0.00000000000E+00  0.00000000000E+00  0.12151235852E+04  0.12151235852E+04  0.25500000920E-02 0. -1.
        2   -1    0    0  501    0  0.00000000000E+00  0.00000000000E+00 -0.25645191547E+04  0.25645191547E+04  0.25500000920E-02 0.  1.
    10030    2    1    2    0    0  0.00000000000E+00  0.00000000000E+00 -0.13493955695E+04  0.37796427398E+04  0.35305567320E+04 0.  0.
        1    1    3    3  502    0 -0.47050571992E+03 -0.82544056342E+03  0.91804392533E+03  0.13211859843E+04  0.50400001928E-02 0. -1.
       -1    1    3    3    0  502  0.47050571992E+03  0.82544056342E+03 -0.22674394948E+04  0.24584567556E+04  0.50400001928E-02 0.  1.
</event>
<event>
 5   0  0.6134625E-07  0.3375074E+04  0.7818609E-02  0.8144051E-01
        1   -1    0    0  501    0  0.00000000000E+00  0.00000000000E+00  0.21244602569E+04  0.21244602569E+04  0.50400001928E-02 0.  1.
       -1   -1    0    0    0  501  0.00000000000E+00  0.00000000000E+00 -0.13404727827E+04  0.13404727827E+04  0.50400001928E-02 0. -1.
    10030    2    1    2    0    0  0.00000000000E+00  0.00000000000E+00  0.78398747421E+03  0.34649330397E+04  0.33750740154E+04 0.  0.
        3    1    3    3  502    0  0.49264815781E+03  0.87679429612E+03  0.17831779060E+04  0.20472405574E+04  0.10100000352E+00 0.  1.
       -3    1    3    3    0  502 -0.49264815781E+03 -0.87679429612E+03 -0.99919043181E+03  0.14176924823E+04  0.10100000352E+00 0. -1.
</event>
<event>
 5   0  0.1797075E-06  0.3039713E+04  0.7818609E-02  0.8232481E-01
        2   -1    0    0  501    0  0.00000000000E+00  0.00000000000E+00  0.14087651583E+04  0.14087651583E+04  0.25500000920E-02 0. -1.
       -2   -1    0    0    0  501  0.00000000000E+00  0.00000000000E+00 -0.16397076796E+04  0.16397076797E+04  0.25500000920E-02 0.  1.
    10030    2    1    2    0    0  0.00000000000E+00  0.00000000000E+00 -0.23094252137E+03  0.30484728379E+04  0.30397125186E+04 0.  0.
        2    1    3    3  502    0  0.64148640624E+03  0.13287140332E+04  0.25024014359E+03  0.14965312963E+04  0.25500000920E-02 0. -1.
       -2    1    3    3    0  502 -0.64148640624E+03 -0.13287140332E+04 -0.48118266496E+03  0.15519415416E+04  0.25500000920E-02 0.  1.
</event>
<event>
 5   0  0.6146388E-07  0.3416001E+04  0.7818609E-02  0.8133990E-01
        1   -1    0    0  501    0  0.00000000000E+00  0.00000000000E+00  0.21974374374E+04  0.21974374374E+04  0.50400001928E-02 0. -1.
       -1   -1    0    0    0  501  0.00000000000E+00  0.00000000000E+00 -0.13275766180E+04  0.13275766180E+04  0.50400001928E-02 0.  1.
    10030    2    1    2    0    0  0.00000000000E+00  0.00000000000E+00  0.86986081945E+03  0.35250140554E+04  0.34160014996E+04 0.  0.
        4    1    3    3  502    0  0.41376634149E+03  0.15790051428E+04 -0.83912319290E+02  0.16344732229E+04  0.12699999809E+01 0.  1.
       -4    1    3    3    0  502 -0.41376634149E+03 -0.15790051428E+04  0.95377313874E+03  0.18905408325E+04  0.12699999809E+01 0. -1.
</event>
<event>
 5   0  0.6134625E-07  0.2839646E+04  0.7818609E-02  0.8291065E-01
        1   -1    0    0  501    0  0.00000000000E+00  0.00000000000E+00  0.14329886324E+04  0.14329886324E+04  0.50400001928E-02 0.  1.
       -1   -1    0    0    0  501  0.00000000000E+00  0.00000000000E+00 -0.14067781160E+04  0.14067781160E+04  0.50400001928E-02 0. -1.
    10030    2    1    2    0    0  0.00000000000E+00  0.00000000000E+00  0.26210516400E+02  0.28397667485E+04  0.28396457868E+04 0.  0.
        3    1    3    3  502    0  0.38359588474E+03  0.13333083390E+02 -0.13539107113E+04  0.14072660723E+04  0.10100000352E+00 0. -1.
       -3    1    3    3    0  502 -0.38359588474E+03 -0.13333083390E+02  0.13801212277E+04  0.14325006762E+04  0.10100000352E+00 0.  1.
</event>
<event>
 5   0  0.1911477E-06  0.3441373E+04  0.7818609E-02  0.8127826E-01
        2   -1    0    0  501    0  0.00000000000E+00  0.00000000000E+00  0.25447032030E+04  0.25447032030E+04  0.25500000920E-02 0.  1.
       -2   -1    0    0    0  501  0.00000000000E+00  0.00000000000E+00 -0.11634998639E+04  0.11634998639E+04  0.25500000920E-02 0. -1.
    10030    2    1    2    0    0  0.00000000000E+00  0.00000000000E+00  0.13812033391E+04  0.37082030669E+04  0.34413728832E+04 0.  0.
        5    1    3    3  502    0  0.15940465959E+04  0.28133909477E+03  0.13194650882E+04  0.20883358076E+04  0.46999998093E+01 0.  1.
       -5    1    3    3    0  502 -0.15940465959E+04 -0.28133909477E+03  0.61738250855E+02  0.16198672593E+04  0.46999998093E+01 0. -1.
</event>
<event>
 5   0  0.6134625E-07  0.3445713E+04  0.7818609E-02  0.8126777E-01
        1   -1    0    0  501    0  0.00000000000E+00  0.00000000000E+00  0.82825161053E+03  0.82825161055E+03  0.50400001928E-02 0.  1.
       -1   -1    0    0    0  501  0.00000000000E+00  0.00000000000E+00 -0.35837354027E+04  0.35837354027E+04  0.50400001928E-02 0. -1.
    10030    2    1    2    0    0  0.00000000000E+00  0.00000000000E+00 -0.27554837922E+04  0.44119870133E+04  0.34457130577E+04 0.  0.
        5    1    3    3  502    0  0.78283564781E+03 -0.84515806775E+03  0.26255002801E+03  0.11815576237E+04  0.46999998093E+01 0.  1.
       -5    1    3    3    0  502 -0.78283564781E+03  0.84515806775E+03 -0.30180338202E+04  0.32304293896E+04  0.46999998093E+01 0. -1.
</event>
<event>
 5   0  0.1911477E-06  0.3473801E+04  0.7818609E-02  0.8120027E-01
       -2   -1    0    0    0  501  0.00000000000E+00  0.00000000000E+00  0.17181660817E+04  0.17181660817E+04  0.25500000920E-02 0. -1.
        2   -1    0    0  501    0  0.00000000000E+00  0.00000000000E+00 -0.17558392983E+04  0.17558392983E+04  0.25500000920E-02 0.  1.
    10030    2    1    2    0    0  0.00000000000E+00  0.00000000000E+00 -0.37673216622E+02  0.34740053800E+04  0.34738011039E+04 0.  0.
        5    1    3    3  502    0  0.94299087012E+03 -0.14065614799E+04 -0.40506452273E+03  0.17411910681E+04  0.46999998093E+01 0.  1.
       -5    1    3    3    0  502 -0.94299087012E+03  0.14065614799E+04  0.36739130611E+03  0.17328143120E+04  0.46999998093E+01 0. -1.
</event>
<event>
 5   0  0.1948507E-06  0.2980708E+04  0.7818609E-02  0.8249261E-01
        2   -1    0    0  501    0  0.00000000000E+00  0.00000000000E+00  0.21449602855E+04  0.21449602855E+04  0.25500000920E-02 0. -1.
       -2   -1    0    0    0  501  0.00000000000E+00  0.00000000000E+00 -0.10355229460E+04  0.10355229460E+04  0.25500000920E-02 0.  1.
    10030    2    1    2    0    0  0.00000000000E+00  0.00000000000E+00  0.11094373395E+04  0.31804832315E+04  0.29807083681E+04 0.  0.
        1    1    3    3  502    0  0.12159913158E+03  0.11989656859E+04 -0.38089074250E+03  0.12638761104E+04  0.50400001928E-02 0.  1.
       -1    1    3    3    0  502 -0.12159913158E+03 -0.11989656859E+04  0.14903280820E+04  0.19166071211E+04  0.50400001928E-02 0. -1.
</event>
<event>
 5   0  0.6146388E-07  0.3397740E+04  0.7818609E-02  0.8138461E-01
        1   -1    0    0  501    0  0.00000000000E+00  0.00000000000E+00  0.21688775126E+04  0.21688775126E+04  0.50400001928E-02 0.  1.
       -1   -1    0    0    0  501  0.00000000000E+00  0.00000000000E+00 -0.13307157568E+04  0.13307157568E+04  0.50400001928E-02 0. -1.
    10030    2    1    2    0    0  0.00000000000E+00  0.00000000000E+00  0.83816175577E+03  0.34995932694E+04  0.33977401199E+04 0.  0.
        4    1    3    3  502    0 -0.92411480813E+03 -0.13088670611E+04 -0.16268432373E+03  0.16104623449E+04  0.12699999809E+01 0. -1.
       -4    1    3    3    0  502  0.92411480813E+03  0.13088670611E+04  0.10008460795E+04  0.18891309245E+04  0.12699999809E+01 0.  1.
</event>
<event>
 5   0  0.1948507E-06  0.3294812E+04  0.7818609E-02  0.8164217E-01
        2   -1    0    0  501    0  0.00000000000E+00  0.00000000000E+00  0.18830937935E+04  0.18830937935E+04  0.25500000920E-02 0.  1.
       -2   -1    0    0    0  501  0.00000000000E+00  0.00000000000E+00 -0.14412166783E+04  0.14412166783E+04  0.25500000920E-02 0. -1.
    10030    2    1    2    0    0  0.00000000000E+00  0.00000000000E+00  0.44187711519E+03  0.33243104719E+04  0.32948117896E+04 0.  0.
        1    1    3    3  502    0 -0.40456022595E+02 -0.81240852852E+03 -0.12244732140E+04  0.14700268565E+04  0.50400001928E-02 0. -1.
       -1    1    3    3    0  502  0.40456022595E+02  0.81240852852E+03  0.16663503291E+04  0.18542836154E+04  0.50400001928E-02 0.  1.
</event>
<event>
 5   0  0.1948507E-06  0.3207036E+04  0.7818609E-02  0.8186961E-01
        2   -1    0    0  501    0  0.00000000000E+00  0.00000000000E+00  0.23887863363E+04  0.23887863363E+04  0.25500000920E-02 0. -1.
       -2   -1    0    0    0  501  0.00000000000E+00  0.00000000000E+00 -0.10763917068E+04  0.10763917068E+04  0.25500000920E-02 0.  1.
    10030    2    1    2    0    0  0.00000000000E+00  0.00000000000E+00  0.13123946296E+04  0.34651780431E+04  0.32070358911E+04 0.  0.
        1    1    3    3  502    0  0.75807443279E+03 -0.11891724164E+04 -0.16842579641E+03  0.14202729070E+04  0.50400001928E-02 0.  1.
       -1    1    3    3    0  502 -0.75807443279E+03  0.11891724164E+04  0.14808204260E+04  0.20449051361E+04  0.50400001928E-02 0. -1.
</event>
<event>
 5   0  0.6146388E-07  0.3344501E+04  0.7818609E-02  0.8151663E-01
        1   -1    0    0  501    0  0.00000000000E+00  0.00000000000E+00  0.81894027293E+03  0.81894027295E+03  0.50400001928E-02 0. -1.
       -1   -1    0    0    0  501  0.00000000000E+00  0.00000000000E+00 -0.34146836052E+04  0.34146836052E+04  0.50400001928E-02 0.  1.
    10030    2    1    2    0    0  0.00000000000E+00  0.00000000000E+00 -0.25957433323E+04  0.42336238782E+04  0.33445011130E+04 0.  0.
        4    1    3    3  502    0  0.28787494255E+02  0.87799718992E+03 -0.30990744601E+04  0.32211755474E+04  0.12699999809E+01 0.  1.
       -4    1    3    3    0  502 -0.28787494255E+02 -0.87799718992E+03  0.50333112778E+03  0.10124483307E+04  0.12699999809E+01 0. -1.
</event>
<event>
 5   0  0.6134625E-07  0.3248829E+04  0.7818609E-02  0.8176039E-01
       -1   -1    0    0    0  501  0.00000000000E+00  0.00000000000E+00  0.10485731254E+04  0.10485731254E+04  0.50400001928E-02 0.  1.
        1   -1    0    0  501    0  0.00000000000E+00  0.00000000000E+00 -0.25164889034E+04  0.25164889034E+04  0.50400001928E-02 0. -1.
    10030    2    1    2    0    0  0.00000000000E+00  0.00000000000E+00 -0.14679157780E+04  0.35650620288E+04  0.32488291026E+04 0.  0.
        3    1    3    3  502    0 -0.37547195194E+03  0.96001745940E+03 -0.21115906889E+04  0.23497718946E+04  0.10100000352E+00 0. -1.
       -3    1    3    3    0  502  0.37547195194E+03 -0.96001745940E+03  0.64367491094E+03  0.12152901342E+04  0.10100000352E+00 0.  1.
</event>
<event>
 5   0  0.6134625E-07  0.3507626E+04  0.7818609E-02  0.8111985E-01
        1   -1    0    0  501    0  0.00000000000E+00  0.00000000000E+00  0.28564181754E+04  0.28564181754E+04  0.50400001928E-02 0. -1.
       -1   -1    0    0    0  501  0.00000000000E+00  0.00000000000E+00 -0.10768241918E+04  0.10768241918E+04  0.50400001928E-02 0.  1.
    10030    2    1    2    0    0  0.00000000000E+00  0.00000000000E+00  0.17795939836E+04  0.39332423672E+04  0.35076260879E+04 0.  0.
        5    1    3    3  502    0  0.61899033336E+03  0.13168618259E+04  0.19876595518E+04  0.24633486731E+04  0.46999998093E+01 0.  1.
       -5    1    3    3    0  502 -0.61899033336E+03 -0.13168618259E+04 -0.20806556823E+03  0.14698936941E+04  0.46999998093E+01 0. -1.
</event>
<event>
 5   0  0.1880301E-06  0.3364214E+04  0.7818609E-02  0.8146746E-01
        2   -1    0    0  501    0  0.00000000000E+00  0.00000000000E+00  0.21095001751E+04  0.21095001751E+04  0.25500000920E-02 0. -1.
       -2   -1    0    0    0  501  0.00000000000E+00  0.00000000000E+00 -0.13413057574E+04  0.13413057574E+04  0.25500000920E-02 0.  1.
    10030    2    1    2    0    0  0.00000000000E+00  0.00000000000E+00  0.76819441773E+03  0.34508059325E+04  0.33642144582E+04 0.  0.
        4    1    3    3  502    0 -0.10432571848E+04  0.13011563636E+04  0.60903519963E+03  0.17754770974E+04  0.12699999809E+01 0. -1.
       -4    1    3    3    0  502  0.10432571848E+04 -0.13011563636E+04  0.15915921810E+03  0.16753288351E+04  0.12699999809E+01 0.  1.
</event>
<event>
 5   0  0.6146388E-07  0.3344529E+04  0.7818609E-02  0.8151657E-01
       -1   -1    0    0    0  501  0.00000000000E+00  0.00000000000E+00  0.96932736507E+03  0.96932736508E+03  0.50400001928E-02 0.  1.
        1   -1    0    0  501    0  0.00000000000E+00  0.00000000000E+00 -0.28849578377E+04  0.28849578377E+04  0.50400001928E-02 0. -1.
    10030    2    1    2    0    0  0.00000000000E+00  0.00000000000E+00 -0.19156304726E+04  0.38542852028E+04  0.33445290127E+04 0.  0.
        4    1    3    3  502    0  0.68470700223E+03 -0.43298281290E+03 -0.26437195890E+04  0.27650592531E+04  0.12699999809E+01 0. -1.
       -4    1    3    3    0  502 -0.68470700223E+03  0.43298281290E+03  0.72808911635E+03  0.10892259497E+04  0.12699999809E+01 0.  1.
</event>
<event>
 5   0  0.6134625E-07  0.3353057E+04  0.7818609E-02  0.8149525E-01
        1   -1    0    0  501    0  0.00000000000E+00  0.00000000000E+00  0.15953756009E+04  0.15953756009E+04  0.50400001928E-02 0. -1.
       -1   -1    0    0    0  501  0.00000000000E+00  0.00000000000E+00 -0.17618097432E+04  0.17618097432E+04  0.50400001928E-02 0.  1.
    10030    2    1    2    0    0  0.00000000000E+00  0.00000000000E+00 -0.16643414238E+03  0.33571853441E+04  0.33530572782E+04 0.  0.
        1    1    3    3  502    0  0.76022080096E+02 -0.72993714720E+03 -0.15924416399E+04  0.17534132348E+04  0.50400001928E-02 0.  1.
       -1    1    3    3    0  502 -0.76022080096E+02  0.72993714720E+03  0.14260074975E+04  0.16037721093E+04  0.50400001928E-02 0. -1.
</event>
<event>
 5   0  0.6134625E-07  0.3414691E+04  0.7818609E-02  0.8134310E-01
       -1   -1    0    0    0  501  0.00000000000E+00  0.00000000000E+00  0.10892547433E+04  0.10892547433E+04  0.50400001928E-02 0. -1.
        1   -1    0    0  501    0  0.00000000000E+00  0.00000000000E+00 -0.26761686998E+04  0.26761686998E+04  0.50400001928E-02 0.  1.
    10030    2    1    2    0    0  0.00000000000E+00  0.00000000000E+00 -0.15869139565E+04  0.37654234432E+04  0.34146914650E+04 0.  0.
        5    1    3    3  502    0  0.14471352256E+04 -0.88972397912E+03 -0.98188291819E+03  0.19621226453E+04  0.46999998093E+01 0.  1.
       -5    1    3    3    0  502 -0.14471352256E+04  0.88972397912E+03 -0.60503103831E+03  0.18033007979E+04  0.46999998093E+01 0. -1.
</event>
<event>
 5   0  0.1880301E-06  0.3366714E+04  0.7818609E-02  0.8146124E-01
       -2   -1    0    0    0  501  0.00000000000E+00  0.00000000000E+00  0.14627929469E+04  0.14627929469E+04  0.25500000920E-02 0.  1.
        2   -1    0    0  501    0  0.00000000000E+00  0.00000000000E+00 -0.19371786025E+04  0.19371786025E+04  0.25500000920E-02 0. -1.
    10030    2    1    2    0    0  0.00000000000E+00  0.00000000000E+00 -0.47438565552E+03  0.33999715494E+04  0.33667142419E+04 0.  0.
        4    1    3    3  502    0  0.18443840836E+03 -0.14948668299E+04  0.52192751328E+03  0.15940684765E+04  0.12699999809E+01 0.  1.
       -4    1    3    3    0  502 -0.18443840836E+03  0.14948668299E+04 -0.99631316880E+03  0.18059030729E+04  0.12699999809E+01 0. -1.
</event>
<event>
 5   0  0.1797075E-06  0.3408862E+04  0.7818609E-02  0.8135735E-01
       -2   -1    0    0    0  501  0.00000000000E+00  0.00000000000E+00  0.13309297369E+04  0.13309297369E+04  0.25500000920E-02 0.  1.
        2   -1    0    0  501    0  0.00000000000E+00  0.00000000000E+00 -0.21827481493E+04  0.21827481493E+04  0.25500000920E-02 0. -1.
    10030    2    1    2    0    0  0.00000000000E+00  0.00000000000E+00 -0.85181841232E+03  0.35136778862E+04  0.34088616400E+04 0.  0.
        2    1    3    3  502    0 -0.10929884242E+04 -0.99067592837E+03 -0.13059906564E+04  0.19701964585E+04  0.25500000920E-02 0. -1.
       -2    1    3    3    0  502  0.10929884242E+04  0.99067592837E+03  0.45417224406E+03  0.15434814277E+04  0.25500000920E-02 0.  1.
</event>
<event>
 5   0  0.6134625E-07  0.3389047E+04  0.7818609E-02  0.8140600E-01
        1   -1    0    0  501    0  0.00000000000E+00  0.00000000000E+00  0.13386787972E+04  0.13386787972E+04  0.50400001928E-02 0. -1.
       -1   -1    0    0    0  501  0.00000000000E+00  0.00000000000E+00 -0.21449579935E+04  0.21449579935E+04  0.50400001928E-02 0.  1.
    10030    2    1    2    0    0  0.00000000000E+00  0.00000000000E+00 -0.80627919633E+03  0.34836367907E+04  0.33890469379E+04 0.  0.
        3    1    3    3  502    0 -0.82659454501E+03  0.36970918294E+03 -0.18754096705E+04  0.20825716949E+04  0.10100000352E+00 0.  1.
       -3    1    3    3    0  502  0.82659454501E+03 -0.36970918294E+03  0.10691304742E+04  0.14010650959E+04  0.10100000352E+00 0. -1.
</event>
<event>
 5   0  0.6134625E-07  0.3410773E+04  0.7818609E-02  0.8135267E-01
        1   -1    0    0  501    0  0.00000000000E+00  0.00000000000E+00  0.25273045960E+04  0.25273045960E+04  0.50400001928E-02 0.  1.
       -1   -1    0    0    0  501  0.00000000000E+00  0.00000000000E+00 -0.11507690226E+04  0.11507690226E+04  0.50400001928E-02 0. -1.
    10030    2    1    2    0    0  0.00000000000E+00  0.00000000000E+00  0.13765355734E+04  0.36780736186E+04  0.34107734254E+04 0.  0.
        1    1    3    3  502    0 -0.60489222570E+00 -0.28749896142E+03  0.25009832393E+04  0.25174537100E+04  0.50400001928E-02 0.  1.
       -1    1    3    3    0  502  0.60489222570E+00  0.28749896142E+03 -0.11244476660E+04  0.11606199086E+04  0.50400001928E-02 0. -1.
</event>
<event>
 5   0  0.1339844E-06  0.3391365E+04  0.7818609E-02  0.8140029E-01
        2   -1    0    0  501    0  0.00000000000E+00  0.00000000000E+00  0.20789164462E+04  0.20789164462E+04  0.25500000920E-02 0.  1.
       -2   -1    0    0    0  501  0.00000000000E+00  0.00000000000E+00 -0.13830952988E+04  0.13830952988E+04  0.25500000920E-02 0. -1.
    10030    2    1    2    0    0  0.00000000000E+00  0.00000000000E+00  0.69582114735E+03  0.34620117450E+04  0.33913652492E+04 0.  0.
        3    1    3    3  502    0  0.44206720142E+03  0.15893006552E+04  0.74856516157E+03  0.18115324436E+04  0.10100000352E+00 0. -1.
       -3    1    3    3    0  502 -0.44206720142E+03 -0.15893006552E+04 -0.52744014218E+02  0.16504793014E+04  0.10100000352E+00 0.  1.
</event>
<event>
 5   0  0.1880301E-06  0.3268936E+04  0.7818609E-02  0.8170845E-01
        2   -1    0    0  501    0  0.00000000000E+00  0.00000000000E+00  0.16340207488E+04  0.16340207488E+04  0.25500000920E-02 0. -1.
       -2   -1    0    0    0  501  0.00000000000E+00  0.00000000000E+00 -0.16349153933E+04  0.16349153933E+04  0.25500000920E-02 0.  1.
    10030    2    1    2    0    0  0.00000000000E+00  0.00000000000E+00 -0.89464456807E+00  0.32689361421E+04  0.32689360197E+04 0.  0.
        4    1    3    3  502    0  0.11154645105E+04 -0.67388383961E+03  0.98601282985E+03  0.16341980960E+04  0.12699999809E+01 0. -1.
       -4    1    3    3    0  502 -0.11154645105E+04  0.67388383961E+03 -0.98690747442E+03  0.16347380461E+04  0.12699999809E+01 0.  1.
</event>
<event>
 5   0  0.1880301E-06  0.3374054E+04  0.7818609E-02  0.8144304E-01
       -2   -1    0    0    0  501  0.00000000000E+00  0.00000000000E+00  0.11715464604E+04  0.11715464604E+04  0.25500000920E-02 0. -1.
        2   -1    0    0  501    0  0.00000000000E+00  0.00000000000E+00 -0.24293193751E+04  0.24293193751E+04  0.25500000920E-02 0.  1.
    10030    2    1    2    0    0  0.00000000000E+00  0.00000000000E+00 -0.12577729147E+04  0.36008658355E+04  0.33740542467E+04 0.  0.
        4    1    3    3  502    0 -0.39831439064E+03  0.15970692879E+04 -0.23419563192E+03  0.16625684561E+04  0.12699999809E+01 0.  1.
       -4    1    3    3    0  502  0.39831439064E+03 -0.15970692879E+04 -0.10235772828E+04  0.19382973794E+04  0.12699999809E+01 0. -1.
</event>
<event>
 5   0  0.6134625E-07  0.2708299E+04  0.7818609E-02  0.8332317E-01
        1   -1    0    0  501    0  0.00000000000E+00  0.00000000000E+00  0.20834117475E+04  0.20834117475E+04  0.50400001928E-02 0. -1.
       -1   -1    0    0    0  501  0.00000000000E+00  0.00000000000E+00 -0.88015298028E+03  0.88015298029E+03  0.50400001928E-02 0.  1.
    10030    2    1    2    0    0  0.00000000000E+00  0.00000000000E+00  0.12032587672E+04  0.29635647278E+04  0.27082991406E+04 0.  0.
        1    1    3    3  502    0  0.86779700058E+03  0.10388063063E+04  0.64444367047E+03  0.14991657082E+04  0.50400001928E-02 0.  1.
       -1    1    3    3    0  502 -0.86779700058E+03 -0.10388063063E+04  0.55881509676E+03  0.14643990196E+04  0.50400001928E-02 0. -1.
</event>
<event>
 5   0  0.6134625E-07  0.3345023E+04  0.7818609E-02  0.8151533E-01
        1   -1    0    0  501    0  0.00000000000E+00  0.00000000000E+00  0.17821817710E+04  0.17821817710E+04  0.50400001928E-02 0.  1.
       -1   -1    0    0    0  501  0.00000000000E+00  0.00000000000E+00 -0.15695899743E+04  0.15695899743E+04  0.50400001928E-02 0. -1.
    10030    2    1    2    0    0  0.00000000000E+00  0.00000000000E+00  0.21259179666E+03  0.33517717453E+04  0.33450229536E+04 0.  0.
        3    1    3    3  502    0 -0.91675597520E+03  0.99184046436E+03  0.10947472973E+04  0.17385800758E+04  0.10100000352E+00 0.  1.
       -3    1    3    3    0  502  0.91675597520E+03 -0.99184046436E+03 -0.88215550067E+03  0.16131916694E+04  0.10100000352E+00 0. -1.
</event>
<event>
 5   0  0.6134625E-07  0.2780724E+04  0.7818609E-02  0.8309278E-01
        1   -1    0    0  501    0  0.00000000000E+00  0.00000000000E+00  0.14201653389E+04  0.14201653389E+04  0.50400001928E-02 0.  1.
       -1   -1    0    0    0  501  0.00000000000E+00  0.00000000000E+00 -0.13611839865E+04  0.13611839865E+04  0.50400001928E-02 0. -1.
    10030    2    1    2    0    0  0.00000000000E+00  0.00000000000E+00  0.58981352379E+02  0.27813493254E+04  0.27807238752E+04 0.  0.
        1    1    3    3  502    0 -0.23864887371E+03  0.90707701960E+03  0.10560569036E+04  0.14124440477E+04  0.50400001928E-02 0.  1.
       -1    1    3    3    0  502  0.23864887371E+03 -0.90707701960E+03 -0.99707555119E+03  0.13689052777E+04  0.50400001928E-02 0. -1.
</event>
<event>
 5   0  0.1911477E-06  0.3404054E+04  0.7818609E-02  0.8136912E-01
        2   -1    0    0  501    0  0.00000000000E+00  0.00000000000E+00  0.89338705023E+03  0.89338705023E+03  0.25500000920E-02 0. -1.
       -2   -1    0    0    0  501  0.00000000000E+00  0.00000000000E+00 -0.32425981218E+04  0.32425981218E+04  0.25500000920E-02 0.  1.
    10030    2    1    2    0    0  0.00000000000E+00  0.00000000000E+00 -0.23492110716E+04  0.41359851721E+04  0.34040535666E+04 0.  0.
        5    1    3    3  502    0  0.14455166810E+04 -0.45884993889E+03 -0.23596107705E+03  0.15348490028E+04  0.46999998093E+01 0. -1.
       -5    1    3    3    0  502 -0.14455166810E+04  0.45884993889E+03 -0.21132499945E+04  0.26011361693E+04  0.46999998093E+01 0.  1.
</event>
<event>
 5   0  0.1339844E-06  0.2722389E+04  0.7818609E-02  0.8327777E-01
        2   -1    0    0  501    0  0.00000000000E+00  0.00000000000E+00  0.24172089804E+04  0.24172089804E+04  0.25500000920E-02 0.  1.
       -2   -1    0    0    0  501  0.00000000000E+00  0.00000000000E+00 -0.76652470302E+03  0.76652470303E+03  0.25500000920E-02 0. -1.
    10030    2    1    2    0    0  0.00000000000E+00  0.00000000000E+00  0.16506842774E+04  0.31837336835E+04  0.27223889479E+04 0.  0.
        3    1    3    3  502    0  0.53320154937E+03 -0.10825512433E+04  0.15618526604E+04  0.19737286616E+04  0.10100000352E+00 0.  1.
       -3    1    3    3    0  502 -0.53320154937E+03  0.10825512433E+04  0.88831617012E+02  0.12100050219E+04  0.10100000352E+00 0. -1.
</event>
<event>
 5   0  0.1339844E-06  0.3285432E+04  0.7818609E-02  0.8166612E-01
       -2   -1    0    0    0  501  0.00000000000E+00  0.00000000000E+00  0.10662337085E+04  0.10662337085E+04  0.25500000920E-02 0.  1.
        2   -1    0    0  501    0  0.00000000000E+00  0.00000000000E+00 -0.25308860083E+04  0.25308860083E+04  0.25500000920E-02 0. -1.
    10030    2    1    2    0    0  0.00000000000E+00  0.00000000000E+00 -0.14646522998E+04  0.35971197168E+04  0.32854320717E+04 0.  0.
        3    1    3    3  502    0 -0.27747635320E+03  0.11442573775E+04 -0.19865124931E+04  0.23092314670E+04  0.10100000352E+00 0. -1.
       -3    1    3    3    0  502  0.27747635320E+03 -0.11442573775E+04  0.52186019327E+03  0.12878882498E+04  0.10100000352E+00 0.  1.
</event>
<event>
 5   0  0.6134625E-07  0.3272423E+04  0.7818609E-02  0.8169948E-01
       -1   -1    0    0    0  501  0.00000000000E+00  0.00000000000E+00  0.19540200037E+04  0.19540200037E+04  0.50400001928E-02 0. -1.
        1   -1    0    0  501    0  0.00000000000E+00  0.00000000000E+00 -0.13700927845E+04  0.13700927845E+04  0.50400001928E-02 0.  1.
    10030    2    1    2    0    0  0.00000000000E+00  0.00000000000E+00  0.58392721926E+03  0.33241127882E+04  0.32724233881E+04 0.  0.
        5    1    3    3  502    0 -0.53130618283E+03  0.15055371860E+04  0.65572354800E+03  0.17259559495E+04  0.46999998093E+01 0. -1.
       -5    1    3    3    0  502  0.53130618283E+03 -0.15055371860E+04 -0.71796328736E+02  0.15981568387E+04  0.46999998093E+01 0.  1.
</event>
<event>
 5   0  0.6134625E-07  0.2608853E+04  0.7818609E-02  0.8365200E-01
        1   -1    0    0  501    0  0.00000000000E+00  0.00000000000E+00  0.15047852221E+04  0.15047852222E+04  0.50400001928E-02 0.  1.
       -1   -1    0    0    0  501  0.00000000000E+00  0.00000000000E+00 -0.11307452924E+04  0.11307452924E+04  0.50400001928E-02 0. -1.
    10030    2    1    2    0    0  0.00000000000E+00  0.00000000000E+00  0.37403992979E+03  0.26355305145E+04  0.26088532392E+04 0.  0.
        3    1    3    3  502    0 -0.83354588679E+03  0.24075244504E+03 -0.79698770958E+03  0.11781128573E+04  0.10100000352E+00 0. -1.
       -3    1    3    3    0  502  0.83354588679E+03 -0.24075244504E+03  0.11710276394E+04  0.14574176572E+04  0.10100000352E+00 0.  1.
</event>
<event>
 5   0  0.1797075E-06  0.2947683E+04  0.7818609E-02  0.8258830E-01
        2   -1    0    0  501    0  0.00000000000E+00  0.00000000000E+00  0.18231981434E+04  0.18231981434E+04  0.25500000920E-02 0.  1.
       -2   -1    0    0    0  501  0.00000000000E+00  0.00000000000E+00 -0.11914279461E+04  0.11914279461E+04  0.25500000920E-02 0. -1.
    10030    2    1    2    0    0  0.00000000000E+00  0.00000000000E+00  0.63177019726E+03  0.30146260895E+04  0.29476833068E+04 0.  0.
        2    1    3    3  502    0 -0.47516705545E+01 -0.36979680314E+02  0.18227157742E+04  0.18230970541E+04  0.25500000920E-02 0.  1.
       -2    1    3    3    0  502  0.47516705545E+01  0.36979680314E+02 -0.11909455769E+04  0.11915290354E+04  0.25500000920E-02 0. -1.
</event>
<event>
 5   0  0.1948507E-06  0.3117325E+04  0.7818609E-02  0.8210999E-01
        2   -1    0    0  501    0  0.00000000000E+00  0.00000000000E+00  0.29169682912E+04  0.29169682912E+04  0.25500000920E-02 0.  1.
       -2   -1    0    0    0  501  0.00000000000E+00  0.00000000000E+00 -0.83286062403E+03  0.83286062403E+03  0.25500000920E-02 0. -1.
    10030    2    1    2    0    0  0.00000000000E+00  0.00000000000E+00  0.20841076672E+04  0.37498289152E+04  0.31173245139E+04 0.  0.
        1    1    3    3  502    0  0.37296439305E+03 -0.14913731143E+04  0.73271481884E+03  0.17029877306E+04  0.50400001928E-02 0.  1.
       -1    1    3    3    0  502 -0.37296439305E+03  0.14913731143E+04  0.13513928483E+04  0.20468411847E+04  0.50400001928E-02 0. -1.
</event>
<event>
 5   0  0.1880301E-06  0.3265313E+04  0.7818609E-02  0.8171778E-01
       -2   -1    0    0    0  501  0.00000000000E+00  0.00000000000E+00  0.13689511267E+04  0.13689511267E+04  0.25500000920E-02 0.  1.
        2   -1    0    0  501    0  0.00000000000E+00  0.00000000000E+00 -0.19471596885E+04  0.19471596885E+04  0.25500000920E-02 0. -1.
    10030    2    1    2    0    0  0.00000000000E+00  0.00000000000E+00 -0.57820856173E+03  0.33161108152E+04  0.32653125115E+04 0.  0.
        4    1    3    3  502    0  0.14029685260E+04  0.49720621494E+03  0.39217483950E+03  0.15392652217E+04  0.12699999809E+01 0.  1.
       -4    1    3    3    0  502 -0.14029685260E+04 -0.49720621494E+03 -0.97038340124E+03  0.17768455936E+04  0.12699999809E+01 0. -1.
</event>
<event>
 5   0  0.6134625E-07  0.3386489E+04  0.7818609E-02  0.8141230E-01
        1   -1    0    0  501    0  0.00000000000E+00  0.00000000000E+00  0.21927791386E+04  0.21927791386E+04  0.50400001928E-02 0.  1.
       -1   -1    0    0    0  501  0.00000000000E+00  0.00000000000E+00 -0.13075081621E+04  0.13075081621E+04  0.50400001928E-02 0. -1.
    10030    2    1    2    0    0  0.00000000000E+00  0.00000000000E+00  0.88527097648E+03  0.35002873007E+04  0.33864888138E+04 0.  0.
        5    1    3    3  502    0  0.47389966267E+03  0.15684439753E+04  0.88413931833E+03  0.18618060635E+04  0.46999998093E+01 0.  1.
       -5    1    3    3    0  502 -0.47389966267E+03 -0.15684439753E+04  0.11316581489E+01  0.16384812372E+04  0.46999998093E+01 0. -1.
</event>
<event>
 5   0  0.6134625E-07  0.3142821E+04  0.7818609E-02  0.8204083E-01
        1   -1    0    0  501    0  0.00000000000E+00  0.00000000000E+00  0.15107866516E+04  0.15107866516E+04  0.50400001928E-02 0.  1.
       -1   -1    0    0    0  501  0.00000000000E+00  0.00000000000E+00 -0.16344668361E+04  0.16344668361E+04  0.50400001928E-02 0. -1.
    10030    2    1    2    0    0  0.00000000000E+00  0.00000000000E+00 -0.12368018444E+03  0.31452534877E+04  0.31428208212E+04 0.  0.
        5    1    3    3  502    0 -0.91228983765E+03 -0.11999095759E+04  0.38263525179E+03  0.15551487273E+04  0.46999998093E+01 0.  1.
       -5    1    3    3    0  502  0.91228983765E+03  0.11999095759E+04 -0.50631543623E+03  0.15901047604E+04  0.46999998093E+01 0. -1.
</event>
<event>
 5   0  0.1948507E-06  0.3401209E+04  0.7818609E-02  0.8137610E-01
        2   -1    0    0  501    0  0.00000000000E+00  0.00000000000E+00  0.18051407346E+04  0.18051407346E+04  0.25500000920E-02 0.  1.
       -2   -1    0    0    0  501  0.00000000000E+00  0.00000000000E+00 -0.16021220388E+04  0.16021220388E+04  0.25500000920E-02 0. -1.
    10030    2    1    2    0    0  0.00000000000E+00  0.00000000000E+00  0.20301869576E+03  0.34072627734E+04  0.34012090522E+04 0.  0.
        1    1    3    3  502    0 -0.42629627717E+03  0.80333407637E+03  0.15410714178E+04  0.17894064013E+04  0.50400001928E-02 0.  1.
       -1    1    3    3    0  502  0.42629627717E+03 -0.80333407637E+03 -0.13380527220E+04  0.16178563722E+04  0.50400001928E-02 0. -1.
</event>
<event>
 5   0  0.1339844E-06  0.3289664E+04  0.7818609E-02  0.8165530E-01
       -2   -1    0    0    0  501  0.00000000000E+00  0.00000000000E+00  0.97180850472E+03  0.97180850473E+03  0.25500000920E-02 0.  1.
        2   -1    0    0  501    0  0.00000000000E+00  0.00000000000E+00 -0.27839558270E+04  0.27839558270E+04  0.25500000920E-02 0. -1.
    10030    2    1    2    0    0  0.00000000000E+00  0.00000000000E+00 -0.18121473223E+04  0.37557643317E+04  0.32896637819E+04 0.  0.
        3    1    3    3  502    0  0.11132754233E+04 -0.10579719349E+03 -0.22831654948E+04  0.25423256875E+04  0.10100000352E+00 0. -1.
       -3    1    3    3    0  502 -0.11132754233E+04  0.10579719349E+03  0.47101817254E+03  0.12134386442E+04  0.10100000352E+00 0.  1.
</event>
<event>
 5   0  0.6146388E-07  0.3191436E+04  0.7818609E-02  0.8191083E-01
       -1   -1    0    0    0  501  0.00000000000E+00  0.00000000000E+00  0.12247521839E+04  0.12247521840E+04  0.50400001928E-02 0. -1.
        1   -1    0    0  501    0  0.00000000000E+00  0.00000000000E+00 -0.20790453480E+04  0.20790453480E+04  0.50400001928E-02 0.  1.
    10030    2    1    2    0    0  0.00000000000E+00  0.00000000000E+00 -0.85429316409E+03  0.33037975320E+04  0.31914356209E+04 0.  0.
        4    1    3    3  502    0 -0.57252986770E+03 -0.22561303803E+03  0.10969732492E+04  0.12577931525E+04  0.12699999809E+01 0. -1.
       -4    1    3    3    0  502  0.57252986770E+03  0.22561303803E+03 -0.19512664132E+04  0.20460043794E+04  0.12699999809E+01 0.  1.
</event>
<event>
 5   0  0.6134625E-07  0.3317256E+04  0.7818609E-02  0.8158519E-01
       -3   -1    0    0    0  501  0.00000000000E+00  0.00000000000E+00  0.22839443814E+04  0.22839443836E+04  0.10100000352E+00 0.  1.
        3   -1    0    0  501    0  0.00000000000E+00  0.00000000000E+00 -0.12045154843E+04  0.12045154885E+04  0.10100000352E+00 0. -1.
    10030    2    1    2    0    0  0.00000000000E+00  0.00000000000E+00  0.10794288971E+04  0.34884598722E+04  0.33172557236E+04 0.  0.
        5    1    3    3  502    0 -0.18697070492E+03  0.14618880262E+04 -0.26044249224E+03  0.14966385761E+04  0.46999998093E+01 0. -1.
       -5    1    3    3    0  502  0.18697070492E+03 -0.14618880262E+04  0.13398713893E+04  0.19918212961E+04  0.46999998093E+01 0.  1.
</event>
<event>
 5   0  0.1911477E-06  0.3392459E+04  0.7818609E-02  0.8139760E-01
        2   -1    0    0  501    0  0.00000000000E+00  0.00000000000E+00  0.20917768203E+04  0.20917768203E+04  0.25500000920E-02 0. -1.
       -2   -1    0    0    0  501  0.00000000000E+00  0.00000000000E+00 -0.13754785787E+04  0.13754785787E+04  0.25500000920E-02 0.  1.
    10030    2    1    2    0    0  0.00000000000E+00  0.00000000000E+00  0.71629824164E+03  0.34672553990E+04  0.33924588179E+04 0.  0.
        5    1    3    3  502    0  0.21631531958E+03 -0.98057292053E+03  0.17553512282E+04  0.20222748563E+04  0.46999998093E+01 0. -1.
       -5    1    3    3    0  502 -0.21631531958E+03  0.98057292053E+03 -0.10390529866E+04  0.14449805427E+04  0.46999998093E+01 0.  1.
</event>
<event>
 5   0  0.1797075E-06  0.3230260E+04  0.7818609E-02  0.8180871E-01
        2   -1    0    0  501    0  0.00000000000E+00  0.00000000000E+00  0.22817160051E+04  0.22817160051E+04  0.25500000920E-02 0.  1.
       -2   -1    0    0    0  501  0.00000000000E+00  0.00000000000E+00 -0.11432820555E+04  0.11432820555E+04  0.25500000920E-02 0. -1.
    10030    2    1    2    0    0  0.00000000000E+00  0.00000000000E+00  0.11384339496E+04  0.34249980606E+04  0.32302600294E+04 0.  0.
        2    1    3    3  502    0 -0.52501415524E+03  0.13021363013E+04  0.14157513514E+04  0.19938783061E+04  0.25500000920E-02 0.  1.
       -2    1    3    3    0  502  0.52501415524E+03 -0.13021363013E+04 -0.27731740180E+03  0.14311197545E+04  0.25500000920E-02 0. -1.
</event>
<event>
 5   0  0.1797075E-06  0.3332598E+04  0.7818609E-02  0.8154650E-01
        2   -1    0    0  501    0  0.00000000000E+00  0.00000000000E+00  0.23484756540E+04  0.23484756540E+04  0.25500000920E-02 0.  1.
       -2   -1    0    0    0  501  0.00000000000E+00  0.00000000000E+00 -0.11822783871E+04  0.11822783871E+04  0.25500000920E-02 0. -1.
    10030    2    1    2    0    0  0.00000000000E+00  0.00000000000E+00  0.11661972669E+04  0.35307540411E+04  0.33325977905E+04 0.  0.
        2    1    3    3  502    0 -0.14476501715E+04  0.58348557694E+03  0.12012330032E+04  0.19695449134E+04  0.25500000920E-02 0.  1.
       -2    1    3    3    0  502  0.14476501715E+04 -0.58348557694E+03 -0.35035736330E+02  0.15612091277E+04  0.25500000920E-02 0. -1.
</event>
<event>
 5   0  0.6134625E-07  0.3396603E+04  0.7818609E-02  0.8138741E-01
        1   -1    0    0  501    0  0.00000000000E+00  0.00000000000E+00  0.16081299610E+04  0.16081299610E+04  0.50400001928E-02 0.  1.
       -1   -1    0    0    0  501  0.00000000000E+00  0.00000000000E+00 -0.17935292651E+04  0.17935292651E+04  0.50400001928E-02 0. -1.
    10030    2    1    2    0    0  0.00000000000E+00  0.00000000000E+00 -0.18539930408E+03  0.34016592261E+04  0.33966030955E+04 0.  0.
        3    1    3    3  502    0 -0.95329211433E+03  0.13944231115E+04  0.83762715787E+02  0.16912119535E+04  0.10100000352E+00 0.  1.
       -3    1    3    3    0  502  0.95329211433E+03 -0.13944231115E+04 -0.26916201987E+03  0.17104472725E+04  0.10100000352E+00 0. -1.
</event>
<event>
 5   0  0.6218695E-07  0.3306816E+04  0.7818609E-02  0.8161163E-01
       -1   -1    0    0    0  501  0.00000000000E+00  0.00000000000E+00  0.13709711011E+04  0.13709711011E+04  0.50400001928E-02 0.  1.
        1   -1    0    0  501    0  0.00000000000E+00  0.00000000000E+00 -0.19940309105E+04  0.19940309105E+04  0.50400001928E-02 0. -1.
    10030    2    1    2    0    0  0.00000000000E+00  0.00000000000E+00 -0.62305980938E+03  0.33650020117E+04  0.33068164467E+04 0.  0.
        2    1    3    3  502    0  0.62534203789E+03 -0.22166188848E+03 -0.18526320938E+04  0.19678496722E+04  0.25500000920E-02 0. -1.
       -2    1    3    3    0  502 -0.62534203789E+03  0.22166188848E+03  0.12295722844E+04  0.13971523395E+04  0.25500000920E-02 0.  1.
</event>
<event>
 5   0  0.1948507E-06  0.3414800E+04  0.7818609E-02  0.8134283E-01
        2   -1    0    0  501    0  0.00000000000E+00  0.00000000000E+00  0.24550844985E+04  0.24550844985E+04  0.25500000920E-02 0. -1.
       -2   -1    0    0    0  501  0.00000000000E+00  0.00000000000E+00 -0.11874192273E+04  0.11874192273E+04  0.25500000920E-02 0.  1.
    10030    2    1    2    0    0  0.00000000000E+00  0.00000000000E+00  0.12676652711E+04  0.36425037258E+04  0.34147998701E+04 0.  0.
        1    1    3    3  502    0  0.87447868122E+03  0.13066540665E+04  0.13439226745E+04  0.20683776175E+04  0.50400001928E-02 0. -1.
       -1    1    3    3    0  502 -0.87447868122E+03 -0.13066540665E+04 -0.76257403412E+02  0.15741261083E+04  0.50400001928E-02 0.  1.
</event>
<event>
 5   0  0.1911477E-06  0.3411724E+04  0.7818609E-02  0.8135035E-01
       -2   -1    0    0    0  501  0.00000000000E+00  0.00000000000E+00  0.18426300978E+04  0.18426300978E+04  0.25500000920E-02 0. -1.
        2   -1    0    0  501    0  0.00000000000E+00  0.00000000000E+00 -0.15792457719E+04  0.15792457719E+04  0.25500000920E-02 0.  1.
    10030    2    1    2    0    0  0.00000000000E+00  0.00000000000E+00  0.26338432589E+03  0.34218758698E+04  0.34117243682E+04 0.  0.
        5    1    3    3  502    0 -0.13419351692E+04 -0.14988199539E+02 -0.92449818756E+03  0.16296421795E+04  0.46999998093E+01 0.  1.
       -5    1    3    3    0  502  0.13419351692E+04  0.14988199539E+02  0.11878825135E+04  0.17922336902E+04  0.46999998093E+01 0. -1.
</event>
<event>
 5   0  0.6134625E-07  0.3166377E+04  0.7818609E-02  0.8197754E-01
        1   -1    0    0  501    0  0.00000000000E+00  0.00000000000E+00  0.13522975220E+04  0.13522975220E+04  0.50400001928E-02 0.  1.
       -1   -1    0    0    0  501  0.00000000000E+00  0.00000000000E+00 -0.18535013628E+04  0.18535013628E+04  0.50400001928E-02 0. -1.
    10030    2    1    2    0    0  0.00000000000E+00  0.00000000000E+00 -0.50120384087E+03  0.32057988848E+04  0.31663766674E+04 0.  0.
        3    1    3    3  502    0  0.65441230451E+03 -0.70035296696E+03 -0.15263437069E+04  0.18023525916E+04  0.10100000352E+00 0. -1.
       -3    1    3    3    0  502 -0.65441230451E+03  0.70035296696E+03  0.10251398661E+04  0.14034462932E+04  0.10100000352E+00 0.  1.
</event>
<event>
 5   0  0.1339844E-06  0.3373332E+04  0.7818609E-02  0.8144483E-01
        2   -1    0    0  501    0  0.00000000000E+00  0.00000000000E+00  0.20970448309E+04  0.20970448309E+04  0.25500000920E-02 0. -1.
       -2   -1    0    0    0  501  0.00000000000E+00  0.00000000000E+00 -0.13565961422E+04  0.13565961422E+04  0.25500000920E-02 0.  1.
    10030    2    1    2    0    0  0.00000000000E+00  0.00000000000E+00  0.74044868868E+03  0.34536409730E+04  0.33733324340E+04 0.  0.
        3    1    3    3  502    0  0.65386088869E+03  0.10805513297E+04  0.15147459696E+04  0.19722019674E+04  0.10100000352E+00 0. -1.
       -3    1    3    3    0  502 -0.65386088869E+03 -0.10805513297E+04 -0.77429728087E+03  0.14814390056E+04  0.10100000352E+00 0.  1.
</event>
<event>
 5   0  0.1911477E-06  0.3380882E+04  0.7818609E-02  0.8142615E-01
        2   -1    0    0  501    0  0.00000000000E+00  0.00000000000E+00  0.23905582378E+04  0.23905582378E+04  0.25500000920E-02 0. -1.
       -2   -1    0    0    0  501  0.00000000000E+00  0.00000000000E+00 -0.11953654289E+04  0.11953654289E+04  0.25500000920E-02 0.  1.
    10030    2    1    2    0    0  0.00000000000E+00  0.00000000000E+00  0.11951928089E+04  0.35859236667E+04  0.33808819401E+04 0.  0.
        5    1    3    3  502    0  0.41565987857E+03  0.88893571708E+03 -0.86232175570E+03  0.13063692985E+04  0.46999998093E+01 0.  1.
       -5    1    3    3    0  502 -0.41565987857E+03 -0.88893571708E+03  0.20575145646E+04  0.22795543682E+04  0.46999998093E+01 0. -1.
</event>
<event>
 5   0  0.6134625E-07  0.3428457E+04  0.7818609E-02  0.8130957E-01
       -1   -1    0    0    0  501  0.00000000000E+00  0.00000000000E+00  0.14557711014E+04  0.14557711014E+04  0.50400001928E-02 0. -1.
        1   -1    0    0  501    0  0.00000000000E+00  0.00000000000E+00 -0.20185725178E+04  0.20185725178E+04  0.50400001928E-02 0.  1.
    10030    2    1    2    0    0  0.00000000000E+00  0.00000000000E+00 -0.56280141639E+03  0.34743436193E+04  0.34284571093E+04 0.  0.
        1    1    3    3  502    0 -0.12222275660E+04 -0.45974303171E+03  0.84403770614E+03  0.15548644725E+04  0.50400001928E-02 0. -1.
       -1    1    3    3    0  502  0.12222275660E+04  0.45974303171E+03 -0.14068391225E+04  0.19194791468E+04  0.50400001928E-02 0.  1.
</event>
<event>
 5   0  0.6134625E-07  0.3501663E+04  0.7818609E-02  0.8113396E-01
        1   -1    0    0  501    0  0.00000000000E+00  0.00000000000E+00  0.26249298985E+04  0.26249298985E+04  0.50400001928E-02 0. -1.
       -1   -1    0    0    0  501  0.00000000000E+00  0.00000000000E+00 -0.11678066446E+04  0.11678066446E+04  0.50400001928E-02 0.  1.
    10030    2    1    2    0    0  0.00000000000E+00  0.00000000000E+00  0.14571232540E+04  0.37927365431E+04  0.35016627919E+04 0.  0.
        3    1    3    3  502    0 -0.13802902572E+04 -0.95299300301E+03  0.18482268528E+03  0.16874703829E+04  0.10100000352E+00 0. -1.
       -3    1    3    3    0  502  0.13802902572E+04  0.95299300301E+03  0.12723005687E+04  0.21052661602E+04  0.10100000352E+00 0.  1.
</event>
<event>
 5   0  0.1797075E-06  0.3410369E+04  0.7818609E-02  0.8135366E-01
       -2   -1    0    0    0  501  0.00000000000E+00  0.00000000000E+00  0.11634275836E+04  0.11634275837E+04  0.25500000920E-02 0. -1.
        2   -1    0    0  501    0  0.00000000000E+00  0.00000000000E+00 -0.24992132095E+04  0.24992132095E+04  0.25500000920E-02 0.  1.
    10030    2    1    2    0    0  0.00000000000E+00  0.00000000000E+00 -0.13357856258E+04  0.36626407931E+04  0.34103686518E+04 0.  0.
        2    1    3    3  502    0  0.16900736211E+04  0.17513219417E+03 -0.51362370023E+03  0.17750575865E+04  0.25500000920E-02 0. -1.
       -2    1    3    3    0  502 -0.16900736211E+04 -0.17513219417E+03 -0.82216192562E+03  0.18875832066E+04  0.25500000920E-02 0.  1.
</event>
<event>
 5   0  0.1948507E-06  0.3414376E+04  0.7818609E-02  0.8134387E-01
       -2   -1    0    0    0  501  0.00000000000E+00  0.00000000000E+00  0.14437130881E+04  0.14437130881E+04  0.25500000920E-02 0. -1.
        2   -1    0    0  501    0  0.00000000000E+00  0.00000000000E+00 -0.20187463811E+04  0.20187463811E+04  0.25500000920E-02 0.  1.
    10030    2    1    2    0    0  0.00000000000E+00  0.00000000000E+00 -0.57503329295E+03  0.34624594692E+04  0.34143758270E+04 0.  0.
        1    1    3    3  502    0  0.10709132666E+03 -0.91546209616E+03  0.11697139072E+04  0.14892179244E+04  0.50400001928E-02 0.  1.
       -1    1    3    3    0  502 -0.10709132666E+03  0.91546209616E+03 -0.17447472001E+04  0.19732415448E+04  0.50400001928E-02 0. -1.
</event>
<event>
 5   0  0.6134625E-07  0.2929994E+04  0.7818609E-02  0.8264009E-01
       -1   -1    0    0    0  501  0.00000000000E+00  0.00000000000E+00  0.19675949823E+04  0.19675949823E+04  0.50400001928E-02 0.  1.
        1   -1    0    0  501    0  0.00000000000E+00  0.00000000000E+00 -0.10907815015E+04  0.10907815015E+04  0.50400001928E-02 0. -1.
    10030    2    1    2    0    0  0.00000000000E+00  0.00000000000E+00  0.87681348076E+03  0.30583764838E+04  0.29299939994E+04 0.  0.
        1    1    3    3  502    0  0.11362705447E+04 -0.91771930550E+03  0.55694651466E+03  0.15631727015E+04  0.50400001928E-02 0. -1.
       -1    1    3    3    0  502 -0.11362705447E+04  0.91771930550E+03  0.31986696610E+03  0.14952037823E+04  0.50400001928E-02 0.  1.
</event>
<event>
 5   0  0.1948507E-06  0.3380538E+04  0.7818609E-02  0.8142699E-01
       -2   -1    0    0    0  501  0.00000000000E+00  0.00000000000E+00  0.17938698058E+04  0.17938698058E+04  0.25500000920E-02 0. -1.
        2   -1    0    0  501    0  0.00000000000E+00  0.00000000000E+00 -0.15926515247E+04  0.15926515247E+04  0.25500000920E-02 0.  1.
    10030    2    1    2    0    0  0.00000000000E+00  0.00000000000E+00  0.20121828111E+03  0.33865213305E+04  0.33805381118E+04 0.  0.
        1    1    3    3  502    0  0.18272838855E+03  0.22750620990E+03  0.17684464421E+04  0.17923592157E+04  0.50400001928E-02 0. -1.
       -1    1    3    3    0  502 -0.18272838855E+03 -0.22750620990E+03 -0.15672281610E+04  0.15941621148E+04  0.50400001928E-02 0.  1.
</event>
<event>
 5   0  0.1948507E-06  0.3265374E+04  0.7818609E-02  0.8171762E-01
       -2   -1    0    0    0  501  0.00000000000E+00  0.00000000000E+00  0.29185256922E+04  0.29185256922E+04  0.25500000920E-02 0.  1.
        2   -1    0    0  501    0  0.00000000000E+00  0.00000000000E+00 -0.91336097960E+03  0.91336097960E+03  0.25500000920E-02 0. -1.
    10030    2    1    2    0    0  0.00000000000E+00  0.00000000000E+00  0.20051647126E+04  0.38318866718E+04  0.32653743952E+04 0.  0.
        1    1    3    3  502    0 -0.82894062947E+03 -0.56146144238E+03 -0.51085041927E+03  0.11239882870E+04  0.50400001928E-02 0. -1.
       -1    1    3    3    0  502  0.82894062947E+03  0.56146144238E+03  0.25160151319E+04  0.27078983848E+04  0.50400001928E-02 0.  1.
</event>
<event>
 5   0  0.1911477E-06  0.3362075E+04  0.7818609E-02  0.8147278E-01
       -2   -1    0    0    0  501  0.00000000000E+00  0.00000000000E+00  0.16957893025E+04  0.16957893025E+04  0.25500000920E-02 0.  1.
        2   -1    0    0  501    0  0.00000000000E+00  0.00000000000E+00 -0.16664139865E+04  0.16664139865E+04  0.25500000920E-02 0. -1.
    10030    2    1    2    0    0  0.00000000000E+00  0.00000000000E+00  0.29375315959E+02  0.33622032890E+04  0.33620749616E+04 0.  0.
        5    1    3    3  502    0 -0.61729959463E+03  0.13035078526E+04 -0.84886913526E+03  0.16735568141E+04  0.46999998093E+01 0. -1.
       -5    1    3    3    0  502  0.61729959463E+03 -0.13035078526E+04  0.87824445122E+03  0.16886464749E+04  0.46999998093E+01 0.  1.
</event>
<event>
 5   0  0.1948507E-06  0.3410866E+04  0.7818609E-02  0.8135245E-01
       -2   -1    0    0    0  501  0.00000000000E+00  0.00000000000E+00  0.16063946217E+04  0.16063946217E+04  0.25500000920E-02 0.  1.
        2   -1    0    0  501    0  0.00000000000E+00  0.00000000000E+00 -0.18105771076E+04  0.18105771076E+04  0.25500000920E-02 0. -1.
    10030    2    1    2    0    0  0.00000000000E+00  0.00000000000E+00 -0.20418248594E+03  0.34169717293E+04  0.34108657715E+04 0.  0.
        1    1    3    3  502    0  0.16883799234E+04  0.13181138032E+03 -0.30369842294E+03  0.17205329808E+04  0.50400001928E-02 0. -1.
       -1    1    3    3    0  502 -0.16883799234E+04 -0.13181138032E+03  0.99515936999E+02  0.16964387485E+04  0.50400001928E-02 0.  1.
</event>
<event>
 5   0  0.6146388E-07  0.3431378E+04  0.7818609E-02  0.8130248E-01
        1   -1    0    0  501    0  0.00000000000E+00  0.00000000000E+00  0.18183399962E+04  0.18183399962E+04  0.50400001928E-02 0. -1.
       -1   -1    0    0    0  501  0.00000000000E+00  0.00000000000E+00 -0.16188331633E+04  0.16188331633E+04  0.50400001928E-02 0.  1.
    10030    2    1    2    0    0  0.00000000000E+00  0.00000000000E+00  0.19950683290E+03  0.34371731595E+04  0.34313782000E+04 0.  0.
        4    1    3    3  502    0  0.15753436770E+04 -0.54844255264E+03 -0.30228526832E+03  0.16952506985E+04  0.12699999809E+01 0. -1.
       -4    1    3    3    0  502 -0.15753436770E+04  0.54844255264E+03  0.50179210122E+03  0.17419224610E+04  0.12699999809E+01 0.  1.
</event>
<event>
 5   0  0.6134625E-07  0.3336968E+04  0.7818609E-02  0.8153552E-01
       -1   -1    0    0    0  501  0.00000000000E+00  0.00000000000E+00  0.15393019676E+04  0.15393019677E+04  0.50400001928E-02 0.  1.
        1   -1    0    0  501    0  0.00000000000E+00  0.00000000000E+00 -0.18085068624E+04  0.18085068625E+04  0.50400001928E-02 0. -1.
    10030    2    1    2    0    0  0.00000000000E+00  0.00000000000E+00 -0.26920489480E+03  0.33478088301E+04  0.33369675886E+04 0.  0.
        1    1    3    3  502    0  0.61176845890E+03 -0.21590053932E+03 -0.16767902323E+04  0.17979152297E+04  0.50400001928E-02 0. -1.
       -1    1    3    3    0  502 -0.61176845890E+03  0.21590053932E+03  0.14075853375E+04  0.15498936004E+04  0.50400001928E-02 0.  1.
</event>
<event>
 5   0  0.6134625E-07  0.3379101E+04  0.7818609E-02  0.8143055E-01
       -1   -1    0    0    0  501  0.00000000000E+00  0.00000000000E+00  0.13818554128E+04  0.13818554128E+04  0.50400001928E-02 0.  1.
        1   -1    0    0  501    0  0.00000000000E+00  0.00000000000E+00 -0.20657589183E+04  0.20657589183E+04  0.50400001928E-02 0. -1.
    10030    2    1    2    0    0  0.00000000000E+00  0.00000000000E+00 -0.68390350556E+03  0.34476143311E+04  0.33791005565E+04 0.  0.
        1    1    3    3  502    0 -0.74450958039E+03  0.11473028491E+04  0.67011951185E+03  0.15230425152E+04  0.50400001928E-02 0.  1.
       -1    1    3    3    0  502  0.74450958039E+03 -0.11473028491E+04 -0.13540230174E+04  0.19245718159E+04  0.50400001928E-02 0. -1.
</event>
<event>
 5   0  0.1339844E-06  0.3390907E+04  0.7818609E-02  0.8140142E-01
       -2   -1    0    0    0  501  0.00000000000E+00  0.00000000000E+00  0.12378903178E+04  0.12378903178E+04  0.25500000920E-02 0.  1.
        2   -1    0    0  501    0  0.00000000000E+00  0.00000000000E+00 -0.23221459504E+04  0.23221459504E+04  0.25500000920E-02 0. -1.
    10030    2    1    2    0    0  0.00000000000E+00  0.00000000000E+00 -0.10842556327E+04  0.35600362682E+04  0.33909066566E+04 0.  0.
        3    1    3    3  502    0 -0.47950270451E+03 -0.97353308356E+03 -0.19097407187E+04  0.21965425403E+04  0.10100000352E+00 0. -1.
       -3    1    3    3    0  502  0.47950270451E+03  0.97353308356E+03  0.82548508606E+03  0.13634937279E+04  0.10100000352E+00 0.  1.
</event>
<event>
 5   0  0.1948507E-06  0.2440664E+04  0.7818609E-02  0.8424434E-01
        2   -1    0    0  501    0  0.00000000000E+00  0.00000000000E+00  0.13246386862E+04  0.13246386862E+04  0.25500000920E-02 0. -1.
       -2   -1    0    0    0  501  0.00000000000E+00  0.00000000000E+00 -0.11242390668E+04  0.11242390668E+04  0.25500000920E-02 0.  1.
    10030    2    1    2    0    0  0.00000000000E+00  0.00000000000E+00  0.20039961945E+03  0.24488777530E+04  0.24406643033E+04 0.  0.
        1    1    3    3  502    0  0.10914717045E+04  0.38707136063E+03  0.48630101719E+03  0.12560347922E+04  0.50400001928E-02 0. -1.
       -1    1    3    3    0  502 -0.10914717045E+04 -0.38707136063E+03 -0.28590139774E+03  0.11928429608E+04  0.50400001928E-02 0.  1.
</event>
<event>
 5   0  0.6134625E-07  0.3324535E+04  0.7818609E-02  0.8156680E-01
       -1   -1    0    0    0  501  0.00000000000E+00  0.00000000000E+00  0.15914062108E+04  0.15914062108E+04  0.50400001928E-02 0.  1.
        1   -1    0    0  501    0  0.00000000000E+00  0.00000000000E+00 -0.17362836808E+04  0.17362836809E+04  0.50400001928E-02 0. -1.
    10030    2    1    2    0    0  0.00000000000E+00  0.00000000000E+00 -0.14487747008E+03  0.33276898916E+04  0.33245346341E+04 0.  0.
        3    1    3    3  502    0 -0.14350121569E+03  0.12018596486E+04  0.10679728293E+04  0.16141949040E+04  0.10100000352E+00 0.  1.
       -3    1    3    3    0  502  0.14350121569E+03 -0.12018596486E+04 -0.12128502993E+04  0.17134949876E+04  0.10100000352E+00 0. -1.
</event>
<event>
 5   0  0.6134625E-07  0.3376399E+04  0.7818609E-02  0.8143723E-01
       -1   -1    0    0    0  501  0.00000000000E+00  0.00000000000E+00  0.12967515923E+04  0.12967515924E+04  0.50400001928E-02 0. -1.
        1   -1    0    0  501    0  0.00000000000E+00  0.00000000000E+00 -0.21978135231E+04  0.21978135231E+04  0.50400001928E-02 0.  1.
    10030    2    1    2    0    0  0.00000000000E+00  0.00000000000E+00 -0.90106193074E+03  0.34945651154E+04  0.33763993755E+04 0.  0.
        3    1    3    3  502    0  0.73428101829E+03 -0.29034855300E+02  0.11225313626E+04  0.13416736961E+04  0.10100000352E+00 0. -1.
       -3    1    3    3    0  502 -0.73428101829E+03  0.29034855300E+02 -0.20235932933E+04  0.21528914194E+04  0.10100000352E+00 0.  1.
</event>
<event>
 5   0  0.1948507E-06  0.3378235E+04  0.7818609E-02  0.8143269E-01
       -2   -1    0    0    0  501  0.00000000000E+00  0.00000000000E+00  0.19880694945E+04  0.19880694945E+04  0.25500000920E-02 0.  1.
        2   -1    0    0  501    0  0.00000000000E+00  0.00000000000E+00 -0.14351198215E+04  0.14351198215E+04  0.25500000920E-02 0. -1.
    10030    2    1    2    0    0  0.00000000000E+00  0.00000000000E+00  0.55294967304E+03  0.34231893160E+04  0.33782350055E+04 0.  0.
        1    1    3    3  502    0 -0.39913654090E+02 -0.54761973196E+03 -0.13421661958E+04  0.14501346723E+04  0.50400001928E-02 0. -1.
       -1    1    3    3    0  502  0.39913654090E+02  0.54761973196E+03  0.18951158688E+04  0.19730546437E+04  0.50400001928E-02 0.  1.
</event>
<event>
 5   0  0.6134625E-07  0.2799995E+04  0.7818609E-02  0.8303270E-01
        1   -1    0    0  501    0  0.00000000000E+00  0.00000000000E+00  0.16428263670E+04  0.16428263670E+04  0.50400001928E-02 0. -1.
       -1   -1    0    0    0  501  0.00000000000E+00  0.00000000000E+00 -0.11930619553E+04  0.11930619553E+04  0.50400001928E-02 0.  1.
    10030    2    1    2    0    0  0.00000000000E+00  0.00000000000E+00  0.44976441170E+03  0.28358883224E+04  0.27999954555E+04 0.  0.
        1    1    3    3  502    0  0.67049875504E+03 -0.12289622499E+04  0.21600366853E+03  0.14165360486E+04  0.50400001928E-02 0. -1.
       -1    1    3    3    0  502 -0.67049875504E+03  0.12289622499E+04  0.23376074316E+03  0.14193522738E+04  0.50400001928E-02 0.  1.
</event>
<event>
 5   0  0.6218695E-07  0.2952471E+04  0.7818609E-02  0.8257435E-01
        1   -1    0    0  501    0  0.00000000000E+00  0.00000000000E+00  0.16707260805E+04  0.16707260805E+04  0.50400001928E-02 0.  1.
       -1   -1    0    0    0  501  0.00000000000E+00  0.00000000000E+00 -0.13043855135E+04  0.13043855135E+04  0.50400001928E-02 0. -1.
    10030    2    1    2    0    0  0.00000000000E+00  0.00000000000E+00  0.36634056697E+03  0.29751115940E+04  0.29524707595E+04 0.  0.
        2    1    3    3  502    0  0.11110868245E+04 -0.84966420018E+03 -0.29249587606E+03  0.14289846123E+04  0.25500000920E-02 0. -1.
       -2    1    3    3    0  502 -0.11110868245E+04  0.84966420018E+03  0.65883644304E+03  0.15461269817E+04  0.25500000920E-02 0.  1.
</event>
<event>
 5   0  0.6146388E-07  0.3406808E+04  0.7818609E-02  0.8136238E-01
        1   -1    0    0  501    0  0.00000000000E+00  0.00000000000E+00  0.11301752214E+04  0.11301752215E+04  0.50400001928E-02 0. -1.
       -1   -1    0    0    0  501  0.00000000000E+00  0.00000000000E+00 -0.25673759488E+04  0.25673759488E+04  0.50400001928E-02 0.  1.
    10030    2    1    2    0    0  0.00000000000E+00  0.00000000000E+00 -0.14372007274E+04  0.36975511703E+04  0.34068077031E+04 0.  0.
        4    1    3    3  502    0  0.14249076021E+04  0.82761795434E+03 -0.25017766545E+03  0.16667044219E+04  0.12699999809E+01 0.  1.
       -4    1    3    3    0  502 -0.14249076021E+04 -0.82761795434E+03 -0.11870230619E+04  0.20308467483E+04  0.12699999809E+01 0. -1.
</event>
<event>
 5   0  0.6218695E-07  0.3228087E+04  0.7818609E-02  0.8181439E-01
        1   -1    0    0  501    0  0.00000000000E+00  0.00000000000E+00  0.18229832082E+04  0.18229832082E+04  0.50400001928E-02 0. -1.
       -1   -1    0    0    0  501  0.00000000000E+00  0.00000000000E+00 -0.14290508567E+04  0.14290508567E+04  0.50400001928E-02 0.  1.
    10030    2    1    2    0    0  0.00000000000E+00  0.00000000000E+00  0.39393235149E+03  0.32520340649E+04  0.32280865635E+04 0.  0.
        2    1    3    3  502    0  0.41965449470E+03  0.53319568985E+03 -0.12783871593E+04  0.14473013742E+04  0.25500000920E-02 0.  1.
       -2    1    3    3    0  502 -0.41965449470E+03 -0.53319568985E+03  0.16723195108E+04  0.18047326907E+04  0.25500000920E-02 0. -1.
</event>
<event>
 5   0  0.6146388E-07  0.3357530E+04  0.7818609E-02  0.8148409E-01
        1   -1    0    0  501    0  0.00000000000E+00  0.00000000000E+00  0.31014072592E+04  0.31014072592E+04  0.50400001928E-02 0.  1.
       -1   -1    0    0    0  501  0.00000000000E+00  0.00000000000E+00 -0.90870126549E+03  0.90870126550E+03  0.50400001928E-02 0. -1.
    10030    2    1    2    0    0  0.00000000000E+00  0.00000000000E+00  0.21927059937E+04  0.40101085247E+04  0.33575304622E+04 0.  0.
        4    1    3    3  502    0 -0.94848099805E+03  0.49057874919E+03  0.26434869624E+04  0.28510188786E+04  0.12699999809E+01 0.  1.
       -4    1    3    3    0  502  0.94848099805E+03 -0.49057874919E+03 -0.45078096877E+03  0.11590896460E+04  0.12699999809E+01 0. -1.
</event>
<event>
 5   0  0.6134625E-07  0.3379710E+04  0.7818609E-02  0.8142904E-01
        1   -1    0    0  501    0  0.00000000000E+00  0.00000000000E+00  0.18828168409E+04  0.18828168409E+04  0.50400001928E-02 0. -1.
       -1   -1    0    0    0  501  0.00000000000E+00  0.00000000000E+00 -0.15166687805E+04  0.15166687805E+04  0.50400001928E-02 0.  1.
    10030    2    1    2    0    0  0.00000000000E+00  0.00000000000E+00  0.36614806039E+03  0.33994856213E+04  0.33797097638E+04 0.  0.
        3    1    3    3  502    0 -0.17209809866E+03 -0.11751306913E+03 -0.15036947253E+04  0.15180661758E+04  0.10100000352E+00 0.  1.
       -3    1    3    3    0  502  0.17209809866E+03  0.11751306913E+03  0.18698427857E+04  0.18814194456E+04  0.10100000352E+00 0. -1.
</event>
<event>
 5   0  0.6146388E-07  0.3370948E+04  0.7818609E-02  0.8145074E-01
        1   -1    0    0  501    0  0.00000000000E+00  0.00000000000E+00  0.17121796048E+04  0.17121796048E+04  0.50400001928E-02 0.  1.
       -1   -1    0    0    0  501  0.00000000000E+00  0.00000000000E+00 -0.16591850743E+04  0.16591850743E+04  0.50400001928E-02 0. -1.
    10030    2    1    2    0    0  0.00000000000E+00  0.00000000000E+00  0.52994530538E+02  0.33713646792E+04  0.33709481425E+04 0.  0.
        4    1    3    3  502    0 -0.38556354986E+03  0.53012505487E+03  0.15794703218E+04  0.17100935457E+04  0.12699999809E+01 0.  1.
       -4    1    3    3    0  502  0.38556354986E+03 -0.53012505487E+03 -0.15264757912E+04  0.16612711335E+04  0.12699999809E+01 0. -1.
</event>
<event>
 5   0  0.1339844E-06  0.3382455E+04  0.7818609E-02  0.8142226E-01
       -2   -1    0    0    0  501  0.00000000000E+00  0.00000000000E+00  0.15759503512E+04  0.15759503512E+04  0.25500000920E-02 0. -1.
        2   -1    0    0  501    0  0.00000000000E+00  0.00000000000E+00 -0.18149374408E+04  0.18149374408E+04  0.25500000920E-02 0.  1.
    10030    2    1    2    0    0  0.00000000000E+00  0.00000000000E+00 -0.23898708961E+03  0.33908877920E+04  0.33824554970E+04 0.  0.
        3    1    3    3  502    0 -0.11612296610E+04 -0.38292257272E+03  0.10518229532E+04  0.16128904357E+04  0.10100000352E+00 0. -1.
       -3    1    3    3    0  502  0.11612296610E+04  0.38292257272E+03 -0.12908100428E+04  0.17779973564E+04  0.10100000352E+00 0.  1.
</event>
<event>
 5   0  0.6218695E-07  0.3436871E+04  0.7818609E-02  0.8128916E-01
        1   -1    0    0  501    0  0.00000000000E+00  0.00000000000E+00  0.20990065305E+04  0.20990065305E+04  0.50400001928E-02 0.  1.
       -1   -1    0    0    0  501  0.00000000000E+00  0.00000000000E+00 -0.14068657424E+04  0.14068657424E+04  0.50400001928E-02 0. -1.
    10030    2    1    2    0    0  0.00000000000E+00  0.00000000000E+00  0.69214078817E+03  0.35058722729E+04  0.34368708913E+04 0.  0.
        2    1    3    3  502    0  0.12252881105E+04  0.26363357381E+03  0.15453383705E+04  0.19896995487E+04  0.25500000920E-02 0.  1.
       -2    1    3    3    0  502 -0.12252881105E+04 -0.26363357381E+03 -0.85319758229E+03  0.15161727242E+04  0.25500000920E-02 0. -1.
</event>
<event>
 5   0  0.6134625E-07  0.3367349E+04  0.7818609E-02  0.8145967E-01
        1   -1    0    0  501    0  0.00000000000E+00  0.00000000000E+00  0.13675313985E+04  0.13675313985E+04  0.50400001928E-02 0.  1.
       -1   -1    0    0    0  501  0.00000000000E+00  0.00000000000E+00 -0.20729028509E+04  0.20729028509E+04  0.50400001928E-02 0. -1.
    10030    2    1    2    0    0  0.00000000000E+00  0.00000000000E+00 -0.70537145235E+03  0.34404342494E+04  0.33673489481E+04 0.  0.
        1    1    3    3  502    0  0.42842061426E+03 -0.14932892018E+04 -0.10158518735E+04  0.18561820741E+04  0.50400001928E-02 0. -1.
       -1    1    3    3    0  502 -0.42842061426E+03  0.14932892018E+04  0.31048042119E+03  0.15842521753E+04  0.50400001928E-02 0.  1.
</event>
<event>
 5   0  0.1911477E-06  0.3426362E+04  0.7818609E-02  0.8131466E-01
       -2   -1    0    0    0  501  0.00000000000E+00  0.00000000000E+00  0.10978186906E+04  0.10978186906E+04  0.25500000920E-02 0.  1.
        2   -1    0    0  501    0  0.00000000000E+00  0.00000000000E+00 -0.26734739445E+04  0.26734739445E+04  0.25500000920E-02 0. -1.
    10030    2    1    2    0    0  0.00000000000E+00  0.00000000000E+00 -0.15756552540E+04  0.37712926351E+04  0.34263623072E+04 0.  0.
        5    1    3    3  502    0 -0.10635768243E+04  0.89212243712E+03  0.31717523626E+03  0.14239734283E+04  0.46999998093E+01 0.  1.
       -5    1    3    3    0  502  0.10635768243E+04 -0.89212243712E+03 -0.18928304902E+04  0.23473192068E+04  0.46999998093E+01 0. -1.
</event>
<event>
 5   0  0.1948507E-06  0.3394293E+04  0.7818609E-02  0.8139308E-01
        2   -1    0    0  501    0  0.00000000000E+00  0.00000000000E+00  0.27669238566E+04  0.27669238566E+04  0.25500000920E-02 0. -1.
       -2   -1    0    0    0  501  0.00000000000E+00  0.00000000000E+00 -0.10409776112E+04  0.10409776112E+04  0.25500000920E-02 0.  1.
    10030    2    1    2    0    0  0.00000000000E+00  0.00000000000E+00  0.17259462455E+04  0.38079014678E+04  0.33942927314E+04 0.  0.
        1    1    3    3  502    0  0.50716101197E+03  0.16041114885E+04  0.61232010125E+03  0.17903412708E+04  0.50400001928E-02 0. -1.
       -1    1    3    3    0  502 -0.50716101197E+03 -0.16041114885E+04  0.11136261442E+04  0.20175601970E+04  0.50400001928E-02 0.  1.
</event>
<event>
 5   0  0.6134625E-07  0.3412829E+04  0.7818609E-02  0.8134765E-01
        1   -1    0    0  501    0  0.00000000000E+00  0.00000000000E+00  0.18164622887E+04  0.18164622887E+04  0.50400001928E-02 0.  1.
       -1   -1    0    0    0  501  0.00000000000E+00  0.00000000000E+00 -0.16030339826E+04  0.16030339826E+04  0.50400001928E-02 0. -1.
    10030    2    1    2    0    0  0.00000000000E+00  0.00000000000E+00  0.21342830611E+03  0.34194962714E+04  0.34128291941E+04 0.  0.
        5    1    3    3  502    0  0.33735739364E+02 -0.30647563796E+03  0.17883143744E+04  0.18147054330E+04  0.46999998093E+01 0.  1.
       -5    1    3    3    0  502 -0.33735739364E+02  0.30647563796E+03 -0.15748860683E+04  0.16047908384E+04  0.46999998093E+01 0. -1.
</event>
<event>
 5   0  0.6134625E-07  0.3395441E+04  0.7818609E-02  0.8139026E-01
        1   -1    0    0  501    0  0.00000000000E+00  0.00000000000E+00  0.19145830930E+04  0.19145830930E+04  0.50400001928E-02 0. -1.
       -1   -1    0    0    0  501  0.00000000000E+00  0.00000000000E+00 -0.15054215708E+04  0.15054215708E+04  0.50400001928E-02 0.  1.
    10030    2    1    2    0    0  0.00000000000E+00  0.00000000000E+00  0.40916152228E+03  0.34200046638E+04  0.33954408770E+04 0.  0.
        1    1    3    3  502    0 -0.97371533016E+03  0.93949246237E+03  0.12374194341E+04  0.18335687844E+04  0.50400001928E-02 0. -1.
       -1    1    3    3    0  502  0.97371533016E+03 -0.93949246237E+03 -0.82825791184E+03  0.15864358794E+04  0.50400001928E-02 0.  1.
</event>
<event>
 5   0  0.1797075E-06  0.3322575E+04  0.7818609E-02  0.8157175E-01
       -2   -1    0    0    0  501  0.00000000000E+00  0.00000000000E+00  0.13473347253E+04  0.13473347253E+04  0.25500000920E-02 0.  1.
        2   -1    0    0  501    0  0.00000000000E+00  0.00000000000E+00 -0.20483973328E+04  0.20483973328E+04  0.25500000920E-02 0. -1.
    10030    2    1    2    0    0  0.00000000000E+00  0.00000000000E+00 -0.70106260755E+03  0.33957320581E+04  0.33225754213E+04 0.  0.
        2    1    3    3  502    0 -0.31922129868E+03  0.23527928650E+03 -0.19993154556E+04  0.20382641809E+04  0.25500000920E-02 0. -1.
       -2    1    3    3    0  502  0.31922129868E+03 -0.23527928650E+03  0.12982528480E+04  0.13574678772E+04  0.25500000920E-02 0.  1.
</event>
<event>
 5   0  0.6134625E-07  0.3141858E+04  0.7818609E-02  0.8204343E-01
        1   -1    0    0  501    0  0.00000000000E+00  0.00000000000E+00  0.24960778344E+04  0.24960778344E+04  0.50400001928E-02 0. -1.
       -1   -1    0    0    0  501  0.00000000000E+00  0.00000000000E+00 -0.98867829625E+03  0.98867829626E+03  0.50400001928E-02 0.  1.
    10030    2    1    2    0    0  0.00000000000E+00  0.00000000000E+00  0.15073995381E+04  0.34847561306E+04  0.31418580367E+04 0.  0.
        5    1    3    3  502    0  0.49731575562E+03  0.83649156851E+03  0.21214771861E+04  0.23340369848E+04  0.46999998093E+01 0. -1.
       -5    1    3    3    0  502 -0.49731575562E+03 -0.83649156851E+03 -0.61407764799E+03  0.11507191459E+04  0.46999998093E+01 0.  1.
</event>
<event>
 5   0  0.6146388E-07  0.2709226E+04  0.7818609E-02  0.8332018E-01
       -1   -1    0    0    0  501  0.00000000000E+00  0.00000000000E+00  0.85889531048E+03  0.85889531049E+03  0.50400001928E-02 0.  1.
        1   -1    0    0  501    0  0.00000000000E+00  0.00000000000E+00 -0.21364371311E+04  0.21364371311E+04  0.50400001928E-02 0. -1.
    10030    2    1    2    0    0  0.00000000000E+00  0.00000000000E+00 -0.12775418206E+04  0.29953324416E+04  0.27092255964E+04 0.  0.
        4    1    3    3  502    0  0.58878309358E+03 -0.67976339288E+03  0.48124012535E+03  0.10199693489E+04  0.12699999809E+01 0.  1.
       -4    1    3    3    0  502 -0.58878309358E+03  0.67976339288E+03 -0.17587819460E+04  0.19753630927E+04  0.12699999809E+01 0. -1.
</event>
<event>
 5   0  0.6134625E-07  0.3373719E+04  0.7818609E-02  0.8144387E-01
        1   -1    0    0  501    0  0.00000000000E+00  0.00000000000E+00  0.17140825845E+04  0.17140825845E+04  0.50400001928E-02 0.  1.
       -1   -1    0    0    0  501  0.00000000000E+00  0.00000000000E+00 -0.16600684353E+04  0.16600684353E+04  0.50400001928E-02 0. -1.
    10030    2    1    2    0    0  0.00000000000E+00  0.00000000000E+00  0.54014149210E+02  0.33741510199E+04  0.33737186570E+04 0.  0.
        1    1    3    3  502    0 -0.14714711130E+04 -0.81459561209E+03  0.15625655222E+03  0.16891445639E+04  0.50400001928E-02 0.  1.
       -1    1    3    3    0  502  0.14714711130E+04  0.81459561209E+03 -0.10224240301E+03  0.16850064560E+04  0.50400001928E-02 0. -1.
</event>
<event>
 5   0  0.6134625E-07  0.3026572E+04  0.7818609E-02  0.8236184E-01
        1   -1    0    0  501    0  0.00000000000E+00  0.00000000000E+00  0.15837462064E+04  0.15837462064E+04  0.50400001928E-02 0. -1.
       -1   -1    0    0    0  501  0.00000000000E+00  0.00000000000E+00 -0.14459602595E+04  0.14459602595E+04  0.50400001928E-02 0.  1.
    10030    2    1    2    0    0  0.00000000000E+00  0.00000000000E+00  0.13778594688E+03  0.30297064659E+04  0.30265717078E+04 0.  0.
        5    1    3    3  502    0  0.32056758036E+03 -0.88785294278E+03 -0.11151108312E+04  0.14610067342E+04  0.46999998093E+01 0.  1.
       -5    1    3    3    0  502 -0.32056758036E+03  0.88785294278E+03  0.12528967781E+04  0.15686997317E+04  0.46999998093E+01 0. -1.
</event>
<event>
 5   0  0.1339844E-06  0.3478530E+04  0.7818609E-02  0.8118897E-01
       -2   -1    0    0    0  501  0.00000000000E+00  0.00000000000E+00  0.11533565624E+04  0.11533565624E+04  0.25500000920E-02 0.  1.
        2   -1    0    0  501    0  0.00000000000E+00  0.00000000000E+00 -0.26228167859E+04  0.26228167859E+04  0.25500000920E-02 0. -1.
    10030    2    1    2    0    0  0.00000000000E+00  0.00000000000E+00 -0.14694602235E+04  0.37761733484E+04  0.34785301218E+04 0.  0.
        3    1    3    3  502    0 -0.48952113015E+03 -0.13550155677E+03 -0.25405097944E+04  0.25907878405E+04  0.10100000352E+00 0. -1.
       -3    1    3    3    0  502  0.48952113015E+03  0.13550155677E+03  0.10710495709E+04  0.11853855079E+04  0.10100000352E+00 0.  1.
</event>
<event>
 5   0  0.1880301E-06  0.2816107E+04  0.7818609E-02  0.8298285E-01
        2   -1    0    0  501    0  0.00000000000E+00  0.00000000000E+00  0.11989472462E+04  0.11989472462E+04  0.25500000920E-02 0. -1.
       -2   -1    0    0    0  501  0.00000000000E+00  0.00000000000E+00 -0.16536301014E+04  0.16536301014E+04  0.25500000920E-02 0.  1.
    10030    2    1    2    0    0  0.00000000000E+00  0.00000000000E+00 -0.45468285520E+03  0.28525773477E+04  0.28161074244E+04 0.  0.
        4    1    3    3  502    0  0.19974341499E+03  0.94679789050E+03 -0.12634714120E+04  0.15914412647E+04  0.12699999809E+01 0.  1.
       -4    1    3    3    0  502 -0.19974341499E+03 -0.94679789050E+03  0.80878855676E+03  0.12611360830E+04  0.12699999809E+01 0. -1.
</event>
<event>
 5   0  0.6146388E-07  0.2429326E+04  0.7818609E-02  0.8428605E-01
       -1   -1    0    0    0  501  0.00000000000E+00  0.00000000000E+00  0.82502547244E+03  0.82502547246E+03  0.50400001928E-02 0. -1.
        1   -1    0    0  501    0  0.00000000000E+00  0.00000000000E+00 -0.17883159657E+04  0.17883159657E+04  0.50400001928E-02 0.  1.
    10030    2    1    2    0    0  0.00000000000E+00  0.00000000000E+00 -0.96329049326E+03  0.26133414382E+04  0.24293260172E+04 0.  0.
        4    1    3    3  502    0  0.77370019924E+03 -0.47463951792E+01 -0.14889322147E+04  0.16779616443E+04  0.12699999809E+01 0.  1.
       -4    1    3    3    0  502 -0.77370019924E+03  0.47463951792E+01  0.52564172149E+03  0.93537979391E+03  0.12699999809E+01 0. -1.
</event>
<event>
 5   0  0.6134625E-07  0.3437472E+04  0.7818609E-02  0.8128770E-01
       -1   -1    0    0    0  501  0.00000000000E+00  0.00000000000E+00  0.10785031549E+04  0.10785031549E+04  0.50400001928E-02 0. -1.
        1   -1    0    0  501    0  0.00000000000E+00  0.00000000000E+00 -0.27390300830E+04  0.27390300830E+04  0.50400001928E-02 0.  1.
    10030    2    1    2    0    0  0.00000000000E+00  0.00000000000E+00 -0.16605269281E+04  0.38175332379E+04  0.34374715043E+04 0.  0.
        3    1    3    3  502    0 -0.25215106615E+01  0.16095014710E+04 -0.14998805568E+04  0.22000325084E+04  0.10100000352E+00 0.  1.
       -3    1    3    3    0  502  0.25215106615E+01 -0.16095014710E+04 -0.16064637129E+03  0.16175007295E+04  0.10100000352E+00 0. -1.
</event>
<event>
 5   0  0.1339844E-06  0.3391647E+04  0.7818609E-02  0.8139960E-01
       -2   -1    0    0    0  501  0.00000000000E+00  0.00000000000E+00  0.21611684733E+04  0.21611684733E+04  0.25500000920E-02 0.  1.
        2   -1    0    0  501    0  0.00000000000E+00  0.00000000000E+00 -0.13306767750E+04  0.13306767750E+04  0.25500000920E-02 0. -1.
    10030    2    1    2    0    0  0.00000000000E+00  0.00000000000E+00  0.83049169833E+03  0.34918452483E+04  0.33916466173E+04 0.  0.
        3    1    3    3  502    0 -0.15355534778E+04 -0.53174062441E+02 -0.32363650362E+03  0.15701887023E+04  0.10100000352E+00 0. -1.
       -3    1    3    3    0  502  0.15355534778E+04  0.53174062441E+02  0.11541282019E+04  0.19216565460E+04  0.10100000352E+00 0.  1.
</event>
<event>
 5   0  0.6218695E-07  0.3455294E+04  0.7818609E-02  0.8124467E-01
       -1   -1    0    0    0  501  0.00000000000E+00  0.00000000000E+00  0.14081371250E+04  0.14081371250E+04  0.50400001928E-02 0.  1.
        1   -1    0    0  501    0  0.00000000000E+00  0.00000000000E+00 -0.21196549792E+04  0.21196549792E+04  0.50400001928E-02 0. -1.
    10030    2    1    2    0    0  0.00000000000E+00  0.00000000000E+00 -0.71151785425E+03  0.35277921042E+04  0.34552944120E+04 0.  0.
        2    1    3    3  502    0  0.13653739658E+04 -0.94395328070E+03 -0.84484110293E+03  0.18625386847E+04  0.25500000920E-02 0. -1.
       -2    1    3    3    0  502 -0.13653739658E+04  0.94395328070E+03  0.13332324868E+03  0.16652534196E+04  0.25500000920E-02 0.  1.
</event>
<event>
 5   0  0.1339844E-06  0.3317291E+04  0.7818609E-02  0.8158510E-01
       -2   -1    0    0    0  501  0.00000000000E+00  0.00000000000E+00  0.17799268416E+04  0.17799268416E+04  0.25500000920E-02 0. -1.
        2   -1    0    0  501    0  0.00000000000E+00  0.00000000000E+00 -0.15456279759E+04  0.15456279759E+04  0.25500000920E-02 0.  1.
    10030    2    1    2    0    0  0.00000000000E+00  0.00000000000E+00  0.23429886570E+03  0.33255548176E+04  0.33172908956E+04 0.  0.
        3    1    3    3  502    0  0.61650149368E+03  0.41221234904E+02  0.16602472679E+04  0.17714949288E+04  0.10100000352E+00 0. -1.
       -3    1    3    3    0  502 -0.61650149368E+03 -0.41221234904E+02 -0.14259484022E+04  0.15540598888E+04  0.10100000352E+00 0.  1.
</event>
<event>
 5   0  0.6134625E-07  0.3395950E+04  0.7818609E-02  0.8138901E-01
        1   -1    0    0  501    0  0.00000000000E+00  0.00000000000E+00  0.16976929184E+04  0.16976929184E+04  0.50400001928E-02 0.  1.
       -1   -1    0    0    0  501  0.00000000000E+00  0.00000000000E+00 -0.16982570096E+04  0.16982570096E+04  0.50400001928E-02 0. -1.
    10030    2    1    2    0    0  0.00000000000E+00  0.00000000000E+00 -0.56409117538E+00  0.33959499280E+04  0.33959498812E+04 0.  0.
        5    1    3    3  502    0  0.92950896929E+03  0.19080614026E+03  0.14078028085E+04  0.16977410712E+04  0.46999998093E+01 0.  1.
       -5    1    3    3    0  502 -0.92950896929E+03 -0.19080614026E+03 -0.14083668997E+04  0.16982088568E+04  0.46999998093E+01 0. -1.
</event>
<event>
 5   0  0.6218695E-07  0.3274303E+04  0.7818609E-02  0.8169465E-01
        1   -1    0    0  501    0  0.00000000000E+00  0.00000000000E+00  0.15610716147E+04  0.15610716147E+04  0.50400001928E-02 0.  1.
       -1   -1    0    0    0  501  0.00000000000E+00  0.00000000000E+00 -0.17169390844E+04  0.17169390844E+04  0.50400001928E-02 0. -1.
    10030    2    1    2    0    0  0.00000000000E+00  0.00000000000E+00 -0.15586746971E+03  0.32780106991E+04  0.32743028991E+04 0.  0.
        2    1    3    3  502    0 -0.14345171862E+04  0.77641756770E+03 -0.21809610254E+03  0.16456699872E+04  0.25500000920E-02 0. -1.
       -2    1    3    3    0  502  0.14345171862E+04 -0.77641756770E+03  0.62228632826E+02  0.16323407119E+04  0.25500000920E-02 0.  1.
</event>
<event>
 5   0  0.1339844E-06  0.3413653E+04  0.7818609E-02  0.8134563E-01
        2   -1    0    0  501    0  0.00000000000E+00  0.00000000000E+00  0.22942740602E+04  0.22942740602E+04  0.25500000920E-02 0. -1.
       -2   -1    0    0    0  501  0.00000000000E+00  0.00000000000E+00 -0.12697949130E+04  0.12697949130E+04  0.25500000920E-02 0.  1.
    10030    2    1    2    0    0  0.00000000000E+00  0.00000000000E+00  0.10244791472E+04  0.35640689732E+04  0.34136534861E+04 0.  0.
        3    1    3    3  502    0  0.45927758680E+03  0.54283422095E+02  0.22276113907E+04  0.22751121093E+04  0.10100000352E+00 0. -1.
       -3    1    3    3    0  502 -0.45927758680E+03 -0.54283422095E+02 -0.12031322435E+04  0.12889568640E+04  0.10100000352E+00 0.  1.
</event>
<event>
 5   0  0.6134625E-07  0.3403462E+04  0.7818609E-02  0.8137057E-01
       -1   -1    0    0    0  501  0.00000000000E+00  0.00000000000E+00  0.27944892933E+04  0.27944892933E+04  0.50400001928E-02 0. -1.
        1   -1    0    0  501    0  0.00000000000E+00  0.00000000000E+00 -0.10362853848E+04  0.10362853848E+04  0.50400001928E-02 0.  1.
    10030    2    1    2    0    0  0.00000000000E+00  0.00000000000E+00  0.17582039084E+04  0.38307746781E+04  0.34034620096E+04 0.  0.
        1    1    3    3  502    0 -0.63995776129E+03  0.96098412594E+03 -0.52799695142E+03  0.12695736321E+04  0.50400001928E-02 0.  1.
       -1    1    3    3    0  502  0.63995776129E+03 -0.96098412594E+03  0.22862008599E+04  0.25612010460E+04  0.50400001928E-02 0. -1.
</event>
<event>
 5   0  0.6134625E-07  0.3046247E+04  0.7818609E-02  0.8230647E-01
        1   -1    0    0  501    0  0.00000000000E+00  0.00000000000E+00  0.18167849826E+04  0.18167849826E+04  0.50400001928E-02 0.  1.
       -1   -1    0    0    0  501  0.00000000000E+00  0.00000000000E+00 -0.12769290669E+04  0.12769290670E+04  0.50400001928E-02 0. -1.
    10030    2    1    2    0    0  0.00000000000E+00  0.00000000000E+00  0.53985591566E+03  0.30937140496E+04  0.30462472340E+04 0.  0.
        1    1    3    3  502    0  0.13955713148E+04 -0.56803586350E+03  0.49615787402E+03  0.15863343509E+04  0.50400001928E-02 0.  1.
       -1    1    3    3    0  502 -0.13955713148E+04  0.56803586350E+03  0.43698041634E+02  0.15073796986E+04  0.50400001928E-02 0. -1.
</event>
<event>
 5   0  0.1339844E-06  0.3392432E+04  0.7818609E-02  0.8139766E-01
        2   -1    0    0  501    0  0.00000000000E+00  0.00000000000E+00  0.16750146999E+04  0.16750146999E+04  0.25500000920E-02 0. -1.
       -2   -1    0    0    0  501  0.00000000000E+00  0.00000000000E+00 -0.17176852374E+04  0.17176852374E+04  0.25500000920E-02 0.  1.
    10030    2    1    2    0    0  0.00000000000E+00  0.00000000000E+00 -0.42670537543E+02  0.33926999373E+04  0.33924315896E+04 0.  0.
        3    1    3    3  502    0  0.25060250767E+03 -0.15087687880E+04 -0.75485299247E+03  0.17055755401E+04  0.10100000352E+00 0.  1.
       -3    1    3    3    0  502 -0.25060250767E+03  0.15087687880E+04  0.71218245493E+03  0.16871243972E+04  0.10100000352E+00 0. -1.
</event>
<event>
 5   0  0.6218695E-07  0.3071678E+04  0.7818609E-02  0.8223554E-01
       -1   -1    0    0    0  501  0.00000000000E+00  0.00000000000E+00  0.11314331514E+04  0.11314331514E+04  0.50400001928E-02 0.  1.
        1   -1    0    0  501    0  0.00000000000E+00  0.00000000000E+00 -0.20847913642E+04  0.20847913643E+04  0.50400001928E-02 0. -1.
    10030    2    1    2    0    0  0.00000000000E+00  0.00000000000E+00 -0.95335821282E+03  0.32162245157E+04  0.30716784098E+04 0.  0.
        2    1    3    3  502    0 -0.29965962344E+03 -0.17261649605E+03 -0.20434951073E+04  0.20725502643E+04  0.25500000920E-02 0. -1.
       -2    1    3    3    0  502  0.29965962344E+03  0.17261649605E+03  0.10901368945E+04  0.11436742514E+04  0.25500000920E-02 0.  1.
</event>
<event>
 5   0  0.6146388E-07  0.3361494E+04  0.7818609E-02  0.8147422E-01
        1   -1    0    0  501    0  0.00000000000E+00  0.00000000000E+00  0.95344338806E+03  0.95344338808E+03  0.50400001928E-02 0.  1.
       -1   -1    0    0    0  501  0.00000000000E+00  0.00000000000E+00 -0.29628507871E+04  0.29628507871E+04  0.50400001928E-02 0. -1.
    10030    2    1    2    0    0  0.00000000000E+00  0.00000000000E+00 -0.20094073991E+04  0.39162941752E+04  0.33614940088E+04 0.  0.
        4    1    3    3  502    0 -0.89200588944E+03 -0.30972577568E+03 -0.26246218649E+04  0.27893092531E+04  0.12699999809E+01 0. -1.
       -4    1    3    3    0  502  0.89200588944E+03  0.30972577568E+03  0.61521446579E+03  0.11269849221E+04  0.12699999809E+01 0.  1.
</event>
<event>
 5   0  0.1339844E-06  0.3325608E+04  0.7818609E-02  0.8156410E-01
       -2   -1    0    0    0  501  0.00000000000E+00  0.00000000000E+00  0.10073634919E+04  0.10073634919E+04  0.25500000920E-02 0. -1.
        2   -1    0    0  501    0  0.00000000000E+00  0.00000000000E+00 -0.27447070676E+04  0.27447070676E+04  0.25500000920E-02 0.  1.
    10030    2    1    2    0    0  0.00000000000E+00  0.00000000000E+00 -0.17373435756E+04  0.37520705595E+04  0.33256083329E+04 0.  0.
        3    1    3    3  502    0  0.91504856107E+03 -0.49897335367E+03  0.59309237708E+03  0.11991859133E+04  0.10100000352E+00 0. -1.
       -3    1    3    3    0  502 -0.91504856107E+03  0.49897335367E+03 -0.23304359527E+04  0.25528846462E+04  0.10100000352E+00 0.  1.
</event>
<event>
 5   0  0.6134625E-07  0.3001022E+04  0.7818609E-02  0.8243439E-01
        1   -1    0    0  501    0  0.00000000000E+00  0.00000000000E+00  0.16290917489E+04  0.16290917490E+04  0.50400001928E-02 0. -1.
       -1   -1    0    0    0  501  0.00000000000E+00  0.00000000000E+00 -0.13820786508E+04  0.13820786508E+04  0.50400001928E-02 0.  1.
    10030    2    1    2    0    0  0.00000000000E+00  0.00000000000E+00  0.24701309816E+03  0.30111703997E+04  0.30010217769E+04 0.  0.
        3    1    3    3  502    0  0.66175684821E+02  0.12826005098E+04 -0.65506182476E+03  0.14417174805E+04  0.10100000352E+00 0. -1.
       -3    1    3    3    0  502 -0.66175684821E+02 -0.12826005098E+04  0.90207492292E+03  0.15694529193E+04  0.10100000352E+00 0.  1.
</event>
<event>
 5   0  0.1339844E-06  0.3411759E+04  0.7818609E-02  0.8135026E-01
        2   -1    0    0  501    0  0.00000000000E+00  0.00000000000E+00  0.17319749231E+04  0.17319749231E+04  0.25500000920E-02 0. -1.
       -2   -1    0    0    0  501  0.00000000000E+00  0.00000000000E+00 -0.16801770177E+04  0.16801770177E+04  0.25500000920E-02 0.  1.
    10030    2    1    2    0    0  0.00000000000E+00  0.00000000000E+00  0.51797905386E+02  0.34121519407E+04  0.34117587610E+04 0.  0.
        3    1    3    3  502    0 -0.16633804572E+04  0.21496068655E+01 -0.35254296959E+03  0.17003310624E+04  0.10100000352E+00 0.  1.
       -3    1    3    3    0  502  0.16633804572E+04 -0.21496068655E+01  0.40434087498E+03  0.17118208783E+04  0.10100000352E+00 0. -1.
</event>
<event>
 5   0  0.6218695E-07  0.3398921E+04  0.7818609E-02  0.8138171E-01
        1   -1    0    0  501    0  0.00000000000E+00  0.00000000000E+00  0.13537869416E+04  0.13537869416E+04  0.50400001928E-02 0.  1.
       -1   -1    0    0    0  501  0.00000000000E+00  0.00000000000E+00 -0.21333983508E+04  0.21333983508E+04  0.50400001928E-02 0. -1.
    10030    2    1    2    0    0  0.00000000000E+00  0.00000000000E+00 -0.77961140925E+03  0.34871852924E+04  0.33989214928E+04 0.  0.
        2    1    3    3  502    0  0.76742286703E+03 -0.12690185215E+04  0.46169903346E+03  0.15532262753E+04  0.25500000920E-02 0.  1.
       -2    1    3    3    0  502 -0.76742286703E+03  0.12690185215E+04 -0.12413104427E+04  0.19339590171E+04  0.25500000920E-02 0. -1.
</event>
<event>
 5   0  0.6218695E-07  0.3435679E+04  0.7818609E-02  0.8129205E-01
        1   -1    0    0  501    0  0.00000000000E+00  0.00000000000E+00  0.18136641016E+04  0.18136641016E+04  0.50400001928E-02 0.  1.
       -1   -1    0    0    0  501  0.00000000000E+00  0.00000000000E+00 -0.16270781538E+04  0.16270781538E+04  0.50400001928E-02 0. -1.
    10030    2    1    2    0    0  0.00000000000E+00  0.00000000000E+00  0.18658594780E+03  0.34407422554E+04  0.34356794018E+04 0.  0.
        2    1    3    3  502    0  0.98319397200E+03  0.12094950499E+04  0.81645440917E+03  0.17595870154E+04  0.25500000920E-02 0.  1.
       -2    1    3    3    0  502 -0.98319397200E+03 -0.12094950499E+04 -0.62986846137E+03  0.16811552400E+04  0.25500000920E-02 0. -1.
</event>
<event>
 5   0  0.6146388E-07  0.3393038E+04  0.7818609E-02  0.8139617E-01
        1   -1    0    0  501    0  0.00000000000E+00  0.00000000000E+00  0.22316489813E+04  0.22316489813E+04  0.50400001928E-02 0.  1.
       -1   -1    0    0    0  501  0.00000000000E+00  0.00000000000E+00 -0.12897086213E+04  0.12897086213E+04  0.50400001928E-02 0. -1.
    10030    2    1    2    0    0  0.00000000000E+00  0.00000000000E+00  0.94194036005E+03  0.35213576026E+04  0.33930381259E+04 0.  0.
        4    1    3    3  502    0  0.24346091439E+03  0.46434966629E+03 -0.12035174996E+04  0.13127641883E+04  0.12699999809E+01 0. -1.
       -4    1    3    3    0  502 -0.24346091439E+03 -0.46434966629E+03  0.21454578596E+04  0.22085934143E+04  0.12699999809E+01 0.  1.
</event>
<event>
 5   0  0.6218695E-07  0.3373196E+04  0.7818609E-02  0.8144516E-01
        1   -1    0    0  501    0  0.00000000000E+00  0.00000000000E+00  0.12525260798E+04  0.12525260798E+04  0.50400001928E-02 0.  1.
       -1   -1    0    0    0  501  0.00000000000E+00  0.00000000000E+00 -0.22711007045E+04  0.22711007046E+04  0.50400001928E-02 0. -1.
    10030    2    1    2    0    0  0.00000000000E+00  0.00000000000E+00 -0.10185746248E+04  0.35236267843E+04  0.33731960289E+04 0.  0.
        2    1    3    3  502    0  0.12852600071E+04 -0.67873554069E+03 -0.14030352013E+04  0.20201690514E+04  0.25500000920E-02 0. -1.
       -2    1    3    3    0  502 -0.12852600071E+04  0.67873554069E+03  0.38446057653E+03  0.15034577330E+04  0.25500000920E-02 0.  1.
</event>
<event>
 5   0  0.1797075E-06  0.3470160E+04  0.7818609E-02  0.8120898E-01
       -2   -1    0    0    0  501  0.00000000000E+00  0.00000000000E+00  0.16723380732E+04  0.16723380732E+04  0.25500000920E-02 0. -1.
        2   -1    0    0  501    0  0.00000000000E+00  0.00000000000E+00 -0.18001758401E+04  0.18001758401E+04  0.25500000920E-02 0.  1.
    10030    2    1    2    0    0  0.00000000000E+00  0.00000000000E+00 -0.12783776690E+03  0.34725139134E+04  0.34701599940E+04 0.  0.
        2    1    3    3  502    0  0.13092687780E+04 -0.10855862492E+04 -0.40740142331E+03  0.17489019862E+04  0.25500000920E-02 0. -1.
       -2    1    3    3    0  502 -0.13092687780E+04  0.10855862492E+04  0.27956365641E+03  0.17236119272E+04  0.25500000920E-02 0.  1.
</event>
<event>
 5   0  0.1948507E-06  0.3416254E+04  0.7818609E-02  0.8133929E-01
       -2   -1    0    0    0  501  0.00000000000E+00  0.00000000000E+00  0.16857393735E+04  0.16857393735E+04  0.25500000920E-02 0. -1.
        2   -1    0    0  501    0  0.00000000000E+00  0.00000000000E+00 -0.17308117620E+04  0.17308117620E+04  0.25500000920E-02 0.  1.
    10030    2    1    2    0    0  0.00000000000E+00  0.00000000000E+00 -0.45072388473E+02  0.34165511354E+04  0.34162538168E+04 0.  0.
        1    1    3    3  502    0  0.41888324391E+03 -0.89683458927E+03  0.13696776594E+04  0.16899089749E+04  0.50400001928E-02 0. -1.
       -1    1    3    3    0  502 -0.41888324391E+03  0.89683458927E+03 -0.14147500479E+04  0.17266421606E+04  0.50400001928E-02 0.  1.
</event>
<event>
 5   0  0.1339844E-06  0.3447394E+04  0.7818609E-02  0.8126371E-01
        2   -1    0    0  501    0  0.00000000000E+00  0.00000000000E+00  0.22277258639E+04  0.22277258639E+04  0.25500000920E-02 0.  1.
       -2   -1    0    0    0  501  0.00000000000E+00  0.00000000000E+00 -0.13337056905E+04  0.13337056905E+04  0.25500000920E-02 0. -1.
    10030    2    1    2    0    0  0.00000000000E+00  0.00000000000E+00  0.89402017335E+03  0.35614315544E+04  0.34473936019E+04 0.  0.
        3    1    3    3  502    0 -0.89244958525E+03 -0.73625643462E+03 -0.87298529056E+03  0.14493595577E+04  0.10100000352E+00 0. -1.
       -3    1    3    3    0  502  0.89244958525E+03  0.73625643462E+03  0.17670054639E+04  0.21120719967E+04  0.10100000352E+00 0.  1.
</event>
<event>
 5   0  0.1948507E-06  0.3466226E+04  0.7818609E-02  0.8121841E-01
        2   -1    0    0  501    0  0.00000000000E+00  0.00000000000E+00  0.22365462232E+04  0.22365462232E+04  0.25500000920E-02 0. -1.
       -2   -1    0    0    0  501  0.00000000000E+00  0.00000000000E+00 -0.13429996379E+04  0.13429996379E+04  0.25500000920E-02 0.  1.
    10030    2    1    2    0    0  0.00000000000E+00  0.00000000000E+00  0.89354658536E+03  0.35795458611E+04  0.34662260560E+04 0.  0.
        1    1    3    3  502    0 -0.14653836190E+04 -0.43262677124E+03 -0.39799553985E+03  0.15788969326E+04  0.50400001928E-02 0.  1.
       -1    1    3    3    0  502  0.14653836190E+04  0.43262677124E+03  0.12915421252E+04  0.20006489285E+04  0.50400001928E-02 0. -1.
</event>
<event>
 5   0  0.1880301E-06  0.3304065E+04  0.7818609E-02  0.8161862E-01
        2   -1    0    0  501    0  0.00000000000E+00  0.00000000000E+00  0.16636621240E+04  0.16636621240E+04  0.25500000920E-02 0. -1.
       -2   -1    0    0    0  501  0.00000000000E+00  0.00000000000E+00 -0.16404839427E+04  0.16404839427E+04  0.25500000920E-02 0.  1.
    10030    2    1    2    0    0  0.00000000000E+00  0.00000000000E+00  0.23178181334E+02  0.33041460668E+04  0.33040647697E+04 0.  0.
        4    1    3    3  502    0  0.23321465325E+03 -0.26586856532E+03 -0.16021836229E+04  0.16407526148E+04  0.12699999809E+01 0.  1.
       -4    1    3    3    0  502 -0.23321465325E+03  0.26586856532E+03  0.16253618042E+04  0.16633934520E+04  0.12699999809E+01 0. -1.
</event>
<event>
 5   0  0.6134625E-07  0.3267964E+04  0.7818609E-02  0.8171095E-01
       -1   -1    0    0    0  501  0.00000000000E+00  0.00000000000E+00  0.14751634090E+04  0.14751634090E+04  0.50400001928E-02 0. -1.
        1   -1    0    0  501    0  0.00000000000E+00  0.00000000000E+00 -0.18098992484E+04  0.18098992484E+04  0.50400001928E-02 0.  1.
    10030    2    1    2    0    0  0.00000000000E+00  0.00000000000E+00 -0.33473583943E+03  0.32850626575E+04  0.32679639810E+04 0.  0.
        1    1    3    3  502    0 -0.94318023514E+03 -0.13320189458E+04 -0.24545134846E+03  0.16504877438E+04  0.50400001928E-02 0. -1.
       -1    1    3    3    0  502  0.94318023514E+03  0.13320189458E+04 -0.89284490971E+02  0.16345749137E+04  0.50400001928E-02 0.  1.
</event>
<event>
 5   0  0.6134625E-07  0.3378665E+04  0.7818609E-02  0.8143163E-01
        1   -1    0    0  501    0  0.00000000000E+00  0.00000000000E+00  0.22291551635E+04  0.22291551635E+04  0.50400001928E-02 0. -1.
       -1   -1    0    0    0  501  0.00000000000E+00  0.00000000000E+00 -0.12802358647E+04  0.12802358647E+04  0.50400001928E-02 0.  1.
    10030    2    1    2    0    0  0.00000000000E+00  0.00000000000E+00  0.94891929879E+03  0.35093910281E+04  0.33786650548E+04 0.  0.
        1    1    3    3  502    0  0.72859000920E+03 -0.73766795821E+03 -0.91087888824E+03  0.13801078824E+04  0.50400001928E-02 0.  1.
       -1    1    3    3    0  502 -0.72859000920E+03  0.73766795821E+03  0.18597981870E+04  0.21292831457E+04  0.50400001928E-02 0. -1.
</event>
<event>
 5   0  0.6134625E-07  0.3391312E+04  0.7818609E-02  0.8140042E-01
       -1   -1    0    0    0  501  0.00000000000E+00  0.00000000000E+00  0.14916630142E+04  0.14916630142E+04  0.50400001928E-02 0.  1.
        1   -1    0    0  501    0  0.00000000000E+00  0.00000000000E+00 -0.19275455980E+04  0.19275455980E+04  0.50400001928E-02 0. -1.
    10030    2    1    2    0    0  0.00000000000E+00  0.00000000000E+00 -0.43588258383E+03  0.34192086122E+04  0.33913115320E+04 0.  0.
        5    1    3    3  502    0  0.30127130637E+03  0.11161579742E+04 -0.14685697513E+04  0.18690351061E+04  0.46999998093E+01 0. -1.
       -5    1    3    3    0  502 -0.30127130637E+03 -0.11161579742E+04  0.10326871674E+04  0.15501735061E+04  0.46999998093E+01 0.  1.
</event>
<event>
 5   0  0.6146388E-07  0.3377561E+04  0.7818609E-02  0.8143436E-01
       -1   -1    0    0    0  501  0.00000000000E+00  0.00000000000E+00  0.10092321843E+04  0.10092321843E+04  0.50400001928E-02 0. -1.
        1   -1    0    0  501    0  0.00000000000E+00  0.00000000000E+00 -0.28258908316E+04  0.28258908316E+04  0.50400001928E-02 0.  1.
    10030    2    1    2    0    0  0.00000000000E+00  0.00000000000E+00 -0.18166586473E+04  0.38351230159E+04  0.33775612365E+04 0.  0.
        4    1    3    3  502    0  0.12438971878E+04  0.11358638708E+04 -0.10451119625E+04  0.19823540486E+04  0.12699999809E+01 0.  1.
       -4    1    3    3    0  502 -0.12438971878E+04 -0.11358638708E+04 -0.77154668477E+03  0.18527689674E+04  0.12699999809E+01 0. -1.
</event>
<event>
 5   0  0.6146388E-07  0.3404177E+04  0.7818609E-02  0.8136882E-01
       -1   -1    0    0    0  501  0.00000000000E+00  0.00000000000E+00  0.21537435207E+04  0.21537435207E+04  0.50400001928E-02 0. -1.
        1   -1    0    0  501    0  0.00000000000E+00  0.00000000000E+00 -0.13451484177E+04  0.13451484177E+04  0.50400001928E-02 0.  1.
    10030    2    1    2    0    0  0.00000000000E+00  0.00000000000E+00  0.80859510297E+03  0.34988919385E+04  0.34041766635E+04 0.  0.
        4    1    3    3  502    0 -0.12661645395E+04  0.25298934256E+03 -0.73557967455E+03  0.14860199592E+04  0.12699999809E+01 0.  1.
       -4    1    3    3    0  502  0.12661645395E+04 -0.25298934256E+03  0.15441747775E+04  0.20128719793E+04  0.12699999809E+01 0. -1.
</event>
<event>
 5   0  0.6134625E-07  0.3450037E+04  0.7818609E-02  0.8125734E-01
       -1   -1    0    0    0  501  0.00000000000E+00  0.00000000000E+00  0.91743234185E+03  0.91743234186E+03  0.50400001928E-02 0.  1.
        1   -1    0    0  501    0  0.00000000000E+00  0.00000000000E+00 -0.32434963623E+04  0.32434963623E+04  0.50400001928E-02 0. -1.
    10030    2    1    2    0    0  0.00000000000E+00  0.00000000000E+00 -0.23260640205E+04  0.41609287042E+04  0.34500367902E+04 0.  0.
        1    1    3    3  502    0  0.13658976549E+03 -0.16535982122E+04 -0.59395284996E+03  0.17623347580E+04  0.50400001928E-02 0.  1.
       -1    1    3    3    0  502 -0.13658976549E+03  0.16535982122E+04 -0.17321111705E+04  0.23985939461E+04  0.50400001928E-02 0. -1.
</event>
<event>
 5   0  0.1880301E-06  0.3401229E+04  0.7818609E-02  0.8137605E-01
       -2   -1    0    0    0  501  0.00000000000E+00  0.00000000000E+00  0.13224358744E+04  0.13224358744E+04  0.25500000920E-02 0. -1.
        2   -1    0    0  501    0  0.00000000000E+00  0.00000000000E+00 -0.21869409049E+04  0.21869409049E+04  0.25500000920E-02 0.  1.
    10030    2    1    2    0    0  0.00000000000E+00  0.00000000000E+00 -0.86450503044E+03  0.35093767793E+04  0.34012286650E+04 0.  0.
        4    1    3    3  502    0  0.14067658418E+04  0.10712308409E+03  0.54747751289E+03  0.15133402555E+04  0.12699999809E+01 0. -1.
       -4    1    3    3    0  502 -0.14067658418E+04 -0.10712308409E+03 -0.14119825433E+04  0.19960365238E+04  0.12699999809E+01 0.  1.
</event>
<event>
 5   0  0.6218695E-07  0.3318992E+04  0.7818609E-02  0.8158080E-01
       -1   -1    0    0    0  501  0.00000000000E+00  0.00000000000E+00  0.13582607000E+04  0.13582607000E+04  0.50400001928E-02 0. -1.
        1   -1    0    0  501    0  0.00000000000E+00  0.00000000000E+00 -0.20275391564E+04  0.20275391564E+04  0.50400001928E-02 0.  1.
    10030    2    1    2    0    0  0.00000000000E+00  0.00000000000E+00 -0.66927845641E+03  0.33857998564E+04  0.33189918673E+04 0.  0.
        2    1    3    3  502    0 -0.96978492849E+03  0.57719005740E+03 -0.15758036437E+04  0.19382436105E+04  0.25500000920E-02 0.  1.
       -2    1    3    3    0  502  0.96978492849E+03 -0.57719005740E+03  0.90652518730E+03  0.14475562459E+04  0.25500000920E-02 0. -1.
</event>
<event>
 5   0  0.6134625E-07  0.3350795E+04  0.7818609E-02  0.8150089E-01
       -1   -1    0    0    0  501  0.00000000000E+00  0.00000000000E+00  0.31957615630E+04  0.31957615630E+04  0.50400001928E-02 0.  1.
        1   -1    0    0  501    0  0.00000000000E+00  0.00000000000E+00 -0.87833753744E+03  0.87833753745E+03  0.50400001928E-02 0. -1.
    10030    2    1    2    0    0  0.00000000000E+00  0.00000000000E+00  0.23174240255E+04  0.40740991004E+04  0.33507953333E+04 0.  0.
        3    1    3    3  502    0  0.15895393515E+03  0.30920533370E+03 -0.83399479346E+03  0.90356052239E+03  0.10100000352E+00 0. -1.
       -3    1    3    3    0  502 -0.15895393515E+03 -0.30920533370E+03  0.31514188190E+04  0.31705385780E+04  0.10100000352E+00 0.  1.
</event>
<event>
 5   0  0.1339844E-06  0.3372750E+04  0.7818609E-02  0.8144627E-01
       -2   -1    0    0    0  501  0.00000000000E+00  0.00000000000E+00  0.12412456724E+04  0.12412456724E+04  0.25500000920E-02 0.  1.
        2   -1    0    0  501    0  0.00000000000E+00  0.00000000000E+00 -0.22911346612E+04  0.22911346612E+04  0.25500000920E-02 0. -1.
    10030    2    1    2    0    0  0.00000000000E+00  0.00000000000E+00 -0.10498889888E+04  0.35323803336E+04  0.33727502031E+04 0.  0.
        3    1    3    3  502    0  0.16514562438E+04  0.22173710723E+03 -0.25307041269E+03  0.16853841443E+04  0.10100000352E+00 0.  1.
       -3    1    3    3    0  502 -0.16514562438E+04 -0.22173710723E+03 -0.79681857609E+03  0.18469961893E+04  0.10100000352E+00 0. -1.
</event>
<event>
 5   0  0.6218695E-07  0.3484764E+04  0.7818609E-02  0.8117410E-01
       -1   -1    0    0    0  501  0.00000000000E+00  0.00000000000E+00  0.11749852898E+04  0.11749852898E+04  0.50400001928E-02 0. -1.
        1   -1    0    0  501    0  0.00000000000E+00  0.00000000000E+00 -0.25837732432E+04  0.25837732432E+04  0.50400001928E-02 0.  1.
    10030    2    1    2    0    0  0.00000000000E+00  0.00000000000E+00 -0.14087879534E+04  0.37587585330E+04  0.34847642979E+04 0.  0.
        2    1    3    3  502    0  0.45380800072E+02  0.11943547006E+04 -0.20718918163E+04  0.23919193687E+04  0.25500000920E-02 0.  1.
       -2    1    3    3    0  502 -0.45380800072E+02 -0.11943547006E+04  0.66310386295E+03  0.13668391643E+04  0.25500000920E-02 0. -1.
</event>
<event>
 5   0  0.6134625E-07  0.2970452E+04  0.7818609E-02  0.8252219E-01
       -1   -1    0    0    0  501  0.00000000000E+00  0.00000000000E+00  0.13161001013E+04  0.13161001013E+04  0.50400001928E-02 0. -1.
        1   -1    0    0  501    0  0.00000000000E+00  0.00000000000E+00 -0.16760857978E+04  0.16760857978E+04  0.50400001928E-02 0.  1.
    10030    2    1    2    0    0  0.00000000000E+00  0.00000000000E+00 -0.35998569656E+03  0.29921858991E+04  0.29704522809E+04 0.  0.
        3    1    3    3  502    0 -0.78523076856E+03  0.12565160066E+04 -0.28309820290E+03  0.15084974104E+04  0.10100000352E+00 0. -1.
       -3    1    3    3    0  502  0.78523076856E+03 -0.12565160066E+04 -0.76887493667E+02  0.14836884887E+04  0.10100000352E+00 0.  1.
</event>
<event>
 5   0  0.6134625E-07  0.3014844E+04  0.7818609E-02  0.8239505E-01
        1   -1    0    0  501    0  0.00000000000E+00  0.00000000000E+00  0.26296888538E+04  0.26296888538E+04  0.50400001928E-02 0.  1.
       -1   -1    0    0    0  501  0.00000000000E+00  0.00000000000E+00 -0.86410249900E+03  0.86410249901E+03  0.50400001928E-02 0. -1.
    10030    2    1    2    0    0  0.00000000000E+00  0.00000000000E+00  0.17655863548E+04  0.34937913529E+04  0.30148437507E+04 0.  0.
        5    1    3    3  502    0  0.10755484398E+04  0.48187799124E+03 -0.20634571470E+03  0.11964996819E+04  0.46999998093E+01 0. -1.
       -5    1    3    3    0  502 -0.10755484398E+04 -0.48187799124E+03  0.19719320696E+04  0.22972916710E+04  0.46999998093E+01 0.  1.
</event>
<event>
 5   0  0.1797075E-06  0.3243875E+04  0.7818609E-02  0.8177325E-01
        2   -1    0    0  501    0  0.00000000000E+00  0.00000000000E+00  0.24511134524E+04  0.24511134524E+04  0.25500000920E-02 0. -1.
       -2   -1    0    0    0  501  0.00000000000E+00  0.00000000000E+00 -0.10732599783E+04  0.10732599783E+04  0.25500000920E-02 0.  1.
    10030    2    1    2    0    0  0.00000000000E+00  0.00000000000E+00  0.13778534741E+04  0.35243734307E+04  0.32438754419E+04 0.  0.
        2    1    3    3  502    0 -0.16572265684E+03  0.35433467260E+03 -0.10212422792E+04  0.10935962930E+04  0.25500000920E-02 0.  1.
       -2    1    3    3    0  502  0.16572265684E+03 -0.35433467260E+03  0.23990957533E+04  0.24307771376E+04  0.25500000920E-02 0. -1.
</event>
<event>
 5   0  0.1797075E-06  0.3354382E+04  0.7818609E-02  0.8149194E-01
       -2   -1    0    0    0  501  0.00000000000E+00  0.00000000000E+00  0.17820013095E+04  0.17820013095E+04  0.25500000920E-02 0. -1.
        2   -1    0    0  501    0  0.00000000000E+00  0.00000000000E+00 -0.15785453816E+04  0.15785453816E+04  0.25500000920E-02 0.  1.
    10030    2    1    2    0    0  0.00000000000E+00  0.00000000000E+00  0.20345592794E+03  0.33605466911E+04  0.33543821709E+04 0.  0.
        2    1    3    3  502    0 -0.45715102245E+02 -0.75607850987E+03 -0.13974261957E+04  0.15895107915E+04  0.25500000920E-02 0.  1.
       -2    1    3    3    0  502  0.45715102245E+02  0.75607850987E+03  0.16008821237E+04  0.17710358996E+04  0.25500000920E-02 0. -1.
</event>
<event>
 5   0  0.1339844E-06  0.3385871E+04  0.7818609E-02  0.8141383E-01
       -2   -1    0    0    0  501  0.00000000000E+00  0.00000000000E+00  0.14469255191E+04  0.14469255191E+04  0.25500000920E-02 0. -1.
        2   -1    0    0  501    0  0.00000000000E+00  0.00000000000E+00 -0.19807723737E+04  0.19807723737E+04  0.25500000920E-02 0.  1.
    10030    2    1    2    0    0  0.00000000000E+00  0.00000000000E+00 -0.53384685461E+03  0.34276978928E+04  0.33858706975E+04 0.  0.
        3    1    3    3  502    0 -0.52708011997E+03  0.99804170390E+03  0.10104602083E+04  0.15149028148E+04  0.10100000352E+00 0. -1.
       -3    1    3    3    0  502  0.52708011997E+03 -0.99804170390E+03 -0.15443070629E+04  0.19127950780E+04  0.10100000352E+00 0.  1.
</event>
<event>
 5   0  0.1880301E-06  0.3419192E+04  0.7818609E-02  0.8133212E-01
        2   -1    0    0  501    0  0.00000000000E+00  0.00000000000E+00  0.19173108861E+04  0.19173108861E+04  0.25500000920E-02 0.  1.
       -2   -1    0    0    0  501  0.00000000000E+00  0.00000000000E+00 -0.15243840981E+04  0.15243840981E+04  0.25500000920E-02 0. -1.
    10030    2    1    2    0    0  0.00000000000E+00  0.00000000000E+00  0.39292678804E+03  0.34416949842E+04  0.34191918494E+04 0.  0.
        4    1    3    3  502    0  0.49827339767E+03  0.15252003456E+04  0.79043525959E+03  0.17886592704E+04  0.12699999809E+01 0. -1.
       -4    1    3    3    0  502 -0.49827339767E+03 -0.15252003456E+04 -0.39750847155E+03  0.16530357138E+04  0.12699999809E+01 0.  1.
</event>
<event>
 5   0  0.6134625E-07  0.3422142E+04  0.7818609E-02  0.8132493E-01
       -1   -1    0    0    0  501  0.00000000000E+00  0.00000000000E+00  0.13913764077E+04  0.13913764077E+04  0.50400001928E-02 0. -1.
        1   -1    0    0  501    0  0.00000000000E+00  0.00000000000E+00 -0.21042211144E+04  0.21042211144E+04  0.50400001928E-02 0.  1.
    10030    2    1    2    0    0  0.00000000000E+00  0.00000000000E+00 -0.71284470671E+03  0.34955975221E+04  0.34221417943E+04 0.  0.
        1    1    3    3  502    0  0.30023992302E+03  0.14747201449E+04 -0.11880353285E+04  0.19173866222E+04  0.50400001928E-02 0.  1.
       -1    1    3    3    0  502 -0.30023992302E+03 -0.14747201449E+04  0.47519062184E+03  0.15782108998E+04  0.50400001928E-02 0. -1.
</event>
<event>
 5   0  0.1880301E-06  0.3385449E+04  0.7818609E-02  0.8141487E-01
        2   -1    0    0  501    0  0.00000000000E+00  0.00000000000E+00  0.17620861738E+04  0.17620861738E+04  0.25500000920E-02 0.  1.
       -2   -1    0    0    0  501  0.00000000000E+00  0.00000000000E+00 -0.16260929369E+04  0.16260929369E+04  0.25500000920E-02 0. -1.
    10030    2    1    2    0    0  0.00000000000E+00  0.00000000000E+00  0.13599323689E+03  0.33881791107E+04  0.33854487924E+04 0.  0.
        4    1    3    3  502    0  0.15632345236E+04 -0.21505401041E+03 -0.54516694960E+03  0.16694786669E+04  0.12699999809E+01 0. -1.
       -4    1    3    3    0  502 -0.15632345236E+04  0.21505401041E+03  0.68116018649E+03  0.17187004439E+04  0.12699999809E+01 0.  1.
</event>
<event>
 5   0  0.6218695E-07  0.3185883E+04  0.7818609E-02  0.8192556E-01
        1   -1    0    0  501    0  0.00000000000E+00  0.00000000000E+00  0.24204646469E+04  0.24204646469E+04  0.50400001928E-02 0. -1.
       -1   -1    0    0    0  501  0.00000000000E+00  0.00000000000E+00 -0.10483366765E+04  0.10483366765E+04  0.50400001928E-02 0.  1.
    10030    2    1    2    0    0  0.00000000000E+00  0.00000000000E+00  0.13721279704E+04  0.34688013235E+04  0.31858825237E+04 0.  0.
        2    1    3    3  502    0 -0.74688118892E+03  0.62958918164E+03 -0.68394721426E+03  0.11924755091E+04  0.25500000920E-02 0.  1.
       -2    1    3    3    0  502  0.74688118892E+03 -0.62958918164E+03  0.20560751847E+04  0.22763258143E+04  0.25500000920E-02 0. -1.
</event>
<event>
 5   0  0.1948507E-06  0.3453537E+04  0.7818609E-02  0.8124890E-01
       -2   -1    0    0    0  501  0.00000000000E+00  0.00000000000E+00  0.14326864647E+04  0.14326864648E+04  0.25500000920E-02 0. -1.
        2   -1    0    0  501    0  0.00000000000E+00  0.00000000000E+00 -0.20812161757E+04  0.20812161757E+04  0.25500000920E-02 0.  1.
    10030    2    1    2    0    0  0.00000000000E+00  0.00000000000E+00 -0.64852971098E+03  0.35139026405E+04  0.34535374590E+04 0.  0.
        1    1    3    3  502    0  0.12278227835E+04  0.12064389408E+04 -0.18517674903E+03  0.17312810673E+04  0.50400001928E-02 0.  1.
       -1    1    3    3    0  502 -0.12278227835E+04 -0.12064389408E+04 -0.46335296195E+03  0.17826215732E+04  0.50400001928E-02 0. -1.
</event>
<event>
 5   0  0.6134625E-07  0.3399631E+04  0.7818609E-02  0.8137997E-01
        1   -1    0    0  501    0  0.00000000000E+00  0.00000000000E+00  0.23446151455E+04  0.23446151455E+04  0.50400001928E-02 0. -1.
       -1   -1    0    0    0  501  0.00000000000E+00  0.00000000000E+00 -0.12323440448E+04  0.12323440448E+04  0.50400001928E-02 0.  1.
    10030    2    1    2    0    0  0.00000000000E+00  0.00000000000E+00  0.11122711007E+04  0.35769591902E+04  0.33996308692E+04 0.  0.
        3    1    3    3  502    0 -0.47269160841E+03 -0.15481149938E+04  0.10151032475E+02  0.16187033219E+04  0.10100000352E+00 0.  1.
       -3    1    3    3    0  502  0.47269160841E+03  0.15481149938E+04  0.11021200682E+04  0.19582558683E+04  0.10100000352E+00 0. -1.
</event>
<event>
 5   0  0.1339844E-06  0.3349238E+04  0.7818609E-02  0.8150479E-01
       -2   -1    0    0    0  501  0.00000000000E+00  0.00000000000E+00  0.14156874885E+04  0.14156874885E+04  0.25500000920E-02 0. -1.
        2   -1    0    0  501    0  0.00000000000E+00  0.00000000000E+00 -0.19809091150E+04  0.19809091150E+04  0.25500000920E-02 0.  1.
    10030    2    1    2    0    0  0.00000000000E+00  0.00000000000E+00 -0.56522162650E+03  0.33965966034E+04  0.33492376743E+04 0.  0.
        3    1    3    3  502    0 -0.22646755643E+03 -0.12268942201E+04  0.85023022284E+03  0.15097842308E+04  0.10100000352E+00 0. -1.
       -3    1    3    3    0  502  0.22646755643E+03  0.12268942201E+04 -0.14154518493E+04  0.18868123726E+04  0.10100000352E+00 0.  1.
</event>
<event>
 5   0  0.6134625E-07  0.3379973E+04  0.7818609E-02  0.8142839E-01
        1   -1    0    0  501    0  0.00000000000E+00  0.00000000000E+00  0.19247080527E+04  0.19247080527E+04  0.50400001928E-02 0. -1.
       -1   -1    0    0    0  501  0.00000000000E+00  0.00000000000E+00 -0.14838899173E+04  0.14838899173E+04  0.50400001928E-02 0.  1.
    10030    2    1    2    0    0  0.00000000000E+00  0.00000000000E+00  0.44081813546E+03  0.34085979700E+04  0.33799732976E+04 0.  0.
        3    1    3    3  502    0 -0.10397294947E+04 -0.11329399124E+04 -0.48657337804E+03  0.16128682307E+04  0.10100000352E+00 0.  1.
       -3    1    3    3    0  502  0.10397294947E+04  0.11329399124E+04  0.92739151350E+03  0.17957297393E+04  0.10100000352E+00 0. -1.
</event>
<event>
 5   0  0.1948507E-06  0.3383136E+04  0.7818609E-02  0.8142058E-01
       -2   -1    0    0    0  501  0.00000000000E+00  0.00000000000E+00  0.19834188818E+04  0.19834188818E+04  0.25500000920E-02 0. -1.
        2   -1    0    0  501    0  0.00000000000E+00  0.00000000000E+00 -0.14426618072E+04  0.14426618072E+04  0.25500000920E-02 0.  1.
    10030    2    1    2    0    0  0.00000000000E+00  0.00000000000E+00  0.54075707462E+03  0.34260806890E+04  0.33831362186E+04 0.  0.
        1    1    3    3  502    0  0.15985894137E+03  0.46351760204E+03 -0.13691219431E+04  0.14542690066E+04  0.50400001928E-02 0.  1.
       -1    1    3    3    0  502 -0.15985894137E+03 -0.46351760204E+03  0.19098790177E+04  0.19718116824E+04  0.50400001928E-02 0. -1.
</event>
<event>
 5   0  0.1339844E-06  0.3415072E+04  0.7818609E-02  0.8134217E-01
       -2   -1    0    0    0  501  0.00000000000E+00  0.00000000000E+00  0.16942627202E+04  0.16942627202E+04  0.25500000920E-02 0. -1.
        2   -1    0    0  501    0  0.00000000000E+00  0.00000000000E+00 -0.17209128880E+04  0.17209128880E+04  0.25500000920E-02 0.  1.
    10030    2    1    2    0    0  0.00000000000E+00  0.00000000000E+00 -0.26650167747E+02  0.34151756082E+04  0.34150716249E+04 0.  0.
        3    1    3    3  502    0  0.88791688473E+03 -0.10202158245E+04  0.10290318510E+04  0.16994538191E+04  0.10100000352E+00 0. -1.
       -3    1    3    3    0  502 -0.88791688473E+03  0.10202158245E+04 -0.10556820187E+04  0.17157217891E+04  0.10100000352E+00 0.  1.
</event>
<event>
 5   0  0.6134625E-07  0.3446291E+04  0.7818609E-02  0.8126638E-01
       -1   -1    0    0    0  501  0.00000000000E+00  0.00000000000E+00  0.10433164495E+04  0.10433164495E+04  0.50400001928E-02 0.  1.
        1   -1    0    0  501    0  0.00000000000E+00  0.00000000000E+00 -0.28459539519E+04  0.28459539519E+04  0.50400001928E-02 0. -1.
    10030    2    1    2    0    0  0.00000000000E+00  0.00000000000E+00 -0.18026375024E+04  0.38892704014E+04  0.34462910919E+04 0.  0.
        5    1    3    3  502    0 -0.15130453368E+04  0.70957830519E+03 -0.13753059407E+04  0.21643234700E+04  0.46999998093E+01 0. -1.
       -5    1    3    3    0  502  0.15130453368E+04 -0.70957830519E+03 -0.42733156171E+03  0.17249469314E+04  0.46999998093E+01 0.  1.
</event>
<event>
 5   0  0.6146388E-07  0.3443855E+04  0.7818609E-02  0.8127226E-01
       -1   -1    0    0    0  501  0.00000000000E+00  0.00000000000E+00  0.14330377523E+04  0.14330377523E+04  0.50400001928E-02 0. -1.
        1   -1    0    0  501    0  0.00000000000E+00  0.00000000000E+00 -0.20690557883E+04  0.20690557883E+04  0.50400001928E-02 0.  1.
    10030    2    1    2    0    0  0.00000000000E+00  0.00000000000E+00 -0.63601803599E+03  0.35020935407E+04  0.34438554304E+04 0.  0.
        4    1    3    3  502    0  0.89689693816E+03 -0.65302430701E+03 -0.16571567393E+04  0.19942504694E+04  0.12699999809E+01 0.  1.
       -4    1    3    3    0  502 -0.89689693816E+03  0.65302430701E+03  0.10211387033E+04  0.15078430713E+04  0.12699999809E+01 0. -1.
</event>
<event>
 5   0  0.6218695E-07  0.3449429E+04  0.7818609E-02  0.8125880E-01
        1   -1    0    0  501    0  0.00000000000E+00  0.00000000000E+00  0.22532626637E+04  0.22532626637E+04  0.50400001928E-02 0.  1.
       -1   -1    0    0    0  501  0.00000000000E+00  0.00000000000E+00 -0.13201480933E+04  0.13201480933E+04  0.50400001928E-02 0. -1.
    10030    2    1    2    0    0  0.00000000000E+00  0.00000000000E+00  0.93311457045E+03  0.35734107570E+04  0.34494291755E+04 0.  0.
        2    1    3    3  502    0  0.71562515676E+03 -0.89346713979E+03 -0.86986393153E+03  0.14377295136E+04  0.25500000920E-02 0. -1.
       -2    1    3    3    0  502 -0.71562515676E+03  0.89346713979E+03  0.18029785020E+04  0.21356812434E+04  0.25500000920E-02 0.  1.
</event>
<event>
 5   0  0.1880301E-06  0.3431484E+04  0.7818609E-02  0.8130222E-01
       -2   -1    0    0    0  501  0.00000000000E+00  0.00000000000E+00  0.22515479313E+04  0.22515479313E+04  0.25500000920E-02 0.  1.
        2   -1    0    0  501    0  0.00000000000E+00  0.00000000000E+00 -0.13074432415E+04  0.13074432415E+04  0.25500000920E-02 0. -1.
    10030    2    1    2    0    0  0.00000000000E+00  0.00000000000E+00  0.94410468977E+03  0.35589911728E+04  0.34314843002E+04 0.  0.
        4    1    3    3  502    0 -0.77643556743E+03  0.58720333755E+03 -0.99328319232E+03  0.13907814577E+04  0.12699999809E+01 0. -1.
       -4    1    3    3    0  502  0.77643556743E+03 -0.58720333755E+03  0.19373878821E+04  0.21682097151E+04  0.12699999809E+01 0.  1.
</event>
<event>
 5   0  0.1948507E-06  0.3441675E+04  0.7818609E-02  0.8127753E-01
       -2   -1    0    0    0  501  0.00000000000E+00  0.00000000000E+00  0.17379522096E+04  0.17379522096E+04  0.25500000920E-02 0.  1.
        2   -1    0    0  501    0  0.00000000000E+00  0.00000000000E+00 -0.17038916819E+04  0.17038916819E+04  0.25500000920E-02 0. -1.
    10030    2    1    2    0    0  0.00000000000E+00  0.00000000000E+00  0.34060527707E+02  0.34418438915E+04  0.34416753557E+04 0.  0.
        1    1    3    3  502    0 -0.14279512449E+04 -0.52061349990E+03 -0.78997835956E+03  0.17129357789E+04  0.50400001928E-02 0. -1.
       -1    1    3    3    0  502  0.14279512449E+04  0.52061349990E+03  0.82403888727E+03  0.17289081126E+04  0.50400001928E-02 0.  1.
</event>
<event>
 5   0  0.6146388E-07  0.3337604E+04  0.7818609E-02  0.8153393E-01
        1   -1    0    0  501    0  0.00000000000E+00  0.00000000000E+00  0.16687532954E+04  0.16687532954E+04  0.50400001928E-02 0.  1.
       -1   -1    0    0    0  501  0.00000000000E+00  0.00000000000E+00 -0.16688503313E+04  0.16688503313E+04  0.50400001928E-02 0. -1.
    10030    2    1    2    0    0  0.00000000000E+00  0.00000000000E+00 -0.97035897508E-01  0.33376036267E+04  0.33376036252E+04 0.  0.
        4    1    3    3  502    0  0.14668470329E+04 -0.39435342420E+03 -0.69123809836E+03  0.16688219086E+04  0.12699999809E+01 0. -1.
       -4    1    3    3    0  502 -0.14668470329E+04  0.39435342420E+03  0.69114106246E+03  0.16687817180E+04  0.12699999809E+01 0.  1.
</event>
<event>
 5   0  0.1339844E-06  0.3401258E+04  0.7818609E-02  0.8137598E-01
        2   -1    0    0  501    0  0.00000000000E+00  0.00000000000E+00  0.26825364299E+04  0.26825364299E+04  0.25500000920E-02 0. -1.
       -2   -1    0    0    0  501  0.00000000000E+00  0.00000000000E+00 -0.10781359143E+04  0.10781359143E+04  0.25500000920E-02 0.  1.
    10030    2    1    2    0    0  0.00000000000E+00  0.00000000000E+00  0.16044005156E+04  0.37606723442E+04  0.34012579241E+04 0.  0.
        3    1    3    3  502    0 -0.58989410917E+03  0.15575465608E+04  0.11823525770E+04  0.20425190270E+04  0.10100000352E+00 0.  1.
       -3    1    3    3    0  502  0.58989410917E+03 -0.15575465608E+04  0.42204793860E+03  0.17181533173E+04  0.10100000352E+00 0. -1.
</event>
<event>
 5   0  0.6218695E-07  0.2807796E+04  0.7818609E-02  0.8300852E-01
        1   -1    0    0  501    0  0.00000000000E+00  0.00000000000E+00  0.21500066262E+04  0.21500066262E+04  0.50400001928E-02 0.  1.
       -1   -1    0    0    0  501  0.00000000000E+00  0.00000000000E+00 -0.91670850417E+03  0.91670850418E+03  0.50400001928E-02 0. -1.
    10030    2    1    2    0    0  0.00000000000E+00  0.00000000000E+00  0.12332981221E+04  0.30667151304E+04  0.28077958318E+04 0.  0.
        2    1    3    3  502    0 -0.52077729820E+03 -0.40007735161E+03  0.19719012256E+04  0.20783804573E+04  0.25500000920E-02 0.  1.
       -2    1    3    3    0  502  0.52077729820E+03  0.40007735161E+03 -0.73860310354E+03  0.98833467315E+03  0.25500000920E-02 0. -1.
</event>
<event>
 5   0  0.6134625E-07  0.3359428E+04  0.7818609E-02  0.8147936E-01
        1   -1    0    0  501    0  0.00000000000E+00  0.00000000000E+00  0.16404019520E+04  0.16404019520E+04  0.50400001928E-02 0.  1.
       -1   -1    0    0    0  501  0.00000000000E+00  0.00000000000E+00 -0.17199680994E+04  0.17199680994E+04  0.50400001928E-02 0. -1.
    10030    2    1    2    0    0  0.00000000000E+00  0.00000000000E+00 -0.79566147408E+02  0.33603700514E+04  0.33594279439E+04 0.  0.
        3    1    3    3  502    0 -0.90991433602E+03  0.81577719503E+03  0.11129300010E+04  0.16528913238E+04  0.10100000352E+00 0.  1.
       -3    1    3    3    0  502  0.90991433602E+03 -0.81577719503E+03 -0.11924961485E+04  0.17074787276E+04  0.10100000352E+00 0. -1.
</event>
<event>
 5   0  0.6134625E-07  0.3383191E+04  0.7818609E-02  0.8142044E-01
       -1   -1    0    0    0  501  0.00000000000E+00  0.00000000000E+00  0.30357201052E+04  0.30357201052E+04  0.50400001928E-02 0.  1.
        1   -1    0    0  501    0  0.00000000000E+00  0.00000000000E+00 -0.94260856390E+03  0.94260856392E+03  0.50400001928E-02 0. -1.
    10030    2    1    2    0    0  0.00000000000E+00  0.00000000000E+00  0.20931115413E+04  0.39783286691E+04  0.33831912561E+04 0.  0.
        5    1    3    3  502    0  0.11737857906E+04  0.99139799958E+03  0.18787401105E+04  0.24270001171E+04  0.46999998093E+01 0.  1.
       -5    1    3    3    0  502 -0.11737857906E+04 -0.99139799958E+03  0.21437143081E+03  0.15513285520E+04  0.46999998093E+01 0. -1.
</event>
<event>
 5   0  0.6218695E-07  0.3284871E+04  0.7818609E-02  0.8166756E-01
        1   -1    0    0  501    0  0.00000000000E+00  0.00000000000E+00  0.14860165142E+04  0.14860165142E+04  0.50400001928E-02 0.  1.
       -1   -1    0    0    0  501  0.00000000000E+00  0.00000000000E+00 -0.18153187690E+04  0.18153187690E+04  0.50400001928E-02 0. -1.
    10030    2    1    2    0    0  0.00000000000E+00  0.00000000000E+00 -0.32930225479E+03  0.33013352832E+04  0.32848705724E+04 0.  0.
        2    1    3    3  502    0  0.29597442636E+03  0.78351764082E+03  0.12552619121E+04  0.15090338706E+04  0.25500000920E-02 0.  1.
       -2    1    3    3    0  502 -0.29597442636E+03 -0.78351764082E+03 -0.15845641669E+04  0.17923014126E+04  0.25500000920E-02 0. -1.
</event>
<event>
 5   0  0.6134625E-07  0.3387295E+04  0.7818609E-02  0.8141032E-01
        1   -1    0    0  501    0  0.00000000000E+00  0.00000000000E+00  0.20583126027E+04  0.20583126027E+04  0.50400001928E-02 0.  1.
       -1   -1    0    0    0  501  0.00000000000E+00  0.00000000000E+00 -0.13935889621E+04  0.13935889621E+04  0.50400001928E-02 0. -1.
    10030    2    1    2    0    0  0.00000000000E+00  0.00000000000E+00  0.66472364059E+03  0.34519015647E+04  0.33872949228E+04 0.  0.
        5    1    3    3  502    0  0.10504533499E+04  0.59639619868E+03  0.15421347902E+04  0.19589135937E+04  0.46999998093E+01 0.  1.
       -5    1    3    3    0  502 -0.10504533499E+04 -0.59639619868E+03 -0.87741114965E+03  0.14929879711E+04  0.46999998093E+01 0. -1.
</event>
<event>
 5   0  0.1880301E-06  0.3392475E+04  0.7818609E-02  0.8139756E-01
       -2   -1    0    0    0  501  0.00000000000E+00  0.00000000000E+00  0.14187556460E+04  0.14187556460E+04  0.25500000920E-02 0.  1.
        2   -1    0    0  501    0  0.00000000000E+00  0.00000000000E+00 -0.20279895297E+04  0.20279895297E+04  0.25500000920E-02 0. -1.
    10030    2    1    2    0    0  0.00000000000E+00  0.00000000000E+00 -0.60923388369E+03  0.34467451757E+04  0.33924749640E+04 0.  0.
        4    1    3    3  502    0 -0.14930756389E+04  0.19684418075E+03  0.48838011750E+03  0.15832053711E+04  0.12699999809E+01 0.  1.
       -4    1    3    3    0  502  0.14930756389E+04 -0.19684418075E+03 -0.10976140012E+04  0.18635398046E+04  0.12699999809E+01 0. -1.
</event>
<event>
 5   0  0.6146388E-07  0.3288819E+04  0.7818609E-02  0.8165746E-01
        1   -1    0    0  501    0  0.00000000000E+00  0.00000000000E+00  0.10039261269E+04  0.10039261270E+04  0.50400001928E-02 0. -1.
       -1   -1    0    0    0  501  0.00000000000E+00  0.00000000000E+00 -0.26935070710E+04  0.26935070710E+04  0.50400001928E-02 0.  1.
    10030    2    1    2    0    0  0.00000000000E+00  0.00000000000E+00 -0.16895809441E+04  0.36974331980E+04  0.32888187069E+04 0.  0.
        4    1    3    3  502    0 -0.70831099127E+03  0.13861771812E+03  0.81633830547E+03  0.10896463527E+04  0.12699999809E+01 0. -1.
       -4    1    3    3    0  502  0.70831099127E+03 -0.13861771812E+03 -0.25059192495E+04  0.26077868452E+04  0.12699999809E+01 0.  1.
</event>
<event>
 5   0  0.6134625E-07  0.3355282E+04  0.7818609E-02  0.8148970E-01
       -1   -1    0    0    0  501  0.00000000000E+00  0.00000000000E+00  0.27451166192E+04  0.27451166192E+04  0.50400001928E-02 0. -1.
        1   -1    0    0  501    0  0.00000000000E+00  0.00000000000E+00 -0.10252674351E+04  0.10252674351E+04  0.50400001928E-02 0.  1.
    10030    2    1    2    0    0  0.00000000000E+00  0.00000000000E+00  0.17198491841E+04  0.37703840543E+04  0.33552816127E+04 0.  0.
        3    1    3    3  502    0  0.95905172384E+03  0.67499099546E+03 -0.48810656051E+03  0.12702917293E+04  0.10100000352E+00 0.  1.
       -3    1    3    3    0  502 -0.95905172384E+03 -0.67499099546E+03  0.22079557447E+04  0.25000923250E+04  0.10100000352E+00 0. -1.
</event>
<event>
 5   0  0.1797075E-06  0.3255821E+04  0.7818609E-02  0.8174229E-01
        2   -1    0    0  501    0  0.00000000000E+00  0.00000000000E+00  0.96944466753E+03  0.96944466753E+03  0.25500000920E-02 0. -1.
       -2   -1    0    0    0  501  0.00000000000E+00  0.00000000000E+00 -0.27336186149E+04  0.27336186149E+04  0.25500000920E-02 0.  1.
    10030    2    1    2    0    0  0.00000000000E+00  0.00000000000E+00 -0.17641739474E+04  0.37030632824E+04  0.32558206273E+04 0.  0.
        2    1    3    3  502    0 -0.13400485088E+04  0.78461158196E+03 -0.32634998221E+03  0.15867733459E+04  0.25500000920E-02 0. -1.
       -2    1    3    3    0  502  0.13400485088E+04 -0.78461158196E+03 -0.14378239652E+04  0.21162899365E+04  0.25500000920E-02 0.  1.
</event>
<event>
 5   0  0.1880301E-06  0.3376494E+04  0.7818609E-02  0.8143700E-01
        2   -1    0    0  501    0  0.00000000000E+00  0.00000000000E+00  0.17266403487E+04  0.17266403487E+04  0.25500000920E-02 0. -1.
       -2   -1    0    0    0  501  0.00000000000E+00  0.00000000000E+00 -0.16507076775E+04  0.16507076775E+04  0.25500000920E-02 0.  1.
    10030    2    1    2    0    0  0.00000000000E+00  0.00000000000E+00  0.75932671234E+02  0.33773480262E+04  0.33764943239E+04 0.  0.
        4    1    3    3  502    0 -0.82176305014E+02  0.10486375687E+04 -0.12828913661E+04  0.16589772650E+04  0.12699999809E+01 0.  1.
       -4    1    3    3    0  502  0.82176305014E+02 -0.10486375687E+04  0.13588240374E+04  0.17183707612E+04  0.12699999809E+01 0. -1.
</event>
<event>
 5   0  0.6134625E-07  0.3423244E+04  0.7818609E-02  0.8132225E-01
       -1   -1    0    0    0  501  0.00000000000E+00  0.00000000000E+00  0.14069095423E+04  0.14069095423E+04  0.50400001928E-02 0. -1.
        1   -1    0    0  501    0  0.00000000000E+00  0.00000000000E+00 -0.20823294571E+04  0.20823294571E+04  0.50400001928E-02 0.  1.
    10030    2    1    2    0    0  0.00000000000E+00  0.00000000000E+00 -0.67541991481E+03  0.34892389995E+04  0.34232435984E+04 0.  0.
        3    1    3    3  502    0 -0.16521303287E+04  0.24010609839E+03  0.47010152835E+02  0.16701483546E+04  0.10100000352E+00 0. -1.
       -3    1    3    3    0  502  0.16521303287E+04 -0.24010609839E+03 -0.72243006765E+03  0.18190906449E+04  0.10100000352E+00 0.  1.
</event>
<event>
 5   0  0.1880301E-06  0.3200247E+04  0.7818609E-02  0.8188752E-01
        2   -1    0    0  501    0  0.00000000000E+00  0.00000000000E+00  0.24631901504E+04  0.24631901504E+04  0.25500000920E-02 0.  1.
       -2   -1    0    0    0  501  0.00000000000E+00  0.00000000000E+00 -0.10394629631E+04  0.10394629631E+04  0.25500000920E-02 0. -1.
    10030    2    1    2    0    0  0.00000000000E+00  0.00000000000E+00  0.14237271873E+04  0.35026531135E+04  0.32002468233E+04 0.  0.
        4    1    3    3  502    0 -0.28354562974E+03 -0.65663180324E+03 -0.85476699663E+03  0.11145365317E+04  0.12699999809E+01 0. -1.
       -4    1    3    3    0  502  0.28354562974E+03  0.65663180324E+03  0.22784941839E+04  0.23881165818E+04  0.12699999809E+01 0.  1.
</event>
<event>
 5   0  0.6218695E-07  0.3413789E+04  0.7818609E-02  0.8134530E-01
        1   -1    0    0  501    0  0.00000000000E+00  0.00000000000E+00  0.26500744080E+04  0.26500744080E+04  0.50400001928E-02 0.  1.
       -1   -1    0    0    0  501  0.00000000000E+00  0.00000000000E+00 -0.10993991951E+04  0.10993991951E+04  0.50400001928E-02 0. -1.
    10030    2    1    2    0    0  0.00000000000E+00  0.00000000000E+00  0.15506752129E+04  0.37494736031E+04  0.34137894903E+04 0.  0.
        2    1    3    3  502    0 -0.13284511071E+04  0.86104622350E+03  0.74375799468E+02  0.15848390147E+04  0.25500000920E-02 0. -1.
       -2    1    3    3    0  502  0.13284511071E+04 -0.86104622350E+03  0.14762994135E+04  0.21646345884E+04  0.25500000920E-02 0.  1.
</event>
<event>
 5   0  0.1339844E-06  0.3375675E+04  0.7818609E-02  0.8143902E-01
        2   -1    0    0  501    0  0.00000000000E+00  0.00000000000E+00  0.17721761557E+04  0.17721761557E+04  0.25500000920E-02 0. -1.
       -2   -1    0    0    0  501  0.00000000000E+00  0.00000000000E+00 -0.16075123583E+04  0.16075123583E+04  0.25500000920E-02 0.  1.
    10030    2    1    2    0    0  0.00000000000E+00  0.00000000000E+00  0.16466379733E+03  0.33796885140E+04  0.33756747896E+04 0.  0.
        3    1    3    3  502    0  0.17003549186E+03 -0.79296183053E+03  0.15643265375E+04  0.17620493918E+04  0.10100000352E+00 0. -1.
       -3    1    3    3    0  502 -0.17003549186E+03  0.79296183053E+03 -0.13996627402E+04  0.16176391222E+04  0.10100000352E+00 0.  1.
</event>
<event>
 5   0  0.6218695E-07  0.3386396E+04  0.7818609E-02  0.8141253E-01
        1   -1    0    0  501    0  0.00000000000E+00  0.00000000000E+00  0.27862270137E+04  0.27862270137E+04  0.50400001928E-02 0. -1.
       -1   -1    0    0    0  501  0.00000000000E+00  0.00000000000E+00 -0.10289612224E+04  0.10289612224E+04  0.50400001928E-02 0.  1.
    10030    2    1    2    0    0  0.00000000000E+00  0.00000000000E+00  0.17572657913E+04  0.38151882361E+04  0.33863960511E+04 0.  0.
        2    1    3    3  502    0 -0.67289736257E+03 -0.80009494096E+03  0.23791888226E+04  0.25987462802E+04  0.25500000920E-02 0. -1.
       -2    1    3    3    0  502  0.67289736257E+03  0.80009494096E+03 -0.62192303132E+03  0.12164419559E+04  0.25500000920E-02 0.  1.
</event>
<event>
 5   0  0.1339844E-06  0.3486870E+04  0.7818609E-02  0.8116909E-01
       -2   -1    0    0    0  501  0.00000000000E+00  0.00000000000E+00  0.15579448168E+04  0.15579448168E+04  0.25500000920E-02 0. -1.
        2   -1    0    0  501    0  0.00000000000E+00  0.00000000000E+00 -0.19510095704E+04  0.19510095704E+04  0.25500000920E-02 0.  1.
    10030    2    1    2    0    0  0.00000000000E+00  0.00000000000E+00 -0.39306475361E+03  0.35089543872E+04  0.34868697984E+04 0.  0.
        3    1    3    3  502    0 -0.19287072606E+03 -0.50238512199E+03  0.14722756857E+04  0.15675412698E+04  0.10100000352E+00 0. -1.
       -3    1    3    3    0  502  0.19287072606E+03  0.50238512199E+03 -0.18653404393E+04  0.19414131174E+04  0.10100000352E+00 0.  1.
</event>
<event>
 5   0  0.1911477E-06  0.3408758E+04  0.7818609E-02  0.8135760E-01
       -2   -1    0    0    0  501  0.00000000000E+00  0.00000000000E+00  0.25391997911E+04  0.25391997911E+04  0.25500000920E-02 0. -1.
        2   -1    0    0  501    0  0.00000000000E+00  0.00000000000E+00 -0.11440247597E+04  0.11440247597E+04  0.25500000920E-02 0.  1.
    10030    2    1    2    0    0  0.00000000000E+00  0.00000000000E+00  0.13951750314E+04  0.36832245508E+04  0.34087577977E+04 0.  0.
        5    1    3    3  502    0  0.53585868575E+03  0.99304610310E+03  0.20777776971E+04  0.23644169139E+04  0.46999998093E+01 0. -1.
       -5    1    3    3    0  502 -0.53585868575E+03 -0.99304610310E+03 -0.68260266569E+03  0.13188076369E+04  0.46999998093E+01 0.  1.
</event>
<event>
 5   0  0.1797075E-06  0.3461704E+04  0.7818609E-02  0.8122926E-01
       -2   -1    0    0    0  501  0.00000000000E+00  0.00000000000E+00  0.20591394849E+04  0.20591394849E+04  0.25500000920E-02 0. -1.
        2   -1    0    0  501    0  0.00000000000E+00  0.00000000000E+00 -0.14549035054E+04  0.14549035054E+04  0.25500000920E-02 0.  1.
    10030    2    1    2    0    0  0.00000000000E+00  0.00000000000E+00  0.60423597948E+03  0.35140429902E+04  0.34617043517E+04 0.  0.
        2    1    3    3  502    0 -0.15734823903E+03 -0.10375419984E+04  0.16993726389E+04  0.19972779558E+04  0.25500000920E-02 0. -1.
       -2    1    3    3    0  502  0.15734823903E+03  0.10375419984E+04 -0.10951366594E+04  0.15167650344E+04  0.25500000920E-02 0.  1.
</event>
<event>
 5   0  0.6134625E-07  0.3364810E+04  0.7818609E-02  0.8146597E-01
        1   -1    0    0  501    0  0.00000000000E+00  0.00000000000E+00  0.25066108189E+04  0.25066108189E+04  0.50400001928E-02 0. -1.
       -1   -1    0    0    0  501  0.00000000000E+00  0.00000000000E+00 -0.11292089447E+04  0.11292089447E+04  0.50400001928E-02 0.  1.
    10030    2    1    2    0    0  0.00000000000E+00  0.00000000000E+00  0.13774018742E+04  0.36358197636E+04  0.33648104598E+04 0.  0.
        5    1    3    3  502    0  0.13292009221E+04  0.23557703802E+03 -0.39625903637E+03  0.14068812836E+04  0.46999998093E+01 0.  1.
       -5    1    3    3    0  502 -0.13292009221E+04 -0.23557703802E+03  0.17736609106E+04  0.22289384801E+04  0.46999998093E+01 0. -1.
</event>
<event>
 5   0  0.1880301E-06  0.3412642E+04  0.7818609E-02  0.8134811E-01
        2   -1    0    0  501    0  0.00000000000E+00  0.00000000000E+00  0.16992718032E+04  0.16992718032E+04  0.25500000920E-02 0.  1.
       -2   -1    0    0    0  501  0.00000000000E+00  0.00000000000E+00 -0.17133989494E+04  0.17133989494E+04  0.25500000920E-02 0. -1.
    10030    2    1    2    0    0  0.00000000000E+00  0.00000000000E+00 -0.14127146154E+02  0.34126707526E+04  0.34126415120E+04 0.  0.
        4    1    3    3  502    0 -0.70516817371E+03 -0.15411264348E+04 -0.20504523874E+03  0.17071549443E+04  0.12699999809E+01 0.  1.
       -4    1    3    3    0  502  0.70516817371E+03  0.15411264348E+04  0.19091809258E+03  0.17055158082E+04  0.12699999809E+01 0. -1.
</event>
<event>
 5   0  0.1339844E-06  0.3543981E+04  0.7818609E-02  0.8103445E-01
        2   -1    0    0  501    0  0.00000000000E+00  0.00000000000E+00  0.19626835991E+04  0.19626835991E+04  0.25500000920E-02 0. -1.
       -2   -1    0    0    0  501  0.00000000000E+00  0.00000000000E+00 -0.15998252680E+04  0.15998252680E+04  0.25500000920E-02 0.  1.
    10030    2    1    2    0    0  0.00000000000E+00  0.00000000000E+00  0.36285833105E+03  0.35625088671E+04  0.35439812725E+04 0.  0.
        3    1    3    3  502    0  0.30516329112E+03  0.15647485835E+04 -0.59617036266E+03  0.17020522540E+04  0.10100000352E+00 0.  1.
       -3    1    3    3    0  502 -0.30516329112E+03 -0.15647485835E+04  0.95902869370E+03  0.18604566131E+04  0.10100000352E+00 0. -1.
</event>
<event>
 5   0  0.6146388E-07  0.2634045E+04  0.7818609E-02  0.8356728E-01
       -1   -1    0    0    0  501  0.00000000000E+00  0.00000000000E+00  0.88319581364E+03  0.88319581365E+03  0.50400001928E-02 0.  1.
        1   -1    0    0  501    0  0.00000000000E+00  0.00000000000E+00 -0.19639458418E+04  0.19639458418E+04  0.50400001928E-02 0. -1.
    10030    2    1    2    0    0  0.00000000000E+00  0.00000000000E+00 -0.10807500282E+04  0.28471416555E+04  0.26340453646E+04 0.  0.
        4    1    3    3  502    0 -0.10625021158E+04  0.73772685862E+03 -0.80820178500E+03  0.15252355235E+04  0.12699999809E+01 0.  1.
       -4    1    3    3    0  502  0.10625021158E+04 -0.73772685862E+03 -0.27254824321E+03  0.13219061320E+04  0.12699999809E+01 0. -1.
</event>
<event>
 5   0  0.1911477E-06  0.3382115E+04  0.7818609E-02  0.8142310E-01
       -2   -1    0    0    0  501  0.00000000000E+00  0.00000000000E+00  0.12338062171E+04  0.12338062171E+04  0.25500000920E-02 0. -1.
        2   -1    0    0  501    0  0.00000000000E+00  0.00000000000E+00 -0.23177673799E+04  0.23177673799E+04  0.25500000920E-02 0.  1.
    10030    2    1    2    0    0  0.00000000000E+00  0.00000000000E+00 -0.10839611628E+04  0.35515735970E+04  0.33821151980E+04 0.  0.
        5    1    3    3  502    0 -0.87606206628E+03  0.94418407828E+03 -0.16926406362E+04  0.21269750189E+04  0.46999998093E+01 0.  1.
       -5    1    3    3    0  502  0.87606206628E+03 -0.94418407828E+03  0.60867947334E+03  0.14245985782E+04  0.46999998093E+01 0. -1.
</event>
<event>
 5   0  0.1339844E-06  0.3671940E+04  0.7818609E-02  0.8074209E-01
        2   -1    0    0  501    0  0.00000000000E+00  0.00000000000E+00  0.17903385693E+04  0.17903385693E+04  0.25500000920E-02 0. -1.
       -2   -1    0    0    0  501  0.00000000000E+00  0.00000000000E+00 -0.18827642583E+04  0.18827642583E+04  0.25500000920E-02 0.  1.
    10030    2    1    2    0    0  0.00000000000E+00  0.00000000000E+00 -0.92425688973E+02  0.36731028276E+04  0.36719397972E+04 0.  0.
        3    1    3    3  502    0  0.12805631637E+04  0.87124317233E+02 -0.13593939665E+04  0.18695947768E+04  0.10100000352E+00 0.  1.
       -3    1    3    3    0  502 -0.12805631637E+04 -0.87124317233E+02  0.12669682776E+04  0.18035080508E+04  0.10100000352E+00 0. -1.
</event>
<event>
 5   0  0.6134625E-07  0.3389991E+04  0.7818609E-02  0.8140367E-01
        1   -1    0    0  501    0  0.00000000000E+00  0.00000000000E+00  0.17960890596E+04  0.17960890596E+04  0.50400001928E-02 0.  1.
       -1   -1    0    0    0  501  0.00000000000E+00  0.00000000000E+00 -0.15995917400E+04  0.15995917400E+04  0.50400001928E-02 0. -1.
    10030    2    1    2    0    0  0.00000000000E+00  0.00000000000E+00  0.19649731952E+03  0.33956807996E+04  0.33899906927E+04 0.  0.
        1    1    3    3  502    0  0.39424226575E+03  0.91750195475E+03 -0.12736386112E+04  0.16184536178E+04  0.50400001928E-02 0. -1.
       -1    1    3    3    0  502 -0.39424226575E+03 -0.91750195475E+03  0.14701359307E+04  0.17772271818E+04  0.50400001928E-02 0.  1.
</event>
<event>
 5   0  0.1948507E-06  0.3359240E+04  0.7818609E-02  0.8147983E-01
        2   -1    0    0  501    0  0.00000000000E+00  0.00000000000E+00  0.29593822447E+04  0.29593822447E+04  0.25500000920E-02 0.  1.
       -2   -1    0    0    0  501  0.00000000000E+00  0.00000000000E+00 -0.95328098963E+03  0.95328098964E+03  0.25500000920E-02 0. -1.
    10030    2    1    2    0    0  0.00000000000E+00  0.00000000000E+00  0.20061012551E+04  0.39126632344E+04  0.33592396967E+04 0.  0.
        1    1    3    3  502    0 -0.10602750187E+04 -0.35681506965E+03  0.24622986543E+04  0.27045174749E+04  0.50400001928E-02 0.  1.
       -1    1    3    3    0  502  0.10602750187E+04  0.35681506965E+03 -0.45619739915E+03  0.12081457595E+04  0.50400001928E-02 0. -1.
</event>
<event>
 5   0  0.6146388E-07  0.3408909E+04  0.7818609E-02  0.8135723E-01
       -1   -1    0    0    0  501  0.00000000000E+00  0.00000000000E+00  0.16998332952E+04  0.16998332952E+04  0.50400001928E-02 0.  1.
        1   -1    0    0  501    0  0.00000000000E+00  0.00000000000E+00 -0.17090883894E+04  0.17090883894E+04  0.50400001928E-02 0. -1.
    10030    2    1    2    0    0  0.00000000000E+00  0.00000000000E+00 -0.92550941787E+01  0.34089216845E+04  0.34089091209E+04 0.  0.
        4    1    3    3  502    0 -0.15722565792E+04  0.61860894104E+03  0.22008634907E+03  0.17038507525E+04  0.12699999809E+01 0. -1.
       -4    1    3    3    0  502  0.15722565792E+04 -0.61860894104E+03 -0.22934144325E+03  0.17050709321E+04  0.12699999809E+01 0.  1.
</event>
<event>
 5   0  0.1948507E-06  0.2686531E+04  0.7818609E-02  0.8339389E-01
       -2   -1    0    0    0  501  0.00000000000E+00  0.00000000000E+00  0.58298009519E+03  0.58298009520E+03  0.25500000920E-02 0. -1.
        2   -1    0    0  501    0  0.00000000000E+00  0.00000000000E+00 -0.30950654420E+04  0.30950654420E+04  0.25500000920E-02 0.  1.
    10030    2    1    2    0    0  0.00000000000E+00  0.00000000000E+00 -0.25120853469E+04  0.36780455372E+04  0.26865305106E+04 0.  0.
        1    1    3    3  502    0 -0.93809065369E+03  0.52352023724E+03 -0.15203134299E+03  0.10849889597E+04  0.50400001928E-02 0. -1.
       -1    1    3    3    0  502  0.93809065369E+03 -0.52352023724E+03 -0.23600540039E+04  0.25930565776E+04  0.50400001928E-02 0.  1.
</event>
<event>
 5   0  0.1948507E-06  0.3494592E+04  0.7818609E-02  0.8115073E-01
        2   -1    0    0  501    0  0.00000000000E+00  0.00000000000E+00  0.16909116623E+04  0.16909116623E+04  0.25500000920E-02 0.  1.
       -2   -1    0    0    0  501  0.00000000000E+00  0.00000000000E+00 -0.18055609310E+04  0.18055609310E+04  0.25500000920E-02 0. -1.
    10030    2    1    2    0    0  0.00000000000E+00  0.00000000000E+00 -0.11464926875E+03  0.34964725933E+04  0.34945924142E+04 0.  0.
        1    1    3    3  502    0  0.34515801995E+03  0.16583035952E+04 -0.48643667559E+03  0.17623068722E+04  0.50400001928E-02 0. -1.
       -1    1    3    3    0  502 -0.34515801995E+03 -0.16583035952E+04  0.37178740684E+03  0.17341657211E+04  0.50400001928E-02 0.  1.
</event>
<event>
 5   0  0.1339844E-06  0.2857155E+04  0.7818609E-02  0.8285741E-01
        2   -1    0    0  501    0  0.00000000000E+00  0.00000000000E+00  0.18613032145E+04  0.18613032145E+04  0.25500000920E-02 0. -1.
       -2   -1    0    0    0  501  0.00000000000E+00  0.00000000000E+00 -0.10964538908E+04  0.10964538908E+04  0.25500000920E-02 0.  1.
    10030    2    1    2    0    0  0.00000000000E+00  0.00000000000E+00  0.76484932376E+03  0.29577571053E+04  0.28571546345E+04 0.  0.
        3    1    3    3  502    0  0.64239300605E+03 -0.77326322648E+03 -0.66831592667E+03  0.12071665087E+04  0.10100000352E+00 0.  1.
       -3    1    3    3    0  502 -0.64239300605E+03  0.77326322648E+03  0.14331652504E+04  0.17505905966E+04  0.10100000352E+00 0. -1.
</event>
<event>
 5   0  0.1339844E-06  0.3405130E+04  0.7818609E-02  0.8136648E-01
        2   -1    0    0  501    0  0.00000000000E+00  0.00000000000E+00  0.25111730001E+04  0.25111730001E+04  0.25500000920E-02 0. -1.
       -2   -1    0    0    0  501  0.00000000000E+00  0.00000000000E+00 -0.11543323408E+04  0.11543323408E+04  0.25500000920E-02 0.  1.
    10030    2    1    2    0    0  0.00000000000E+00  0.00000000000E+00  0.13568406593E+04  0.36655053410E+04  0.34051303690E+04 0.  0.
        3    1    3    3  502    0 -0.16517617387E+04  0.41043603842E+03  0.72599978914E+03  0.18503649065E+04  0.10100000352E+00 0. -1.
       -3    1    3    3    0  502  0.16517617387E+04 -0.41043603842E+03  0.63084087015E+03  0.18151404345E+04  0.10100000352E+00 0.  1.
</event>
<event>
 5   0  0.6218695E-07  0.3449278E+04  0.7818609E-02  0.8125917E-01
        1   -1    0    0  501    0  0.00000000000E+00  0.00000000000E+00  0.14353632182E+04  0.14353632182E+04  0.50400001928E-02 0.  1.
       -1   -1    0    0    0  501  0.00000000000E+00  0.00000000000E+00 -0.20722138311E+04  0.20722138311E+04  0.50400001928E-02 0. -1.
    10030    2    1    2    0    0  0.00000000000E+00  0.00000000000E+00 -0.63685061289E+03  0.35075770494E+04  0.34492779033E+04 0.  0.
        2    1    3    3  502    0  0.34126740691E+03  0.41962709043E+03  0.13468827729E+04  0.14514281043E+04  0.25500000920E-02 0.  1.
       -2    1    3    3    0  502 -0.34126740691E+03 -0.41962709043E+03 -0.19837333858E+04  0.20561489450E+04  0.25500000920E-02 0. -1.
</event>
<event>
 5   0  0.6134625E-07  0.3405436E+04  0.7818609E-02  0.8136573E-01
        1   -1    0    0  501    0  0.00000000000E+00  0.00000000000E+00  0.13959162570E+04  0.13959162570E+04  0.50400001928E-02 0. -1.
       -1   -1    0    0    0  501  0.00000000000E+00  0.00000000000E+00 -0.20769504618E+04  0.20769504618E+04  0.50400001928E-02 0.  1.
    10030    2    1    2    0    0  0.00000000000E+00  0.00000000000E+00 -0.68103420476E+03  0.34728667188E+04  0.34054361921E+04 0.  0.
        1    1    3    3  502    0 -0.14993211506E+04  0.58625897123E+03  0.22506836543E+03  0.16255212282E+04  0.50400001928E-02 0. -1.
       -1    1    3    3    0  502  0.14993211506E+04 -0.58625897123E+03 -0.90610257020E+03  0.18473454907E+04  0.50400001928E-02 0.  1.
</event>
<event>
 5   0  0.6134625E-07  0.3186206E+04  0.7818609E-02  0.8192470E-01
        1   -1    0    0  501    0  0.00000000000E+00  0.00000000000E+00  0.14041113561E+04  0.14041113561E+04  0.50400001928E-02 0. -1.
       -1   -1    0    0    0  501  0.00000000000E+00  0.00000000000E+00 -0.18075329859E+04  0.18075329859E+04  0.50400001928E-02 0.  1.
    10030    2    1    2    0    0  0.00000000000E+00  0.00000000000E+00 -0.40342162980E+03  0.32116443420E+04  0.31862062658E+04 0.  0.
        5    1    3    3  502    0 -0.14264890968E+04 -0.33427160384E+03 -0.83228252301E+03  0.16850296545E+04  0.46999998093E+01 0.  1.
       -5    1    3    3    0  502  0.14264890968E+04  0.33427160384E+03  0.42886089320E+03  0.15266146875E+04  0.46999998093E+01 0. -1.
</event>
<event>
 5   0  0.6134625E-07  0.3398802E+04  0.7818609E-02  0.8138200E-01
       -1   -1    0    0    0  501  0.00000000000E+00  0.00000000000E+00  0.11939257411E+04  0.11939257411E+04  0.50400001928E-02 0. -1.
        1   -1    0    0  501    0  0.00000000000E+00  0.00000000000E+00 -0.24188808185E+04  0.24188808185E+04  0.50400001928E-02 0.  1.
    10030    2    1    2    0    0  0.00000000000E+00  0.00000000000E+00 -0.12249550773E+04  0.36128065596E+04  0.33988021855E+04 0.  0.
        5    1    3    3  502    0  0.67514368036E+03 -0.20567165846E+03  0.10307647852E+04  0.12492469542E+04  0.46999998093E+01 0. -1.
       -5    1    3    3    0  502 -0.67514368036E+03  0.20567165846E+03 -0.22557198625E+04  0.23635596054E+04  0.46999998093E+01 0.  1.
</event>
<event>
 5   0  0.6218695E-07  0.2577615E+04  0.7818609E-02  0.8375845E-01
       -1   -1    0    0    0  501  0.00000000000E+00  0.00000000000E+00  0.83373926806E+03  0.83373926808E+03  0.50400001928E-02 0. -1.
        1   -1    0    0  501    0  0.00000000000E+00  0.00000000000E+00 -0.19922594408E+04  0.19922594408E+04  0.50400001928E-02 0.  1.
    10030    2    1    2    0    0  0.00000000000E+00  0.00000000000E+00 -0.11585201727E+04  0.28259987089E+04  0.25776151210E+04 0.  0.
        2    1    3    3  502    0  0.45712139088E+02 -0.75690881133E+02 -0.19889299114E+04  0.19908944979E+04  0.25500000920E-02 0.  1.
       -2    1    3    3    0  502 -0.45712139088E+02  0.75690881133E+02  0.83040973868E+03  0.83510421101E+03  0.25500000920E-02 0. -1.
</event>
<event>
 5   0  0.6134625E-07  0.3428825E+04  0.7818609E-02  0.8130868E-01
        1   -1    0    0  501    0  0.00000000000E+00  0.00000000000E+00  0.17755472646E+04  0.17755472646E+04  0.50400001928E-02 0.  1.
       -1   -1    0    0    0  501  0.00000000000E+00  0.00000000000E+00 -0.16553822419E+04  0.16553822419E+04  0.50400001928E-02 0. -1.
    10030    2    1    2    0    0  0.00000000000E+00  0.00000000000E+00  0.12016502268E+03  0.34309295065E+04  0.34288245284E+04 0.  0.
        1    1    3    3  502    0 -0.14420096597E+04 -0.82976519053E+03 -0.35406441827E+03  0.17009596534E+04  0.50400001928E-02 0.  1.
       -1    1    3    3    0  502  0.14420096597E+04  0.82976519053E+03  0.47422944095E+03  0.17299698532E+04  0.50400001928E-02 0. -1.
</event>
<event>
 5   0  0.1880301E-06  0.3357247E+04  0.7818609E-02  0.8148480E-01
       -2   -1    0    0    0  501  0.00000000000E+00  0.00000000000E+00  0.10504482673E+04  0.10504482673E+04  0.25500000920E-02 0.  1.
        2   -1    0    0  501    0  0.00000000000E+00  0.00000000000E+00 -0.26824510279E+04  0.26824510279E+04  0.25500000920E-02 0. -1.
    10030    2    1    2    0    0  0.00000000000E+00  0.00000000000E+00 -0.16320027606E+04  0.37328992953E+04  0.33572465114E+04 0.  0.
        4    1    3    3  502    0  0.83288604563E+03 -0.33057543245E+02 -0.24360805766E+04  0.25747392402E+04  0.12699999809E+01 0. -1.
       -4    1    3    3    0  502 -0.83288604563E+03  0.33057543245E+02  0.80407781602E+03  0.11581600551E+04  0.12699999809E+01 0.  1.
</event>
<event>
 5   0  0.6134625E-07  0.3191428E+04  0.7818609E-02  0.8191085E-01
       -1   -1    0    0    0  501  0.00000000000E+00  0.00000000000E+00  0.14187281446E+04  0.14187281446E+04  0.50400001928E-02 0. -1.
        1   -1    0    0  501    0  0.00000000000E+00  0.00000000000E+00 -0.17947784753E+04  0.17947784753E+04  0.50400001928E-02 0.  1.
    10030    2    1    2    0    0  0.00000000000E+00  0.00000000000E+00 -0.37605033069E+03  0.32135066199E+04  0.31914277283E+04 0.  0.
        3    1    3    3  502    0 -0.13724360073E+04  0.48496302771E+03  0.47035843229E+03  0.15297080759E+04  0.10100000352E+00 0. -1.
       -3    1    3    3    0  502  0.13724360073E+04 -0.48496302771E+03 -0.84640876298E+03  0.16837985440E+04  0.10100000352E+00 0.  1.
</event>
<event>
 5   0  0.1797075E-06  0.3407807E+04  0.7818609E-02  0.8135993E-01
       -2   -1    0    0    0  501  0.00000000000E+00  0.00000000000E+00  0.28113435634E+04  0.28113435634E+04  0.25500000920E-02 0.  1.
        2   -1    0    0  501    0  0.00000000000E+00  0.00000000000E+00 -0.10327047084E+04  0.10327047084E+04  0.25500000920E-02 0. -1.
    10030    2    1    2    0    0  0.00000000000E+00  0.00000000000E+00  0.17786388550E+04  0.38440482718E+04  0.34078073507E+04 0.  0.
        2    1    3    3  502    0 -0.15625449401E+04 -0.63940324598E+03  0.11487733522E+04  0.20420733129E+04  0.25500000920E-02 0. -1.
       -2    1    3    3    0  502  0.15625449401E+04  0.63940324598E+03  0.62986550288E+03  0.18019749589E+04  0.25500000920E-02 0.  1.
</event>
<event>
 5   0  0.6134625E-07  0.3348019E+04  0.7818609E-02  0.8150783E-01
        1   -1    0    0  501    0  0.00000000000E+00  0.00000000000E+00  0.11779372480E+04  0.11779372480E+04  0.50400001928E-02 0.  1.
       -1   -1    0    0    0  501  0.00000000000E+00  0.00000000000E+00 -0.23789964299E+04  0.23789964299E+04  0.50400001928E-02 0. -1.
    10030    2    1    2    0    0  0.00000000000E+00  0.00000000000E+00 -0.12010591819E+04  0.35569336780E+04  0.33480194192E+04 0.  0.
        5    1    3    3  502    0  0.93456371027E+03 -0.13198737134E+04 -0.14134383713E+03  0.16234149556E+04  0.46999998093E+01 0.  1.
       -5    1    3    3    0  502 -0.93456371027E+03  0.13198737134E+04 -0.10597153448E+04  0.19335187224E+04  0.46999998093E+01 0. -1.
</event>
<event>
 5   0  0.1880301E-06  0.3403310E+04  0.7818609E-02  0.8137094E-01
       -2   -1    0    0    0  501  0.00000000000E+00  0.00000000000E+00  0.13139582007E+04  0.13139582007E+04  0.25500000920E-02 0.  1.
        2   -1    0    0  501    0  0.00000000000E+00  0.00000000000E+00 -0.22037454520E+04  0.22037454520E+04  0.25500000920E-02 0. -1.
    10030    2    1    2    0    0  0.00000000000E+00  0.00000000000E+00 -0.88978725131E+03  0.35177036528E+04  0.34033098061E+04 0.  0.
        4    1    3    3  502    0  0.52398958264E+03 -0.88938348951E+02  0.12259667411E+04  0.13362152430E+04  0.12699999809E+01 0.  1.
       -4    1    3    3    0  502 -0.52398958264E+03  0.88938348951E+02 -0.21157539924E+04  0.21814884097E+04  0.12699999809E+01 0. -1.
</event>
<event>
 5   0  0.1948507E-06  0.3500240E+04  0.7818609E-02  0.8113733E-01
       -2   -1    0    0    0  501  0.00000000000E+00  0.00000000000E+00  0.98889926709E+03  0.98889926710E+03  0.25500000920E-02 0.  1.
        2   -1    0    0  501    0  0.00000000000E+00  0.00000000000E+00 -0.30973030347E+04  0.30973030347E+04  0.25500000920E-02 0. -1.
    10030    2    1    2    0    0  0.00000000000E+00  0.00000000000E+00 -0.21084037676E+04  0.40862023018E+04  0.35002403923E+04 0.  0.
        1    1    3    3  502    0 -0.55101492422E+02  0.67997717299E+03 -0.29356882329E+04  0.30139128274E+04  0.50400001928E-02 0. -1.
       -1    1    3    3    0  502  0.55101492422E+02 -0.67997717299E+03  0.82728446533E+03  0.10722894744E+04  0.50400001928E-02 0.  1.
</event>
<event>
 5   0  0.1948507E-06  0.2756416E+04  0.7818609E-02  0.8316929E-01
        2   -1    0    0  501    0  0.00000000000E+00  0.00000000000E+00  0.16402057344E+04  0.16402057344E+04  0.25500000920E-02 0. -1.
       -2   -1    0    0    0  501  0.00000000000E+00  0.00000000000E+00 -0.11580605556E+04  0.11580605556E+04  0.25500000920E-02 0.  1.
    10030    2    1    2    0    0  0.00000000000E+00  0.00000000000E+00  0.48214517884E+03  0.27982662900E+04  0.27564161980E+04 0.  0.
        1    1    3    3  502    0 -0.98547426597E+03 -0.80046929727E+03  0.78544815295E+03  0.14929298127E+04  0.50400001928E-02 0.  1.
       -1    1    3    3    0  502  0.98547426597E+03  0.80046929727E+03 -0.30330297412E+03  0.13053364773E+04  0.50400001928E-02 0. -1.
</event>
<event>
 5   0  0.6218695E-07  0.3467368E+04  0.7818609E-02  0.8121567E-01
        1   -1    0    0  501    0  0.00000000000E+00  0.00000000000E+00  0.27692891595E+04  0.27692891595E+04  0.50400001928E-02 0.  1.
       -1   -1    0    0    0  501  0.00000000000E+00  0.00000000000E+00 -0.10853541659E+04  0.10853541659E+04  0.50400001928E-02 0. -1.
    10030    2    1    2    0    0  0.00000000000E+00  0.00000000000E+00  0.16839349936E+04  0.38546433255E+04  0.34673676044E+04 0.  0.
        2    1    3    3  502    0  0.96292298595E+03 -0.11993324582E+04 -0.47413898626E+02  0.15387875422E+04  0.25500000920E-02 0. -1.
       -2    1    3    3    0  502 -0.96292298595E+03  0.11993324582E+04  0.17313488922E+04  0.23158557833E+04  0.25500000920E-02 0.  1.
</event>
<event>
 5   0  0.1880301E-06  0.3272035E+04  0.7818609E-02  0.8170048E-01
       -2   -1    0    0    0  501  0.00000000000E+00  0.00000000000E+00  0.12281032255E+04  0.12281032255E+04  0.25500000920E-02 0. -1.
        2   -1    0    0  501    0  0.00000000000E+00  0.00000000000E+00 -0.21794206628E+04  0.21794206628E+04  0.25500000920E-02 0.  1.
    10030    2    1    2    0    0  0.00000000000E+00  0.00000000000E+00 -0.95131743729E+03  0.34075238884E+04  0.32720351745E+04 0.  0.
        4    1    3    3  502    0  0.11318136756E+03 -0.16145232944E+04 -0.22690287480E+03  0.16343139287E+04  0.12699999809E+01 0. -1.
       -4    1    3    3    0  502 -0.11318136756E+03  0.16145232944E+04 -0.72441456249E+03  0.17732099597E+04  0.12699999809E+01 0.  1.
</event>
<event>
 5   0  0.1880301E-06  0.3385324E+04  0.7818609E-02  0.8141518E-01
        2   -1    0    0  501    0  0.00000000000E+00  0.00000000000E+00  0.12909688103E+04  0.12909688103E+04  0.25500000920E-02 0.  1.
       -2   -1    0    0    0  501  0.00000000000E+00  0.00000000000E+00 -0.22193449237E+04  0.22193449237E+04  0.25500000920E-02 0. -1.
    10030    2    1    2    0    0  0.00000000000E+00  0.00000000000E+00 -0.92837611339E+03  0.35103137341E+04  0.33853242538E+04 0.  0.
        4    1    3    3  502    0 -0.35236687572E+03  0.73785306018E+03  0.10725952680E+04  0.13487222751E+04  0.12699999809E+01 0.  1.
       -4    1    3    3    0  502  0.35236687572E+03 -0.73785306018E+03 -0.20009713814E+04  0.21615914590E+04  0.12699999809E+01 0. -1.
</event>
<event>
 5   0  0.1911477E-06  0.3366613E+04  0.7818609E-02  0.8146150E-01
        2   -1    0    0  501    0  0.00000000000E+00  0.00000000000E+00  0.22262346524E+04  0.22262346524E+04  0.25500000920E-02 0.  1.
       -2   -1    0    0    0  501  0.00000000000E+00  0.00000000000E+00 -0.12727859092E+04  0.12727859093E+04  0.25500000920E-02 0. -1.
    10030    2    1    2    0    0  0.00000000000E+00  0.00000000000E+00  0.95344874315E+03  0.34990205617E+04  0.33666125980E+04 0.  0.
        5    1    3    3  502    0  0.10526465147E+04 -0.45237662519E+03 -0.80497977774E+03  0.14002584863E+04  0.46999998093E+01 0. -1.
       -5    1    3    3    0  502 -0.10526465147E+04  0.45237662519E+03  0.17584285209E+04  0.20987620754E+04  0.46999998093E+01 0.  1.
</event>
<event>
 5   0  0.1880301E-06  0.3390749E+04  0.7818609E-02  0.8140181E-01
        2   -1    0    0  501    0  0.00000000000E+00  0.00000000000E+00  0.92177886627E+03  0.92177886627E+03  0.25500000920E-02 0.  1.
       -2   -1    0    0    0  501  0.00000000000E+00  0.00000000000E+00 -0.31182043492E+04  0.31182043492E+04  0.25500000920E-02 0. -1.
    10030    2    1    2    0    0  0.00000000000E+00  0.00000000000E+00 -0.21964254829E+04  0.40399832154E+04  0.33907491029E+04 0.  0.
        4    1    3    3  502    0  0.35448299538E+03 -0.20901865859E+03 -0.30577937696E+04  0.30853608126E+04  0.12699999809E+01 0. -1.
       -4    1    3    3    0  502 -0.35448299538E+03  0.20901865859E+03  0.86136828673E+03  0.95462240281E+03  0.12699999809E+01 0.  1.
</event>
<event>
 5   0  0.6134625E-07  0.3399678E+04  0.7818609E-02  0.8137985E-01
        1   -1    0    0  501    0  0.00000000000E+00  0.00000000000E+00  0.19879437037E+04  0.19879437037E+04  0.50400001928E-02 0. -1.
       -1   -1    0    0    0  501  0.00000000000E+00  0.00000000000E+00 -0.14534884741E+04  0.14534884741E+04  0.50400001928E-02 0.  1.
    10030    2    1    2    0    0  0.00000000000E+00  0.00000000000E+00  0.53445522961E+03  0.34414321778E+04  0.33996783734E+04 0.  0.
        3    1    3    3  502    0 -0.10292978123E+03  0.33276867254E+02  0.19844558336E+04  0.19874020367E+04  0.10100000352E+00 0. -1.
       -3    1    3    3    0  502  0.10292978123E+03 -0.33276867254E+02 -0.14500006040E+04  0.14540301412E+04  0.10100000352E+00 0.  1.
</event>
<event>
 5   0  0.6134625E-07  0.3358694E+04  0.7818609E-02  0.8148119E-01
        1   -1    0    0  501    0  0.00000000000E+00  0.00000000000E+00  0.21172707895E+04  0.21172707895E+04  0.50400001928E-02 0. -1.
       -1   -1    0    0    0  501  0.00000000000E+00  0.00000000000E+00 -0.13320011408E+04  0.13320011409E+04  0.50400001928E-02 0.  1.
    10030    2    1    2    0    0  0.00000000000E+00  0.00000000000E+00  0.78526964868E+03  0.34492719304E+04  0.33586944530E+04 0.  0.
        3    1    3    3  502    0 -0.35831155586E+03  0.15730195594E+04 -0.86233446833E+02  0.16156156482E+04  0.10100000352E+00 0.  1.
       -3    1    3    3    0  502  0.35831155586E+03 -0.15730195594E+04  0.87150309551E+03  0.18336562821E+04  0.10100000352E+00 0. -1.
</event>
<event>
 5   0  0.6134625E-07  0.3401605E+04  0.7818609E-02  0.8137513E-01
        1   -1    0    0  501    0  0.00000000000E+00  0.00000000000E+00  0.21733370493E+04  0.21733370493E+04  0.50400001928E-02 0.  1.
       -1   -1    0    0    0  501  0.00000000000E+00  0.00000000000E+00 -0.13310078335E+04  0.13310078335E+04  0.50400001928E-02 0. -1.
    10030    2    1    2    0    0  0.00000000000E+00  0.00000000000E+00  0.84232921579E+03  0.35043448829E+04  0.34016047022E+04 0.  0.
        3    1    3    3  502    0  0.59026175467E+03 -0.70473066987E+03  0.18953545546E+04  0.21065192033E+04  0.10100000352E+00 0.  1.
       -3    1    3    3    0  502 -0.59026175467E+03  0.70473066987E+03 -0.10530253388E+04  0.13978256796E+04  0.10100000352E+00 0. -1.
</event>
<event>
 5   0  0.1911477E-06  0.3401828E+04  0.7818609E-02  0.8137458E-01
        2   -1    0    0  501    0  0.00000000000E+00  0.00000000000E+00  0.17528901978E+04  0.17528901978E+04  0.25500000920E-02 0. -1.
       -2   -1    0    0    0  501  0.00000000000E+00  0.00000000000E+00 -0.16504785495E+04  0.16504785495E+04  0.25500000920E-02 0.  1.
    10030    2    1    2    0    0  0.00000000000E+00  0.00000000000E+00  0.10241164830E+03  0.34033687474E+04  0.34018275507E+04 0.  0.
        5    1    3    3  502    0  0.16156446074E+04  0.43553932914E+03 -0.25402841174E+03  0.16924994914E+04  0.46999998093E+01 0.  1.
       -5    1    3    3    0  502 -0.16156446074E+04 -0.43553932914E+03  0.35644006004E+03  0.17108692559E+04  0.46999998093E+01 0. -1.
</event>
<event>
 5   0  0.1339844E-06  0.3366445E+04  0.7818609E-02  0.8146191E-01
        2   -1    0    0  501    0  0.00000000000E+00  0.00000000000E+00  0.28012100163E+04  0.28012100163E+04  0.25500000920E-02 0.  1.
       -2   -1    0    0    0  501  0.00000000000E+00  0.00000000000E+00 -0.10114335207E+04  0.10114335207E+04  0.25500000920E-02 0. -1.
    10030    2    1    2    0    0  0.00000000000E+00  0.00000000000E+00  0.17897764956E+04  0.38126435370E+04  0.33664448363E+04 0.  0.
        3    1    3    3  502    0 -0.33346501781E+03 -0.16368252421E+04  0.11293052454E+04  0.20163645848E+04  0.10100000352E+00 0.  1.
       -3    1    3    3    0  502  0.33346501781E+03  0.16368252421E+04  0.66047125016E+03  0.17962789521E+04  0.10100000352E+00 0. -1.
</event>
<event>
 5   0  0.1911477E-06  0.3409365E+04  0.7818609E-02  0.8135612E-01
        2   -1    0    0  501    0  0.00000000000E+00  0.00000000000E+00  0.19148997104E+04  0.19148997104E+04  0.25500000920E-02 0.  1.
       -2   -1    0    0    0  501  0.00000000000E+00  0.00000000000E+00 -0.15175427609E+04  0.15175427609E+04  0.25500000920E-02 0. -1.
    10030    2    1    2    0    0  0.00000000000E+00  0.00000000000E+00  0.39735694959E+03  0.34324424713E+04  0.34093648636E+04 0.  0.
        5    1    3    3  502    0 -0.20617438809E+03  0.51083439720E+03  0.18228124617E+04  0.19042392235E+04  0.46999998093E+01 0.  1.
       -5    1    3    3    0  502  0.20617438809E+03 -0.51083439720E+03 -0.14254555121E+04  0.15282032478E+04  0.46999998093E+01 0. -1.
</event>
<event>
 5   0  0.1797075E-06  0.3363152E+04  0.7818609E-02  0.8147010E-01
       -2   -1    0    0    0  501  0.00000000000E+00  0.00000000000E+00  0.22595705704E+04  0.22595705704E+04  0.25500000920E-02 0.  1.
        2   -1    0    0  501    0  0.00000000000E+00  0.00000000000E+00 -0.12514313437E+04  0.12514313437E+04  0.25500000920E-02 0. -1.
    10030    2    1    2    0    0  0.00000000000E+00  0.00000000000E+00  0.10081392266E+04  0.35110019141E+04  0.33631517570E+04 0.  0.
        2    1    3    3  502    0 -0.40504076705E+03  0.25843119591E+03  0.21863882733E+04  0.22385572112E+04  0.25500000920E-02 0.  1.
       -2    1    3    3    0  502  0.40504076705E+03 -0.25843119591E+03 -0.11782490467E+04  0.12724447029E+04  0.25500000920E-02 0. -1.
</event>
<event>
 5   0  0.6218695E-07  0.3369405E+04  0.7818609E-02  0.8145456E-01
       -1   -1    0    0    0  501  0.00000000000E+00  0.00000000000E+00  0.10123480135E+04  0.10123480135E+04  0.50400001928E-02 0. -1.
        1   -1    0    0  501    0  0.00000000000E+00  0.00000000000E+00 -0.28036033821E+04  0.28036033821E+04  0.50400001928E-02 0.  1.
    10030    2    1    2    0    0  0.00000000000E+00  0.00000000000E+00 -0.17912553686E+04  0.38159513956E+04  0.33694048819E+04 0.  0.
        2    1    3    3  502    0 -0.47733744564E+03 -0.11487459701E+04 -0.21823101095E+04  0.25119605401E+04  0.25500000920E-02 0.  1.
       -2    1    3    3    0  502  0.47733744564E+03  0.11487459701E+04  0.39105474090E+03  0.13039908555E+04  0.25500000920E-02 0. -1.
</event>
<event>
 5   0  0.1948507E-06  0.2973389E+04  0.7818609E-02  0.8251371E-01
        2   -1    0    0  501    0  0.00000000000E+00  0.00000000000E+00  0.20346289820E+04  0.20346289820E+04  0.25500000920E-02 0. -1.
       -2   -1    0    0    0  501  0.00000000000E+00  0.00000000000E+00 -0.10863212983E+04  0.10863212983E+04  0.25500000920E-02 0.  1.
    10030    2    1    2    0    0  0.00000000000E+00  0.00000000000E+00  0.94830768376E+03  0.31209502803E+04  0.29733891755E+04 0.  0.
        1    1    3    3  502    0  0.11773958140E+03  0.14799391841E+04  0.55665614280E+03  0.15855436478E+04  0.50400001928E-02 0. -1.
       -1    1    3    3    0  502 -0.11773958140E+03 -0.14799391841E+04  0.39165154097E+03  0.15354066325E+04  0.50400001928E-02 0.  1.
</event>
<event>
 5   0  0.6134625E-07  0.3587739E+04  0.7818609E-02  0.8093306E-01
        1   -1    0    0  501    0  0.00000000000E+00  0.00000000000E+00  0.16166961138E+04  0.16166961138E+04  0.50400001928E-02 0.  1.
       -1   -1    0    0    0  501  0.00000000000E+00  0.00000000000E+00 -0.19904588524E+04  0.19904588524E+04  0.50400001928E-02 0. -1.
    10030    2    1    2    0    0  0.00000000000E+00  0.00000000000E+00 -0.37376273862E+03  0.36071549662E+04  0.35877386144E+04 0.  0.
        5    1    3    3  502    0  0.84086396164E+03  0.61854886666E+03 -0.16536425851E+04  0.19555589461E+04  0.46999998093E+01 0. -1.
       -5    1    3    3    0  502 -0.84086396164E+03 -0.61854886666E+03  0.12798798464E+04  0.16515960201E+04  0.46999998093E+01 0.  1.
</event>
<event>
 5   0  0.1911477E-06  0.3369267E+04  0.7818609E-02  0.8145491E-01
       -2   -1    0    0    0  501  0.00000000000E+00  0.00000000000E+00  0.15437228265E+04  0.15437228265E+04  0.25500000920E-02 0.  1.
        2   -1    0    0  501    0  0.00000000000E+00  0.00000000000E+00 -0.18384064242E+04  0.18384064242E+04  0.25500000920E-02 0. -1.
    10030    2    1    2    0    0  0.00000000000E+00  0.00000000000E+00 -0.29468359777E+03  0.33821292507E+04  0.33692669597E+04 0.  0.
        5    1    3    3  502    0 -0.11980758000E+04  0.96269382724E+03 -0.83975971102E+03  0.17513947270E+04  0.46999998093E+01 0. -1.
       -5    1    3    3    0  502  0.11980758000E+04 -0.96269382724E+03  0.54507611325E+03  0.16307345237E+04  0.46999998093E+01 0.  1.
</event>
<event>
 5   0  0.6134625E-07  0.3380279E+04  0.7818609E-02  0.8142763E-01
        1   -1    0    0  501    0  0.00000000000E+00  0.00000000000E+00  0.20197601698E+04  0.20197601698E+04  0.50400001928E-02 0. -1.
       -1   -1    0    0    0  501  0.00000000000E+00  0.00000000000E+00 -0.14143122921E+04  0.14143122921E+04  0.50400001928E-02 0.  1.
    10030    2    1    2    0    0  0.00000000000E+00  0.00000000000E+00  0.60544787777E+03  0.34340724619E+04  0.33802790626E+04 0.  0.
        1    1    3    3  502    0 -0.11844739259E+04  0.54435254621E+03 -0.79016214547E+03  0.15243537620E+04  0.50400001928E-02 0.  1.
       -1    1    3    3    0  502  0.11844739259E+04 -0.54435254621E+03  0.13956100232E+04  0.19097186999E+04  0.50400001928E-02 0. -1.
</event>
<event>
 5   0  0.6134625E-07  0.2798316E+04  0.7818609E-02  0.8303792E-01
        1   -1    0    0  501    0  0.00000000000E+00  0.00000000000E+00  0.14515344132E+04  0.14515344132E+04  0.50400001928E-02 0. -1.
       -1   -1    0    0    0  501  0.00000000000E+00  0.00000000000E+00 -0.13486710815E+04  0.13486710815E+04  0.50400001928E-02 0.  1.
    10030    2    1    2    0    0  0.00000000000E+00  0.00000000000E+00  0.10286333166E+03  0.28002054947E+04  0.27983155554E+04 0.  0.
        5    1    3    3  502    0 -0.56941522279E+03  0.12698313499E+04  0.19614968344E+03  0.14054188491E+04  0.46999998093E+01 0. -1.
       -5    1    3    3    0  502  0.56941522279E+03 -0.12698313499E+04 -0.93286351784E+02  0.13947866456E+04  0.46999998093E+01 0.  1.
</event>
<event>
 5   0  0.6134625E-07  0.3393301E+04  0.7818609E-02  0.8139552E-01
        1   -1    0    0  501    0  0.00000000000E+00  0.00000000000E+00  0.13687008295E+04  0.13687008295E+04  0.50400001928E-02 0.  1.
       -1   -1    0    0    0  501  0.00000000000E+00  0.00000000000E+00 -0.21031791233E+04  0.21031791233E+04  0.50400001928E-02 0. -1.
    10030    2    1    2    0    0  0.00000000000E+00  0.00000000000E+00 -0.73447829381E+03  0.34718799529E+04  0.33933010540E+04 0.  0.
        1    1    3    3  502    0  0.67137111068E+03  0.13624118837E+04  0.40639054173E+03  0.15722781502E+04  0.50400001928E-02 0.  1.
       -1    1    3    3    0  502 -0.67137111068E+03 -0.13624118837E+04 -0.11408688355E+04  0.18996018027E+04  0.50400001928E-02 0. -1.
</event>
<event>
 5   0  0.6218695E-07  0.3396643E+04  0.7818609E-02  0.8138731E-01
       -1   -1    0    0    0  501  0.00000000000E+00  0.00000000000E+00  0.10493508787E+04  0.10493508787E+04  0.50400001928E-02 0.  1.
        1   -1    0    0  501    0  0.00000000000E+00  0.00000000000E+00 -0.27486476965E+04  0.27486476965E+04  0.50400001928E-02 0. -1.
    10030    2    1    2    0    0  0.00000000000E+00  0.00000000000E+00 -0.16992968179E+04  0.37979985752E+04  0.33966429754E+04 0.  0.
        2    1    3    3  502    0  0.77987517050E+03 -0.12599393368E+04  0.78253592629E+02  0.14838382792E+04  0.25500000920E-02 0.  1.
       -2    1    3    3    0  502 -0.77987517050E+03  0.12599393368E+04 -0.17775504105E+04  0.23141602961E+04  0.25500000920E-02 0. -1.
</event>
<event>
 5   0  0.6134625E-07  0.3409337E+04  0.7818609E-02  0.8135618E-01
       -1   -1    0    0    0  501  0.00000000000E+00  0.00000000000E+00  0.11887013916E+04  0.11887013916E+04  0.50400001928E-02 0. -1.
        1   -1    0    0  501    0  0.00000000000E+00  0.00000000000E+00 -0.24445964630E+04  0.24445964630E+04  0.50400001928E-02 0.  1.
    10030    2    1    2    0    0  0.00000000000E+00  0.00000000000E+00 -0.12558950713E+04  0.36332978546E+04  0.34093373066E+04 0.  0.
        1    1    3    3  502    0 -0.23054671546E+03  0.15946792182E+04 -0.12210514832E+04  0.20216627617E+04  0.50400001928E-02 0.  1.
       -1    1    3    3    0  502  0.23054671546E+03 -0.15946792182E+04 -0.34843588101E+02  0.16116350929E+04  0.50400001928E-02 0. -1.
</event>
<event>
 5   0  0.6146388E-07  0.3404934E+04  0.7818609E-02  0.8136696E-01
       -1   -1    0    0    0  501  0.00000000000E+00  0.00000000000E+00  0.22951291878E+04  0.22951291878E+04  0.50400001928E-02 0. -1.
        1   -1    0    0  501    0  0.00000000000E+00  0.00000000000E+00 -0.12628460055E+04  0.12628460055E+04  0.50400001928E-02 0.  1.
    10030    2    1    2    0    0  0.00000000000E+00  0.00000000000E+00  0.10322831824E+04  0.35579751933E+04  0.34049344938E+04 0.  0.
        4    1    3    3  502    0 -0.68008250196E+03 -0.77027052813E+03  0.19345636322E+04  0.21905175087E+04  0.12699999809E+01 0. -1.
       -4    1    3    3    0  502  0.68008250196E+03  0.77027052813E+03 -0.90228044986E+03  0.13674576846E+04  0.12699999809E+01 0.  1.
</event>
<event>
 5   0  0.1911477E-06  0.3378713E+04  0.7818609E-02  0.8143151E-01
       -2   -1    0    0    0  501  0.00000000000E+00  0.00000000000E+00  0.13183617720E+04  0.13183617720E+04  0.25500000920E-02 0. -1.
        2   -1    0    0  501    0  0.00000000000E+00  0.00000000000E+00 -0.21647511951E+04  0.21647511951E+04  0.25500000920E-02 0.  1.
    10030    2    1    2    0    0  0.00000000000E+00  0.00000000000E+00 -0.84638942314E+03  0.34831129671E+04  0.33787129037E+04 0.  0.
        5    1    3    3  502    0 -0.93151011808E+03  0.13240008417E+04 -0.92103884612E+03  0.18625316037E+04  0.46999998093E+01 0.  1.
       -5    1    3    3    0  502  0.93151011808E+03 -0.13240008417E+04  0.74649422976E+02  0.16205813633E+04  0.46999998093E+01 0. -1.
</event>
<event>
 5   0  0.1797075E-06  0.3221524E+04  0.7818609E-02  0.8183156E-01
       -2   -1    0    0    0  501  0.00000000000E+00  0.00000000000E+00  0.15587131056E+04  0.15587131056E+04  0.25500000920E-02 0. -1.
        2   -1    0    0  501    0  0.00000000000E+00  0.00000000000E+00 -0.16645493969E+04  0.16645493969E+04  0.25500000920E-02 0.  1.
    10030    2    1    2    0    0  0.00000000000E+00  0.00000000000E+00 -0.10583629131E+03  0.32232625025E+04  0.32215244589E+04 0.  0.
        2    1    3    3  502    0  0.20185691572E+02 -0.10408480837E+04  0.11768840205E+04  0.15712505189E+04  0.25500000920E-02 0. -1.
       -2    1    3    3    0  502 -0.20185691572E+02  0.10408480837E+04 -0.12827203118E+04  0.16520119836E+04  0.25500000920E-02 0.  1.
</event>
<event>
 5   0  0.1911477E-06  0.3451342E+04  0.7818609E-02  0.8125419E-01
       -2   -1    0    0    0  501  0.00000000000E+00  0.00000000000E+00  0.13277620160E+04  0.13277620160E+04  0.25500000920E-02 0. -1.
        2   -1    0    0  501    0  0.00000000000E+00  0.00000000000E+00 -0.22428266267E+04  0.22428266267E+04  0.25500000920E-02 0.  1.
    10030    2    1    2    0    0  0.00000000000E+00  0.00000000000E+00 -0.91506461075E+03  0.35705886427E+04  0.34513417700E+04 0.  0.
        5    1    3    3  502    0 -0.16912492691E+04 -0.34211737452E+03 -0.43328041407E+03  0.17790790864E+04  0.46999998093E+01 0.  1.
       -5    1    3    3    0  502  0.16912492691E+04  0.34211737452E+03 -0.48178419668E+03  0.17915095564E+04  0.46999998093E+01 0. -1.
</event>
<event>
 5   0  0.6134625E-07  0.3422510E+04  0.7818609E-02  0.8132404E-01
       -1   -1    0    0    0  501  0.00000000000E+00  0.00000000000E+00  0.10064324091E+04  0.10064324091E+04  0.50400001928E-02 0.  1.
        1   -1    0    0  501    0  0.00000000000E+00  0.00000000000E+00 -0.29096780213E+04  0.29096780213E+04  0.50400001928E-02 0. -1.
    10030    2    1    2    0    0  0.00000000000E+00  0.00000000000E+00 -0.19032456122E+04  0.39161104305E+04  0.34225103423E+04 0.  0.
        3    1    3    3  502    0 -0.16442365328E+04  0.47362724646E+03 -0.97864451751E+03  0.19711878770E+04  0.10100000352E+00 0. -1.
       -3    1    3    3    0  502  0.16442365328E+04 -0.47362724646E+03 -0.92460109471E+03  0.19449225535E+04  0.10100000352E+00 0.  1.
</event>
<event>
 5   0  0.6134625E-07  0.3191400E+04  0.7818609E-02  0.8191092E-01
       -1   -1    0    0    0  501  0.00000000000E+00  0.00000000000E+00  0.19108822358E+04  0.19108822358E+04  0.50400001928E-02 0.  1.
        1   -1    0    0  501    0  0.00000000000E+00  0.00000000000E+00 -0.13325038240E+04  0.13325038240E+04  0.50400001928E-02 0. -1.
    10030    2    1    2    0    0  0.00000000000E+00  0.00000000000E+00  0.57837841179E+03  0.32433860598E+04  0.31913996218E+04 0.  0.
        5    1    3    3  502    0 -0.88176863754E+02  0.13502406551E+04 -0.57034833758E+03  0.14684155754E+04  0.46999998093E+01 0. -1.
       -5    1    3    3    0  502  0.88176863754E+02 -0.13502406551E+04  0.11487267494E+04  0.17749704844E+04  0.46999998093E+01 0.  1.
</event>
<event>
 5   0  0.1339844E-06  0.3395637E+04  0.7818609E-02  0.8138978E-01
       -2   -1    0    0    0  501  0.00000000000E+00  0.00000000000E+00  0.11353298451E+04  0.11353298451E+04  0.25500000920E-02 0.  1.
        2   -1    0    0  501    0  0.00000000000E+00  0.00000000000E+00 -0.25389866372E+04  0.25389866372E+04  0.25500000920E-02 0. -1.
    10030    2    1    2    0    0  0.00000000000E+00  0.00000000000E+00 -0.14036567921E+04  0.36743164823E+04  0.33956367919E+04 0.  0.
        3    1    3    3  502    0  0.99853239402E+03  0.12469434890E+04 -0.13240442848E+04  0.20748562083E+04  0.10100000352E+00 0. -1.
       -3    1    3    3    0  502 -0.99853239402E+03 -0.12469434890E+04 -0.79612507270E+02  0.15994602741E+04  0.10100000352E+00 0.  1.
</event>
<event>
 5   0  0.1339844E-06  0.3392536E+04  0.7818609E-02  0.8139741E-01
       -2   -1    0    0    0  501  0.00000000000E+00  0.00000000000E+00  0.12906289908E+04  0.12906289908E+04  0.25500000920E-02 0. -1.
        2   -1    0    0  501    0  0.00000000000E+00  0.00000000000E+00 -0.22293969778E+04  0.22293969778E+04  0.25500000920E-02 0.  1.
    10030    2    1    2    0    0  0.00000000000E+00  0.00000000000E+00 -0.93876798701E+03  0.35200259685E+04  0.33925355541E+04 0.  0.
        3    1    3    3  502    0 -0.14689266870E+04 -0.23121925233E+03  0.37744657182E+03  0.15341687910E+04  0.10100000352E+00 0. -1.
       -3    1    3    3    0  502  0.14689266870E+04  0.23121925233E+03 -0.13162145588E+04  0.19858571775E+04  0.10100000352E+00 0.  1.
</event>
<event>
 5   0  0.1880301E-06  0.3355764E+04  0.7818609E-02  0.8148849E-01
        2   -1    0    0  501    0  0.00000000000E+00  0.00000000000E+00  0.14408656837E+04  0.14408656837E+04  0.25500000920E-02 0.  1.
       -2   -1    0    0    0  501  0.00000000000E+00  0.00000000000E+00 -0.19538869581E+04  0.19538869581E+04  0.25500000920E-02 0. -1.
    10030    2    1    2    0    0  0.00000000000E+00  0.00000000000E+00 -0.51302127439E+03  0.33947526419E+04  0.33557643945E+04 0.  0.
        4    1    3    3  502    0  0.11583698318E+04 -0.11733595031E+04  0.58058514970E+02  0.16498380510E+04  0.12699999809E+01 0.  1.
       -4    1    3    3    0  502 -0.11583698318E+04  0.11733595031E+04 -0.57107978936E+03  0.17449145908E+04  0.12699999809E+01 0. -1.
</event>
<event>
 5   0  0.1339844E-06  0.3389679E+04  0.7818609E-02  0.8140444E-01
        2   -1    0    0  501    0  0.00000000000E+00  0.00000000000E+00  0.14537337544E+04  0.14537337544E+04  0.25500000920E-02 0.  1.
       -2   -1    0    0    0  501  0.00000000000E+00  0.00000000000E+00 -0.19759330110E+04  0.19759330110E+04  0.25500000920E-02 0. -1.
    10030    2    1    2    0    0  0.00000000000E+00  0.00000000000E+00 -0.52219925666E+03  0.34296667654E+04  0.33896787544E+04 0.  0.
        3    1    3    3  502    0  0.15282659975E+04  0.66422780453E+03  0.51879404168E+02  0.16671793599E+04  0.10100000352E+00 0.  1.
       -3    1    3    3    0  502 -0.15282659975E+04 -0.66422780453E+03 -0.57407866083E+03  0.17624874055E+04  0.10100000352E+00 0. -1.
</event>
<event>
 5   0  0.1948507E-06  0.3069830E+04  0.7818609E-02  0.8224067E-01
       -2   -1    0    0    0  501  0.00000000000E+00  0.00000000000E+00  0.11700694241E+04  0.11700694241E+04  0.25500000920E-02 0. -1.
        2   -1    0    0  501    0  0.00000000000E+00  0.00000000000E+00 -0.20135251481E+04  0.20135251481E+04  0.25500000920E-02 0.  1.
    10030    2    1    2    0    0  0.00000000000E+00  0.00000000000E+00 -0.84345572393E+03  0.31835945722E+04  0.30698300998E+04 0.  0.
        1    1    3    3  502    0 -0.12505981829E+04 -0.23004989746E+03  0.46980834711E+03  0.13555953133E+04  0.50400001928E-02 0. -1.
       -1    1    3    3    0  502  0.12505981829E+04  0.23004989746E+03 -0.13132640710E+04  0.18279992589E+04  0.50400001928E-02 0.  1.
</event>
<event>
 5   0  0.1339844E-06  0.3373408E+04  0.7818609E-02  0.8144464E-01
       -2   -1    0    0    0  501  0.00000000000E+00  0.00000000000E+00  0.13566608912E+04  0.13566608912E+04  0.25500000920E-02 0.  1.
        2   -1    0    0  501    0  0.00000000000E+00  0.00000000000E+00 -0.20970390068E+04  0.20970390068E+04  0.25500000920E-02 0. -1.
    10030    2    1    2    0    0  0.00000000000E+00  0.00000000000E+00 -0.74037811554E+03  0.34536998980E+04  0.33734082515E+04 0.  0.
        3    1    3    3  502    0 -0.40604161851E+03  0.15155170808E+04  0.26366633769E+03  0.15909688137E+04  0.10100000352E+00 0.  1.
       -3    1    3    3    0  502  0.40604161851E+03 -0.15155170808E+04 -0.10040444532E+04  0.18627310843E+04  0.10100000352E+00 0. -1.
</event>
<event>
 5   0  0.1911477E-06  0.3391982E+04  0.7818609E-02  0.8139877E-01
       -2   -1    0    0    0  501  0.00000000000E+00  0.00000000000E+00  0.16203883460E+04  0.16203883460E+04  0.25500000920E-02 0. -1.
        2   -1    0    0  501    0  0.00000000000E+00  0.00000000000E+00 -0.17751209517E+04  0.17751209517E+04  0.25500000920E-02 0.  1.
    10030    2    1    2    0    0  0.00000000000E+00  0.00000000000E+00 -0.15473260572E+03  0.33955092977E+04  0.33919819002E+04 0.  0.
        5    1    3    3  502    0 -0.79185224986E+03  0.87062667021E+03  0.11451089736E+04  0.16420467216E+04  0.46999998093E+01 0. -1.
       -5    1    3    3    0  502  0.79185224986E+03 -0.87062667021E+03 -0.12998415793E+04  0.17534625761E+04  0.46999998093E+01 0.  1.
</event>
<event>
 5   0  0.6134625E-07  0.3389996E+04  0.7818609E-02  0.8140366E-01
       -1   -1    0    0    0  501  0.00000000000E+00  0.00000000000E+00  0.30086892286E+04  0.30086892286E+04  0.50400001928E-02 0. -1.
        1   -1    0    0  501    0  0.00000000000E+00  0.00000000000E+00 -0.95490715956E+03  0.95490715957E+03  0.50400001928E-02 0.  1.
    10030    2    1    2    0    0  0.00000000000E+00  0.00000000000E+00  0.20537820690E+04  0.39635963881E+04  0.33899963925E+04 0.  0.
        3    1    3    3  502    0 -0.56827313267E+03 -0.12267727943E+04  0.22221769986E+04  0.26011490664E+04  0.10100000352E+00 0. -1.
       -3    1    3    3    0  502  0.56827313267E+03  0.12267727943E+04 -0.16839492961E+03  0.13624473218E+04  0.10100000352E+00 0.  1.
</event>
<event>
 5   0  0.6134625E-07  0.3390729E+04  0.7818609E-02  0.8140185E-01
       -1   -1    0    0    0  501  0.00000000000E+00  0.00000000000E+00  0.13201153691E+04  0.13201153691E+04  0.50400001928E-02 0. -1.
        1   -1    0    0  501    0  0.00000000000E+00  0.00000000000E+00 -0.21772801809E+04  0.21772801809E+04  0.50400001928E-02 0.  1.
    10030    2    1    2    0    0  0.00000000000E+00  0.00000000000E+00 -0.85716481177E+03  0.34973955501E+04  0.33907291427E+04 0.  0.
        5    1    3    3  502    0 -0.20119703057E+03  0.15774573242E+04 -0.10347667299E+04  0.18972654347E+04  0.46999998093E+01 0. -1.
       -5    1    3    3    0  502  0.20119703057E+03 -0.15774573242E+04  0.17760191809E+03  0.16001301153E+04  0.46999998093E+01 0.  1.
</event>
<event>
 5   0  0.6134625E-07  0.3387666E+04  0.7818609E-02  0.8140940E-01
        1   -1    0    0  501    0  0.00000000000E+00  0.00000000000E+00  0.15213865531E+04  0.15213865531E+04  0.50400001928E-02 0. -1.
       -1   -1    0    0    0  501  0.00000000000E+00  0.00000000000E+00 -0.18858257660E+04  0.18858257660E+04  0.50400001928E-02 0.  1.
    10030    2    1    2    0    0  0.00000000000E+00  0.00000000000E+00 -0.36443921282E+03  0.34072123191E+04  0.33876658406E+04 0.  0.
        1    1    3    3  502    0 -0.83200780426E+03 -0.73855408813E+03  0.11024012811E+04  0.15662016831E+04  0.50400001928E-02 0. -1.
       -1    1    3    3    0  502  0.83200780426E+03  0.73855408813E+03 -0.14668404939E+04  0.18410106361E+04  0.50400001928E-02 0.  1.
</event>
<event>
 5   0  0.6134625E-07  0.3409116E+04  0.7818609E-02  0.8135673E-01
       -1   -1    0    0    0  501  0.00000000000E+00  0.00000000000E+00  0.17902412353E+04  0.17902412353E+04  0.50400001928E-02 0.  1.
        1   -1    0    0  501    0  0.00000000000E+00  0.00000000000E+00 -0.16229756629E+04  0.16229756629E+04  0.50400001928E-02 0. -1.
    10030    2    1    2    0    0  0.00000000000E+00  0.00000000000E+00  0.16726557236E+03  0.34132168982E+04  0.34091159884E+04 0.  0.
        1    1    3    3  502    0 -0.26052453568E+03  0.73824766370E+03  0.15995992640E+04  0.17808987764E+04  0.50400001928E-02 0.  1.
       -1    1    3    3    0  502  0.26052453568E+03 -0.73824766370E+03 -0.14323336916E+04  0.16323181218E+04  0.50400001928E-02 0. -1.
</event>
<event>
 5   0  0.6146388E-07  0.3376934E+04  0.7818609E-02  0.8143591E-01
       -1   -1    0    0    0  501  0.00000000000E+00  0.00000000000E+00  0.22236224322E+04  0.22236224322E+04  0.50400001928E-02 0.  1.
        1   -1    0    0  501    0  0.00000000000E+00  0.00000000000E+00 -0.12821068891E+04  0.12821068891E+04  0.50400001928E-02 0. -1.
    10030    2    1    2    0    0  0.00000000000E+00  0.00000000000E+00  0.94151554308E+03  0.35057293213E+04  0.33769344910E+04 0.  0.
        4    1    3    3  502    0  0.25777527011E+03  0.51678793974E+03  0.21179035804E+04  0.21952300684E+04  0.12699999809E+01 0.  1.
       -4    1    3    3    0  502 -0.25777527011E+03 -0.51678793974E+03 -0.11763880373E+04  0.13104992529E+04  0.12699999809E+01 0. -1.
</event>
<event>
 5   0  0.6218695E-07  0.3384055E+04  0.7818609E-02  0.8141831E-01
        1   -1    0    0  501    0  0.00000000000E+00  0.00000000000E+00  0.90842999304E+03  0.90842999306E+03  0.50400001928E-02 0.  1.
       -1   -1    0    0    0  501  0.00000000000E+00  0.00000000000E+00 -0.31515439388E+04  0.31515439388E+04  0.50400001928E-02 0. -1.
    10030    2    1    2    0    0  0.00000000000E+00  0.00000000000E+00 -0.22431139458E+04  0.40599739319E+04  0.33840549868E+04 0.  0.
        2    1    3    3  502    0  0.61986154168E+03  0.62070580729E+03  0.61431400520E+03  0.10709275078E+04  0.25500000920E-02 0.  1.
       -2    1    3    3    0  502 -0.61986154168E+03 -0.62070580729E+03 -0.28574279510E+04  0.29890464241E+04  0.25500000920E-02 0. -1.
</event>
<event>
 5   0  0.1880301E-06  0.3398586E+04  0.7818609E-02  0.8138253E-01
       -2   -1    0    0    0  501  0.00000000000E+00  0.00000000000E+00  0.22087418736E+04  0.22087418736E+04  0.25500000920E-02 0.  1.
        2   -1    0    0  501    0  0.00000000000E+00  0.00000000000E+00 -0.13073491638E+04  0.13073491638E+04  0.25500000920E-02 0. -1.
    10030    2    1    2    0    0  0.00000000000E+00  0.00000000000E+00  0.90139270971E+03  0.35160910374E+04  0.33985860834E+04 0.  0.
        4    1    3    3  502    0 -0.65018101164E+02  0.18515313464E+03  0.21969793718E+04  0.22057264131E+04  0.12699999809E+01 0.  1.
       -4    1    3    3    0  502  0.65018101164E+02 -0.18515313464E+03 -0.12955866621E+04  0.13103646243E+04  0.12699999809E+01 0. -1.
</event>
<event>
 5   0  0.1339844E-06  0.3313736E+04  0.7818609E-02  0.8159409E-01
       -2   -1    0    0    0  501  0.00000000000E+00  0.00000000000E+00  0.14678166468E+04  0.14678166468E+04  0.25500000920E-02 0.  1.
        2   -1    0    0  501    0  0.00000000000E+00  0.00000000000E+00 -0.18702684993E+04  0.18702684993E+04  0.25500000920E-02 0. -1.
    10030    2    1    2    0    0  0.00000000000E+00  0.00000000000E+00 -0.40245185252E+03  0.33380851461E+04  0.33137357995E+04 0.  0.
        3    1    3    3  502    0  0.16229748567E+02  0.76677394327E+03 -0.16806925126E+04  0.18474125194E+04  0.10100000352E+00 0. -1.
       -3    1    3    3    0  502 -0.16229748567E+02 -0.76677394327E+03  0.12782406600E+04  0.14906726267E+04  0.10100000352E+00 0.  1.
</event>
<event>
 5   0  0.6146388E-07  0.3390251E+04  0.7818609E-02  0.8140303E-01
       -1   -1    0    0    0  501  0.00000000000E+00  0.00000000000E+00  0.14132553374E+04  0.14132553374E+04  0.50400001928E-02 0. -1.
        1   -1    0    0  501    0  0.00000000000E+00  0.00000000000E+00 -0.20332133763E+04  0.20332133763E+04  0.50400001928E-02 0.  1.
    10030    2    1    2    0    0  0.00000000000E+00  0.00000000000E+00 -0.61995803891E+03  0.34464687136E+04  0.33902505253E+04 0.  0.
        4    1    3    3  502    0 -0.93646079449E+03 -0.99391710339E+03  0.71097435506E+03  0.15395831171E+04  0.12699999809E+01 0. -1.
       -4    1    3    3    0  502  0.93646079449E+03  0.99391710339E+03 -0.13309323940E+04  0.19068855965E+04  0.12699999809E+01 0.  1.
</event>
<event>
 5   0  0.1339844E-06  0.3401893E+04  0.7818609E-02  0.8137442E-01
       -2   -1    0    0    0  501  0.00000000000E+00  0.00000000000E+00  0.18611629713E+04  0.18611629713E+04  0.25500000920E-02 0.  1.
        2   -1    0    0  501    0  0.00000000000E+00  0.00000000000E+00 -0.15545222041E+04  0.15545222041E+04  0.25500000920E-02 0. -1.
    10030    2    1    2    0    0  0.00000000000E+00  0.00000000000E+00  0.30664076723E+03  0.34156851754E+04  0.34018930991E+04 0.  0.
        3    1    3    3  502    0 -0.11565741212E+04  0.49787649538E+03 -0.99485172310E+03  0.16047662333E+04  0.10100000352E+00 0. -1.
       -3    1    3    3    0  502  0.11565741212E+04 -0.49787649538E+03  0.13014924903E+04  0.18109189421E+04  0.10100000352E+00 0.  1.
</event>
<event>
 5   0  0.1948507E-06  0.3422607E+04  0.7818609E-02  0.8132380E-01
       -2   -1    0    0    0  501  0.00000000000E+00  0.00000000000E+00  0.18377250553E+04  0.18377250553E+04  0.25500000920E-02 0.  1.
        2   -1    0    0  501    0  0.00000000000E+00  0.00000000000E+00 -0.15935784077E+04  0.15935784077E+04  0.25500000920E-02 0. -1.
    10030    2    1    2    0    0  0.00000000000E+00  0.00000000000E+00  0.24414664763E+03  0.34313034630E+04  0.34226065899E+04 0.  0.
        1    1    3    3  502    0  0.60169404794E+03  0.29417408103E+01 -0.14840319745E+04  0.16013729367E+04  0.50400001928E-02 0. -1.
       -1    1    3    3    0  502 -0.60169404794E+03 -0.29417408103E+01  0.17281786221E+04  0.18299305263E+04  0.50400001928E-02 0.  1.
</event>
<event>
 5   0  0.6134625E-07  0.3323436E+04  0.7818609E-02  0.8156958E-01
       -3   -1    0    0    0  501  0.00000000000E+00  0.00000000000E+00  0.25341007915E+04  0.25341007935E+04  0.10100000352E+00 0.  1.
        3   -1    0    0  501    0  0.00000000000E+00  0.00000000000E+00 -0.10896593840E+04  0.10896593886E+04  0.10100000352E+00 0. -1.
    10030    2    1    2    0    0  0.00000000000E+00  0.00000000000E+00  0.14444414075E+04  0.36237601821E+04  0.33234360048E+04 0.  0.
        1    1    3    3  502    0 -0.10523062532E+03 -0.32065119463E+03  0.24963416627E+04  0.25190498943E+04  0.50400001928E-02 0.  1.
       -1    1    3    3    0  502  0.10523062532E+03  0.32065119463E+03 -0.10519002552E+04  0.11047102878E+04  0.50400001928E-02 0. -1.
</event>
<event>
 5   0  0.1797075E-06  0.3442424E+04  0.7818609E-02  0.8127572E-01
       -2   -1    0    0    0  501  0.00000000000E+00  0.00000000000E+00  0.18031894504E+04  0.18031894504E+04  0.25500000920E-02 0.  1.
        2   -1    0    0  501    0  0.00000000000E+00  0.00000000000E+00 -0.16429614769E+04  0.16429614769E+04  0.25500000920E-02 0. -1.
    10030    2    1    2    0    0  0.00000000000E+00  0.00000000000E+00  0.16022797344E+03  0.34461509273E+04  0.34424240312E+04 0.  0.
        2    1    3    3  502    0 -0.43389057122E+03  0.14402309884E+04 -0.75747844623E+03  0.16841318013E+04  0.25500000920E-02 0. -1.
       -2    1    3    3    0  502  0.43389057122E+03 -0.14402309884E+04  0.91770641966E+03  0.17620191260E+04  0.25500000920E-02 0.  1.
</event>
<event>
 5   0  0.1911477E-06  0.3416547E+04  0.7818609E-02  0.8133857E-01
       -2   -1    0    0    0  501  0.00000000000E+00  0.00000000000E+00  0.13987616591E+04  0.13987616591E+04  0.25500000920E-02 0. -1.
        2   -1    0    0  501    0  0.00000000000E+00  0.00000000000E+00 -0.20862725510E+04  0.20862725510E+04  0.25500000920E-02 0.  1.
    10030    2    1    2    0    0  0.00000000000E+00  0.00000000000E+00 -0.68751089187E+03  0.34850342101E+04  0.34165468267E+04 0.  0.
        5    1    3    3  502    0  0.32431861584E+03 -0.71147147689E+03 -0.18930172118E+04  0.20481480613E+04  0.46999998093E+01 0.  1.
       -5    1    3    3    0  502 -0.32431861584E+03  0.71147147689E+03  0.12055063199E+04  0.14368861487E+04  0.46999998093E+01 0. -1.
</event>
<event>
 5   0  0.6146388E-07  0.3421747E+04  0.7818609E-02  0.8132589E-01
        1   -1    0    0  501    0  0.00000000000E+00  0.00000000000E+00  0.21199256144E+04  0.21199256144E+04  0.50400001928E-02 0. -1.
       -1   -1    0    0    0  501  0.00000000000E+00  0.00000000000E+00 -0.13807505372E+04  0.13807505372E+04  0.50400001928E-02 0.  1.
    10030    2    1    2    0    0  0.00000000000E+00  0.00000000000E+00  0.73917507725E+03  0.35006761516E+04  0.34217471741E+04 0.  0.
        4    1    3    3  502    0  0.92160543015E+03 -0.41142757958E+03  0.17829230660E+04  0.20487668228E+04  0.12699999809E+01 0. -1.
       -4    1    3    3    0  502 -0.92160543015E+03  0.41142757958E+03 -0.10437479887E+04  0.14519093288E+04  0.12699999809E+01 0.  1.
</event>
<event>
 5   0  0.1339844E-06  0.3469773E+04  0.7818609E-02  0.8120991E-01
       -2   -1    0    0    0  501  0.00000000000E+00  0.00000000000E+00  0.14370955961E+04  0.14370955961E+04  0.25500000920E-02 0.  1.
        2   -1    0    0  501    0  0.00000000000E+00  0.00000000000E+00 -0.20943848539E+04  0.20943848540E+04  0.25500000920E-02 0. -1.
    10030    2    1    2    0    0  0.00000000000E+00  0.00000000000E+00 -0.65728925782E+03  0.35314804501E+04  0.34697730475E+04 0.  0.
        3    1    3    3  502    0 -0.86213763099E+03  0.42609411273E+03 -0.17982749924E+04  0.20392720383E+04  0.10100000352E+00 0. -1.
       -3    1    3    3    0  502  0.86213763099E+03 -0.42609411273E+03  0.11409857346E+04  0.14922084118E+04  0.10100000352E+00 0.  1.
</event>
<event>
 5   0  0.1911477E-06  0.3370970E+04  0.7818609E-02  0.8145068E-01
       -2   -1    0    0    0  501  0.00000000000E+00  0.00000000000E+00  0.10005055523E+04  0.10005055523E+04  0.25500000920E-02 0.  1.
        2   -1    0    0  501    0  0.00000000000E+00  0.00000000000E+00 -0.28394250222E+04  0.28394250222E+04  0.25500000920E-02 0. -1.
    10030    2    1    2    0    0  0.00000000000E+00  0.00000000000E+00 -0.18389194699E+04  0.38399305746E+04  0.33709704835E+04 0.  0.
        5    1    3    3  502    0 -0.35321611414E+03 -0.99812572503E+03  0.57440113131E+03  0.12045643760E+04  0.46999998093E+01 0.  1.
       -5    1    3    3    0  502  0.35321611414E+03  0.99812572503E+03 -0.24133206012E+04  0.26353661986E+04  0.46999998093E+01 0. -1.
</event>
<event>
 5   0  0.6134625E-07  0.3399728E+04  0.7818609E-02  0.8137973E-01
        1   -1    0    0  501    0  0.00000000000E+00  0.00000000000E+00  0.18976912210E+04  0.18976912210E+04  0.50400001928E-02 0.  1.
       -1   -1    0    0    0  501  0.00000000000E+00  0.00000000000E+00 -0.15226591498E+04  0.15226591498E+04  0.50400001928E-02 0. -1.
    10030    2    1    2    0    0  0.00000000000E+00  0.00000000000E+00  0.37503207122E+03  0.34203503709E+04  0.33997275781E+04 0.  0.
        3    1    3    3  502    0 -0.35562813512E+03  0.16273529796E+04  0.52837470556E+03  0.17475494071E+04  0.10100000352E+00 0. -1.
       -3    1    3    3    0  502  0.35562813512E+03 -0.16273529796E+04 -0.15334263434E+03  0.16728009638E+04  0.10100000352E+00 0.  1.
</event>
<event>
 5   0  0.6146388E-07  0.3397549E+04  0.7818609E-02  0.8138508E-01
       -1   -1    0    0    0  501  0.00000000000E+00  0.00000000000E+00  0.28020602113E+04  0.28020602113E+04  0.50400001928E-02 0.  1.
        1   -1    0    0  501    0  0.00000000000E+00  0.00000000000E+00 -0.10298975737E+04  0.10298975737E+04  0.50400001928E-02 0. -1.
    10030    2    1    2    0    0  0.00000000000E+00  0.00000000000E+00  0.17721626376E+04  0.38319577851E+04  0.33975491244E+04 0.  0.
        4    1    3    3  502    0  0.63681277844E+03 -0.28784038618E+03  0.26324254245E+04  0.27236093389E+04  0.12699999809E+01 0.  1.
       -4    1    3    3    0  502 -0.63681277844E+03  0.28784038618E+03 -0.86026278687E+03  0.11083484461E+04  0.12699999809E+01 0. -1.
</event>
<event>
 5   0  0.6134625E-07  0.3677292E+04  0.7818609E-02  0.8073013E-01
        1   -1    0    0  501    0  0.00000000000E+00  0.00000000000E+00  0.16407212069E+04  0.16407212069E+04  0.50400001928E-02 0. -1.
       -1   -1    0    0    0  501  0.00000000000E+00  0.00000000000E+00 -0.20604466578E+04  0.20604466578E+04  0.50400001928E-02 0.  1.
    10030    2    1    2    0    0  0.00000000000E+00  0.00000000000E+00 -0.41972545089E+03  0.37011678647E+04  0.36772916812E+04 0.  0.
        1    1    3    3  502    0 -0.30783679049E+03 -0.28791544106E+03 -0.20111643600E+04  0.20548578719E+04  0.50400001928E-02 0.  1.
       -1    1    3    3    0  502  0.30783679049E+03  0.28791544106E+03  0.15914389091E+04  0.16463099928E+04  0.50400001928E-02 0. -1.
</event>
<event>
 5   0  0.6134625E-07  0.3560894E+04  0.7818609E-02  0.8099509E-01
        3   -1    0    0  501    0  0.00000000000E+00  0.00000000000E+00  0.18502772577E+04  0.18502772605E+04  0.10100000352E+00 0.  1.
       -3   -1    0    0    0  501  0.00000000000E+00  0.00000000000E+00 -0.17132521774E+04  0.17132521804E+04  0.10100000352E+00 0. -1.
    10030    2    1    2    0    0  0.00000000000E+00  0.00000000000E+00  0.13702508032E+03  0.35635294409E+04  0.35608940174E+04 0.  0.
        4    1    3    3  502    0 -0.16449005340E+04  0.64859963452E+03  0.27749881250E+03  0.17898006750E+04  0.12699999809E+01 0.  1.
       -4    1    3    3    0  502  0.16449005340E+04 -0.64859963452E+03 -0.14047373218E+03  0.17737287659E+04  0.12699999809E+01 0. -1.
</event>
<event>
 5   0  0.6134625E-07  0.3368604E+04  0.7818609E-02  0.8145655E-01
        1   -1    0    0  501    0  0.00000000000E+00  0.00000000000E+00  0.17003819764E+04  0.17003819764E+04  0.50400001928E-02 0. -1.
       -1   -1    0    0    0  501  0.00000000000E+00  0.00000000000E+00 -0.16683739671E+04  0.16683739671E+04  0.50400001928E-02 0.  1.
    10030    2    1    2    0    0  0.00000000000E+00  0.00000000000E+00  0.32008009255E+02  0.33687559435E+04  0.33686038791E+04 0.  0.
        5    1    3    3  502    0 -0.16680590961E+04  0.23181273420E+03  0.42323283064E+02  0.16846280426E+04  0.46999998093E+01 0. -1.
       -5    1    3    3    0  502  0.16680590961E+04 -0.23181273420E+03 -0.10315273809E+02  0.16841279009E+04  0.46999998093E+01 0.  1.
</event>
<event>
 5   0  0.6134625E-07  0.3311807E+04  0.7818609E-02  0.8159898E-01
       -1   -1    0    0    0  501  0.00000000000E+00  0.00000000000E+00  0.17502876387E+04  0.17502876387E+04  0.50400001928E-02 0. -1.
        1   -1    0    0  501    0  0.00000000000E+00  0.00000000000E+00 -0.15666086386E+04  0.15666086386E+04  0.50400001928E-02 0.  1.
    10030    2    1    2    0    0  0.00000000000E+00  0.00000000000E+00  0.18367900004E+03  0.33168962773E+04  0.33118065975E+04 0.  0.
        3    1    3    3  502    0 -0.53428749056E+02  0.10399931254E+04  0.13812867175E+04  0.17298535598E+04  0.10100000352E+00 0. -1.
       -3    1    3    3    0  502  0.53428749056E+02 -0.10399931254E+04 -0.11976077175E+04  0.15870427175E+04  0.10100000352E+00 0.  1.
</event>
<event>
 5   0  0.6146388E-07  0.3429713E+04  0.7818609E-02  0.8130652E-01
        1   -1    0    0  501    0  0.00000000000E+00  0.00000000000E+00  0.27397172423E+04  0.27397172423E+04  0.50400001928E-02 0.  1.
       -1   -1    0    0    0  501  0.00000000000E+00  0.00000000000E+00 -0.10733706944E+04  0.10733706945E+04  0.50400001928E-02 0. -1.
    10030    2    1    2    0    0  0.00000000000E+00  0.00000000000E+00  0.16663465478E+04  0.38130879367E+04  0.34297126404E+04 0.  0.
        4    1    3    3  502    0  0.27481527885E+03  0.84627069453E+02 -0.10463757126E+04  0.10851676935E+04  0.12699999809E+01 0. -1.
       -4    1    3    3    0  502 -0.27481527885E+03 -0.84627069453E+02  0.27127222604E+04  0.27279202432E+04  0.12699999809E+01 0.  1.
</event>
<event>
 5   0  0.6134625E-07  0.3265302E+04  0.7818609E-02  0.8171781E-01
       -1   -1    0    0    0  501  0.00000000000E+00  0.00000000000E+00  0.18696325970E+04  0.18696325970E+04  0.50400001928E-02 0.  1.
        1   -1    0    0  501    0  0.00000000000E+00  0.00000000000E+00 -0.14257075175E+04  0.14257075175E+04  0.50400001928E-02 0. -1.
    10030    2    1    2    0    0  0.00000000000E+00  0.00000000000E+00  0.44392507954E+03  0.32953401145E+04  0.32653019759E+04 0.  0.
        5    1    3    3  502    0  0.65423001550E+03  0.12901609232E+04  0.98589035678E+03  0.17505810483E+04  0.46999998093E+01 0.  1.
       -5    1    3    3    0  502 -0.65423001550E+03 -0.12901609232E+04 -0.54196527724E+03  0.15447590662E+04  0.46999998093E+01 0. -1.
</event>
<event>
 5   0  0.1948507E-06  0.3372644E+04  0.7818609E-02  0.8144653E-01
       -2   -1    0    0    0  501  0.00000000000E+00  0.00000000000E+00  0.12095012565E+04  0.12095012565E+04  0.25500000920E-02 0.  1.
        2   -1    0    0  501    0  0.00000000000E+00  0.00000000000E+00 -0.23511198866E+04  0.23511198866E+04  0.25500000920E-02 0. -1.
    10030    2    1    2    0    0  0.00000000000E+00  0.00000000000E+00 -0.11416186301E+04  0.35606211432E+04  0.33726443377E+04 0.  0.
        1    1    3    3  502    0 -0.41720680013E+02 -0.16003061599E+04 -0.11304110373E+04  0.19597320056E+04  0.50400001928E-02 0. -1.
       -1    1    3    3    0  502  0.41720680013E+02  0.16003061599E+04 -0.11207592841E+02  0.16008891376E+04  0.50400001928E-02 0.  1.
</event>
<event>
 5   0  0.6134625E-07  0.3404247E+04  0.7818609E-02  0.8136865E-01
        1   -1    0    0  501    0  0.00000000000E+00  0.00000000000E+00  0.21901283046E+04  0.21901283046E+04  0.50400001928E-02 0. -1.
       -1   -1    0    0    0  501  0.00000000000E+00  0.00000000000E+00 -0.13228559276E+04  0.13228559276E+04  0.50400001928E-02 0.  1.
    10030    2    1    2    0    0  0.00000000000E+00  0.00000000000E+00  0.86727237700E+03  0.35129842321E+04  0.34042468828E+04 0.  0.
        1    1    3    3  502    0 -0.72485893648E+03 -0.81647813585E+02 -0.11533872352E+04  0.13646937230E+04  0.50400001928E-02 0.  1.
       -1    1    3    3    0  502  0.72485893648E+03  0.81647813585E+02  0.20206596122E+04  0.21482905091E+04  0.50400001928E-02 0. -1.
</event>
<event>
 5   0  0.1880301E-06  0.3412529E+04  0.7818609E-02  0.8134838E-01
        2   -1    0    0  501    0  0.00000000000E+00  0.00000000000E+00  0.19610649051E+04  0.19610649051E+04  0.25500000920E-02 0.  1.
       -2   -1    0    0    0  501  0.00000000000E+00  0.00000000000E+00 -0.14845700816E+04  0.14845700816E+04  0.25500000920E-02 0. -1.
    10030    2    1    2    0    0  0.00000000000E+00  0.00000000000E+00  0.47649482349E+03  0.34456349868E+04  0.34125288490E+04 0.  0.
        4    1    3    3  502    0  0.92329652416E+03 -0.14324388288E+04  0.32259950631E+03  0.17344824946E+04  0.12699999809E+01 0. -1.
       -4    1    3    3    0  502 -0.92329652416E+03  0.14324388288E+04  0.15389531719E+03  0.17111524921E+04  0.12699999809E+01 0.  1.
</event>
<event>
 5   0  0.1911477E-06  0.3412172E+04  0.7818609E-02  0.8134925E-01
        2   -1    0    0  501    0  0.00000000000E+00  0.00000000000E+00  0.24883466514E+04  0.24883466514E+04  0.25500000920E-02 0.  1.
       -2   -1    0    0    0  501  0.00000000000E+00  0.00000000000E+00 -0.11697443534E+04  0.11697443535E+04  0.25500000920E-02 0. -1.
    10030    2    1    2    0    0  0.00000000000E+00  0.00000000000E+00  0.13186022979E+04  0.36580910048E+04  0.34121720032E+04 0.  0.
        5    1    3    3  502    0  0.15687375758E+04  0.17123042294E+02 -0.59447632723E+02  0.15699639777E+04  0.46999998093E+01 0. -1.
       -5    1    3    3    0  502 -0.15687375758E+04 -0.17123042294E+02  0.13780499307E+04  0.20881270272E+04  0.46999998093E+01 0.  1.
</event>
<event>
 5   0  0.1911477E-06  0.2770049E+04  0.7818609E-02  0.8312628E-01
       -2   -1    0    0    0  501  0.00000000000E+00  0.00000000000E+00  0.80063477239E+03  0.80063477239E+03  0.25500000920E-02 0.  1.
        2   -1    0    0  501    0  0.00000000000E+00  0.00000000000E+00 -0.23959652370E+04  0.23959652370E+04  0.25500000920E-02 0. -1.
    10030    2    1    2    0    0  0.00000000000E+00  0.00000000000E+00 -0.15953304646E+04  0.31966000094E+04  0.27700491564E+04 0.  0.
        5    1    3    3  502    0  0.26008988788E+03  0.12692834932E+04 -0.23286722287E+03  0.13164256794E+04  0.46999998093E+01 0.  1.
       -5    1    3    3    0  502 -0.26008988788E+03 -0.12692834932E+04 -0.13624632418E+04  0.18801743300E+04  0.46999998093E+01 0. -1.
</event>
<event>
 5   0  0.6134625E-07  0.3345727E+04  0.7818609E-02  0.8151357E-01
       -1   -1    0    0    0  501  0.00000000000E+00  0.00000000000E+00  0.15377809080E+04  0.15377809080E+04  0.50400001928E-02 0.  1.
        1   -1    0    0  501    0  0.00000000000E+00  0.00000000000E+00 -0.18198125956E+04  0.18198125956E+04  0.50400001928E-02 0. -1.
    10030    2    1    2    0    0  0.00000000000E+00  0.00000000000E+00 -0.28203168764E+03  0.33575935036E+04  0.33457274639E+04 0.  0.
        1    1    3    3  502    0 -0.54521343475E+03 -0.62332913006E+03 -0.15996756689E+04  0.18013214981E+04  0.50400001928E-02 0. -1.
       -1    1    3    3    0  502  0.54521343475E+03  0.62332913006E+03  0.13176439812E+04  0.15562720055E+04  0.50400001928E-02 0.  1.
</event>
<event>
 5   0  0.1797075E-06  0.3420853E+04  0.7818609E-02  0.8132807E-01
       -2   -1    0    0    0  501  0.00000000000E+00  0.00000000000E+00  0.13660221601E+04  0.13660221601E+04  0.25500000920E-02 0. -1.
        2   -1    0    0  501    0  0.00000000000E+00  0.00000000000E+00 -0.21416627080E+04  0.21416627081E+04  0.25500000920E-02 0.  1.
    10030    2    1    2    0    0  0.00000000000E+00  0.00000000000E+00 -0.77564054790E+03  0.35076848682E+04  0.34208529455E+04 0.  0.
        2    1    3    3  502    0 -0.14966660641E+04  0.27466176452E+03 -0.11887425113E+04  0.19309472158E+04  0.25500000920E-02 0.  1.
       -2    1    3    3    0  502  0.14966660641E+04 -0.27466176452E+03  0.41310196336E+03  0.15767376524E+04  0.25500000920E-02 0. -1.
</event>
<event>
 5   0  0.6134625E-07  0.3063143E+04  0.7818609E-02  0.8225926E-01
        1   -1    0    0  501    0  0.00000000000E+00  0.00000000000E+00  0.12424371707E+04  0.12424371707E+04  0.50400001928E-02 0. -1.
       -1   -1    0    0    0  501  0.00000000000E+00  0.00000000000E+00 -0.18879920241E+04  0.18879920241E+04  0.50400001928E-02 0.  1.
    10030    2    1    2    0    0  0.00000000000E+00  0.00000000000E+00 -0.64555485343E+03  0.31304291949E+04  0.30631431366E+04 0.  0.
        1    1    3    3  502    0  0.13391651170E+03 -0.80824752901E+03  0.99967773282E+03  0.12924988471E+04  0.50400001928E-02 0. -1.
       -1    1    3    3    0  502 -0.13391651170E+03  0.80824752901E+03 -0.16452325863E+04  0.18379303477E+04  0.50400001928E-02 0.  1.
</event>
<event>
 5   0  0.6134625E-07  0.3303147E+04  0.7818609E-02  0.8162095E-01
       -1   -1    0    0    0  501  0.00000000000E+00  0.00000000000E+00  0.12779688892E+04  0.12779688892E+04  0.50400001928E-02 0. -1.
        1   -1    0    0  501    0  0.00000000000E+00  0.00000000000E+00 -0.21343983755E+04  0.21343983755E+04  0.50400001928E-02 0.  1.
    10030    2    1    2    0    0  0.00000000000E+00  0.00000000000E+00 -0.85642948624E+03  0.34123672647E+04  0.33031468154E+04 0.  0.
        3    1    3    3  502    0 -0.71815388945E+03 -0.71261889963E+02  0.11064602179E+04  0.13210138114E+04  0.10100000352E+00 0. -1.
       -3    1    3    3    0  502  0.71815388945E+03  0.71261889963E+02 -0.19628897041E+04  0.20913534533E+04  0.10100000352E+00 0.  1.
</event>
<event>
 5   0  0.1797075E-06  0.3385809E+04  0.7818609E-02  0.8141398E-01
        2   -1    0    0  501    0  0.00000000000E+00  0.00000000000E+00  0.26657417901E+04  0.26657417901E+04  0.25500000920E-02 0.  1.
       -2   -1    0    0    0  501  0.00000000000E+00  0.00000000000E+00 -0.10750947828E+04  0.10750947828E+04  0.25500000920E-02 0. -1.
    10030    2    1    2    0    0  0.00000000000E+00  0.00000000000E+00  0.15906470073E+04  0.37408365730E+04  0.33858086721E+04 0.  0.
        2    1    3    3  502    0  0.81939086072E+03 -0.79412570942E+03  0.21770088614E+04  0.24579268922E+04  0.25500000920E-02 0.  1.
       -2    1    3    3    0  502 -0.81939086072E+03  0.79412570942E+03 -0.58636185408E+03  0.12829096807E+04  0.25500000920E-02 0. -1.
</event>
<event>
 5   0  0.6134625E-07  0.3214664E+04  0.7818609E-02  0.8184955E-01
       -1   -1    0    0    0  501  0.00000000000E+00  0.00000000000E+00  0.17406235765E+04  0.17406235765E+04  0.50400001928E-02 0.  1.
        1   -1    0    0  501    0  0.00000000000E+00  0.00000000000E+00 -0.14842474656E+04  0.14842474656E+04  0.50400001928E-02 0. -1.
    10030    2    1    2    0    0  0.00000000000E+00  0.00000000000E+00  0.25637611087E+03  0.32248710421E+04  0.32146639837E+04 0.  0.
        3    1    3    3  502    0  0.14572026878E+04 -0.22640075472E+03  0.76960788460E+03  0.16634281713E+04  0.10100000352E+00 0. -1.
       -3    1    3    3    0  502 -0.14572026878E+04  0.22640075472E+03 -0.51323177374E+03  0.15614428708E+04  0.10100000352E+00 0.  1.
</event>
<event>
 5   0  0.1339844E-06  0.3369987E+04  0.7818609E-02  0.8145312E-01
       -2   -1    0    0    0  501  0.00000000000E+00  0.00000000000E+00  0.16147119750E+04  0.16147119750E+04  0.25500000920E-02 0. -1.
        2   -1    0    0  501    0  0.00000000000E+00  0.00000000000E+00 -0.17583336553E+04  0.17583336553E+04  0.25500000920E-02 0.  1.
    10030    2    1    2    0    0  0.00000000000E+00  0.00000000000E+00 -0.14362168033E+03  0.33730456303E+04  0.33699865930E+04 0.  0.
        3    1    3    3  502    0  0.22104376116E+02  0.16842420570E+04 -0.26575911217E+02  0.16845967468E+04  0.10100000352E+00 0. -1.
       -3    1    3    3    0  502 -0.22104376116E+02 -0.16842420570E+04 -0.11704576911E+03  0.16884488835E+04  0.10100000352E+00 0.  1.
</event>
<event>
 5   0  0.1339844E-06  0.3428672E+04  0.7818609E-02  0.8130905E-01
        2   -1    0    0  501    0  0.00000000000E+00  0.00000000000E+00  0.17098051778E+04  0.17098051778E+04  0.25500000920E-02 0. -1.
       -2   -1    0    0    0  501  0.00000000000E+00  0.00000000000E+00 -0.17188786916E+04  0.17188786917E+04  0.25500000920E-02 0.  1.
    10030    2    1    2    0    0  0.00000000000E+00  0.00000000000E+00 -0.90735138540E+01  0.34286838694E+04  0.34286718636E+04 0.  0.
        3    1    3    3  502    0 -0.11472182153E+04 -0.39647742022E+03 -0.12151787200E+04  0.17175457228E+04  0.10100000352E+00 0.  1.
       -3    1    3    3    0  502  0.11472182153E+04  0.39647742022E+03  0.12061052062E+04  0.17111381466E+04  0.10100000352E+00 0. -1.
</event>
<event>
 5   0  0.1797075E-06  0.3397388E+04  0.7818609E-02  0.8138548E-01
       -2   -1    0    0    0  501  0.00000000000E+00  0.00000000000E+00  0.11686329527E+04  0.11686329527E+04  0.25500000920E-02 0.  1.
        2   -1    0    0  501    0  0.00000000000E+00  0.00000000000E+00 -0.24691768373E+04  0.24691768373E+04  0.25500000920E-02 0. -1.
    10030    2    1    2    0    0  0.00000000000E+00  0.00000000000E+00 -0.13005438846E+04  0.36378097900E+04  0.33973880662E+04 0.  0.
        2    1    3    3  502    0  0.82552532619E+03 -0.14781789482E+04 -0.79808564755E+03  0.18717493870E+04  0.25500000920E-02 0.  1.
       -2    1    3    3    0  502 -0.82552532619E+03  0.14781789482E+04 -0.50245823707E+03  0.17660604030E+04  0.25500000920E-02 0. -1.
</event>
<event>
 5   0  0.6146388E-07  0.3411218E+04  0.7818609E-02  0.8135159E-01
        1   -1    0    0  501    0  0.00000000000E+00  0.00000000000E+00  0.24794297570E+04  0.24794297570E+04  0.50400001928E-02 0.  1.
       -1   -1    0    0    0  501  0.00000000000E+00  0.00000000000E+00 -0.11732948065E+04  0.11732948065E+04  0.50400001928E-02 0. -1.
    10030    2    1    2    0    0  0.00000000000E+00  0.00000000000E+00  0.13061349505E+04  0.36527245636E+04  0.34112179978E+04 0.  0.
        4    1    3    3  502    0  0.72557013404E+03  0.30675445741E+03  0.22729654615E+04  0.24056026103E+04  0.12699999809E+01 0.  1.
       -4    1    3    3    0  502 -0.72557013404E+03 -0.30675445741E+03 -0.96683051098E+03  0.12471219533E+04  0.12699999809E+01 0. -1.
</event>
<event>
 5   0  0.1948507E-06  0.3428110E+04  0.7818609E-02  0.8131041E-01
        2   -1    0    0  501    0  0.00000000000E+00  0.00000000000E+00  0.23617751530E+04  0.23617751530E+04  0.25500000920E-02 0. -1.
       -2   -1    0    0    0  501  0.00000000000E+00  0.00000000000E+00 -0.12439732431E+04  0.12439732431E+04  0.25500000920E-02 0.  1.
    10030    2    1    2    0    0  0.00000000000E+00  0.00000000000E+00  0.11178019099E+04  0.36057483961E+04  0.34281103230E+04 0.  0.
        1    1    3    3  502    0  0.96833529902E+03 -0.22729506314E+02  0.20463201836E+04  0.22639823709E+04  0.50400001928E-02 0. -1.
       -1    1    3    3    0  502 -0.96833529902E+03  0.22729506314E+02 -0.92851827374E+03  0.13417660252E+04  0.50400001928E-02 0.  1.
</event>
<event>
 5   0  0.1797075E-06  0.2990978E+04  0.7818609E-02  0.8246312E-01
        2   -1    0    0  501    0  0.00000000000E+00  0.00000000000E+00  0.16422332172E+04  0.16422332173E+04  0.25500000920E-02 0. -1.
       -2   -1    0    0    0  501  0.00000000000E+00  0.00000000000E+00 -0.13618572531E+04  0.13618572531E+04  0.25500000920E-02 0.  1.
    10030    2    1    2    0    0  0.00000000000E+00  0.00000000000E+00  0.28037596410E+03  0.30040904704E+04  0.29909779125E+04 0.  0.
        2    1    3    3  502    0  0.96122214606E+03 -0.21889456670E+03  0.12696732625E+04  0.16074616757E+04  0.25500000920E-02 0. -1.
       -2    1    3    3    0  502 -0.96122214606E+03  0.21889456670E+03 -0.98929729842E+03  0.13966287947E+04  0.25500000920E-02 0.  1.
</event>
<event>
 5   0  0.1880301E-06  0.3169154E+04  0.7818609E-02  0.8197011E-01
       -2   -1    0    0    0  501  0.00000000000E+00  0.00000000000E+00  0.93649088373E+03  0.93649088374E+03  0.25500000920E-02 0. -1.
        2   -1    0    0  501    0  0.00000000000E+00  0.00000000000E+00 -0.26811625336E+04  0.26811625336E+04  0.25500000920E-02 0.  1.
    10030    2    1    2    0    0  0.00000000000E+00  0.00000000000E+00 -0.17446716498E+04  0.36176534173E+04  0.31691540010E+04 0.  0.
        4    1    3    3  502    0  0.91547793852E+03  0.28776623867E+03 -0.23117260283E+04  0.25029958263E+04  0.12699999809E+01 0.  1.
       -4    1    3    3    0  502 -0.91547793852E+03 -0.28776623867E+03  0.56705437845E+03  0.11146575909E+04  0.12699999809E+01 0. -1.
</event>
<event>
 5   0  0.1339844E-06  0.3420976E+04  0.7818609E-02  0.8132777E-01
       -2   -1    0    0    0  501  0.00000000000E+00  0.00000000000E+00  0.22225573745E+04  0.22225573745E+04  0.25500000920E-02 0. -1.
        2   -1    0    0  501    0  0.00000000000E+00  0.00000000000E+00 -0.13163972876E+04  0.13163972876E+04  0.25500000920E-02 0.  1.
    10030    2    1    2    0    0  0.00000000000E+00  0.00000000000E+00  0.90616008689E+03  0.35389546620E+04  0.34209755914E+04 0.  0.
        3    1    3    3  502    0 -0.11875233116E+04  0.11329297725E+03  0.17212115253E+04  0.20941862475E+04  0.10100000352E+00 0. -1.
       -3    1    3    3    0  502  0.11875233116E+04 -0.11329297725E+03 -0.81505143841E+03  0.14447684145E+04  0.10100000352E+00 0.  1.
</event>
<event>
 5   0  0.1911477E-06  0.3391774E+04  0.7818609E-02  0.8139928E-01
       -2   -1    0    0    0  501  0.00000000000E+00  0.00000000000E+00  0.16229944340E+04  0.16229944340E+04  0.25500000920E-02 0.  1.
        2   -1    0    0  501    0  0.00000000000E+00  0.00000000000E+00 -0.17720530855E+04  0.17720530855E+04  0.25500000920E-02 0. -1.
    10030    2    1    2    0    0  0.00000000000E+00  0.00000000000E+00 -0.14905865151E+03  0.33950475195E+04  0.33917737510E+04 0.  0.
        5    1    3    3  502    0 -0.14210224757E+04 -0.78747507292E+03  0.41234362699E+03  0.16761477332E+04  0.46999998093E+01 0.  1.
       -5    1    3    3    0  502  0.14210224757E+04  0.78747507292E+03 -0.56140227851E+03  0.17188997862E+04  0.46999998093E+01 0. -1.
</event>
<event>
 5   0  0.1948507E-06  0.3396692E+04  0.7818609E-02  0.8138719E-01
       -2   -1    0    0    0  501  0.00000000000E+00  0.00000000000E+00  0.12560101964E+04  0.12560101964E+04  0.25500000920E-02 0. -1.
        2   -1    0    0  501    0  0.00000000000E+00  0.00000000000E+00 -0.22964614829E+04  0.22964614829E+04  0.25500000920E-02 0.  1.
    10030    2    1    2    0    0  0.00000000000E+00  0.00000000000E+00 -0.10404512865E+04  0.35524716794E+04  0.33966919426E+04 0.  0.
        1    1    3    3  502    0  0.11257636026E+04 -0.98523929801E+03  0.32059739430E+03  0.15299747882E+04  0.50400001928E-02 0. -1.
       -1    1    3    3    0  502 -0.11257636026E+04  0.98523929801E+03 -0.13610486808E+04  0.20224968912E+04  0.50400001928E-02 0.  1.
</event>
<event>
 5   0  0.1880301E-06  0.3475093E+04  0.7818609E-02  0.8119718E-01
        2   -1    0    0  501    0  0.00000000000E+00  0.00000000000E+00  0.23646251989E+04  0.23646251989E+04  0.25500000920E-02 0. -1.
       -2   -1    0    0    0  501  0.00000000000E+00  0.00000000000E+00 -0.12767636710E+04  0.12767636710E+04  0.25500000920E-02 0.  1.
    10030    2    1    2    0    0  0.00000000000E+00  0.00000000000E+00  0.10878615279E+04  0.36413888699E+04  0.34750928330E+04 0.  0.
        4    1    3    3  502    0 -0.12153242357E+04  0.25447113662E+03  0.18175353476E+04  0.22011826162E+04  0.12699999809E+01 0. -1.
       -4    1    3    3    0  502  0.12153242357E+04 -0.25447113662E+03 -0.72967381967E+03  0.14402062537E+04  0.12699999809E+01 0.  1.
</event>
<event>
 5   0  0.6146388E-07  0.3413867E+04  0.7818609E-02  0.8134511E-01
        1   -1    0    0  501    0  0.00000000000E+00  0.00000000000E+00  0.23858989654E+04  0.23858989654E+04  0.50400001928E-02 0.  1.
       -1   -1    0    0    0  501  0.00000000000E+00  0.00000000000E+00 -0.12211843957E+04  0.12211843957E+04  0.50400001928E-02 0. -1.
    10030    2    1    2    0    0  0.00000000000E+00  0.00000000000E+00  0.11647145697E+04  0.36070833611E+04  0.34138673591E+04 0.  0.
        4    1    3    3  502    0 -0.13923346133E+04  0.41053526614E+03  0.15312300409E+04  0.21099293665E+04  0.12699999809E+01 0.  1.
       -4    1    3    3    0  502  0.13923346133E+04 -0.41053526614E+03 -0.36651547123E+03  0.14971539947E+04  0.12699999809E+01 0. -1.
</event>
<event>
 5   0  0.1911477E-06  0.2942214E+04  0.7818609E-02  0.8260427E-01
       -2   -1    0    0    0  501  0.00000000000E+00  0.00000000000E+00  0.93758084487E+03  0.93758084488E+03  0.25500000920E-02 0. -1.
        2   -1    0    0  501    0  0.00000000000E+00  0.00000000000E+00 -0.23082337932E+04  0.23082337932E+04  0.25500000920E-02 0.  1.
    10030    2    1    2    0    0  0.00000000000E+00  0.00000000000E+00 -0.13706529484E+04  0.32458146381E+04  0.29422139895E+04 0.  0.
        5    1    3    3  502    0 -0.24764653730E+03  0.62405240078E+02  0.91292979365E+03  0.94799056934E+03  0.46999998093E+01 0. -1.
       -5    1    3    3    0  502  0.24764653730E+03 -0.62405240078E+02 -0.22835827420E+04  0.22978240688E+04  0.46999998093E+01 0.  1.
</event>
<event>
 5   0  0.6134625E-07  0.3354483E+04  0.7818609E-02  0.8149169E-01
        1   -1    0    0  501    0  0.00000000000E+00  0.00000000000E+00  0.21294301491E+04  0.21294301491E+04  0.50400001928E-02 0. -1.
       -1   -1    0    0    0  501  0.00000000000E+00  0.00000000000E+00 -0.13210759940E+04  0.13210759940E+04  0.50400001928E-02 0.  1.
    10030    2    1    2    0    0  0.00000000000E+00  0.00000000000E+00  0.80835415511E+03  0.34505061432E+04  0.33544830010E+04 0.  0.
        3    1    3    3  502    0 -0.10219953264E+04 -0.12822792268E+04  0.76701301699E+03  0.18102550762E+04  0.10100000352E+00 0. -1.
       -3    1    3    3    0  502  0.10219953264E+04  0.12822792268E+04  0.41341138125E+02  0.16402510669E+04  0.10100000352E+00 0.  1.
</event>
<event>
 5   0  0.6134625E-07  0.3389475E+04  0.7818609E-02  0.8140494E-01
        1   -1    0    0  501    0  0.00000000000E+00  0.00000000000E+00  0.23725038146E+04  0.23725038146E+04  0.50400001928E-02 0.  1.
       -1   -1    0    0    0  501  0.00000000000E+00  0.00000000000E+00 -0.12105926776E+04  0.12105926776E+04  0.50400001928E-02 0. -1.
    10030    2    1    2    0    0  0.00000000000E+00  0.00000000000E+00  0.11619111370E+04  0.35830964922E+04  0.33894753255E+04 0.  0.
        5    1    3    3  502    0 -0.11242011131E+04 -0.92233787524E+03 -0.33915454961E+03  0.14931788899E+04  0.46999998093E+01 0.  1.
       -5    1    3    3    0  502  0.11242011131E+04  0.92233787524E+03  0.15010656866E+04  0.20899176023E+04  0.46999998093E+01 0. -1.
</event>
<event>
 5   0  0.6134625E-07  0.3484564E+04  0.7818609E-02  0.8117458E-01
        1   -1    0    0  501    0  0.00000000000E+00  0.00000000000E+00  0.17164893718E+04  0.17164893718E+04  0.50400001928E-02 0. -1.
       -1   -1    0    0    0  501  0.00000000000E+00  0.00000000000E+00 -0.17684620651E+04  0.17684620651E+04  0.50400001928E-02 0.  1.
    10030    2    1    2    0    0  0.00000000000E+00  0.00000000000E+00 -0.51972693319E+02  0.34849514369E+04  0.34845638689E+04 0.  0.
        1    1    3    3  502    0 -0.12755742120E+04 -0.10385527922E+04 -0.60038886116E+03  0.17510420489E+04  0.50400001928E-02 0.  1.
       -1    1    3    3    0  502  0.12755742120E+04  0.10385527922E+04  0.54841616784E+03  0.17339093880E+04  0.50400001928E-02 0. -1.
</event>
<event>
 5   0  0.1880301E-06  0.3403662E+04  0.7818609E-02  0.8137008E-01
        2   -1    0    0  501    0  0.00000000000E+00  0.00000000000E+00  0.18519126865E+04  0.18519126865E+04  0.25500000920E-02 0.  1.
       -2   -1    0    0    0  501  0.00000000000E+00  0.00000000000E+00 -0.15639121664E+04  0.15639121664E+04  0.25500000920E-02 0. -1.
    10030    2    1    2    0    0  0.00000000000E+00  0.00000000000E+00  0.28800052009E+03  0.34158248529E+04  0.34036620171E+04 0.  0.
        4    1    3    3  502    0  0.86623899299E+03 -0.11258237791E+03 -0.13217607334E+04  0.15843288276E+04  0.12699999809E+01 0. -1.
       -4    1    3    3    0  502 -0.86623899299E+03  0.11258237791E+03  0.16097612535E+04  0.18314960253E+04  0.12699999809E+01 0.  1.
</event>
<event>
 5   0  0.6134625E-07  0.3424386E+04  0.7818609E-02  0.8131947E-01
       -1   -1    0    0    0  501  0.00000000000E+00  0.00000000000E+00  0.11268227823E+04  0.11268227823E+04  0.50400001928E-02 0. -1.
        1   -1    0    0  501    0  0.00000000000E+00  0.00000000000E+00 -0.26016553842E+04  0.26016553842E+04  0.50400001928E-02 0.  1.
    10030    2    1    2    0    0  0.00000000000E+00  0.00000000000E+00 -0.14748326019E+04  0.37284781665E+04  0.34243858186E+04 0.  0.
        1    1    3    3  502    0 -0.10564810735E+04  0.59896607679E+03  0.57669688440E+03  0.13444299596E+04  0.50400001928E-02 0.  1.
       -1    1    3    3    0  502  0.10564810735E+04 -0.59896607679E+03 -0.20515294863E+04  0.23840482069E+04  0.50400001928E-02 0. -1.
</event>
<event>
 5   0  0.1339844E-06  0.3265831E+04  0.7818609E-02  0.8171645E-01
       -2   -1    0    0    0  501  0.00000000000E+00  0.00000000000E+00  0.15820541003E+04  0.15820541003E+04  0.25500000920E-02 0.  1.
        2   -1    0    0  501    0  0.00000000000E+00  0.00000000000E+00 -0.16854117767E+04  0.16854117767E+04  0.25500000920E-02 0. -1.
    10030    2    1    2    0    0  0.00000000000E+00  0.00000000000E+00 -0.10335767642E+03  0.32674658771E+04  0.32658307440E+04 0.  0.
        3    1    3    3  502    0 -0.62536692289E+03  0.11403363631E+04 -0.10395747452E+04  0.16649824234E+04  0.10100000352E+00 0. -1.
       -3    1    3    3    0  502  0.62536692289E+03 -0.11403363631E+04  0.93621706878E+03  0.16024834537E+04  0.10100000352E+00 0.  1.
</event>
<event>
 5   0  0.1911477E-06  0.3437002E+04  0.7818609E-02  0.8128884E-01
       -2   -1    0    0    0  501  0.00000000000E+00  0.00000000000E+00  0.12325429087E+04  0.12325429087E+04  0.25500000920E-02 0.  1.
        2   -1    0    0  501    0  0.00000000000E+00  0.00000000000E+00 -0.23960596025E+04  0.23960596025E+04  0.25500000920E-02 0. -1.
    10030    2    1    2    0    0  0.00000000000E+00  0.00000000000E+00 -0.11635166938E+04  0.36286025113E+04  0.34370023404E+04 0.  0.
        5    1    3    3  502    0  0.10532765071E+04  0.39674252671E+03  0.78926070622E+03  0.13746819942E+04  0.46999998093E+01 0.  1.
       -5    1    3    3    0  502 -0.10532765071E+04 -0.39674252671E+03 -0.19527774001E+04  0.22539205170E+04  0.46999998093E+01 0. -1.
</event>
<event>
 5   0  0.1911477E-06  0.3453432E+04  0.7818609E-02  0.8124916E-01
        2   -1    0    0  501    0  0.00000000000E+00  0.00000000000E+00  0.19598654560E+04  0.19598654560E+04  0.25500000920E-02 0. -1.
       -2   -1    0    0    0  501  0.00000000000E+00  0.00000000000E+00 -0.15213022792E+04  0.15213022792E+04  0.25500000920E-02 0.  1.
    10030    2    1    2    0    0  0.00000000000E+00  0.00000000000E+00  0.43856317681E+03  0.34811677352E+04  0.34534317918E+04 0.  0.
        5    1    3    3  502    0  0.10554202059E+04 -0.22312528037E+02 -0.11581172783E+04  0.15670569167E+04  0.46999998093E+01 0.  1.
       -5    1    3    3    0  502 -0.10554202059E+04  0.22312528037E+02  0.15966804551E+04  0.19141108185E+04  0.46999998093E+01 0. -1.
</event>
<event>
 5   0  0.1797075E-06  0.3386962E+04  0.7818609E-02  0.8141114E-01
       -2   -1    0    0    0  501  0.00000000000E+00  0.00000000000E+00  0.14851960417E+04  0.14851960417E+04  0.25500000920E-02 0.  1.
        2   -1    0    0  501    0  0.00000000000E+00  0.00000000000E+00 -0.19309757734E+04  0.19309757734E+04  0.25500000920E-02 0. -1.
    10030    2    1    2    0    0  0.00000000000E+00  0.00000000000E+00 -0.44577973171E+03  0.34161718151E+04  0.33869618099E+04 0.  0.
        2    1    3    3  502    0 -0.11152923598E+04  0.73228508340E+03  0.82906174975E+03  0.15708156722E+04  0.25500000920E-02 0.  1.
       -2    1    3    3    0  502  0.11152923598E+04 -0.73228508340E+03 -0.12748414815E+04  0.18453561429E+04  0.25500000920E-02 0. -1.
</event>
<event>
 5   0  0.6146388E-07  0.3423712E+04  0.7818609E-02  0.8132111E-01
       -1   -1    0    0    0  501  0.00000000000E+00  0.00000000000E+00  0.13845967669E+04  0.13845967669E+04  0.50400001928E-02 0. -1.
        1   -1    0    0  501    0  0.00000000000E+00  0.00000000000E+00 -0.21164652397E+04  0.21164652397E+04  0.50400001928E-02 0.  1.
    10030    2    1    2    0    0  0.00000000000E+00  0.00000000000E+00 -0.73186847280E+03  0.35010620066E+04  0.34237119786E+04 0.  0.
        4    1    3    3  502    0  0.48696597953E+03  0.15764223460E+04 -0.83253907627E+03  0.18480709414E+04  0.12699999809E+01 0.  1.
       -4    1    3    3    0  502 -0.48696597953E+03 -0.15764223460E+04  0.10067060348E+03  0.16529910651E+04  0.12699999809E+01 0. -1.
</event>
<event>
 5   0  0.1948507E-06  0.3390795E+04  0.7818609E-02  0.8140169E-01
        2   -1    0    0  501    0  0.00000000000E+00  0.00000000000E+00  0.18301229107E+04  0.18301229107E+04  0.25500000920E-02 0.  1.
       -2   -1    0    0    0  501  0.00000000000E+00  0.00000000000E+00 -0.15705896066E+04  0.15705896066E+04  0.25500000920E-02 0. -1.
    10030    2    1    2    0    0  0.00000000000E+00  0.00000000000E+00  0.25953330416E+03  0.34007125173E+04  0.33907946103E+04 0.  0.
        1    1    3    3  502    0 -0.46821594008E+03 -0.15673643113E+04  0.57662005395E+03  0.17344589178E+04  0.50400001928E-02 0. -1.
       -1    1    3    3    0  502  0.46821594008E+03  0.15673643113E+04 -0.31708674979E+03  0.16662535995E+04  0.50400001928E-02 0.  1.
</event>
<event>
 5   0  0.1339844E-06  0.3357310E+04  0.7818609E-02  0.8148464E-01
        2   -1    0    0  501    0  0.00000000000E+00  0.00000000000E+00  0.14582630479E+04  0.14582630479E+04  0.25500000920E-02 0. -1.
       -2   -1    0    0    0  501  0.00000000000E+00  0.00000000000E+00 -0.19323553549E+04  0.19323553549E+04  0.25500000920E-02 0.  1.
    10030    2    1    2    0    0  0.00000000000E+00  0.00000000000E+00 -0.47409230700E+03  0.33906184028E+04  0.33573098811E+04 0.  0.
        3    1    3    3  502    0 -0.12389140625E+04  0.81047428973E+03 -0.10361649379E+04  0.18070457707E+04  0.10100000352E+00 0.  1.
       -3    1    3    3    0  502  0.12389140625E+04 -0.81047428973E+03  0.56207263091E+03  0.15835726321E+04  0.10100000352E+00 0. -1.
</event>
<event>
 5   0  0.1880301E-06  0.3302443E+04  0.7818609E-02  0.8162274E-01
       -2   -1    0    0    0  501  0.00000000000E+00  0.00000000000E+00  0.18562739188E+04  0.18562739188E+04  0.25500000920E-02 0.  1.
        2   -1    0    0  501    0  0.00000000000E+00  0.00000000000E+00 -0.14688202187E+04  0.14688202187E+04  0.25500000920E-02 0. -1.
    10030    2    1    2    0    0  0.00000000000E+00  0.00000000000E+00  0.38745370002E+03  0.33250941375E+04  0.33024431340E+04 0.  0.
        4    1    3    3  502    0  0.32955881562E+03  0.39205370797E+03  0.17742758972E+04  0.18467191707E+04  0.12699999809E+01 0.  1.
       -4    1    3    3    0  502 -0.32955881562E+03 -0.39205370797E+03 -0.13868221972E+04  0.14783749668E+04  0.12699999809E+01 0. -1.
</event>
<event>
 5   0  0.1339844E-06  0.3947004E+04  0.7818609E-02  0.8015324E-01
       -2   -1    0    0    0  501  0.00000000000E+00  0.00000000000E+00  0.16395533589E+04  0.16395533589E+04  0.25500000920E-02 0. -1.
        2   -1    0    0  501    0  0.00000000000E+00  0.00000000000E+00 -0.23754705628E+04  0.23754705628E+04  0.25500000920E-02 0.  1.
    10030    2    1    2    0    0  0.00000000000E+00  0.00000000000E+00 -0.73591720388E+03  0.40150239216E+04  0.39470043020E+04 0.  0.
        3    1    3    3  502    0 -0.13455927469E+03 -0.11700846006E+04  0.12428412323E+04  0.17122670674E+04  0.10100000352E+00 0. -1.
       -3    1    3    3    0  502  0.13455927469E+03  0.11700846006E+04 -0.19787584362E+04  0.23027568543E+04  0.10100000352E+00 0.  1.
</event>
<event>
 5   0  0.1339844E-06  0.3372923E+04  0.7818609E-02  0.8144584E-01
       -2   -1    0    0    0  501  0.00000000000E+00  0.00000000000E+00  0.20335735711E+04  0.20335735711E+04  0.25500000920E-02 0. -1.
        2   -1    0    0  501    0  0.00000000000E+00  0.00000000000E+00 -0.13985984327E+04  0.13985984327E+04  0.25500000920E-02 0.  1.
    10030    2    1    2    0    0  0.00000000000E+00  0.00000000000E+00  0.63497513841E+03  0.34321720038E+04  0.33729232481E+04 0.  0.
        3    1    3    3  502    0 -0.32738198372E+03 -0.64587944931E+03 -0.12323605057E+04  0.14293535786E+04  0.10100000352E+00 0.  1.
       -3    1    3    3    0  502  0.32738198372E+03  0.64587944931E+03  0.18673356442E+04  0.20028184252E+04  0.10100000352E+00 0. -1.
</event>
<event>
 5   0  0.6146388E-07  0.3335659E+04  0.7818609E-02  0.8153881E-01
        1   -1    0    0  501    0  0.00000000000E+00  0.00000000000E+00  0.21287550137E+04  0.21287550137E+04  0.50400001928E-02 0.  1.
       -1   -1    0    0    0  501  0.00000000000E+00  0.00000000000E+00 -0.13067055733E+04  0.13067055733E+04  0.50400001928E-02 0. -1.
    10030    2    1    2    0    0  0.00000000000E+00  0.00000000000E+00  0.82204944035E+03  0.34354605870E+04  0.33356594794E+04 0.  0.
        4    1    3    3  502    0 -0.27947854322E+03 -0.14818833110E+03  0.20975744741E+04  0.21212940213E+04  0.12699999809E+01 0.  1.
       -4    1    3    3    0  502  0.27947854322E+03  0.14818833110E+03 -0.12755250338E+04  0.13141665657E+04  0.12699999809E+01 0. -1.
</event>
<event>
 5   0  0.6134625E-07  0.3381752E+04  0.7818609E-02  0.8142400E-01
        1   -1    0    0  501    0  0.00000000000E+00  0.00000000000E+00  0.10615190261E+04  0.10615190261E+04  0.50400001928E-02 0. -1.
       -1   -1    0    0    0  501  0.00000000000E+00  0.00000000000E+00 -0.26933679522E+04  0.26933679522E+04  0.50400001928E-02 0.  1.
    10030    2    1    2    0    0  0.00000000000E+00  0.00000000000E+00 -0.16318489262E+04  0.37548869783E+04  0.33817518096E+04 0.  0.
        3    1    3    3  502    0 -0.81889245465E+03  0.10740456380E+04  0.31362392900E+03  0.13865492648E+04  0.10100000352E+00 0. -1.
       -3    1    3    3    0  502  0.81889245465E+03 -0.10740456380E+04 -0.19454728552E+04  0.23683377135E+04  0.10100000352E+00 0.  1.
</event>
<event>
 5   0  0.6134625E-07  0.3403626E+04  0.7818609E-02  0.8137017E-01
       -1   -1    0    0    0  501  0.00000000000E+00  0.00000000000E+00  0.10078377827E+04  0.10078377827E+04  0.50400001928E-02 0. -1.
        1   -1    0    0  501    0  0.00000000000E+00  0.00000000000E+00 -0.28736445832E+04  0.28736445832E+04  0.50400001928E-02 0.  1.
    10030    2    1    2    0    0  0.00000000000E+00  0.00000000000E+00 -0.18658068005E+04  0.38814823659E+04  0.34036260576E+04 0.  0.
        5    1    3    3  502    0 -0.48107106398E+03 -0.10365510621E+04  0.50520726156E+03  0.12494494547E+04  0.46999998093E+01 0. -1.
       -5    1    3    3    0  502  0.48107106398E+03  0.10365510621E+04 -0.23710140620E+04  0.26320329111E+04  0.46999998093E+01 0.  1.
</event>
<event>
 5   0  0.1948507E-06  0.3430031E+04  0.7818609E-02  0.8130575E-01
        2   -1    0    0  501    0  0.00000000000E+00  0.00000000000E+00  0.11221723494E+04  0.11221723494E+04  0.25500000920E-02 0.  1.
       -2   -1    0    0    0  501  0.00000000000E+00  0.00000000000E+00 -0.26210572848E+04  0.26210572848E+04  0.25500000920E-02 0. -1.
    10030    2    1    2    0    0  0.00000000000E+00  0.00000000000E+00 -0.14988849354E+04  0.37432296342E+04  0.34300309101E+04 0.  0.
        1    1    3    3  502    0 -0.12112774294E+04  0.12040410455E+04 -0.57907854384E+03  0.18033967423E+04  0.50400001928E-02 0. -1.
       -1    1    3    3    0  502  0.12112774294E+04 -0.12040410455E+04 -0.91980639161E+03  0.19398328919E+04  0.50400001928E-02 0.  1.
</event>
<event>
 5   0  0.1911477E-06  0.3404994E+04  0.7818609E-02  0.8136682E-01
        2   -1    0    0  501    0  0.00000000000E+00  0.00000000000E+00  0.21565730091E+04  0.21565730091E+04  0.25500000920E-02 0. -1.
       -2   -1    0    0    0  501  0.00000000000E+00  0.00000000000E+00 -0.13440284769E+04  0.13440284769E+04  0.25500000920E-02 0.  1.
    10030    2    1    2    0    0  0.00000000000E+00  0.00000000000E+00  0.81254453226E+03  0.35006014860E+04  0.34049937073E+04 0.  0.
        5    1    3    3  502    0  0.12393432624E+04  0.11379348252E+04  0.67358470387E+03  0.18123481542E+04  0.46999998093E+01 0. -1.
       -5    1    3    3    0  502 -0.12393432624E+04 -0.11379348252E+04  0.13895982839E+03  0.16882533319E+04  0.46999998093E+01 0.  1.
</event>
<event>
 5   0  0.6134625E-07  0.2601667E+04  0.7818609E-02  0.8367635E-01
       -1   -1    0    0    0  501  0.00000000000E+00  0.00000000000E+00  0.87572685526E+03  0.87572685527E+03  0.50400001928E-02 0.  1.
        1   -1    0    0  501    0  0.00000000000E+00  0.00000000000E+00 -0.19323014645E+04  0.19323014645E+04  0.50400001928E-02 0. -1.
    10030    2    1    2    0    0  0.00000000000E+00  0.00000000000E+00 -0.10565746092E+04  0.28080283197E+04  0.26016673768E+04 0.  0.
        5    1    3    3  502    0 -0.34338854811E+03 -0.75262435787E+03  0.55522564089E+03  0.99632159534E+03  0.46999998093E+01 0.  1.
       -5    1    3    3    0  502  0.34338854811E+03  0.75262435787E+03 -0.16118002501E+04  0.18117067244E+04  0.46999998093E+01 0. -1.
</event>
<event>
 5   0  0.6134625E-07  0.2998448E+04  0.7818609E-02  0.8244174E-01
        1   -1    0    0  501    0  0.00000000000E+00  0.00000000000E+00  0.18789895861E+04  0.18789895861E+04  0.50400001928E-02 0. -1.
       -1   -1    0    0    0  501  0.00000000000E+00  0.00000000000E+00 -0.11962134779E+04  0.11962134779E+04  0.50400001928E-02 0.  1.
    10030    2    1    2    0    0  0.00000000000E+00  0.00000000000E+00  0.68277610826E+03  0.30752030640E+04  0.29984480437E+04 0.  0.
        1    1    3    3  502    0 -0.47576184887E+03 -0.11701354963E+04 -0.48681428452E+03  0.13537187907E+04  0.50400001928E-02 0.  1.
       -1    1    3    3    0  502  0.47576184887E+03  0.11701354963E+04  0.11695903928E+04  0.17214842734E+04  0.50400001928E-02 0. -1.
</event>
<event>
 5   0  0.1797075E-06  0.3401282E+04  0.7818609E-02  0.8137592E-01
       -2   -1    0    0    0  501  0.00000000000E+00  0.00000000000E+00  0.91438965700E+03  0.91438965700E+03  0.25500000920E-02 0. -1.
        2   -1    0    0  501    0  0.00000000000E+00  0.00000000000E+00 -0.31629614889E+04  0.31629614889E+04  0.25500000920E-02 0.  1.
    10030    2    1    2    0    0  0.00000000000E+00  0.00000000000E+00 -0.22485718319E+04  0.40773511459E+04  0.34012816825E+04 0.  0.
        2    1    3    3  502    0 -0.10558462167E+04 -0.13280215056E+04 -0.12647360118E+04  0.21161307928E+04  0.25500000920E-02 0.  1.
       -2    1    3    3    0  502  0.10558462167E+04  0.13280215056E+04 -0.98383582008E+03  0.19612203531E+04  0.25500000920E-02 0. -1.
</event>
<event>
 5   0  0.6146388E-07  0.3445648E+04  0.7818609E-02  0.8126793E-01
        1   -1    0    0  501    0  0.00000000000E+00  0.00000000000E+00  0.13282248863E+04  0.13282248864E+04  0.50400001928E-02 0.  1.
       -1   -1    0    0    0  501  0.00000000000E+00  0.00000000000E+00 -0.22346538896E+04  0.22346538896E+04  0.50400001928E-02 0. -1.
    10030    2    1    2    0    0  0.00000000000E+00  0.00000000000E+00 -0.90642900326E+03  0.35628787760E+04  0.34456482169E+04 0.  0.
        4    1    3    3  502    0 -0.70503050906E+03 -0.81812464887E+03  0.93473735700E+03  0.14283317189E+04  0.12699999809E+01 0.  1.
       -4    1    3    3    0  502  0.70503050906E+03  0.81812464887E+03 -0.18411663603E+04  0.21345470571E+04  0.12699999809E+01 0. -1.
</event>
<event>
 5   0  0.1880301E-06  0.2696524E+04  0.7818609E-02  0.8336134E-01
        2   -1    0    0  501    0  0.00000000000E+00  0.00000000000E+00  0.18279533878E+04  0.18279533878E+04  0.25500000920E-02 0. -1.
       -2   -1    0    0    0  501  0.00000000000E+00  0.00000000000E+00 -0.99445138068E+03  0.99445138068E+03  0.25500000920E-02 0.  1.
    10030    2    1    2    0    0  0.00000000000E+00  0.00000000000E+00  0.83350200708E+03  0.28224047684E+04  0.26965242593E+04 0.  0.
        4    1    3    3  502    0 -0.59310569351E+03  0.12048720439E+04  0.54199543999E+03  0.14481891022E+04  0.12699999809E+01 0. -1.
       -4    1    3    3    0  502  0.59310569351E+03 -0.12048720439E+04  0.29150656709E+03  0.13742156663E+04  0.12699999809E+01 0.  1.
</event>
<event>
 5   0  0.1948507E-06  0.3296171E+04  0.7818609E-02  0.8163870E-01
        2   -1    0    0  501    0  0.00000000000E+00  0.00000000000E+00  0.29980032519E+04  0.29980032519E+04  0.25500000920E-02 0.  1.
       -2   -1    0    0    0  501  0.00000000000E+00  0.00000000000E+00 -0.90599838518E+03  0.90599838518E+03  0.25500000920E-02 0. -1.
    10030    2    1    2    0    0  0.00000000000E+00  0.00000000000E+00  0.20920048667E+04  0.39040016371E+04  0.32961711758E+04 0.  0.
        1    1    3    3  502    0 -0.13009949989E+04 -0.10331229223E+02 -0.15223347232E+03  0.13099121159E+04  0.50400001928E-02 0. -1.
       -1    1    3    3    0  502  0.13009949989E+04  0.10331229223E+02  0.22442383390E+04  0.25940895212E+04  0.50400001928E-02 0.  1.
</event>
<event>
 5   0  0.1911477E-06  0.3393556E+04  0.7818609E-02  0.8139490E-01
       -2   -1    0    0    0  501  0.00000000000E+00  0.00000000000E+00  0.11055938429E+04  0.11055938429E+04  0.25500000920E-02 0.  1.
        2   -1    0    0  501    0  0.00000000000E+00  0.00000000000E+00 -0.26040803085E+04  0.26040803085E+04  0.25500000920E-02 0. -1.
    10030    2    1    2    0    0  0.00000000000E+00  0.00000000000E+00 -0.14984864657E+04  0.37096741514E+04  0.33935557490E+04 0.  0.
        5    1    3    3  502    0 -0.96663828218E+03  0.58841858575E+03 -0.21312955105E+04  0.24131035294E+04  0.46999998093E+01 0. -1.
       -5    1    3    3    0  502  0.96663828218E+03 -0.58841858575E+03  0.63280904480E+03  0.12965706220E+04  0.46999998093E+01 0.  1.
</event>
<event>
 5   0  0.6134625E-07  0.3404220E+04  0.7818609E-02  0.8136871E-01
        1   -1    0    0  501    0  0.00000000000E+00  0.00000000000E+00  0.15904357638E+04  0.15904357638E+04  0.50400001928E-02 0.  1.
       -1   -1    0    0    0  501  0.00000000000E+00  0.00000000000E+00 -0.18216254170E+04  0.18216254170E+04  0.50400001928E-02 0. -1.
    10030    2    1    2    0    0  0.00000000000E+00  0.00000000000E+00 -0.23118965323E+03  0.34120611808E+04  0.34042198586E+04 0.  0.
        1    1    3    3  502    0  0.60150782568E+03 -0.24458736961E+03  0.14614153495E+04  0.15991777480E+04  0.50400001928E-02 0.  1.
       -1    1    3    3    0  502 -0.60150782568E+03  0.24458736961E+03 -0.16926050028E+04  0.18128834328E+04  0.50400001928E-02 0. -1.
</event>
<event>
 5   0  0.6134625E-07  0.3369188E+04  0.7818609E-02  0.8145510E-01
        1   -1    0    0  501    0  0.00000000000E+00  0.00000000000E+00  0.18752125802E+04  0.18752125802E+04  0.50400001928E-02 0. -1.
       -1   -1    0    0    0  501  0.00000000000E+00  0.00000000000E+00 -0.15133517765E+04  0.15133517765E+04  0.50400001928E-02 0.  1.
    10030    2    1    2    0    0  0.00000000000E+00  0.00000000000E+00  0.36186080371E+03  0.33885643567E+04  0.33691876110E+04 0.  0.
        5    1    3    3  502    0  0.13316045060E+04  0.97574652664E+03 -0.15653224439E+03  0.16582449391E+04  0.46999998093E+01 0.  1.
       -5    1    3    3    0  502 -0.13316045060E+04 -0.97574652664E+03  0.51839304811E+03  0.17303194176E+04  0.46999998093E+01 0. -1.
</event>
<event>
 5   0  0.1880301E-06  0.3132718E+04  0.7818609E-02  0.8206816E-01
        2   -1    0    0  501    0  0.00000000000E+00  0.00000000000E+00  0.11043372481E+04  0.11043372481E+04  0.25500000920E-02 0.  1.
       -2   -1    0    0    0  501  0.00000000000E+00  0.00000000000E+00 -0.22216770954E+04  0.22216770954E+04  0.25500000920E-02 0. -1.
    10030    2    1    2    0    0  0.00000000000E+00  0.00000000000E+00 -0.11173398473E+04  0.33260143434E+04  0.31327181613E+04 0.  0.
        4    1    3    3  502    0 -0.90322867510E+03 -0.75725467037E+03 -0.16539344137E+04  0.20309498598E+04  0.12699999809E+01 0. -1.
       -4    1    3    3    0  502  0.90322867510E+03  0.75725467037E+03  0.53659456636E+03  0.12950644837E+04  0.12699999809E+01 0.  1.
</event>
<event>
 5   0  0.6134625E-07  0.3391591E+04  0.7818609E-02  0.8139973E-01
        1   -1    0    0  501    0  0.00000000000E+00  0.00000000000E+00  0.13220891344E+04  0.13220891344E+04  0.50400001928E-02 0.  1.
       -1   -1    0    0    0  501  0.00000000000E+00  0.00000000000E+00 -0.21751348391E+04  0.21751348391E+04  0.50400001928E-02 0. -1.
    10030    2    1    2    0    0  0.00000000000E+00  0.00000000000E+00 -0.85304570474E+03  0.34972239736E+04  0.33915908578E+04 0.  0.
        5    1    3    3  502    0  0.11651591315E+04 -0.45819913448E+03  0.75284709829E+03  0.14609391130E+04  0.46999998093E+01 0.  1.
       -5    1    3    3    0  502 -0.11651591315E+04  0.45819913448E+03 -0.16058928030E+04  0.20362848606E+04  0.46999998093E+01 0. -1.
</event>
<event>
 5   0  0.6218695E-07  0.3378306E+04  0.7818609E-02  0.8143251E-01
       -1   -1    0    0    0  501  0.00000000000E+00  0.00000000000E+00  0.15881097666E+04  0.15881097666E+04  0.50400001928E-02 0.  1.
        1   -1    0    0  501    0  0.00000000000E+00  0.00000000000E+00 -0.17966254739E+04  0.17966254739E+04  0.50400001928E-02 0. -1.
    10030    2    1    2    0    0  0.00000000000E+00  0.00000000000E+00 -0.20851570732E+03  0.33847352405E+04  0.33783063579E+04 0.  0.
        2    1    3    3  502    0  0.16878230686E+04  0.33023650503E+02 -0.16268855469E+03  0.16959672279E+04  0.25500000920E-02 0. -1.
       -2    1    3    3    0  502 -0.16878230686E+04 -0.33023650503E+02 -0.45827152629E+02  0.16887680126E+04  0.25500000920E-02 0.  1.
</event>
<event>
 5   0  0.1880301E-06  0.3375861E+04  0.7818609E-02  0.8143856E-01
       -2   -1    0    0    0  501  0.00000000000E+00  0.00000000000E+00  0.10484285327E+04  0.10484285327E+04  0.25500000920E-02 0.  1.
        2   -1    0    0  501    0  0.00000000000E+00  0.00000000000E+00 -0.27175050294E+04  0.27175050294E+04  0.25500000920E-02 0. -1.
    10030    2    1    2    0    0  0.00000000000E+00  0.00000000000E+00 -0.16690764967E+04  0.37659335621E+04  0.33758612594E+04 0.  0.
        4    1    3    3  502    0  0.48917810048E+03  0.13088306123E+04 -0.18909419404E+04  0.23511690327E+04  0.12699999809E+01 0. -1.
       -4    1    3    3    0  502 -0.48917810048E+03 -0.13088306123E+04  0.22186544374E+03  0.14147645294E+04  0.12699999809E+01 0.  1.
</event>
<event>
 5   0  0.1911477E-06  0.3380227E+04  0.7818609E-02  0.8142776E-01
        2   -1    0    0  501    0  0.00000000000E+00  0.00000000000E+00  0.27517955099E+04  0.27517955099E+04  0.25500000920E-02 0. -1.
       -2   -1    0    0    0  501  0.00000000000E+00  0.00000000000E+00 -0.10380433005E+04  0.10380433005E+04  0.25500000920E-02 0.  1.
    10030    2    1    2    0    0  0.00000000000E+00  0.00000000000E+00  0.17137522094E+04  0.37898388104E+04  0.33802265565E+04 0.  0.
        5    1    3    3  502    0 -0.10853053818E+04 -0.47523665567E+03 -0.49446926703E+03  0.12838456281E+04  0.46999998093E+01 0.  1.
       -5    1    3    3    0  502  0.10853053818E+04  0.47523665567E+03  0.22082214765E+04  0.25059931823E+04  0.46999998093E+01 0. -1.
</event>
<event>
 5   0  0.1948507E-06  0.3337788E+04  0.7818609E-02  0.8153346E-01
       -2   -1    0    0    0  501  0.00000000000E+00  0.00000000000E+00  0.20530834975E+04  0.20530834975E+04  0.25500000920E-02 0.  1.
        2   -1    0    0  501    0  0.00000000000E+00  0.00000000000E+00 -0.13565971579E+04  0.13565971579E+04  0.25500000920E-02 0. -1.
    10030    2    1    2    0    0  0.00000000000E+00  0.00000000000E+00  0.69648633964E+03  0.34096806554E+04  0.33377880326E+04 0.  0.
        1    1    3    3  502    0 -0.79051171879E+03 -0.11977327325E+04  0.12184929360E+04  0.18826039177E+04  0.50400001928E-02 0.  1.
       -1    1    3    3    0  502  0.79051171879E+03  0.11977327325E+04 -0.52200659633E+03  0.15270767377E+04  0.50400001928E-02 0. -1.
</event>
<event>
 5   0  0.6134625E-07  0.3364173E+04  0.7818609E-02  0.8146756E-01
       -1   -1    0    0    0  501  0.00000000000E+00  0.00000000000E+00  0.16204026865E+04  0.16204026865E+04  0.50400001928E-02 0.  1.
        1   -1    0    0  501    0  0.00000000000E+00  0.00000000000E+00 -0.17461180752E+04  0.17461180752E+04  0.50400001928E-02 0. -1.
    10030    2    1    2    0    0  0.00000000000E+00  0.00000000000E+00 -0.12571538867E+03  0.33665207617E+04  0.33641726591E+04 0.  0.
        1    1    3    3  502    0  0.69086398583E+03 -0.11870343386E+03 -0.15929870265E+04  0.17403997296E+04  0.50400001928E-02 0. -1.
       -1    1    3    3    0  502 -0.69086398583E+03  0.11870343386E+03  0.14672716378E+04  0.16261210322E+04  0.50400001928E-02 0.  1.
</event>
<event>
 5   0  0.6146388E-07  0.3265259E+04  0.7818609E-02  0.8171792E-01
       -1   -1    0    0    0  501  0.00000000000E+00  0.00000000000E+00  0.17288552035E+04  0.17288552035E+04  0.50400001928E-02 0.  1.
        1   -1    0    0  501    0  0.00000000000E+00  0.00000000000E+00 -0.15417593576E+04  0.15417593576E+04  0.50400001928E-02 0. -1.
    10030    2    1    2    0    0  0.00000000000E+00  0.00000000000E+00  0.18709584591E+03  0.32706145611E+04  0.32652587572E+04 0.  0.
        4    1    3    3  502    0 -0.27708259235E+03 -0.20585919927E+03  0.16918859073E+04  0.17267403711E+04  0.12699999809E+01 0.  1.
       -4    1    3    3    0  502  0.27708259235E+03  0.20585919927E+03 -0.15047900614E+04  0.15438741900E+04  0.12699999809E+01 0. -1.
</event>
<event>
 5   0  0.6134625E-07  0.2530207E+04  0.7818609E-02  0.8392302E-01
       -1   -1    0    0    0  501  0.00000000000E+00  0.00000000000E+00  0.64875720965E+03  0.64875720967E+03  0.50400001928E-02 0.  1.
        1   -1    0    0  501    0  0.00000000000E+00  0.00000000000E+00 -0.24670046769E+04  0.24670046769E+04  0.50400001928E-02 0. -1.
    10030    2    1    2    0    0  0.00000000000E+00  0.00000000000E+00 -0.18182474672E+04  0.31157618865E+04  0.25302071618E+04 0.  0.
        1    1    3    3  502    0 -0.47913167095E+02 -0.73746932493E+02 -0.24632359236E+04  0.24648053669E+04  0.50400001928E-02 0. -1.
       -1    1    3    3    0  502  0.47913167095E+02  0.73746932493E+02  0.64498845633E+03  0.65095651963E+03  0.50400001928E-02 0.  1.
</event>
<event>
 5   0  0.1339844E-06  0.3274140E+04  0.7818609E-02  0.8169507E-01
        2   -1    0    0  501    0  0.00000000000E+00  0.00000000000E+00  0.19256182505E+04  0.19256182505E+04  0.25500000920E-02 0.  1.
       -2   -1    0    0    0  501  0.00000000000E+00  0.00000000000E+00 -0.13917600205E+04  0.13917600205E+04  0.25500000920E-02 0. -1.
    10030    2    1    2    0    0  0.00000000000E+00  0.00000000000E+00  0.53385823003E+03  0.33173782710E+04  0.32741401899E+04 0.  0.
        3    1    3    3  502    0 -0.94389173535E+03 -0.59963938581E+03 -0.94447690190E+03  0.14637402876E+04  0.10100000352E+00 0. -1.
       -3    1    3    3    0  502  0.94389173535E+03  0.59963938581E+03  0.14783351319E+04  0.18536379834E+04  0.10100000352E+00 0.  1.
</event>
<event>
 5   0  0.1797075E-06  0.3375595E+04  0.7818609E-02  0.8143922E-01
       -2   -1    0    0    0  501  0.00000000000E+00  0.00000000000E+00  0.16585015663E+04  0.16585015663E+04  0.25500000920E-02 0.  1.
        2   -1    0    0  501    0  0.00000000000E+00  0.00000000000E+00 -0.17176112578E+04  0.17176112578E+04  0.25500000920E-02 0. -1.
    10030    2    1    2    0    0  0.00000000000E+00  0.00000000000E+00 -0.59109691564E+02  0.33761128241E+04  0.33755953320E+04 0.  0.
        2    1    3    3  502    0  0.52899720952E+03 -0.13204421084E+04  0.87902019311E+03  0.16721488897E+04  0.25500000920E-02 0.  1.
       -2    1    3    3    0  502 -0.52899720952E+03  0.13204421084E+04 -0.93812988467E+03  0.17039639344E+04  0.25500000920E-02 0. -1.
</event>
<event>
 5   0  0.6218695E-07  0.3374091E+04  0.7818609E-02  0.8144295E-01
        1   -1    0    0  501    0  0.00000000000E+00  0.00000000000E+00  0.21417566387E+04  0.21417566387E+04  0.50400001928E-02 0. -1.
       -1   -1    0    0    0  501  0.00000000000E+00  0.00000000000E+00 -0.13288727435E+04  0.13288727435E+04  0.50400001928E-02 0.  1.
    10030    2    1    2    0    0  0.00000000000E+00  0.00000000000E+00  0.81288389515E+03  0.34706293822E+04  0.33740907044E+04 0.  0.
        2    1    3    3  502    0 -0.39297245581E+03  0.91608078164E+03 -0.99356277471E+03  0.14074083760E+04  0.25500000920E-02 0.  1.
       -2    1    3    3    0  502  0.39297245581E+03 -0.91608078164E+03  0.18064466699E+04  0.20632210062E+04  0.25500000920E-02 0. -1.
</event>
<event>
 5   0  0.1880301E-06  0.3345844E+04  0.7818609E-02  0.8151327E-01
        2   -1    0    0  501    0  0.00000000000E+00  0.00000000000E+00  0.15624258735E+04  0.15624258735E+04  0.25500000920E-02 0. -1.
       -2   -1    0    0    0  501  0.00000000000E+00  0.00000000000E+00 -0.17912321221E+04  0.17912321221E+04  0.25500000920E-02 0.  1.
    10030    2    1    2    0    0  0.00000000000E+00  0.00000000000E+00 -0.22880624864E+03  0.33536579956E+04  0.33458436383E+04 0.  0.
        4    1    3    3  502    0 -0.78402279752E+03  0.37466208685E+03  0.13184818530E+04  0.15790691675E+04  0.12699999809E+01 0. -1.
       -4    1    3    3    0  502  0.78402279752E+03 -0.37466208685E+03 -0.15472881016E+04  0.17745888280E+04  0.12699999809E+01 0.  1.
</event>
<event>
 5   0  0.1911477E-06  0.3389615E+04  0.7818609E-02  0.8140460E-01
       -2   -1    0    0    0  501  0.00000000000E+00  0.00000000000E+00  0.18969997343E+04  0.18969997343E+04  0.25500000920E-02 0. -1.
        2   -1    0    0  501    0  0.00000000000E+00  0.00000000000E+00 -0.15141658564E+04  0.15141658564E+04  0.25500000920E-02 0.  1.
    10030    2    1    2    0    0  0.00000000000E+00  0.00000000000E+00  0.38283387787E+03  0.34111655906E+04  0.33896148614E+04 0.  0.
        5    1    3    3  502    0 -0.81126908404E+03  0.14099237838E+04 -0.28732552823E+03  0.16518537018E+04  0.46999998093E+01 0. -1.
       -5    1    3    3    0  502  0.81126908404E+03 -0.14099237838E+04  0.67015940609E+03  0.17593118889E+04  0.46999998093E+01 0.  1.
</event>
<event>
 5   0  0.6218695E-07  0.3392212E+04  0.7818609E-02  0.8139820E-01
       -1   -1    0    0    0  501  0.00000000000E+00  0.00000000000E+00  0.24689942483E+04  0.24689942483E+04  0.50400001928E-02 0.  1.
        1   -1    0    0  501    0  0.00000000000E+00  0.00000000000E+00 -0.11651611456E+04  0.11651611456E+04  0.50400001928E-02 0. -1.
    10030    2    1    2    0    0  0.00000000000E+00  0.00000000000E+00  0.13038331026E+04  0.36341553939E+04  0.33922123559E+04 0.  0.
        2    1    3    3  502    0  0.16022699993E+03  0.13143983238E+04 -0.48361542870E+03  0.14096806475E+04  0.25500000920E-02 0. -1.
       -2    1    3    3    0  502 -0.16022699993E+03 -0.13143983238E+04  0.17874485313E+04  0.22244747464E+04  0.25500000920E-02 0.  1.
</event>
<event>
 5   0  0.1880301E-06  0.3390309E+04  0.7818609E-02  0.8140289E-01
        2   -1    0    0  501    0  0.00000000000E+00  0.00000000000E+00  0.25007570258E+04  0.25007570258E+04  0.25500000920E-02 0. -1.
       -2   -1    0    0    0  501  0.00000000000E+00  0.00000000000E+00 -0.11490715151E+04  0.11490715151E+04  0.25500000920E-02 0.  1.
    10030    2    1    2    0    0  0.00000000000E+00  0.00000000000E+00  0.13516855107E+04  0.36498285409E+04  0.33903089326E+04 0.  0.
        4    1    3    3  502    0 -0.36737329021E+03 -0.13963357106E+04  0.16319905691E+04  0.21790161499E+04  0.12699999809E+01 0. -1.
       -4    1    3    3    0  502  0.36737329021E+03  0.13963357106E+04 -0.28030505840E+03  0.14708123910E+04  0.12699999809E+01 0.  1.
</event>
<event>
 5   0  0.6146388E-07  0.3322715E+04  0.7818609E-02  0.8157140E-01
        1   -1    0    0  501    0  0.00000000000E+00  0.00000000000E+00  0.14391934011E+04  0.14391934011E+04  0.50400001928E-02 0.  1.
       -1   -1    0    0    0  501  0.00000000000E+00  0.00000000000E+00 -0.19178160552E+04  0.19178160552E+04  0.50400001928E-02 0. -1.
    10030    2    1    2    0    0  0.00000000000E+00  0.00000000000E+00 -0.47862265416E+03  0.33570094563E+04  0.33227146800E+04 0.  0.
        4    1    3    3  502    0 -0.10380647298E+04 -0.10208764151E+04  0.56916010992E+03  0.15632376281E+04  0.12699999809E+01 0.  1.
       -4    1    3    3    0  502  0.10380647298E+04  0.10208764151E+04 -0.10477827641E+04  0.17937718282E+04  0.12699999809E+01 0. -1.
</event>
<event>
 5   0  0.1948507E-06  0.3421907E+04  0.7818609E-02  0.8132550E-01
        2   -1    0    0  501    0  0.00000000000E+00  0.00000000000E+00  0.20903099359E+04  0.20903099359E+04  0.25500000920E-02 0. -1.
       -2   -1    0    0    0  501  0.00000000000E+00  0.00000000000E+00 -0.14004439334E+04  0.14004439334E+04  0.25500000920E-02 0.  1.
    10030    2    1    2    0    0  0.00000000000E+00  0.00000000000E+00  0.68986600254E+03  0.34907538693E+04  0.34219069939E+04 0.  0.
        1    1    3    3  502    0 -0.11940498942E+04  0.16979805841E+03 -0.89306310375E+03  0.15007159084E+04  0.50400001928E-02 0.  1.
       -1    1    3    3    0  502  0.11940498942E+04 -0.16979805841E+03  0.15829291063E+04  0.19900379609E+04  0.50400001928E-02 0. -1.
</event>
<event>
 5   0  0.6218695E-07  0.3211236E+04  0.7818609E-02  0.8185856E-01
       -1   -1    0    0    0  501  0.00000000000E+00  0.00000000000E+00  0.17490390422E+04  0.17490390423E+04  0.50400001928E-02 0. -1.
        1   -1    0    0  501    0  0.00000000000E+00  0.00000000000E+00 -0.14739578183E+04  0.14739578184E+04  0.50400001928E-02 0.  1.
    10030    2    1    2    0    0  0.00000000000E+00  0.00000000000E+00  0.27508122390E+03  0.32229968606E+04  0.32112363793E+04 0.  0.
        2    1    3    3  502    0 -0.28500136983E+03 -0.55347650299E+01  0.17234392586E+04  0.17468541131E+04  0.25500000920E-02 0. -1.
       -2    1    3    3    0  502  0.28500136983E+03  0.55347650299E+01 -0.14483580347E+04  0.14761427475E+04  0.25500000920E-02 0.  1.
</event>
<event>
 5   0  0.1797075E-06  0.3418898E+04  0.7818609E-02  0.8133284E-01
        2   -1    0    0  501    0  0.00000000000E+00  0.00000000000E+00  0.13934004018E+04  0.13934004018E+04  0.25500000920E-02 0. -1.
       -2   -1    0    0    0  501  0.00000000000E+00  0.00000000000E+00 -0.20971832022E+04  0.20971832022E+04  0.25500000920E-02 0.  1.
    10030    2    1    2    0    0  0.00000000000E+00  0.00000000000E+00 -0.70378280038E+03  0.34905836040E+04  0.34188980193E+04 0.  0.
        2    1    3    3  502    0  0.15981549484E+04  0.42703520133E+03 -0.79192436259E+03  0.18340126767E+04  0.25500000920E-02 0.  1.
       -2    1    3    3    0  502 -0.15981549484E+04 -0.42703520133E+03  0.88141562213E+02  0.16565709273E+04  0.25500000920E-02 0. -1.
</event>
<event>
 5   0  0.1797075E-06  0.3595325E+04  0.7818609E-02  0.8091563E-01
       -2   -1    0    0    0  501  0.00000000000E+00  0.00000000000E+00  0.11486862594E+04  0.11486862594E+04  0.25500000920E-02 0.  1.
        2   -1    0    0  501    0  0.00000000000E+00  0.00000000000E+00 -0.28132926230E+04  0.28132926230E+04  0.25500000920E-02 0. -1.
    10030    2    1    2    0    0  0.00000000000E+00  0.00000000000E+00 -0.16646063636E+04  0.39619788823E+04  0.35953250644E+04 0.  0.
        2    1    3    3  502    0  0.10847589661E+04 -0.76629185816E+02 -0.24097209386E+04  0.26437339216E+04  0.25500000920E-02 0. -1.
       -2    1    3    3    0  502 -0.10847589661E+04  0.76629185816E+02  0.74511457498E+03  0.13182449607E+04  0.25500000920E-02 0.  1.
</event>
<event>
 5   0  0.6146388E-07  0.2933767E+04  0.7818609E-02  0.8262901E-01
       -1   -1    0    0    0  501  0.00000000000E+00  0.00000000000E+00  0.15418518828E+04  0.15418518828E+04  0.50400001928E-02 0. -1.
        1   -1    0    0  501    0  0.00000000000E+00  0.00000000000E+00 -0.13955604227E+04  0.13955604227E+04  0.50400001928E-02 0.  1.
    10030    2    1    2    0    0  0.00000000000E+00  0.00000000000E+00  0.14629146003E+03  0.29374123055E+04  0.29337671791E+04 0.  0.
        4    1    3    3  502    0 -0.79152648621E+03  0.53792810147E+03 -0.10399301871E+04  0.14132718166E+04  0.12699999809E+01 0.  1.
       -4    1    3    3    0  502  0.79152648621E+03 -0.53792810147E+03  0.11862216471E+04  0.15241404889E+04  0.12699999809E+01 0. -1.
</event>
<event>
 5   0  0.6134625E-07  0.3714205E+04  0.7818609E-02  0.8064821E-01
       -1   -1    0    0    0  501  0.00000000000E+00  0.00000000000E+00  0.14307158733E+04  0.14307158733E+04  0.50400001928E-02 0. -1.
        1   -1    0    0  501    0  0.00000000000E+00  0.00000000000E+00 -0.24105623382E+04  0.24105623382E+04  0.50400001928E-02 0.  1.
    10030    2    1    2    0    0  0.00000000000E+00  0.00000000000E+00 -0.97984646494E+03  0.38412782115E+04  0.37142050567E+04 0.  0.
        5    1    3    3  502    0  0.91562630290E+03  0.13649738143E+04 -0.13839537456E+04  0.21486914856E+04  0.46999998093E+01 0.  1.
       -5    1    3    3    0  502 -0.91562630290E+03 -0.13649738143E+04  0.40410728065E+03  0.16925867259E+04  0.46999998093E+01 0. -1.
</event>
<event>
 5   0  0.1911477E-06  0.3113292E+04  0.7818609E-02  0.8212100E-01
        2   -1    0    0  501    0  0.00000000000E+00  0.00000000000E+00  0.18750436652E+04  0.18750436652E+04  0.25500000920E-02 0.  1.
       -2   -1    0    0    0  501  0.00000000000E+00  0.00000000000E+00 -0.12923147144E+04  0.12923147144E+04  0.25500000920E-02 0. -1.
    10030    2    1    2    0    0  0.00000000000E+00  0.00000000000E+00  0.58272895080E+03  0.31673583796E+04  0.31132918390E+04 0.  0.
        5    1    3    3  502    0 -0.13933153364E+03  0.15495614143E+04  0.34294580806E+03  0.15931690966E+04  0.46999998093E+01 0.  1.
       -5    1    3    3    0  502  0.13933153364E+03 -0.15495614143E+04  0.23978314274E+03  0.15741892830E+04  0.46999998093E+01 0. -1.
</event>
<event>
 5   0  0.1339844E-06  0.3389471E+04  0.7818609E-02  0.8140495E-01
       -2   -1    0    0    0  501  0.00000000000E+00  0.00000000000E+00  0.15369320009E+04  0.15369320009E+04  0.25500000920E-02 0.  1.
        2   -1    0    0  501    0  0.00000000000E+00  0.00000000000E+00 -0.18687412964E+04  0.18687412964E+04  0.25500000920E-02 0. -1.
    10030    2    1    2    0    0  0.00000000000E+00  0.00000000000E+00 -0.33180929549E+03  0.34056732972E+04  0.33894709320E+04 0.  0.
        3    1    3    3  502    0 -0.61067773739E+03 -0.49472177700E+02  0.14217604719E+04  0.15481529785E+04  0.10100000352E+00 0.  1.
       -3    1    3    3    0  502  0.61067773739E+03  0.49472177700E+02 -0.17535697674E+04  0.18575203187E+04  0.10100000352E+00 0. -1.
</event>
<event>
 5   0  0.1911477E-06  0.3459883E+04  0.7818609E-02  0.8123363E-01
        2   -1    0    0  501    0  0.00000000000E+00  0.00000000000E+00  0.19269882669E+04  0.19269882669E+04  0.25500000920E-02 0.  1.
       -2   -1    0    0    0  501  0.00000000000E+00  0.00000000000E+00 -0.15530443907E+04  0.15530443907E+04  0.25500000920E-02 0. -1.
    10030    2    1    2    0    0  0.00000000000E+00  0.00000000000E+00  0.37394387625E+03  0.34800326576E+04  0.34598834193E+04 0.  0.
        5    1    3    3  502    0  0.15334987093E+04  0.28373684526E+03 -0.56608801270E+03  0.16590969281E+04  0.46999998093E+01 0.  1.
       -5    1    3    3    0  502 -0.15334987093E+04 -0.28373684526E+03  0.94003188895E+03  0.18209357295E+04  0.46999998093E+01 0. -1.
</event>
<event>
 5   0  0.6134625E-07  0.3378686E+04  0.7818609E-02  0.8143157E-01
        1   -1    0    0  501    0  0.00000000000E+00  0.00000000000E+00  0.18760529323E+04  0.18760529323E+04  0.50400001928E-02 0.  1.
       -1   -1    0    0    0  501  0.00000000000E+00  0.00000000000E+00 -0.15212151325E+04  0.15212151325E+04  0.50400001928E-02 0. -1.
    10030    2    1    2    0    0  0.00000000000E+00  0.00000000000E+00  0.35483779984E+03  0.33972680648E+04  0.33786862002E+04 0.  0.
        1    1    3    3  502    0 -0.16387660080E+04 -0.38856753918E+03  0.45008106123E+02  0.16848039919E+04  0.50400001928E-02 0.  1.
       -1    1    3    3    0  502  0.16387660080E+04  0.38856753918E+03  0.30982969371E+03  0.17124640728E+04  0.50400001928E-02 0. -1.
</event>
<event>
 5   0  0.1948507E-06  0.3372475E+04  0.7818609E-02  0.8144695E-01
       -2   -1    0    0    0  501  0.00000000000E+00  0.00000000000E+00  0.18889177834E+04  0.18889177834E+04  0.25500000920E-02 0.  1.
        2   -1    0    0  501    0  0.00000000000E+00  0.00000000000E+00 -0.15053047433E+04  0.15053047433E+04  0.25500000920E-02 0. -1.
    10030    2    1    2    0    0  0.00000000000E+00  0.00000000000E+00  0.38361304013E+03  0.33942225266E+04  0.33724749956E+04 0.  0.
        1    1    3    3  502    0 -0.95318145220E+03  0.73897155819E+03  0.13778637636E+04  0.18311587577E+04  0.50400001928E-02 0.  1.
       -1    1    3    3    0  502  0.95318145220E+03 -0.73897155819E+03 -0.99425072351E+03  0.15630637690E+04  0.50400001928E-02 0. -1.
</event>
<event>
 5   0  0.6134625E-07  0.3314447E+04  0.7818609E-02  0.8159229E-01
       -1   -1    0    0    0  501  0.00000000000E+00  0.00000000000E+00  0.10950765422E+04  0.10950765422E+04  0.50400001928E-02 0. -1.
        1   -1    0    0  501    0  0.00000000000E+00  0.00000000000E+00 -0.25079429184E+04  0.25079429184E+04  0.50400001928E-02 0.  1.
    10030    2    1    2    0    0  0.00000000000E+00  0.00000000000E+00 -0.14128663762E+04  0.36030194607E+04  0.33144468373E+04 0.  0.
        5    1    3    3  502    0 -0.75964237852E+03 -0.24032332056E+03  0.87320201495E+03  0.11820810846E+04  0.46999998093E+01 0. -1.
       -5    1    3    3    0  502  0.75964237852E+03  0.24032332056E+03 -0.22860683912E+04  0.24209383761E+04  0.46999998093E+01 0.  1.
</event>
<event>
 5   0  0.6134625E-07  0.3397935E+04  0.7818609E-02  0.8138413E-01
       -1   -1    0    0    0  501  0.00000000000E+00  0.00000000000E+00  0.14128126339E+04  0.14128126339E+04  0.50400001928E-02 0.  1.
        1   -1    0    0  501    0  0.00000000000E+00  0.00000000000E+00 -0.20430814723E+04  0.20430814723E+04  0.50400001928E-02 0. -1.
    10030    2    1    2    0    0  0.00000000000E+00  0.00000000000E+00 -0.63026883837E+03  0.34558941063E+04  0.33979354416E+04 0.  0.
        5    1    3    3  502    0 -0.13978251674E+04  0.15396605238E+03  0.65446209712E+03  0.15511168462E+04  0.46999998093E+01 0.  1.
       -5    1    3    3    0  502  0.13978251674E+04 -0.15396605238E+03 -0.12847309355E+04  0.19047772601E+04  0.46999998093E+01 0. -1.
</event>
<event>
 5   0  0.1797075E-06  0.3372118E+04  0.7818609E-02  0.8144784E-01
        2   -1    0    0  501    0  0.00000000000E+00  0.00000000000E+00  0.15503446482E+04  0.15503446482E+04  0.25500000920E-02 0. -1.
       -2   -1    0    0    0  501  0.00000000000E+00  0.00000000000E+00 -0.18336534976E+04  0.18336534976E+04  0.25500000920E-02 0.  1.
    10030    2    1    2    0    0  0.00000000000E+00  0.00000000000E+00 -0.28330884935E+03  0.33839981458E+04  0.33721179616E+04 0.  0.
        2    1    3    3  502    0 -0.52173498898E+03 -0.15930469548E+04 -0.32336939243E+03  0.17072122782E+04  0.25500000920E-02 0.  1.
       -2    1    3    3    0  502  0.52173498898E+03  0.15930469548E+04  0.40060543078E+02  0.16767858676E+04  0.25500000920E-02 0. -1.
</event>
<event>
 5   0  0.1797075E-06  0.3333593E+04  0.7818609E-02  0.8154400E-01
       -2   -1    0    0    0  501  0.00000000000E+00  0.00000000000E+00  0.14736598232E+04  0.14736598232E+04  0.25500000920E-02 0. -1.
        2   -1    0    0  501    0  0.00000000000E+00  0.00000000000E+00 -0.18852459037E+04  0.18852459037E+04  0.25500000920E-02 0.  1.
    10030    2    1    2    0    0  0.00000000000E+00  0.00000000000E+00 -0.41158608048E+03  0.33589057270E+04  0.33335933437E+04 0.  0.
        2    1    3    3  502    0  0.14518765994E+04 -0.55330462510E+03  0.40221195852E+03  0.16049505063E+04  0.25500000920E-02 0.  1.
       -2    1    3    3    0  502 -0.14518765994E+04  0.55330462510E+03 -0.81379803900E+03  0.17539552207E+04  0.25500000920E-02 0. -1.
</event>
<event>
 5   0  0.6134625E-07  0.3056019E+04  0.7818609E-02  0.8227913E-01
       -1   -1    0    0    0  501  0.00000000000E+00  0.00000000000E+00  0.99034476228E+03  0.99034476229E+03  0.50400001928E-02 0.  1.
        1   -1    0    0  501    0  0.00000000000E+00  0.00000000000E+00 -0.23575758818E+04  0.23575758819E+04  0.50400001928E-02 0. -1.
    10030    2    1    2    0    0  0.00000000000E+00  0.00000000000E+00 -0.13672311196E+04  0.33479206441E+04  0.30560189308E+04 0.  0.
        1    1    3    3  502    0  0.10874364967E+04 -0.43218638343E+03 -0.17600744298E+04  0.21135669384E+04  0.50400001928E-02 0. -1.
       -1    1    3    3    0  502 -0.10874364967E+04  0.43218638343E+03  0.39284331026E+03  0.12343537058E+04  0.50400001928E-02 0.  1.
</event>
<event>
 5   0  0.1911477E-06  0.3388939E+04  0.7818609E-02  0.8140626E-01
        2   -1    0    0  501    0  0.00000000000E+00  0.00000000000E+00  0.16750974098E+04  0.16750974098E+04  0.25500000920E-02 0. -1.
       -2   -1    0    0    0  501  0.00000000000E+00  0.00000000000E+00 -0.17140658126E+04  0.17140658126E+04  0.25500000920E-02 0.  1.
    10030    2    1    2    0    0  0.00000000000E+00  0.00000000000E+00 -0.38968402763E+02  0.33891632224E+04  0.33889391868E+04 0.  0.
        5    1    3    3  502    0 -0.35021567828E+02  0.22969542372E+03  0.16590839706E+04  0.16752815314E+04  0.46999998093E+01 0. -1.
       -5    1    3    3    0  502  0.35021567828E+02 -0.22969542372E+03 -0.16980523734E+04  0.17138816910E+04  0.46999998093E+01 0.  1.
</event>
<event>
 5   0  0.6218695E-07  0.3338469E+04  0.7818609E-02  0.8153175E-01
       -1   -1    0    0    0  501  0.00000000000E+00  0.00000000000E+00  0.14788347261E+04  0.14788347261E+04  0.50400001928E-02 0.  1.
        1   -1    0    0  501    0  0.00000000000E+00  0.00000000000E+00 -0.18841479111E+04  0.18841479111E+04  0.50400001928E-02 0. -1.
    10030    2    1    2    0    0  0.00000000000E+00  0.00000000000E+00 -0.40531318493E+03  0.33629826372E+04  0.33384687269E+04 0.  0.
        2    1    3    3  502    0  0.21702479667E+03 -0.13264969204E+04 -0.11996968112E+04  0.18016565380E+04  0.25500000920E-02 0. -1.
       -2    1    3    3    0  502 -0.21702479667E+03  0.13264969204E+04  0.79438362629E+03  0.15613260992E+04  0.25500000920E-02 0.  1.
</event>
<event>
 5   0  0.1797075E-06  0.3449807E+04  0.7818609E-02  0.8125789E-01
        2   -1    0    0  501    0  0.00000000000E+00  0.00000000000E+00  0.23003580146E+04  0.23003580146E+04  0.25500000920E-02 0.  1.
       -2   -1    0    0    0  501  0.00000000000E+00  0.00000000000E+00 -0.12934041276E+04  0.12934041276E+04  0.25500000920E-02 0. -1.
    10030    2    1    2    0    0  0.00000000000E+00  0.00000000000E+00  0.10069538870E+04  0.35937621422E+04  0.34498072705E+04 0.  0.
        2    1    3    3  502    0  0.70899616256E+03 -0.69124623577E+03  0.19747852970E+04  0.22091341938E+04  0.25500000920E-02 0.  1.
       -2    1    3    3    0  502 -0.70899616256E+03  0.69124623577E+03 -0.96783141006E+03  0.13846279483E+04  0.25500000920E-02 0. -1.
</event>
<event>
 5   0  0.6134625E-07  0.3436493E+04  0.7818609E-02  0.8129007E-01
       -1   -1    0    0    0  501  0.00000000000E+00  0.00000000000E+00  0.16634489197E+04  0.16634489197E+04  0.50400001928E-02 0.  1.
        1   -1    0    0  501    0  0.00000000000E+00  0.00000000000E+00 -0.17748495330E+04  0.17748495331E+04  0.50400001928E-02 0. -1.
    10030    2    1    2    0    0  0.00000000000E+00  0.00000000000E+00 -0.11140061336E+03  0.34382984527E+04  0.34364932931E+04 0.  0.
        3    1    3    3  502    0  0.74784381962E+03 -0.70978523627E+03  0.13195420214E+04  0.16745914775E+04  0.10100000352E+00 0.  1.
       -3    1    3    3    0  502 -0.74784381962E+03  0.70978523627E+03 -0.14309426348E+04  0.17637069752E+04  0.10100000352E+00 0. -1.
</event>
<event>
 5   0  0.6134625E-07  0.3365989E+04  0.7818609E-02  0.8146304E-01
        1   -1    0    0  501    0  0.00000000000E+00  0.00000000000E+00  0.13640499412E+04  0.13640499412E+04  0.50400001928E-02 0. -1.
       -1   -1    0    0    0  501  0.00000000000E+00  0.00000000000E+00 -0.20765154965E+04  0.20765154965E+04  0.50400001928E-02 0.  1.
    10030    2    1    2    0    0  0.00000000000E+00  0.00000000000E+00 -0.71246555527E+03  0.34405654377E+04  0.33659892102E+04 0.  0.
        5    1    3    3  502    0 -0.11607274594E+04 -0.86909889645E+03 -0.12294599706E+04  0.19011088965E+04  0.46999998093E+01 0.  1.
       -5    1    3    3    0  502  0.11607274594E+04  0.86909889645E+03  0.51699441533E+03  0.15394565412E+04  0.46999998093E+01 0. -1.
</event>
<event>
 5   0  0.1911477E-06  0.3369300E+04  0.7818609E-02  0.8145482E-01
       -2   -1    0    0    0  501  0.00000000000E+00  0.00000000000E+00  0.15544520230E+04  0.15544520230E+04  0.25500000920E-02 0. -1.
        2   -1    0    0  501    0  0.00000000000E+00  0.00000000000E+00 -0.18257534496E+04  0.18257534496E+04  0.25500000920E-02 0.  1.
    10030    2    1    2    0    0  0.00000000000E+00  0.00000000000E+00 -0.27130142664E+03  0.33802054726E+04  0.33693003091E+04 0.  0.
        5    1    3    3  502    0  0.12703400368E+04 -0.11015424833E+04 -0.24022051543E+03  0.16984956984E+04  0.46999998093E+01 0. -1.
       -5    1    3    3    0  502 -0.12703400368E+04  0.11015424833E+04 -0.31080911204E+02  0.16817097742E+04  0.46999998093E+01 0.  1.
</event>
<event>
 5   0  0.6134625E-07  0.3417031E+04  0.7818609E-02  0.8133739E-01
        1   -1    0    0  501    0  0.00000000000E+00  0.00000000000E+00  0.17305868666E+04  0.17305868666E+04  0.50400001928E-02 0. -1.
       -1   -1    0    0    0  501  0.00000000000E+00  0.00000000000E+00 -0.16867254312E+04  0.16867254312E+04  0.50400001928E-02 0.  1.
    10030    2    1    2    0    0  0.00000000000E+00  0.00000000000E+00  0.43861435358E+02  0.34173122978E+04  0.34170308040E+04 0.  0.
        3    1    3    3  502    0 -0.93542467302E+03 -0.14212358557E+04  0.17716654549E+03  0.17106486113E+04  0.10100000352E+00 0. -1.
       -3    1    3    3    0  502  0.93542467302E+03  0.14212358557E+04 -0.13330511013E+03  0.17066636865E+04  0.10100000352E+00 0.  1.
</event>
<event>
 5   0  0.1797075E-06  0.3387929E+04  0.7818609E-02  0.8140875E-01
       -2   -1    0    0    0  501  0.00000000000E+00  0.00000000000E+00  0.15648540531E+04  0.15648540531E+04  0.25500000920E-02 0.  1.
        2   -1    0    0  501    0  0.00000000000E+00  0.00000000000E+00 -0.18337268682E+04  0.18337268682E+04  0.25500000920E-02 0. -1.
    10030    2    1    2    0    0  0.00000000000E+00  0.00000000000E+00 -0.26887281506E+03  0.33985809213E+04  0.33879285246E+04 0.  0.
        2    1    3    3  502    0  0.95605843824E+03 -0.77778739587E+03 -0.13002065101E+04  0.17915183335E+04  0.25500000920E-02 0. -1.
       -2    1    3    3    0  502 -0.95605843824E+03  0.77778739587E+03  0.10313336950E+04  0.16070625878E+04  0.25500000920E-02 0.  1.
</event>
<event>
 5   0  0.1797075E-06  0.3370291E+04  0.7818609E-02  0.8145236E-01
       -2   -1    0    0    0  501  0.00000000000E+00  0.00000000000E+00  0.20396810283E+04  0.20396810283E+04  0.25500000920E-02 0. -1.
        2   -1    0    0  501    0  0.00000000000E+00  0.00000000000E+00 -0.13922353979E+04  0.13922353979E+04  0.25500000920E-02 0.  1.
    10030    2    1    2    0    0  0.00000000000E+00  0.00000000000E+00  0.64744563034E+03  0.34319164262E+04  0.33702914580E+04 0.  0.
        2    1    3    3  502    0  0.31540206674E+03 -0.83335295216E+03  0.17801763719E+04  0.19907243711E+04  0.25500000920E-02 0. -1.
       -2    1    3    3    0  502 -0.31540206674E+03  0.83335295216E+03 -0.11327307416E+04  0.14411920550E+04  0.25500000920E-02 0.  1.
</event>
<event>
 5   0  0.6218695E-07  0.3186776E+04  0.7818609E-02  0.8192318E-01
        1   -1    0    0  501    0  0.00000000000E+00  0.00000000000E+00  0.16465082674E+04  0.16465082674E+04  0.50400001928E-02 0.  1.
       -1   -1    0    0    0  501  0.00000000000E+00  0.00000000000E+00 -0.15419817751E+04  0.15419817751E+04  0.50400001928E-02 0. -1.
    10030    2    1    2    0    0  0.00000000000E+00  0.00000000000E+00  0.10452649223E+03  0.31884900425E+04  0.31867762651E+04 0.  0.
        2    1    3    3  502    0  0.15009184502E+03 -0.12557817212E+03 -0.15299120117E+04  0.15423774515E+04  0.25500000920E-02 0. -1.
       -2    1    3    3    0  502 -0.15009184502E+03  0.12557817212E+03  0.16344385039E+04  0.16461125910E+04  0.25500000920E-02 0.  1.
</event>
<event>
 5   0  0.1880301E-06  0.3360878E+04  0.7818609E-02  0.8147576E-01
       -2   -1    0    0    0  501  0.00000000000E+00  0.00000000000E+00  0.31358746337E+04  0.31358746337E+04  0.25500000920E-02 0.  1.
        2   -1    0    0  501    0  0.00000000000E+00  0.00000000000E+00 -0.90050626659E+03  0.90050626659E+03  0.25500000920E-02 0. -1.
    10030    2    1    2    0    0  0.00000000000E+00  0.00000000000E+00  0.22353683671E+04  0.40363809003E+04  0.33608777180E+04 0.  0.
        4    1    3    3  502    0  0.11564810924E+04  0.23532356369E+03 -0.31901699500E+03  0.12225379964E+04  0.12699999809E+01 0. -1.
       -4    1    3    3    0  502 -0.11564810924E+04 -0.23532356369E+03  0.25543853621E+04  0.28138429039E+04  0.12699999809E+01 0.  1.
</event>
<event>
 5   0  0.6134625E-07  0.3378443E+04  0.7818609E-02  0.8143217E-01
        1   -1    0    0  501    0  0.00000000000E+00  0.00000000000E+00  0.16977814170E+04  0.16977814170E+04  0.50400001928E-02 0. -1.
       -1   -1    0    0    0  501  0.00000000000E+00  0.00000000000E+00 -0.16807048807E+04  0.16807048807E+04  0.50400001928E-02 0.  1.
    10030    2    1    2    0    0  0.00000000000E+00  0.00000000000E+00  0.17076536260E+02  0.33784862977E+04  0.33784431408E+04 0.  0.
        5    1    3    3  502    0 -0.10176193896E+04  0.11914631631E+04 -0.62259080676E+03  0.16860531112E+04  0.46999998093E+01 0.  1.
       -5    1    3    3    0  502  0.10176193896E+04 -0.11914631631E+04  0.63966734302E+03  0.16924331865E+04  0.46999998093E+01 0. -1.
</event>
<event>
 5   0  0.6134625E-07  0.3392188E+04  0.7818609E-02  0.8139826E-01
       -1   -1    0    0    0  501  0.00000000000E+00  0.00000000000E+00  0.19643578875E+04  0.19643578876E+04  0.50400001928E-02 0.  1.
        1   -1    0    0  501    0  0.00000000000E+00  0.00000000000E+00 -0.14644661643E+04  0.14644661643E+04  0.50400001928E-02 0. -1.
    10030    2    1    2    0    0  0.00000000000E+00  0.00000000000E+00  0.49989172322E+03  0.34288240519E+04  0.33921884741E+04 0.  0.
        5    1    3    3  502    0  0.36837819093E+03  0.16542270077E+04  0.31808372566E+03  0.17243459140E+04  0.46999998093E+01 0. -1.
       -5    1    3    3    0  502 -0.36837819093E+03 -0.16542270077E+04  0.18180799756E+03  0.17044781379E+04  0.46999998093E+01 0.  1.
</event>
<event>
 5   0  0.6134625E-07  0.3281059E+04  0.7818609E-02  0.8167732E-01
       -1   -1    0    0    0  501  0.00000000000E+00  0.00000000000E+00  0.33658148705E+04  0.33658148705E+04  0.50400001928E-02 0. -1.
        1   -1    0    0  501    0  0.00000000000E+00  0.00000000000E+00 -0.79960935109E+03  0.79960935111E+03  0.50400001928E-02 0.  1.
    10030    2    1    2    0    0  0.00000000000E+00  0.00000000000E+00  0.25662055195E+04  0.41654242217E+04  0.32810590026E+04 0.  0.
        3    1    3    3  502    0  0.10270216425E+04 -0.29463633813E+02 -0.34056222092E+03  0.10824159073E+04  0.10100000352E+00 0.  1.
       -3    1    3    3    0  502 -0.10270216425E+04  0.29463633813E+02  0.29067677404E+04  0.30830083144E+04  0.10100000352E+00 0. -1.
</event>
<event>
 5   0  0.1797075E-06  0.3393335E+04  0.7818609E-02  0.8139544E-01
       -2   -1    0    0    0  501  0.00000000000E+00  0.00000000000E+00  0.18402947971E+04  0.18402947971E+04  0.25500000920E-02 0. -1.
        2   -1    0    0  501    0  0.00000000000E+00  0.00000000000E+00 -0.15642498518E+04  0.15642498518E+04  0.25500000920E-02 0.  1.
    10030    2    1    2    0    0  0.00000000000E+00  0.00000000000E+00  0.27604494528E+03  0.34045446489E+04  0.33933351521E+04 0.  0.
        2    1    3    3  502    0 -0.59992323782E+03  0.10353316779E+03  0.17269376263E+04  0.18311036490E+04  0.25500000920E-02 0. -1.
       -2    1    3    3    0  502  0.59992323782E+03 -0.10353316779E+03 -0.14508926811E+04  0.15734409999E+04  0.25500000920E-02 0.  1.
</event>
<event>
 5   0  0.6146388E-07  0.3391306E+04  0.7818609E-02  0.8140043E-01
        1   -1    0    0  501    0  0.00000000000E+00  0.00000000000E+00  0.21574874643E+04  0.21574874643E+04  0.50400001928E-02 0. -1.
       -1   -1    0    0    0  501  0.00000000000E+00  0.00000000000E+00 -0.13326791389E+04  0.13326791389E+04  0.50400001928E-02 0.  1.
    10030    2    1    2    0    0  0.00000000000E+00  0.00000000000E+00  0.82480832539E+03  0.34901666032E+04  0.33913056696E+04 0.  0.
        4    1    3    3  502    0 -0.68222825609E+03  0.93397075317E+03 -0.86370200492E+03  0.14435094483E+04  0.12699999809E+01 0.  1.
       -4    1    3    3    0  502  0.68222825609E+03 -0.93397075317E+03  0.16885103303E+04  0.20466571549E+04  0.12699999809E+01 0. -1.
</event>
<event>
 5   0  0.1797075E-06  0.3352376E+04  0.7818609E-02  0.8149695E-01
        2   -1    0    0  501    0  0.00000000000E+00  0.00000000000E+00  0.28586167763E+04  0.28586167763E+04  0.25500000920E-02 0. -1.
       -2   -1    0    0    0  501  0.00000000000E+00  0.00000000000E+00 -0.98285503262E+03  0.98285503262E+03  0.25500000920E-02 0.  1.
    10030    2    1    2    0    0  0.00000000000E+00  0.00000000000E+00  0.18757617436E+04  0.38414718089E+04  0.33523758052E+04 0.  0.
        2    1    3    3  502    0 -0.13213034196E+04 -0.88670316161E+03  0.33422057395E+03  0.16259731288E+04  0.25500000920E-02 0.  1.
       -2    1    3    3    0  502  0.13213034196E+04  0.88670316161E+03  0.15415411697E+04  0.22154986801E+04  0.25500000920E-02 0. -1.
</event>
<event>
 5   0  0.1797075E-06  0.3422077E+04  0.7818609E-02  0.8132509E-01
       -2   -1    0    0    0  501  0.00000000000E+00  0.00000000000E+00  0.11100381573E+04  0.11100381573E+04  0.25500000920E-02 0. -1.
        2   -1    0    0  501    0  0.00000000000E+00  0.00000000000E+00 -0.26374343275E+04  0.26374343275E+04  0.25500000920E-02 0.  1.
    10030    2    1    2    0    0  0.00000000000E+00  0.00000000000E+00 -0.15273961703E+04  0.37474724848E+04  0.34220769956E+04 0.  0.
        2    1    3    3  502    0  0.17047903496E+04  0.10202287133E+03 -0.87820639153E+03  0.19204075787E+04  0.25500000920E-02 0.  1.
       -2    1    3    3    0  502 -0.17047903496E+04 -0.10202287133E+03 -0.64918977873E+03  0.18270649061E+04  0.25500000920E-02 0. -1.
</event>
<event>
 5   0  0.6134625E-07  0.3396871E+04  0.7818609E-02  0.8138675E-01
        1   -1    0    0  501    0  0.00000000000E+00  0.00000000000E+00  0.24714082824E+04  0.24714082824E+04  0.50400001928E-02 0.  1.
       -1   -1    0    0    0  501  0.00000000000E+00  0.00000000000E+00 -0.11672221081E+04  0.11672221081E+04  0.50400001928E-02 0. -1.
    10030    2    1    2    0    0  0.00000000000E+00  0.00000000000E+00  0.13041861743E+04  0.36386303904E+04  0.33968705511E+04 0.  0.
        3    1    3    3  502    0  0.12120720695E+04  0.11401112456E+04  0.28772156093E+03  0.16887143219E+04  0.10100000352E+00 0.  1.
       -3    1    3    3    0  502 -0.12120720695E+04 -0.11401112456E+04  0.10164646134E+04  0.19499160686E+04  0.10100000352E+00 0. -1.
</event>
<event>
 5   0  0.6134625E-07  0.3326785E+04  0.7818609E-02  0.8156113E-01
        1   -1    0    0  501    0  0.00000000000E+00  0.00000000000E+00  0.10588190561E+04  0.10588190561E+04  0.50400001928E-02 0. -1.
       -1   -1    0    0    0  501  0.00000000000E+00  0.00000000000E+00 -0.26131706272E+04  0.26131706272E+04  0.50400001928E-02 0.  1.
    10030    2    1    2    0    0  0.00000000000E+00  0.00000000000E+00 -0.15543515711E+04  0.36719896832E+04  0.33267851490E+04 0.  0.
        1    1    3    3  502    0 -0.15511089630E+03  0.15072447499E+04 -0.19644807842E+02  0.15153323216E+04  0.50400001928E-02 0. -1.
       -1    1    3    3    0  502  0.15511089630E+03 -0.15072447499E+04 -0.15347067632E+04  0.21566573616E+04  0.50400001928E-02 0.  1.
</event>
<event>
 5   0  0.6134625E-07  0.3415134E+04  0.7818609E-02  0.8134202E-01
       -1   -1    0    0    0  501  0.00000000000E+00  0.00000000000E+00  0.16789511848E+04  0.16789511848E+04  0.50400001928E-02 0. -1.
        1   -1    0    0  501    0  0.00000000000E+00  0.00000000000E+00 -0.17366701333E+04  0.17366701333E+04  0.50400001928E-02 0.  1.
    10030    2    1    2    0    0  0.00000000000E+00  0.00000000000E+00 -0.57718948537E+02  0.34156213181E+04  0.34151336009E+04 0.  0.
        3    1    3    3  502    0 -0.14726042047E+04 -0.68659558743E+03 -0.55410846810E+03  0.17166865902E+04  0.10100000352E+00 0.  1.
       -3    1    3    3    0  502  0.14726042047E+04  0.68659558743E+03  0.49638951957E+03  0.16989347279E+04  0.10100000352E+00 0. -1.
</event>
<event>
 5   0  0.6134625E-07  0.3509649E+04  0.7818609E-02  0.8111507E-01
        1   -1    0    0  501    0  0.00000000000E+00  0.00000000000E+00  0.13187032250E+04  0.13187032250E+04  0.50400001928E-02 0.  1.
       -1   -1    0    0    0  501  0.00000000000E+00  0.00000000000E+00 -0.23351792480E+04  0.23351792480E+04  0.50400001928E-02 0. -1.
    10030    2    1    2    0    0  0.00000000000E+00  0.00000000000E+00 -0.10164760230E+04  0.36538824730E+04  0.35096486465E+04 0.  0.
        5    1    3    3  502    0  0.52601363156E+03 -0.16322479397E+04 -0.89563588643E+03  0.19347117119E+04  0.46999998093E+01 0.  1.
       -5    1    3    3    0  502 -0.52601363156E+03  0.16322479397E+04 -0.12084013652E+03  0.17191707611E+04  0.46999998093E+01 0. -1.
</event>
<event>
 5   0  0.6218695E-07  0.3407880E+04  0.7818609E-02  0.8135975E-01
        1   -1    0    0  501    0  0.00000000000E+00  0.00000000000E+00  0.20135561851E+04  0.20135561851E+04  0.50400001928E-02 0. -1.
       -1   -1    0    0    0  501  0.00000000000E+00  0.00000000000E+00 -0.14419325271E+04  0.14419325271E+04  0.50400001928E-02 0.  1.
    10030    2    1    2    0    0  0.00000000000E+00  0.00000000000E+00  0.57162365796E+03  0.34554887122E+04  0.34078803726E+04 0.  0.
        2    1    3    3  502    0 -0.35576800856E+03 -0.43373819560E+03  0.19172365708E+04  0.19976225286E+04  0.25500000920E-02 0. -1.
       -2    1    3    3    0  502  0.35576800856E+03  0.43373819560E+03 -0.13456129128E+04  0.14578661837E+04  0.25500000920E-02 0.  1.
</event>
<event>
 5   0  0.6218695E-07  0.3430064E+04  0.7818609E-02  0.8130567E-01
       -1   -1    0    0    0  501  0.00000000000E+00  0.00000000000E+00  0.18825034724E+04  0.18825034724E+04  0.50400001928E-02 0. -1.
        1   -1    0    0  501    0  0.00000000000E+00  0.00000000000E+00 -0.15624593930E+04  0.15624593931E+04  0.50400001928E-02 0.  1.
    10030    2    1    2    0    0  0.00000000000E+00  0.00000000000E+00  0.32004407938E+03  0.34449628655E+04  0.34300642752E+04 0.  0.
        2    1    3    3  502    0 -0.12075408043E+04 -0.56845058617E+03  0.12417538146E+04  0.18229765218E+04  0.25500000920E-02 0. -1.
       -2    1    3    3    0  502  0.12075408043E+04  0.56845058617E+03 -0.92170973523E+03  0.16219863437E+04  0.25500000920E-02 0.  1.
</event>
<event>
 5   0  0.1948507E-06  0.3333061E+04  0.7818609E-02  0.8154534E-01
        2   -1    0    0  501    0  0.00000000000E+00  0.00000000000E+00  0.27769353534E+04  0.27769353534E+04  0.25500000920E-02 0.  1.
       -2   -1    0    0    0  501  0.00000000000E+00  0.00000000000E+00 -0.10001401548E+04  0.10001401548E+04  0.25500000920E-02 0. -1.
    10030    2    1    2    0    0  0.00000000000E+00  0.00000000000E+00  0.17767951985E+04  0.37770755082E+04  0.33330613881E+04 0.  0.
        1    1    3    3  502    0  0.11777837958E+04 -0.10050104863E+04  0.18974148514E+03  0.15598790269E+04  0.50400001928E-02 0. -1.
       -1    1    3    3    0  502 -0.11777837958E+04  0.10050104863E+04  0.15870537134E+04  0.22171964813E+04  0.50400001928E-02 0.  1.
</event>
<event>
 5   0  0.1339844E-06  0.3389875E+04  0.7818609E-02  0.8140396E-01
       -2   -1    0    0    0  501  0.00000000000E+00  0.00000000000E+00  0.10262646626E+04  0.10262646626E+04  0.25500000920E-02 0.  1.
        2   -1    0    0  501    0  0.00000000000E+00  0.00000000000E+00 -0.27992900024E+04  0.27992900024E+04  0.25500000920E-02 0. -1.
    10030    2    1    2    0    0  0.00000000000E+00  0.00000000000E+00 -0.17730253398E+04  0.38255546649E+04  0.33898745757E+04 0.  0.
        3    1    3    3  502    0 -0.16898402250E+04 -0.94540499676E+01 -0.10343580706E+04  0.19812990672E+04  0.10100000352E+00 0. -1.
       -3    1    3    3    0  502  0.16898402250E+04  0.94540499676E+01 -0.73866726918E+03  0.18442555978E+04  0.10100000352E+00 0.  1.
</event>
<event>
 5   0  0.6134625E-07  0.3424373E+04  0.7818609E-02  0.8131950E-01
        1   -1    0    0  501    0  0.00000000000E+00  0.00000000000E+00  0.21121031309E+04  0.21121031309E+04  0.50400001928E-02 0.  1.
       -1   -1    0    0    0  501  0.00000000000E+00  0.00000000000E+00 -0.13879918411E+04  0.13879918411E+04  0.50400001928E-02 0. -1.
    10030    2    1    2    0    0  0.00000000000E+00  0.00000000000E+00  0.72411128984E+03  0.35000949720E+04  0.34243725926E+04 0.  0.
        5    1    3    3  502    0 -0.12032363848E+04  0.10800047347E+04 -0.21375936661E+03  0.16309209611E+04  0.46999998093E+01 0. -1.
       -5    1    3    3    0  502  0.12032363848E+04 -0.10800047347E+04  0.93787065646E+03  0.18691740109E+04  0.46999998093E+01 0.  1.
</event>
<event>
 5   0  0.1797075E-06  0.3582088E+04  0.7818609E-02  0.8094607E-01
        2   -1    0    0  501    0  0.00000000000E+00  0.00000000000E+00  0.13237884492E+04  0.13237884492E+04  0.25500000920E-02 0.  1.
       -2   -1    0    0    0  501  0.00000000000E+00  0.00000000000E+00 -0.24232264964E+04  0.24232264964E+04  0.25500000920E-02 0. -1.
    10030    2    1    2    0    0  0.00000000000E+00  0.00000000000E+00 -0.10994380471E+04  0.37470149456E+04  0.35820883550E+04 0.  0.
        2    1    3    3  502    0  0.10416707815E+04  0.73084859201E+03 -0.18681559503E+04  0.22603593378E+04  0.25500000920E-02 0. -1.
       -2    1    3    3    0  502 -0.10416707815E+04 -0.73084859201E+03  0.76871790319E+03  0.14866556078E+04  0.25500000920E-02 0.  1.
</event>
<event>
 5   0  0.1880301E-06  0.3461028E+04  0.7818609E-02  0.8123088E-01
       -2   -1    0    0    0  501  0.00000000000E+00  0.00000000000E+00  0.13407841232E+04  0.13407841232E+04  0.25500000920E-02 0.  1.
        2   -1    0    0  501    0  0.00000000000E+00  0.00000000000E+00 -0.22335276699E+04  0.22335276699E+04  0.25500000920E-02 0. -1.
    10030    2    1    2    0    0  0.00000000000E+00  0.00000000000E+00 -0.89274354674E+03  0.35743117931E+04  0.34610278465E+04 0.  0.
        4    1    3    3  502    0  0.33950596648E+03 -0.12211017870E+04  0.77046574582E+03  0.14832305801E+04  0.12699999809E+01 0.  1.
       -4    1    3    3    0  502 -0.33950596648E+03  0.12211017870E+04 -0.16632092926E+04  0.20910812130E+04  0.12699999809E+01 0. -1.
</event>
<event>
 5   0  0.6146388E-07  0.3401870E+04  0.7818609E-02  0.8137448E-01
        1   -1    0    0  501    0  0.00000000000E+00  0.00000000000E+00  0.22608476206E+04  0.22608476206E+04  0.50400001928E-02 0.  1.
       -1   -1    0    0    0  501  0.00000000000E+00  0.00000000000E+00 -0.12796878520E+04  0.12796878520E+04  0.50400001928E-02 0. -1.
    10030    2    1    2    0    0  0.00000000000E+00  0.00000000000E+00  0.98115976864E+03  0.35405354727E+04  0.34018696244E+04 0.  0.
        4    1    3    3  502    0  0.35066608853E+03  0.22242941201E+03 -0.12261204510E+04  0.12945325497E+04  0.12699999809E+01 0. -1.
       -4    1    3    3    0  502 -0.35066608853E+03 -0.22242941201E+03  0.22072802196E+04  0.22460029229E+04  0.12699999809E+01 0.  1.
</event>
<event>
 5   0  0.1339844E-06  0.3391179E+04  0.7818609E-02  0.8140075E-01
        2   -1    0    0  501    0  0.00000000000E+00  0.00000000000E+00  0.14377281183E+04  0.14377281183E+04  0.25500000920E-02 0.  1.
       -2   -1    0    0    0  501  0.00000000000E+00  0.00000000000E+00 -0.19996996671E+04  0.19996996671E+04  0.25500000920E-02 0. -1.
    10030    2    1    2    0    0  0.00000000000E+00  0.00000000000E+00 -0.56197154884E+03  0.34374277854E+04  0.33911794052E+04 0.  0.
        3    1    3    3  502    0 -0.93082891614E+03 -0.11925701015E+04 -0.10571693235E+04  0.18456090883E+04  0.10100000352E+00 0. -1.
       -3    1    3    3    0  502  0.93082891614E+03  0.11925701015E+04  0.49519777467E+03  0.15918186971E+04  0.10100000352E+00 0.  1.
</event>
<event>
 5   0  0.1948507E-06  0.3426905E+04  0.7818609E-02  0.8131334E-01
       -2   -1    0    0    0  501  0.00000000000E+00  0.00000000000E+00  0.15238612330E+04  0.15238612330E+04  0.25500000920E-02 0.  1.
        2   -1    0    0  501    0  0.00000000000E+00  0.00000000000E+00 -0.19266315455E+04  0.19266315455E+04  0.25500000920E-02 0. -1.
    10030    2    1    2    0    0  0.00000000000E+00  0.00000000000E+00 -0.40277031243E+03  0.34504927785E+04  0.34269047973E+04 0.  0.
        1    1    3    3  502    0 -0.14559814591E+04 -0.28828542133E+03  0.66062012448E+03  0.16246259392E+04  0.50400001928E-02 0.  1.
       -1    1    3    3    0  502  0.14559814591E+04  0.28828542133E+03 -0.10633904369E+04  0.18258668393E+04  0.50400001928E-02 0. -1.
</event>
<event>
 5   0  0.6146388E-07  0.3386546E+04  0.7818609E-02  0.8141216E-01
       -1   -1    0    0    0  501  0.00000000000E+00  0.00000000000E+00  0.33718850900E+04  0.33718850900E+04  0.50400001928E-02 0.  1.
        1   -1    0    0  501    0  0.00000000000E+00  0.00000000000E+00 -0.85031781910E+03  0.85031781911E+03  0.50400001928E-02 0. -1.
    10030    2    1    2    0    0  0.00000000000E+00  0.00000000000E+00  0.25215672709E+04  0.42222029091E+04  0.33865463091E+04 0.  0.
        4    1    3    3  502    0  0.12554798381E+04  0.10377910325E+04  0.68412277302E+03  0.17667103420E+04  0.12699999809E+01 0. -1.
       -4    1    3    3    0  502 -0.12554798381E+04 -0.10377910325E+04  0.18374444978E+04  0.24554925670E+04  0.12699999809E+01 0.  1.
</event>
<event>
 5   0  0.6134625E-07  0.3366809E+04  0.7818609E-02  0.8146101E-01
       -1   -1    0    0    0  501  0.00000000000E+00  0.00000000000E+00  0.10844980062E+04  0.10844980063E+04  0.50400001928E-02 0.  1.
        1   -1    0    0  501    0  0.00000000000E+00  0.00000000000E+00 -0.26130533163E+04  0.26130533163E+04  0.50400001928E-02 0. -1.
    10030    2    1    2    0    0  0.00000000000E+00  0.00000000000E+00 -0.15285553100E+04  0.36975513225E+04  0.33668092383E+04 0.  0.
        5    1    3    3  502    0 -0.65269039877E+03 -0.39706734092E+02  0.93931540062E+03  0.11445160083E+04  0.46999998093E+01 0.  1.
       -5    1    3    3    0  502  0.65269039877E+03  0.39706734092E+02 -0.24678707106E+04  0.25530353142E+04  0.46999998093E+01 0. -1.
</event>
<event>
 5   0  0.6134625E-07  0.3165345E+04  0.7818609E-02  0.8198030E-01
       -1   -1    0    0    0  501  0.00000000000E+00  0.00000000000E+00  0.21440866925E+04  0.21440866925E+04  0.50400001928E-02 0.  1.
        1   -1    0    0  501    0  0.00000000000E+00  0.00000000000E+00 -0.11682605811E+04  0.11682605811E+04  0.50400001928E-02 0. -1.
    10030    2    1    2    0    0  0.00000000000E+00  0.00000000000E+00  0.97582611139E+03  0.33123472736E+04  0.31653448250E+04 0.  0.
        1    1    3    3  502    0 -0.34044376214E+03  0.43819800788E+03 -0.10631276417E+04  0.11992330181E+04  0.50400001928E-02 0. -1.
       -1    1    3    3    0  502  0.34044376214E+03 -0.43819800788E+03  0.20389537531E+04  0.21131142554E+04  0.50400001928E-02 0.  1.
</event>
<event>
 5   0  0.1880301E-06  0.3345542E+04  0.7818609E-02  0.8151403E-01
       -2   -1    0    0    0  501  0.00000000000E+00  0.00000000000E+00  0.14482762837E+04  0.14482762837E+04  0.25500000920E-02 0.  1.
        2   -1    0    0  501    0  0.00000000000E+00  0.00000000000E+00 -0.19320639090E+04  0.19320639090E+04  0.25500000920E-02 0. -1.
    10030    2    1    2    0    0  0.00000000000E+00  0.00000000000E+00 -0.48378762539E+03  0.33803401927E+04  0.33455417128E+04 0.  0.
        4    1    3    3  502    0 -0.11309520401E+04  0.45212490580E+02  0.10026090990E+04  0.15120592927E+04  0.12699999809E+01 0.  1.
       -4    1    3    3    0  502  0.11309520401E+04 -0.45212490580E+02 -0.14863967244E+04  0.18682809000E+04  0.12699999809E+01 0. -1.
</event>
<event>
 5   0  0.1339844E-06  0.3341701E+04  0.7818609E-02  0.8152365E-01
        2   -1    0    0  501    0  0.00000000000E+00  0.00000000000E+00  0.88440205699E+03  0.88440205700E+03  0.25500000920E-02 0. -1.
       -2   -1    0    0    0  501  0.00000000000E+00  0.00000000000E+00 -0.31566432223E+04  0.31566432223E+04  0.25500000920E-02 0.  1.
    10030    2    1    2    0    0  0.00000000000E+00  0.00000000000E+00 -0.22722411653E+04  0.40410452793E+04  0.33417012189E+04 0.  0.
        3    1    3    3  502    0 -0.79771536033E+03  0.99529376273E+03  0.16899350291E+03  0.12866694542E+04  0.10100000352E+00 0. -1.
       -3    1    3    3    0  502  0.79771536033E+03 -0.99529376273E+03 -0.24412346683E+04  0.27543758251E+04  0.10100000352E+00 0.  1.
</event>
<event>
 5   0  0.1797075E-06  0.3457818E+04  0.7818609E-02  0.8123860E-01
       -2   -1    0    0    0  501  0.00000000000E+00  0.00000000000E+00  0.18145100124E+04  0.18145100124E+04  0.25500000920E-02 0.  1.
        2   -1    0    0  501    0  0.00000000000E+00  0.00000000000E+00 -0.16473465208E+04  0.16473465208E+04  0.25500000920E-02 0. -1.
    10030    2    1    2    0    0  0.00000000000E+00  0.00000000000E+00  0.16716349163E+03  0.34618565332E+04  0.34578182462E+04 0.  0.
        2    1    3    3  502    0 -0.94683580261E+03 -0.40030612377E+03  0.14753072622E+04  0.17981308484E+04  0.25500000920E-02 0.  1.
       -2    1    3    3    0  502  0.94683580261E+03  0.40030612377E+03 -0.13081437706E+04  0.16637256849E+04  0.25500000920E-02 0. -1.
</event>
<event>
 5   0  0.1797075E-06  0.3417498E+04  0.7818609E-02  0.8133625E-01
        2   -1    0    0  501    0  0.00000000000E+00  0.00000000000E+00  0.21397435989E+04  0.21397435989E+04  0.25500000920E-02 0. -1.
       -2   -1    0    0    0  501  0.00000000000E+00  0.00000000000E+00 -0.13645670984E+04  0.13645670984E+04  0.25500000920E-02 0.  1.
    10030    2    1    2    0    0  0.00000000000E+00  0.00000000000E+00  0.77517650043E+03  0.35043106973E+04  0.34174983331E+04 0.  0.
        2    1    3    3  502    0  0.63067337573E+02  0.59717276868E+03  0.20279854874E+04  0.21150219719E+04  0.25500000920E-02 0. -1.
       -2    1    3    3    0  502 -0.63067337573E+02 -0.59717276868E+03 -0.12528089869E+04  0.13892887254E+04  0.25500000920E-02 0.  1.
</event>
<event>
 5   0  0.1880301E-06  0.3402157E+04  0.7818609E-02  0.8137377E-01
        2   -1    0    0  501    0  0.00000000000E+00  0.00000000000E+00  0.15527860718E+04  0.15527860718E+04  0.25500000920E-02 0. -1.
       -2   -1    0    0    0  501  0.00000000000E+00  0.00000000000E+00 -0.18635329122E+04  0.18635329122E+04  0.25500000920E-02 0.  1.
    10030    2    1    2    0    0  0.00000000000E+00  0.00000000000E+00 -0.31074684041E+03  0.34163189840E+04  0.34021569337E+04 0.  0.
        4    1    3    3  502    0 -0.16828160966E+04  0.10290740076E+03  0.71856831371E+02  0.16874907304E+04  0.12699999809E+01 0. -1.
       -4    1    3    3    0  502  0.16828160966E+04 -0.10290740076E+03 -0.38260367178E+03  0.17288282536E+04  0.12699999809E+01 0.  1.
</event>
<event>
 5   0  0.1911477E-06  0.3420223E+04  0.7818609E-02  0.8132961E-01
        2   -1    0    0  501    0  0.00000000000E+00  0.00000000000E+00  0.16682418524E+04  0.16682418524E+04  0.25500000920E-02 0. -1.
       -2   -1    0    0    0  501  0.00000000000E+00  0.00000000000E+00 -0.17530319296E+04  0.17530319296E+04  0.25500000920E-02 0.  1.
    10030    2    1    2    0    0  0.00000000000E+00  0.00000000000E+00 -0.84790077217E+02  0.34212737820E+04  0.34202229363E+04 0.  0.
        5    1    3    3  502    0  0.77419153120E+03  0.42658671970E+03  0.14219913545E+04  0.16743447252E+04  0.46999998093E+01 0. -1.
       -5    1    3    3    0  502 -0.77419153120E+03 -0.42658671970E+03 -0.15067814317E+04  0.17469290568E+04  0.46999998093E+01 0.  1.
</event>
<event>
 5   0  0.1911477E-06  0.2989214E+04  0.7818609E-02  0.8246818E-01
        2   -1    0    0  501    0  0.00000000000E+00  0.00000000000E+00  0.15088627825E+04  0.15088627825E+04  0.25500000920E-02 0.  1.
       -2   -1    0    0    0  501  0.00000000000E+00  0.00000000000E+00 -0.14804856989E+04  0.14804856989E+04  0.25500000920E-02 0. -1.
    10030    2    1    2    0    0  0.00000000000E+00  0.00000000000E+00  0.28377083627E+02  0.29893484814E+04  0.29892137903E+04 0.  0.
        5    1    3    3  502    0  0.11885225964E+04  0.21067563734E+01  0.92045080537E+03  0.15032771454E+04  0.46999998093E+01 0.  1.
       -5    1    3    3    0  502 -0.11885225964E+04 -0.21067563734E+01 -0.89207372174E+03  0.14860713360E+04  0.46999998093E+01 0. -1.
</event>
<event>
 5   0  0.1339844E-06  0.3398882E+04  0.7818609E-02  0.8138181E-01
       -2   -1    0    0    0  501  0.00000000000E+00  0.00000000000E+00  0.11114109059E+04  0.11114109059E+04  0.25500000920E-02 0. -1.
        2   -1    0    0  501    0  0.00000000000E+00  0.00000000000E+00 -0.25985879611E+04  0.25985879611E+04  0.25500000920E-02 0.  1.
    10030    2    1    2    0    0  0.00000000000E+00  0.00000000000E+00 -0.14871770552E+04  0.37099988670E+04  0.33988815807E+04 0.  0.
        3    1    3    3  502    0  0.14603694159E+04 -0.34151456516E+03  0.12881237133E+03  0.15052918874E+04  0.10100000352E+00 0. -1.
       -3    1    3    3    0  502 -0.14603694159E+04  0.34151456516E+03 -0.16159894265E+04  0.22047069796E+04  0.10100000352E+00 0.  1.
</event>
<event>
 5   0  0.6146388E-07  0.2824541E+04  0.7818609E-02  0.8295690E-01
       -1   -1    0    0    0  501  0.00000000000E+00  0.00000000000E+00  0.10300630609E+04  0.10300630609E+04  0.50400001928E-02 0.  1.
        1   -1    0    0  501    0  0.00000000000E+00  0.00000000000E+00 -0.19362963985E+04  0.19362963985E+04  0.50400001928E-02 0. -1.
    10030    2    1    2    0    0  0.00000000000E+00  0.00000000000E+00 -0.90623333760E+03  0.29663594594E+04  0.28245405963E+04 0.  0.
        4    1    3    3  502    0 -0.20671237367E+03 -0.42679029198E+03  0.94394854653E+03  0.10563713505E+04  0.12699999809E+01 0.  1.
       -4    1    3    3    0  502  0.20671237367E+03  0.42679029198E+03 -0.18501818841E+04  0.19099881089E+04  0.12699999809E+01 0. -1.
</event>
<event>
 5   0  0.6134625E-07  0.3418557E+04  0.7818609E-02  0.8133367E-01
       -1   -1    0    0    0  501  0.00000000000E+00  0.00000000000E+00  0.19931086871E+04  0.19931086871E+04  0.50400001928E-02 0.  1.
        1   -1    0    0  501    0  0.00000000000E+00  0.00000000000E+00 -0.14658673419E+04  0.14658673419E+04  0.50400001928E-02 0. -1.
    10030    2    1    2    0    0  0.00000000000E+00  0.00000000000E+00  0.52724134520E+03  0.34589760290E+04  0.34185569665E+04 0.  0.
        1    1    3    3  502    0  0.13419910560E+04  0.89333800585E+03 -0.31110941557E+03  0.16418836303E+04  0.50400001928E-02 0. -1.
       -1    1    3    3    0  502 -0.13419910560E+04 -0.89333800585E+03  0.83835076077E+03  0.18170923986E+04  0.50400001928E-02 0.  1.
</event>
<event>
 5   0  0.1797075E-06  0.3358254E+04  0.7818609E-02  0.8148229E-01
        2   -1    0    0  501    0  0.00000000000E+00  0.00000000000E+00  0.15498690620E+04  0.15498690620E+04  0.25500000920E-02 0.  1.
       -2   -1    0    0    0  501  0.00000000000E+00  0.00000000000E+00 -0.18191651598E+04  0.18191651598E+04  0.25500000920E-02 0. -1.
    10030    2    1    2    0    0  0.00000000000E+00  0.00000000000E+00 -0.26929609780E+03  0.33690342218E+04  0.33582541892E+04 0.  0.
        2    1    3    3  502    0  0.14182426703E+04 -0.60719752897E+03 -0.79962320626E+03  0.17376703896E+04  0.25500000920E-02 0. -1.
       -2    1    3    3    0  502 -0.14182426703E+04  0.60719752897E+03  0.53032710846E+03  0.16313638322E+04  0.25500000920E-02 0.  1.
</event>
<event>
 5   0  0.1880301E-06  0.3449793E+04  0.7818609E-02  0.8125793E-01
       -2   -1    0    0    0  501  0.00000000000E+00  0.00000000000E+00  0.13453520531E+04  0.13453520531E+04  0.25500000920E-02 0.  1.
        2   -1    0    0  501    0  0.00000000000E+00  0.00000000000E+00 -0.22115159490E+04  0.22115159490E+04  0.25500000920E-02 0. -1.
    10030    2    1    2    0    0  0.00000000000E+00  0.00000000000E+00 -0.86616389588E+03  0.35568680021E+04  0.34497927605E+04 0.  0.
        4    1    3    3  502    0 -0.63650533336E+03  0.22308221831E+02 -0.20858426292E+04  0.21809121447E+04  0.12699999809E+01 0. -1.
       -4    1    3    3    0  502  0.63650533336E+03 -0.22308221831E+02  0.12196787333E+04  0.13759558574E+04  0.12699999809E+01 0.  1.
</event>
<event>
 5   0  0.6134625E-07  0.3143765E+04  0.7818609E-02  0.8203829E-01
       -1   -1    0    0    0  501  0.00000000000E+00  0.00000000000E+00  0.11148862071E+04  0.11148862071E+04  0.50400001928E-02 0.  1.
        1   -1    0    0  501    0  0.00000000000E+00  0.00000000000E+00 -0.22162034667E+04  0.22162034667E+04  0.50400001928E-02 0. -1.
    10030    2    1    2    0    0  0.00000000000E+00  0.00000000000E+00 -0.11013172596E+04  0.33310896738E+04  0.31437650530E+04 0.  0.
        5    1    3    3  502    0  0.20837745452E+01  0.45882247171E+03  0.10423437345E+04  0.11388700337E+04  0.46999998093E+01 0.  1.
       -5    1    3    3    0  502 -0.20837745452E+01 -0.45882247171E+03 -0.21436609942E+04  0.21922196401E+04  0.46999998093E+01 0. -1.
</event>
<event>
 5   0  0.6134625E-07  0.3324364E+04  0.7818609E-02  0.8156724E-01
        1   -1    0    0  501    0  0.00000000000E+00  0.00000000000E+00  0.13792828895E+04  0.13792828895E+04  0.50400001928E-02 0. -1.
       -1   -1    0    0    0  501  0.00000000000E+00  0.00000000000E+00 -0.20031050071E+04  0.20031050071E+04  0.50400001928E-02 0.  1.
    10030    2    1    2    0    0  0.00000000000E+00  0.00000000000E+00 -0.62382211767E+03  0.33823878966E+04  0.33243636758E+04 0.  0.
        5    1    3    3  502    0  0.10385720276E+04  0.98092223113E+02 -0.16285504734E+04  0.19340249934E+04  0.46999998093E+01 0.  1.
       -5    1    3    3    0  502 -0.10385720276E+04 -0.98092223113E+02  0.10047283557E+04  0.14483629032E+04  0.46999998093E+01 0. -1.
</event>
<event>
 5   0  0.1880301E-06  0.3274111E+04  0.7818609E-02  0.8169514E-01
       -2   -1    0    0    0  501  0.00000000000E+00  0.00000000000E+00  0.98996864964E+03  0.98996864965E+03  0.25500000920E-02 0. -1.
        2   -1    0    0  501    0  0.00000000000E+00  0.00000000000E+00 -0.27071065404E+04  0.27071065404E+04  0.25500000920E-02 0.  1.
    10030    2    1    2    0    0  0.00000000000E+00  0.00000000000E+00 -0.17171378908E+04  0.36970751901E+04  0.32741109366E+04 0.  0.
        4    1    3    3  502    0 -0.47391027301E+03  0.16615768766E+03 -0.26179780885E+04  0.26657100759E+04  0.12699999809E+01 0.  1.
       -4    1    3    3    0  502  0.47391027301E+03 -0.16615768766E+03  0.90084019771E+03  0.10313651142E+04  0.12699999809E+01 0. -1.
</event>
<event>
 5   0  0.6134625E-07  0.3290360E+04  0.7818609E-02  0.8165353E-01
        1   -1    0    0  501    0  0.00000000000E+00  0.00000000000E+00  0.18627455932E+04  0.18627455932E+04  0.50400001928E-02 0. -1.
       -1   -1    0    0    0  501  0.00000000000E+00  0.00000000000E+00 -0.14530255261E+04  0.14530255262E+04  0.50400001928E-02 0.  1.
    10030    2    1    2    0    0  0.00000000000E+00  0.00000000000E+00  0.40972006706E+03  0.33157711194E+04  0.32903597953E+04 0.  0.
        5    1    3    3  502    0 -0.15903723976E+04  0.22479601076E+03 -0.15394764299E+03  0.16135487523E+04  0.46999998093E+01 0.  1.
       -5    1    3    3    0  502  0.15903723976E+04 -0.22479601076E+03  0.56366771006E+03  0.17022223670E+04  0.46999998093E+01 0. -1.
</event>
<event>
 5   0  0.6218695E-07  0.3290505E+04  0.7818609E-02  0.8165316E-01
       -1   -1    0    0    0  501  0.00000000000E+00  0.00000000000E+00  0.10598631754E+04  0.10598631754E+04  0.50400001928E-02 0. -1.
        1   -1    0    0  501    0  0.00000000000E+00  0.00000000000E+00 -0.25539675977E+04  0.25539675977E+04  0.50400001928E-02 0.  1.
    10030    2    1    2    0    0  0.00000000000E+00  0.00000000000E+00 -0.14941044223E+04  0.36138307731E+04  0.32905052548E+04 0.  0.
        2    1    3    3  502    0  0.65586816307E+03 -0.30543676330E+03 -0.23698784821E+04  0.24778576803E+04  0.25500000920E-02 0.  1.
       -2    1    3    3    0  502 -0.65586816307E+03  0.30543676330E+03  0.87577405984E+03  0.11359730928E+04  0.25500000920E-02 0. -1.
</event>
<event>
 5   0  0.6146388E-07  0.3045517E+04  0.7818609E-02  0.8230851E-01
        1   -1    0    0  501    0  0.00000000000E+00  0.00000000000E+00  0.23953406986E+04  0.23953406986E+04  0.50400001928E-02 0.  1.
       -1   -1    0    0    0  501  0.00000000000E+00  0.00000000000E+00 -0.96804325196E+03  0.96804325197E+03  0.50400001928E-02 0. -1.
    10030    2    1    2    0    0  0.00000000000E+00  0.00000000000E+00  0.14272974467E+04  0.33633839506E+04  0.30455169673E+04 0.  0.
        4    1    3    3  502    0  0.10229574811E+04 -0.33178271343E+03 -0.47695967029E+03  0.11764412085E+04  0.12699999809E+01 0. -1.
       -4    1    3    3    0  502 -0.10229574811E+04  0.33178271343E+03  0.19042571169E+04  0.21869427421E+04  0.12699999809E+01 0.  1.
</event>
<event>
 5   0  0.6146388E-07  0.3367098E+04  0.7818609E-02  0.8146029E-01
        1   -1    0    0  501    0  0.00000000000E+00  0.00000000000E+00  0.25199335127E+04  0.25199335127E+04  0.50400001928E-02 0. -1.
       -1   -1    0    0    0  501  0.00000000000E+00  0.00000000000E+00 -0.11247669092E+04  0.11247669092E+04  0.50400001928E-02 0.  1.
    10030    2    1    2    0    0  0.00000000000E+00  0.00000000000E+00  0.13951666035E+04  0.36447004220E+04  0.33670983523E+04 0.  0.
        4    1    3    3  502    0  0.11435037143E+04  0.11208347986E+04  0.12605224229E+04  0.20378394887E+04  0.12699999809E+01 0. -1.
       -4    1    3    3    0  502 -0.11435037143E+04 -0.11208347986E+04  0.13464418064E+03  0.16068609332E+04  0.12699999809E+01 0.  1.
</event>
<event>
 5   0  0.6134625E-07  0.3445592E+04  0.7818609E-02  0.8126806E-01
        1   -1    0    0  501    0  0.00000000000E+00  0.00000000000E+00  0.21469283442E+04  0.21469283442E+04  0.50400001928E-02 0. -1.
       -1   -1    0    0    0  501  0.00000000000E+00  0.00000000000E+00 -0.13824527042E+04  0.13824527042E+04  0.50400001928E-02 0.  1.
    10030    2    1    2    0    0  0.00000000000E+00  0.00000000000E+00  0.76447563998E+03  0.35293810484E+04  0.34455924861E+04 0.  0.
        1    1    3    3  502    0  0.11842515935E+04  0.23139002633E+02  0.16636749668E+04  0.20422540600E+04  0.50400001928E-02 0. -1.
       -1    1    3    3    0  502 -0.11842515935E+04 -0.23139002633E+02 -0.89919932682E+03  0.14871269884E+04  0.50400001928E-02 0.  1.
</event>
<event>
 5   0  0.1911477E-06  0.3414830E+04  0.7818609E-02  0.8134276E-01
        2   -1    0    0  501    0  0.00000000000E+00  0.00000000000E+00  0.22609848868E+04  0.22609848868E+04  0.25500000920E-02 0.  1.
       -2   -1    0    0    0  501  0.00000000000E+00  0.00000000000E+00 -0.12893785582E+04  0.12893785582E+04  0.25500000920E-02 0. -1.
    10030    2    1    2    0    0  0.00000000000E+00  0.00000000000E+00  0.97160632864E+03  0.35503634450E+04  0.34148296786E+04 0.  0.
        5    1    3    3  502    0  0.15458854507E+03 -0.11707374210E+04  0.17679221761E+04  0.21260514194E+04  0.46999998093E+01 0.  1.
       -5    1    3    3    0  502 -0.15458854507E+03  0.11707374210E+04 -0.79631584747E+03  0.14243120256E+04  0.46999998093E+01 0. -1.
</event>
<event>
 5   0  0.6134625E-07  0.3349059E+04  0.7818609E-02  0.8150523E-01
        1   -1    0    0  501    0  0.00000000000E+00  0.00000000000E+00  0.17040671683E+04  0.17040671683E+04  0.50400001928E-02 0. -1.
       -1   -1    0    0    0  501  0.00000000000E+00  0.00000000000E+00 -0.16455040278E+04  0.16455040278E+04  0.50400001928E-02 0.  1.
    10030    2    1    2    0    0  0.00000000000E+00  0.00000000000E+00  0.58563140561E+02  0.33495711961E+04  0.33490592047E+04 0.  0.
        3    1    3    3  502    0 -0.16465049849E+04  0.22582347835E+03  0.23443355177E+03  0.16783724286E+04  0.10100000352E+00 0.  1.
       -3    1    3    3    0  502  0.16465049849E+04 -0.22582347835E+03 -0.17587041121E+03  0.16711987675E+04  0.10100000352E+00 0. -1.
</event>
<event>
 5   0  0.1339844E-06  0.3435228E+04  0.7818609E-02  0.8129314E-01
        2   -1    0    0  501    0  0.00000000000E+00  0.00000000000E+00  0.20723605279E+04  0.20723605279E+04  0.25500000920E-02 0. -1.
       -2   -1    0    0    0  501  0.00000000000E+00  0.00000000000E+00 -0.14235926441E+04  0.14235926441E+04  0.25500000920E-02 0.  1.
    10030    2    1    2    0    0  0.00000000000E+00  0.00000000000E+00  0.64876788377E+03  0.34959531720E+04  0.34352276218E+04 0.  0.
        3    1    3    3  502    0  0.71973094276E+03  0.12719515892E+04  0.12427347862E+04  0.19184012183E+04  0.10100000352E+00 0. -1.
       -3    1    3    3    0  502 -0.71973094276E+03 -0.12719515892E+04 -0.59396690243E+03  0.15775519537E+04  0.10100000352E+00 0.  1.
</event>
<event>
 5   0  0.6134625E-07  0.3343172E+04  0.7818609E-02  0.8151996E-01
       -1   -1    0    0    0  501  0.00000000000E+00  0.00000000000E+00  0.21053299513E+04  0.21053299513E+04  0.50400001928E-02 0.  1.
        1   -1    0    0  501    0  0.00000000000E+00  0.00000000000E+00 -0.13272025230E+04  0.13272025230E+04  0.50400001928E-02 0. -1.
    10030    2    1    2    0    0  0.00000000000E+00  0.00000000000E+00  0.77812742828E+03  0.34325324742E+04  0.33431716815E+04 0.  0.
        3    1    3    3  502    0  0.12002206829E+04 -0.86523772083E+03 -0.40956621670E+03  0.15352232728E+04  0.10100000352E+00 0. -1.
       -3    1    3    3    0  502 -0.12002206829E+04  0.86523772083E+03  0.11876936450E+04  0.18973092014E+04  0.10100000352E+00 0.  1.
</event>
<event>
 5   0  0.6134625E-07  0.2593451E+04  0.7818609E-02  0.8370429E-01
        3   -1    0    0  501    0  0.00000000000E+00  0.00000000000E+00  0.18785303748E+04  0.18785303775E+04  0.10100000352E+00 0.  1.
       -3   -1    0    0    0  501  0.00000000000E+00  0.00000000000E+00 -0.89511331773E+03  0.89511332343E+03  0.10100000352E+00 0. -1.
    10030    2    1    2    0    0  0.00000000000E+00  0.00000000000E+00  0.98341705704E+03  0.27736437009E+04  0.25934514207E+04 0.  0.
        4    1    3    3  502    0 -0.55447658000E+03  0.98660446688E+03  0.11686674834E+04  0.16268429400E+04  0.12699999809E+01 0.  1.
       -4    1    3    3    0  502  0.55447658000E+03 -0.98660446688E+03 -0.18525042635E+03  0.11468007609E+04  0.12699999809E+01 0. -1.
</event>
<event>
 5   0  0.1911477E-06  0.3347458E+04  0.7818609E-02  0.8150924E-01
       -2   -1    0    0    0  501  0.00000000000E+00  0.00000000000E+00  0.18369667850E+04  0.18369667850E+04  0.25500000920E-02 0. -1.
        2   -1    0    0  501    0  0.00000000000E+00  0.00000000000E+00 -0.15249970060E+04  0.15249970060E+04  0.25500000920E-02 0.  1.
    10030    2    1    2    0    0  0.00000000000E+00  0.00000000000E+00  0.31196977901E+03  0.33619637911E+04  0.33474580489E+04 0.  0.
        5    1    3    3  502    0  0.27310352874E+03  0.15120914844E+04  0.82244204500E+03  0.17428250635E+04  0.46999998093E+01 0.  1.
       -5    1    3    3    0  502 -0.27310352874E+03 -0.15120914844E+04 -0.51047226598E+03  0.16191387275E+04  0.46999998093E+01 0. -1.
</event>
<event>
 5   0  0.1339844E-06  0.3361088E+04  0.7818609E-02  0.8147523E-01
       -2   -1    0    0    0  501  0.00000000000E+00  0.00000000000E+00  0.25094488693E+04  0.25094488693E+04  0.25500000920E-02 0. -1.
        2   -1    0    0  501    0  0.00000000000E+00  0.00000000000E+00 -0.11254376835E+04  0.11254376835E+04  0.25500000920E-02 0.  1.
    10030    2    1    2    0    0  0.00000000000E+00  0.00000000000E+00  0.13840111858E+04  0.36348865528E+04  0.33610881109E+04 0.  0.
        3    1    3    3  502    0 -0.10591515430E+04  0.12337474437E+04  0.11512047453E+04  0.19922869075E+04  0.10100000352E+00 0. -1.
       -3    1    3    3    0  502  0.10591515430E+04 -0.12337474437E+04  0.23280644052E+03  0.16425996453E+04  0.10100000352E+00 0.  1.
</event>
<event>
 5   0  0.1339844E-06  0.3451409E+04  0.7818609E-02  0.8125403E-01
        2   -1    0    0  501    0  0.00000000000E+00  0.00000000000E+00  0.22520354069E+04  0.22520354069E+04  0.25500000920E-02 0.  1.
       -2   -1    0    0    0  501  0.00000000000E+00  0.00000000000E+00 -0.13223844013E+04  0.13223844013E+04  0.25500000920E-02 0. -1.
    10030    2    1    2    0    0  0.00000000000E+00  0.00000000000E+00  0.92965100553E+03  0.35744198082E+04  0.34514092735E+04 0.  0.
        3    1    3    3  502    0 -0.14833010744E+04 -0.21384284105E+03  0.13509767197E+04  0.20176840549E+04  0.10100000352E+00 0.  1.
       -3    1    3    3    0  502  0.14833010744E+04  0.21384284105E+03 -0.42132571420E+03  0.15567357533E+04  0.10100000352E+00 0. -1.
</event>
<event>
 5   0  0.6134625E-07  0.3389139E+04  0.7818609E-02  0.8140577E-01
        1   -1    0    0  501    0  0.00000000000E+00  0.00000000000E+00  0.24227233514E+04  0.24227233515E+04  0.50400001928E-02 0.  1.
       -1   -1    0    0    0  501  0.00000000000E+00  0.00000000000E+00 -0.11852635082E+04  0.11852635083E+04  0.50400001928E-02 0. -1.
    10030    2    1    2    0    0  0.00000000000E+00  0.00000000000E+00  0.12374598432E+04  0.36079868597E+04  0.33891388753E+04 0.  0.
        1    1    3    3  502    0  0.11027645122E+04 -0.58173116019E+03  0.18404709669E+04  0.22230236373E+04  0.50400001928E-02 0.  1.
       -1    1    3    3    0  502 -0.11027645122E+04  0.58173116019E+03 -0.60301112366E+03  0.13849632224E+04  0.50400001928E-02 0. -1.
</event>
<event>
 5   0  0.1880301E-06  0.2597571E+04  0.7818609E-02  0.8369027E-01
       -2   -1    0    0    0  501  0.00000000000E+00  0.00000000000E+00  0.21478581285E+04  0.21478581285E+04  0.25500000920E-02 0.  1.
        2   -1    0    0  501    0  0.00000000000E+00  0.00000000000E+00 -0.78536099986E+03  0.78536099986E+03  0.25500000920E-02 0. -1.
    10030    2    1    2    0    0  0.00000000000E+00  0.00000000000E+00  0.13624971287E+04  0.29332191284E+04  0.25975711789E+04 0.  0.
        4    1    3    3  502    0 -0.10568993611E+04 -0.44933688719E+03 -0.36770675688E+01  0.11484576751E+04  0.12699999809E+01 0.  1.
       -4    1    3    3    0  502  0.10568993611E+04  0.44933688719E+03  0.13661741962E+04  0.17847614533E+04  0.12699999809E+01 0. -1.
</event>
<event>
 5   0  0.1948507E-06  0.3404970E+04  0.7818609E-02  0.8136688E-01
       -2   -1    0    0    0  501  0.00000000000E+00  0.00000000000E+00  0.80331910576E+03  0.80331910576E+03  0.25500000920E-02 0.  1.
        2   -1    0    0  501    0  0.00000000000E+00  0.00000000000E+00 -0.36080996949E+04  0.36080996949E+04  0.25500000920E-02 0. -1.
    10030    2    1    2    0    0  0.00000000000E+00  0.00000000000E+00 -0.28047805891E+04  0.44114188007E+04  0.34049701440E+04 0.  0.
        1    1    3    3  502    0  0.99649587784E+03 -0.11554965183E+04 -0.42400764934E+03  0.15836536001E+04  0.50400001928E-02 0.  1.
       -1    1    3    3    0  502 -0.99649587784E+03  0.11554965183E+04 -0.23807729398E+04  0.28277652005E+04  0.50400001928E-02 0. -1.
</event>
<event>
 5   0  0.1339844E-06  0.3391810E+04  0.7818609E-02  0.8139919E-01
       -2   -1    0    0    0  501  0.00000000000E+00  0.00000000000E+00  0.11435722707E+04  0.11435722707E+04  0.25500000920E-02 0. -1.
        2   -1    0    0  501    0  0.00000000000E+00  0.00000000000E+00 -0.25150085888E+04  0.25150085888E+04  0.25500000920E-02 0.  1.
    10030    2    1    2    0    0  0.00000000000E+00  0.00000000000E+00 -0.13714363181E+04  0.36585808595E+04  0.33918101850E+04 0.  0.
        3    1    3    3  502    0 -0.79793601361E+03  0.86574929840E+03 -0.20023227212E+04  0.23228258694E+04  0.10100000352E+00 0.  1.
       -3    1    3    3    0  502  0.79793601361E+03 -0.86574929840E+03  0.63088640318E+03  0.13357549900E+04  0.10100000352E+00 0. -1.
</event>
<event>
 5   0  0.6134625E-07  0.3379223E+04  0.7818609E-02  0.8143025E-01
        1   -1    0    0  501    0  0.00000000000E+00  0.00000000000E+00  0.23295144316E+04  0.23295144316E+04  0.50400001928E-02 0. -1.
       -1   -1    0    0    0  501  0.00000000000E+00  0.00000000000E+00 -0.12254859658E+04  0.12254859658E+04  0.50400001928E-02 0.  1.
    10030    2    1    2    0    0  0.00000000000E+00  0.00000000000E+00  0.11040284657E+04  0.35550003974E+04  0.33792231315E+04 0.  0.
        5    1    3    3  502    0  0.34649260199E+02  0.82230974704E+02  0.23270269334E+04  0.23287419229E+04  0.46999998093E+01 0. -1.
       -5    1    3    3    0  502 -0.34649260199E+02 -0.82230974704E+02 -0.12229984677E+04  0.12262584746E+04  0.46999998093E+01 0.  1.
</event>
<event>
 5   0  0.1911477E-06  0.3405053E+04  0.7818609E-02  0.8136667E-01
        2   -1    0    0  501    0  0.00000000000E+00  0.00000000000E+00  0.25225582136E+04  0.25225582136E+04  0.25500000920E-02 0.  1.
       -2   -1    0    0    0  501  0.00000000000E+00  0.00000000000E+00 -0.11490702274E+04  0.11490702274E+04  0.25500000920E-02 0. -1.
    10030    2    1    2    0    0  0.00000000000E+00  0.00000000000E+00  0.13734879862E+04  0.36716284409E+04  0.34050530334E+04 0.  0.
        5    1    3    3  502    0 -0.88377655111E+03 -0.29804869081E+03 -0.84908076878E+03  0.12612907105E+04  0.46999998093E+01 0. -1.
       -5    1    3    3    0  502  0.88377655111E+03  0.29804869081E+03  0.22225687550E+04  0.24103377305E+04  0.46999998093E+01 0.  1.
</event>
<event>
 5   0  0.6134625E-07  0.2569647E+04  0.7818609E-02  0.8378585E-01
       -1   -1    0    0    0  501  0.00000000000E+00  0.00000000000E+00  0.16557722691E+04  0.16557722691E+04  0.50400001928E-02 0. -1.
        1   -1    0    0  501    0  0.00000000000E+00  0.00000000000E+00 -0.99697973895E+03  0.99697973897E+03  0.50400001928E-02 0.  1.
    10030    2    1    2    0    0  0.00000000000E+00  0.00000000000E+00  0.65879253011E+03  0.26527520080E+04  0.25696469832E+04 0.  0.
        1    1    3    3  502    0  0.51263675210E+03 -0.88279036906E+03 -0.47599921423E+03  0.11263616326E+04  0.50400001928E-02 0.  1.
       -1    1    3    3    0  502 -0.51263675210E+03  0.88279036906E+03  0.11347917443E+04  0.15263903755E+04  0.50400001928E-02 0. -1.
</event>
<event>
 5   0  0.1797075E-06  0.3395111E+04  0.7818609E-02  0.8139107E-01
       -2   -1    0    0    0  501  0.00000000000E+00  0.00000000000E+00  0.16976439391E+04  0.16976439391E+04  0.25500000920E-02 0. -1.
        2   -1    0    0  501    0  0.00000000000E+00  0.00000000000E+00 -0.16974668224E+04  0.16974668224E+04  0.25500000920E-02 0.  1.
    10030    2    1    2    0    0  0.00000000000E+00  0.00000000000E+00  0.17711665300E+00  0.33951107615E+04  0.33951107569E+04 0.  0.
        2    1    3    3  502    0  0.15916132092E+04  0.38507782533E+03  0.44749969363E+03  0.16975787214E+04  0.25500000920E-02 0.  1.
       -2    1    3    3    0  502 -0.15916132092E+04 -0.38507782533E+03 -0.44732257698E+03  0.16975320401E+04  0.25500000920E-02 0. -1.
</event>
<event>
 5   0  0.1880301E-06  0.3444541E+04  0.7818609E-02  0.8127060E-01
        2   -1    0    0  501    0  0.00000000000E+00  0.00000000000E+00  0.23060313673E+04  0.23060313673E+04  0.25500000920E-02 0.  1.
       -2   -1    0    0    0  501  0.00000000000E+00  0.00000000000E+00 -0.12862860471E+04  0.12862860471E+04  0.25500000920E-02 0. -1.
    10030    2    1    2    0    0  0.00000000000E+00  0.00000000000E+00  0.10197453201E+04  0.35923174144E+04  0.34445411723E+04 0.  0.
        4    1    3    3  502    0  0.11970047905E+04  0.23551707013E+03  0.17777277234E+04  0.21560626684E+04  0.12699999809E+01 0.  1.
       -4    1    3    3    0  502 -0.11970047905E+04 -0.23551707013E+03 -0.75798240329E+03  0.14362547460E+04  0.12699999809E+01 0. -1.
</event>
<event>
 5   0  0.6218695E-07  0.3418972E+04  0.7818609E-02  0.8133266E-01
        1   -1    0    0  501    0  0.00000000000E+00  0.00000000000E+00  0.17843696065E+04  0.17843696065E+04  0.50400001928E-02 0. -1.
       -1   -1    0    0    0  501  0.00000000000E+00  0.00000000000E+00 -0.16377448066E+04  0.16377448066E+04  0.50400001928E-02 0.  1.
    10030    2    1    2    0    0  0.00000000000E+00  0.00000000000E+00  0.14662479988E+03  0.34221144131E+04  0.34189718081E+04 0.  0.
        2    1    3    3  502    0  0.89175218659E+03 -0.11604065971E+04 -0.81100216098E+03  0.16731676360E+04  0.25500000920E-02 0.  1.
       -2    1    3    3    0  502 -0.89175218659E+03  0.11604065971E+04  0.95762696086E+03  0.17489467771E+04  0.25500000920E-02 0. -1.
</event>
<event>
 5   0  0.6134625E-07  0.3341150E+04  0.7818609E-02  0.8152503E-01
        1   -1    0    0  501    0  0.00000000000E+00  0.00000000000E+00  0.17022731703E+04  0.17022731703E+04  0.50400001928E-02 0. -1.
       -1   -1    0    0    0  501  0.00000000000E+00  0.00000000000E+00 -0.16394672355E+04  0.16394672355E+04  0.50400001928E-02 0.  1.
    10030    2    1    2    0    0  0.00000000000E+00  0.00000000000E+00  0.62805934826E+02  0.33417404058E+04  0.33411501544E+04 0.  0.
        5    1    3    3  502    0 -0.33077393100E+03  0.74883174165E+03 -0.14250955609E+04  0.16434962179E+04  0.46999998093E+01 0.  1.
       -5    1    3    3    0  502  0.33077393100E+03 -0.74883174165E+03  0.14879014957E+04  0.16982441879E+04  0.46999998093E+01 0. -1.
</event>
<event>
 5   0  0.6134625E-07  0.2735227E+04  0.7818609E-02  0.8323665E-01
       -1   -1    0    0    0  501  0.00000000000E+00  0.00000000000E+00  0.13544236906E+04  0.13544236906E+04  0.50400001928E-02 0. -1.
        1   -1    0    0  501    0  0.00000000000E+00  0.00000000000E+00 -0.13809321507E+04  0.13809321507E+04  0.50400001928E-02 0.  1.
    10030    2    1    2    0    0  0.00000000000E+00  0.00000000000E+00 -0.26508460135E+02  0.27353558413E+04  0.27352273909E+04 0.  0.
        3    1    3    3  502    0  0.58763143700E+02  0.64017258133E+03  0.11939036000E+04  0.13559792982E+04  0.10100000352E+00 0. -1.
       -3    1    3    3    0  502 -0.58763143700E+02 -0.64017258133E+03 -0.12204120601E+04  0.13793765431E+04  0.10100000352E+00 0.  1.
</event>
<event>
 5   0  0.1911477E-06  0.2715427E+04  0.7818609E-02  0.8330017E-01
       -2   -1    0    0    0  501  0.00000000000E+00  0.00000000000E+00  0.90298438515E+03  0.90298438515E+03  0.25500000920E-02 0. -1.
        2   -1    0    0  501    0  0.00000000000E+00  0.00000000000E+00 -0.20414373045E+04  0.20414373045E+04  0.25500000920E-02 0.  1.
    10030    2    1    2    0    0  0.00000000000E+00  0.00000000000E+00 -0.11384529194E+04  0.29444216897E+04  0.27154270450E+04 0.  0.
        5    1    3    3  502    0  0.11371118264E+04  0.64009883441E+03 -0.16261810476E+03  0.13149967914E+04  0.46999998093E+01 0. -1.
       -5    1    3    3    0  502 -0.11371118264E+04 -0.64009883441E+03 -0.97583481460E+03  0.16294248982E+04  0.46999998093E+01 0.  1.
</event>
<event>
 5   0  0.6134625E-07  0.3426823E+04  0.7818609E-02  0.8131354E-01
        1   -1    0    0  501    0  0.00000000000E+00  0.00000000000E+00  0.19127980575E+04  0.19127980575E+04  0.50400001928E-02 0. -1.
       -1   -1    0    0    0  501  0.00000000000E+00  0.00000000000E+00 -0.15348086465E+04  0.15348086466E+04  0.50400001928E-02 0.  1.
    10030    2    1    2    0    0  0.00000000000E+00  0.00000000000E+00  0.37798941097E+03  0.34476067041E+04  0.34268230172E+04 0.  0.
        5    1    3    3  502    0 -0.48929740745E+03  0.95515701218E+03  0.15327676883E+04  0.18711322099E+04  0.46999998093E+01 0. -1.
       -5    1    3    3    0  502  0.48929740745E+03 -0.95515701218E+03 -0.11547782773E+04  0.15764744941E+04  0.46999998093E+01 0.  1.
</event>
<event>
 5   0  0.1797075E-06  0.3424931E+04  0.7818609E-02  0.8131814E-01
        2   -1    0    0  501    0  0.00000000000E+00  0.00000000000E+00  0.19419325063E+04  0.19419325063E+04  0.25500000920E-02 0.  1.
       -2   -1    0    0    0  501  0.00000000000E+00  0.00000000000E+00 -0.15101134133E+04  0.15101134133E+04  0.25500000920E-02 0. -1.
    10030    2    1    2    0    0  0.00000000000E+00  0.00000000000E+00  0.43181909296E+03  0.34520459196E+04  0.34249311383E+04 0.  0.
        2    1    3    3  502    0  0.13264538508E+04  0.10480006350E+04 -0.59665281644E+02  0.16915510915E+04  0.25500000920E-02 0. -1.
       -2    1    3    3    0  502 -0.13264538508E+04 -0.10480006350E+04  0.49148437460E+03  0.17604948281E+04  0.25500000920E-02 0.  1.
</event>
<event>
 5   0  0.1339844E-06  0.3463917E+04  0.7818609E-02  0.8122395E-01
        2   -1    0    0  501    0  0.00000000000E+00  0.00000000000E+00  0.27162840485E+04  0.27162840485E+04  0.25500000920E-02 0. -1.
       -2   -1    0    0    0  501  0.00000000000E+00  0.00000000000E+00 -0.11043320613E+04  0.11043320613E+04  0.25500000920E-02 0.  1.
    10030    2    1    2    0    0  0.00000000000E+00  0.00000000000E+00  0.16119519872E+04  0.38206161098E+04  0.34639166054E+04 0.  0.
        3    1    3    3  502    0  0.16480615382E+04  0.46866251226E+03  0.52709937461E+03  0.17926475239E+04  0.10100000352E+00 0.  1.
       -3    1    3    3    0  502 -0.16480615382E+04 -0.46866251226E+03  0.10848526126E+04  0.20279685859E+04  0.10100000352E+00 0. -1.
</event>
<event>
 5   0  0.1797075E-06  0.3418021E+04  0.7818609E-02  0.8133497E-01
        2   -1    0    0  501    0  0.00000000000E+00  0.00000000000E+00  0.21445890401E+04  0.21445890401E+04  0.25500000920E-02 0. -1.
       -2   -1    0    0    0  501  0.00000000000E+00  0.00000000000E+00 -0.13619008967E+04  0.13619008967E+04  0.25500000920E-02 0.  1.
    10030    2    1    2    0    0  0.00000000000E+00  0.00000000000E+00  0.78268814342E+03  0.35064899368E+04  0.34180214960E+04 0.  0.
        2    1    3    3  502    0 -0.84362640677E+03  0.31226006747E+03  0.18820567807E+04  0.20859888757E+04  0.25500000920E-02 0. -1.
       -2    1    3    3    0  502  0.84362640677E+03 -0.31226006747E+03 -0.10993686373E+04  0.14205010611E+04  0.25500000920E-02 0.  1.
</event>
<event>
 5   0  0.6134625E-07  0.3402694E+04  0.7818609E-02  0.8137245E-01
       -1   -1    0    0    0  501  0.00000000000E+00  0.00000000000E+00  0.14535667461E+04  0.14535667461E+04  0.50400001928E-02 0. -1.
        1   -1    0    0  501    0  0.00000000000E+00  0.00000000000E+00 -0.19913645892E+04  0.19913645892E+04  0.50400001928E-02 0.  1.
    10030    2    1    2    0    0  0.00000000000E+00  0.00000000000E+00 -0.53779784308E+03  0.34449313353E+04  0.34026938424E+04 0.  0.
        1    1    3    3  502    0  0.30400214192E+02  0.44888893729E+03 -0.19300448929E+04  0.19817918003E+04  0.50400001928E-02 0.  1.
       -1    1    3    3    0  502 -0.30400214192E+02 -0.44888893729E+03  0.13922470499E+04  0.14631395350E+04  0.50400001928E-02 0. -1.
</event>
<event>
 5   0  0.6134625E-07  0.2686306E+04  0.7818609E-02  0.8339462E-01
       -1   -1    0    0    0  501  0.00000000000E+00  0.00000000000E+00  0.95760889966E+03  0.95760889967E+03  0.50400001928E-02 0. -1.
        1   -1    0    0  501    0  0.00000000000E+00  0.00000000000E+00 -0.18839221195E+04  0.18839221195E+04  0.50400001928E-02 0.  1.
    10030    2    1    2    0    0  0.00000000000E+00  0.00000000000E+00 -0.92631321984E+03  0.28415310192E+04  0.26863064516E+04 0.  0.
        3    1    3    3  502    0  0.34923029229E+03  0.91822219077E+03  0.50572169410E+03  0.11049200110E+04  0.10100000352E+00 0. -1.
       -3    1    3    3    0  502 -0.34923029229E+03 -0.91822219077E+03 -0.14320349139E+04  0.17366110082E+04  0.10100000352E+00 0.  1.
</event>
<event>
 5   0  0.1339844E-06  0.3405384E+04  0.7818609E-02  0.8136586E-01
        2   -1    0    0  501    0  0.00000000000E+00  0.00000000000E+00  0.19792103480E+04  0.19792103480E+04  0.25500000920E-02 0. -1.
       -2   -1    0    0    0  501  0.00000000000E+00  0.00000000000E+00 -0.14648066414E+04  0.14648066414E+04  0.25500000920E-02 0.  1.
    10030    2    1    2    0    0  0.00000000000E+00  0.00000000000E+00  0.51440370655E+03  0.34440169894E+04  0.34053842441E+04 0.  0.
        3    1    3    3  502    0  0.12166655687E+04 -0.11090352021E+04 -0.18238564662E+03  0.16563510255E+04  0.10100000352E+00 0.  1.
       -3    1    3    3    0  502 -0.12166655687E+04  0.11090352021E+04  0.69678935317E+03  0.17876659639E+04  0.10100000352E+00 0. -1.
</event>
<event>
 5   0  0.6134625E-07  0.3373133E+04  0.7818609E-02  0.8144532E-01
        1   -1    0    0  501    0  0.00000000000E+00  0.00000000000E+00  0.16724489176E+04  0.16724489176E+04  0.50400001928E-02 0. -1.
       -1   -1    0    0    0  501  0.00000000000E+00  0.00000000000E+00 -0.17008029733E+04  0.17008029733E+04  0.50400001928E-02 0.  1.
    10030    2    1    2    0    0  0.00000000000E+00  0.00000000000E+00 -0.28354055715E+02  0.33732518908E+04  0.33731327229E+04 0.  0.
        3    1    3    3  502    0 -0.76316643390E+03  0.47303409727E+03  0.14135714944E+04  0.16746249261E+04  0.10100000352E+00 0. -1.
       -3    1    3    3    0  502  0.76316643390E+03 -0.47303409727E+03 -0.14419255502E+04  0.16986269648E+04  0.10100000352E+00 0.  1.
</event>
<event>
 5   0  0.6218695E-07  0.3395816E+04  0.7818609E-02  0.8138934E-01
       -1   -1    0    0    0  501  0.00000000000E+00  0.00000000000E+00  0.18475853426E+04  0.18475853426E+04  0.50400001928E-02 0.  1.
        1   -1    0    0  501    0  0.00000000000E+00  0.00000000000E+00 -0.15603567991E+04  0.15603567991E+04  0.50400001928E-02 0. -1.
    10030    2    1    2    0    0  0.00000000000E+00  0.00000000000E+00  0.28722854356E+03  0.34079421417E+04  0.33958164563E+04 0.  0.
        2    1    3    3  502    0  0.15066409298E+04  0.77928224875E+03  0.21901334354E+03  0.17103258635E+04  0.25500000920E-02 0. -1.
       -2    1    3    3    0  502 -0.15066409298E+04 -0.77928224875E+03  0.68215200025E+02  0.16976162782E+04  0.25500000920E-02 0.  1.
</event>
<event>
 5   0  0.1911477E-06  0.2882966E+04  0.7818609E-02  0.8277964E-01
       -2   -1    0    0    0  501  0.00000000000E+00  0.00000000000E+00  0.77834595002E+03  0.77834595002E+03  0.25500000920E-02 0. -1.
        2   -1    0    0  501    0  0.00000000000E+00  0.00000000000E+00 -0.26696004161E+04  0.26696004161E+04  0.25500000920E-02 0.  1.
    10030    2    1    2    0    0  0.00000000000E+00  0.00000000000E+00 -0.18912544661E+04  0.34479463662E+04  0.28829656065E+04 0.  0.
        5    1    3    3  502    0  0.84066102401E+03  0.11024789816E+04 -0.47374126757E+03  0.14651360827E+04  0.46999998093E+01 0. -1.
       -5    1    3    3    0  502 -0.84066102401E+03 -0.11024789816E+04 -0.14175131985E+04  0.19828102835E+04  0.46999998093E+01 0.  1.
</event>
<event>
 5   0  0.6134625E-07  0.3581310E+04  0.7818609E-02  0.8094786E-01
        1   -1    0    0  501    0  0.00000000000E+00  0.00000000000E+00  0.12083653751E+04  0.12083653751E+04  0.50400001928E-02 0. -1.
       -1   -1    0    0    0  501  0.00000000000E+00  0.00000000000E+00 -0.26535390537E+04  0.26535390537E+04  0.50400001928E-02 0.  1.
    10030    2    1    2    0    0  0.00000000000E+00  0.00000000000E+00 -0.14451736786E+04  0.38619044288E+04  0.35813096566E+04 0.  0.
        1    1    3    3  502    0  0.31511650860E+03  0.56763704705E+02  0.11772451695E+04  0.12200109513E+04  0.50400001928E-02 0. -1.
       -1    1    3    3    0  502 -0.31511650860E+03 -0.56763704705E+02 -0.26224188480E+04  0.26418934776E+04  0.50400001928E-02 0.  1.
</event>
<event>
 5   0  0.1339844E-06  0.3328119E+04  0.7818609E-02  0.8155777E-01
       -2   -1    0    0    0  501  0.00000000000E+00  0.00000000000E+00  0.12681576431E+04  0.12681576431E+04  0.25500000920E-02 0. -1.
        2   -1    0    0  501    0  0.00000000000E+00  0.00000000000E+00 -0.21835560254E+04  0.21835560254E+04  0.25500000920E-02 0.  1.
    10030    2    1    2    0    0  0.00000000000E+00  0.00000000000E+00 -0.91539838228E+03  0.34517136685E+04  0.33281185452E+04 0.  0.
        3    1    3    3  502    0  0.52178612120E+03  0.14255002290E+04 -0.11647659745E+04  0.19133717477E+04  0.10100000352E+00 0.  1.
       -3    1    3    3    0  502 -0.52178612120E+03 -0.14255002290E+04  0.24936759218E+03  0.15383419209E+04  0.10100000352E+00 0. -1.
</event>
<event>
 5   0  0.1880301E-06  0.3417539E+04  0.7818609E-02  0.8133615E-01
        2   -1    0    0  501    0  0.00000000000E+00  0.00000000000E+00  0.27036609928E+04  0.27036609928E+04  0.25500000920E-02 0. -1.
       -2   -1    0    0    0  501  0.00000000000E+00  0.00000000000E+00 -0.10799772896E+04  0.10799772896E+04  0.25500000920E-02 0.  1.
    10030    2    1    2    0    0  0.00000000000E+00  0.00000000000E+00  0.16236837031E+04  0.37836382824E+04  0.34175385710E+04 0.  0.
        4    1    3    3  502    0 -0.12284709889E+04  0.46192155754E+03 -0.39962598654E+03  0.13719384235E+04  0.12699999809E+01 0.  1.
       -4    1    3    3    0  502  0.12284709889E+04 -0.46192155754E+03  0.20233096897E+04  0.24116998589E+04  0.12699999809E+01 0. -1.
</event>
<event>
 5   0  0.1339844E-06  0.3551206E+04  0.7818609E-02  0.8101761E-01
       -2   -1    0    0    0  501  0.00000000000E+00  0.00000000000E+00  0.14246399749E+04  0.14246399749E+04  0.25500000920E-02 0. -1.
        2   -1    0    0  501    0  0.00000000000E+00  0.00000000000E+00 -0.22130267955E+04  0.22130267955E+04  0.25500000920E-02 0.  1.
    10030    2    1    2    0    0  0.00000000000E+00  0.00000000000E+00 -0.78838682062E+03  0.36376667704E+04  0.35512062392E+04 0.  0.
        3    1    3    3  502    0 -0.22339652131E+02 -0.16058206873E+03 -0.22054288137E+04  0.22113800947E+04  0.10100000352E+00 0.  1.
       -3    1    3    3    0  502  0.22339652131E+02  0.16058206873E+03  0.14170419931E+04  0.14262866757E+04  0.10100000352E+00 0. -1.
</event>
<event>
 5   0  0.1911477E-06  0.3359848E+04  0.7818609E-02  0.8147832E-01
        2   -1    0    0  501    0  0.00000000000E+00  0.00000000000E+00  0.17543748412E+04  0.17543748412E+04  0.25500000920E-02 0. -1.
       -2   -1    0    0    0  501  0.00000000000E+00  0.00000000000E+00 -0.16086327847E+04  0.16086327847E+04  0.25500000920E-02 0.  1.
    10030    2    1    2    0    0  0.00000000000E+00  0.00000000000E+00  0.14574205645E+03  0.33630076259E+04  0.33598481431E+04 0.  0.
        5    1    3    3  502    0  0.14501046255E+04 -0.46635224302E+03  0.78194028871E+03  0.17122326199E+04  0.46999998093E+01 0. -1.
       -5    1    3    3    0  502 -0.14501046255E+04  0.46635224302E+03 -0.63619823226E+03  0.16507750060E+04  0.46999998093E+01 0.  1.
</event>
<event>
 5   0  0.1880301E-06  0.2452869E+04  0.7818609E-02  0.8419971E-01
       -2   -1    0    0    0  501  0.00000000000E+00  0.00000000000E+00  0.75344176519E+03  0.75344176519E+03  0.25500000920E-02 0.  1.
        2   -1    0    0  501    0  0.00000000000E+00  0.00000000000E+00 -0.19963603638E+04  0.19963603638E+04  0.25500000920E-02 0. -1.
    10030    2    1    2    0    0  0.00000000000E+00  0.00000000000E+00 -0.12429185986E+04  0.27498021290E+04  0.24528687502E+04 0.  0.
        4    1    3    3  502    0 -0.82524214159E+03  0.48112493175E+03 -0.14837498925E+04  0.17646589327E+04  0.12699999809E+01 0. -1.
       -4    1    3    3    0  502  0.82524214159E+03 -0.48112493175E+03  0.24083129391E+03  0.98514319631E+03  0.12699999809E+01 0.  1.
</event>
<event>
 5   0  0.6134625E-07  0.3266299E+04  0.7818609E-02  0.8171524E-01
        1   -1    0    0  501    0  0.00000000000E+00  0.00000000000E+00  0.19266112214E+04  0.19266112214E+04  0.50400001928E-02 0. -1.
       -1   -1    0    0    0  501  0.00000000000E+00  0.00000000000E+00 -0.13843878014E+04  0.13843878015E+04  0.50400001928E-02 0.  1.
    10030    2    1    2    0    0  0.00000000000E+00  0.00000000000E+00  0.54222341999E+03  0.33109990229E+04  0.32662988676E+04 0.  0.
        3    1    3    3  502    0  0.12472016245E+04  0.67860331563E+03 -0.54687809994E+03  0.15215419871E+04  0.10100000352E+00 0.  1.
       -3    1    3    3    0  502 -0.12472016245E+04 -0.67860331563E+03  0.10891015199E+04  0.17894570358E+04  0.10100000352E+00 0. -1.
</event>
<event>
 5   0  0.1911477E-06  0.3382428E+04  0.7818609E-02  0.8142233E-01
        2   -1    0    0  501    0  0.00000000000E+00  0.00000000000E+00  0.25880944739E+04  0.25880944739E+04  0.25500000920E-02 0.  1.
       -2   -1    0    0    0  501  0.00000000000E+00  0.00000000000E+00 -0.11051391589E+04  0.11051391589E+04  0.25500000920E-02 0. -1.
    10030    2    1    2    0    0  0.00000000000E+00  0.00000000000E+00  0.14829553150E+04  0.36932336328E+04  0.33824278559E+04 0.  0.
        5    1    3    3  502    0  0.94771338930E+03  0.79378786303E+03 -0.51865926554E+03  0.13406302113E+04  0.46999998093E+01 0. -1.
       -5    1    3    3    0  502 -0.94771338930E+03 -0.79378786303E+03  0.20016145806E+04  0.23526034215E+04  0.46999998093E+01 0.  1.
</event>
<event>
 5   0  0.6134625E-07  0.3367029E+04  0.7818609E-02  0.8146046E-01
       -1   -1    0    0    0  501  0.00000000000E+00  0.00000000000E+00  0.16921970833E+04  0.16921970833E+04  0.50400001928E-02 0. -1.
        1   -1    0    0  501    0  0.00000000000E+00  0.00000000000E+00 -0.16748760864E+04  0.16748760864E+04  0.50400001928E-02 0.  1.
    10030    2    1    2    0    0  0.00000000000E+00  0.00000000000E+00  0.17320996901E+02  0.33670731697E+04  0.33670286178E+04 0.  0.
        5    1    3    3  502    0 -0.32387286922E+03 -0.29128365975E+03  0.16348611364E+04  0.16919021340E+04  0.46999998093E+01 0. -1.
       -5    1    3    3    0  502  0.32387286922E+03  0.29128365975E+03 -0.16175401395E+04  0.16751710357E+04  0.46999998093E+01 0.  1.
</event>
<event>
 5   0  0.6134625E-07  0.3403538E+04  0.7818609E-02  0.8137039E-01
       -1   -1    0    0    0  501  0.00000000000E+00  0.00000000000E+00  0.12252486020E+04  0.12252486021E+04  0.50400001928E-02 0.  1.
        1   -1    0    0  501    0  0.00000000000E+00  0.00000000000E+00 -0.23636162621E+04  0.23636162621E+04  0.50400001928E-02 0. -1.
    10030    2    1    2    0    0  0.00000000000E+00  0.00000000000E+00 -0.11383676601E+04  0.35888648642E+04  0.34035378775E+04 0.  0.
        5    1    3    3  502    0  0.53072555538E+03 -0.13643289935E+04  0.34578111776E+03  0.15042107196E+04  0.46999998093E+01 0.  1.
       -5    1    3    3    0  502 -0.53072555538E+03  0.13643289935E+04 -0.14841487779E+04  0.20846541446E+04  0.46999998093E+01 0. -1.
</event>
<event>
 5   0  0.6134625E-07  0.3419354E+04  0.7818609E-02  0.8133173E-01
       -1   -1    0    0    0  501  0.00000000000E+00  0.00000000000E+00  0.14244218704E+04  0.14244218704E+04  0.50400001928E-02 0. -1.
        1   -1    0    0  501    0  0.00000000000E+00  0.00000000000E+00 -0.20520570905E+04  0.20520570905E+04  0.50400001928E-02 0.  1.
    10030    2    1    2    0    0  0.00000000000E+00  0.00000000000E+00 -0.62763522006E+03  0.34764789609E+04  0.34193537395E+04 0.  0.
        5    1    3    3  502    0 -0.36574317090E+03 -0.44357349804E+03 -0.19508246602E+04  0.20337808290E+04  0.46999998093E+01 0.  1.
       -5    1    3    3    0  502  0.36574317090E+03  0.44357349804E+03  0.13231894402E+04  0.14426981319E+04  0.46999998093E+01 0. -1.
</event>
<event>
 5   0  0.1911477E-06  0.3369894E+04  0.7818609E-02  0.8145335E-01
        2   -1    0    0  501    0  0.00000000000E+00  0.00000000000E+00  0.28190452255E+04  0.28190452255E+04  0.25500000920E-02 0.  1.
       -2   -1    0    0    0  501  0.00000000000E+00  0.00000000000E+00 -0.10070952171E+04  0.10070952171E+04  0.25500000920E-02 0. -1.
    10030    2    1    2    0    0  0.00000000000E+00  0.00000000000E+00  0.18119500085E+04  0.38261404426E+04  0.33698943386E+04 0.  0.
        5    1    3    3  502    0  0.18024628585E+03  0.71964894195E+03  0.26236204110E+04  0.27264976571E+04  0.46999998093E+01 0.  1.
       -5    1    3    3    0  502 -0.18024628585E+03 -0.71964894195E+03 -0.81167040255E+03  0.10996427854E+04  0.46999998093E+01 0. -1.
</event>
<event>
 5   0  0.6134625E-07  0.3201952E+04  0.7818609E-02  0.8188302E-01
        1   -1    0    0  501    0  0.00000000000E+00  0.00000000000E+00  0.28929803855E+04  0.28929803855E+04  0.50400001928E-02 0.  1.
       -1   -1    0    0    0  501  0.00000000000E+00  0.00000000000E+00 -0.88598042263E+03  0.88598042265E+03  0.50400001928E-02 0. -1.
    10030    2    1    2    0    0  0.00000000000E+00  0.00000000000E+00  0.20069999629E+04  0.37789608082E+04  0.32019518951E+04 0.  0.
        3    1    3    3  502    0 -0.78942379017E+03 -0.12117320092E+04  0.18140180714E+04  0.23199452486E+04  0.10100000352E+00 0.  1.
       -3    1    3    3    0  502  0.78942379017E+03  0.12117320092E+04  0.19298189147E+03  0.14590155596E+04  0.10100000352E+00 0. -1.
</event>
<event>
 5   0  0.6134625E-07  0.3376546E+04  0.7818609E-02  0.8143687E-01
        1   -1    0    0  501    0  0.00000000000E+00  0.00000000000E+00  0.26072752063E+04  0.26072752063E+04  0.50400001928E-02 0. -1.
       -1   -1    0    0    0  501  0.00000000000E+00  0.00000000000E+00 -0.10931970854E+04  0.10931970854E+04  0.50400001928E-02 0.  1.
    10030    2    1    2    0    0  0.00000000000E+00  0.00000000000E+00  0.15140781209E+04  0.37004722917E+04  0.33765459608E+04 0.  0.
        3    1    3    3  502    0 -0.66459563859E+03 -0.13835455168E+04 -0.13536047141E+02  0.15349491179E+04  0.10100000352E+00 0.  1.
       -3    1    3    3    0  502  0.66459563859E+03  0.13835455168E+04  0.15276141680E+04  0.21655231738E+04  0.10100000352E+00 0. -1.
</event>
<event>
 5   0  0.1911477E-06  0.3399369E+04  0.7818609E-02  0.8138061E-01
       -2   -1    0    0    0  501  0.00000000000E+00  0.00000000000E+00  0.12035706253E+04  0.12035706253E+04  0.25500000920E-02 0.  1.
        2   -1    0    0  501    0  0.00000000000E+00  0.00000000000E+00 -0.24002979285E+04  0.24002979285E+04  0.25500000920E-02 0. -1.
    10030    2    1    2    0    0  0.00000000000E+00  0.00000000000E+00 -0.11967273032E+04  0.36038685538E+04  0.33993693996E+04 0.  0.
        5    1    3    3  502    0 -0.19277472491E+03  0.16462635689E+04 -0.19948472008E+03  0.16694795825E+04  0.46999998093E+01 0.  1.
       -5    1    3    3    0  502  0.19277472491E+03 -0.16462635689E+04 -0.99724258311E+03  0.19343889713E+04  0.46999998093E+01 0. -1.
</event>
<event>
 5   0  0.6134625E-07  0.3503391E+04  0.7818609E-02  0.8112987E-01
       -1   -1    0    0    0  501  0.00000000000E+00  0.00000000000E+00  0.31855957144E+04  0.31855957144E+04  0.50400001928E-02 0.  1.
        1   -1    0    0  501    0  0.00000000000E+00  0.00000000000E+00 -0.96322240041E+03  0.96322240043E+03  0.50400001928E-02 0. -1.
    10030    2    1    2    0    0  0.00000000000E+00  0.00000000000E+00  0.22223733139E+04  0.41488181148E+04  0.35033910149E+04 0.  0.
        1    1    3    3  502    0 -0.10780116159E+04  0.34777024400E+03  0.26935331860E+04  0.29220154364E+04  0.50400001928E-02 0.  1.
       -1    1    3    3    0  502  0.10780116159E+04 -0.34777024400E+03 -0.47115987204E+03  0.12268026784E+04  0.50400001928E-02 0. -1.
</event>
<event>
 5   0  0.6134625E-07  0.3378179E+04  0.7818609E-02  0.8143283E-01
       -1   -1    0    0    0  501  0.00000000000E+00  0.00000000000E+00  0.13086273999E+04  0.13086273999E+04  0.50400001928E-02 0.  1.
        1   -1    0    0  501    0  0.00000000000E+00  0.00000000000E+00 -0.21801648726E+04  0.21801648726E+04  0.50400001928E-02 0. -1.
    10030    2    1    2    0    0  0.00000000000E+00  0.00000000000E+00 -0.87153747267E+03  0.34887922725E+04  0.33781790886E+04 0.  0.
        3    1    3    3  502    0 -0.87990569553E+03 -0.39410832294E+03  0.99653436973E+03  0.13865915633E+04  0.10100000352E+00 0.  1.
       -3    1    3    3    0  502  0.87990569553E+03  0.39410832294E+03 -0.18680718424E+04  0.21022007092E+04  0.10100000352E+00 0. -1.
</event>
<event>
 5   0  0.6146388E-07  0.3263698E+04  0.7818609E-02  0.8172194E-01
        1   -1    0    0  501    0  0.00000000000E+00  0.00000000000E+00  0.19168193342E+04  0.19168193342E+04  0.50400001928E-02 0. -1.
       -1   -1    0    0    0  501  0.00000000000E+00  0.00000000000E+00 -0.13892449503E+04  0.13892449503E+04  0.50400001928E-02 0.  1.
    10030    2    1    2    0    0  0.00000000000E+00  0.00000000000E+00  0.52757438387E+03  0.33060642845E+04  0.32636982585E+04 0.  0.
        4    1    3    3  502    0  0.53741425528E+03  0.98171541956E+03  0.14667850570E+04  0.18450038654E+04  0.12699999809E+01 0. -1.
       -4    1    3    3    0  502 -0.53741425528E+03 -0.98171541956E+03 -0.93921067318E+03  0.14610604191E+04  0.12699999809E+01 0.  1.
</event>
<event>
 5   0  0.6218695E-07  0.3434621E+04  0.7818609E-02  0.8129461E-01
        1   -1    0    0  501    0  0.00000000000E+00  0.00000000000E+00  0.14883473163E+04  0.14883473163E+04  0.50400001928E-02 0.  1.
       -1   -1    0    0    0  501  0.00000000000E+00  0.00000000000E+00 -0.19814966387E+04  0.19814966387E+04  0.50400001928E-02 0. -1.
    10030    2    1    2    0    0  0.00000000000E+00  0.00000000000E+00 -0.49314932241E+03  0.34698439550E+04  0.34346209133E+04 0.  0.
        2    1    3    3  502    0  0.43155097618E+03  0.65200221177E+03 -0.17912454476E+04  0.19544573115E+04  0.25500000920E-02 0. -1.
       -2    1    3    3    0  502 -0.43155097618E+03 -0.65200221177E+03  0.12980961251E+04  0.15153866435E+04  0.25500000920E-02 0.  1.
</event>
<event>
 5   0  0.1797075E-06  0.3107485E+04  0.7818609E-02  0.8213687E-01
        2   -1    0    0  501    0  0.00000000000E+00  0.00000000000E+00  0.23599871864E+04  0.23599871864E+04  0.25500000920E-02 0. -1.
       -2   -1    0    0    0  501  0.00000000000E+00  0.00000000000E+00 -0.10229356752E+04  0.10229356752E+04  0.25500000920E-02 0.  1.
    10030    2    1    2    0    0  0.00000000000E+00  0.00000000000E+00  0.13370515111E+04  0.33829228616E+04  0.31074845686E+04 0.  0.
        2    1    3    3  502    0 -0.10632699888E+04  0.76252965666E+03  0.15807234144E+04  0.20519944101E+04  0.25500000920E-02 0. -1.
       -2    1    3    3    0  502  0.10632699888E+04 -0.76252965666E+03 -0.24367190322E+03  0.13309284515E+04  0.25500000920E-02 0.  1.
</event>
<event>
 5   0  0.1339844E-06  0.3357100E+04  0.7818609E-02  0.8148516E-01
        2   -1    0    0  501    0  0.00000000000E+00  0.00000000000E+00  0.15305557052E+04  0.15305557052E+04  0.25500000920E-02 0. -1.
       -2   -1    0    0    0  501  0.00000000000E+00  0.00000000000E+00 -0.18408542186E+04  0.18408542186E+04  0.25500000920E-02 0.  1.
    10030    2    1    2    0    0  0.00000000000E+00  0.00000000000E+00 -0.31029851331E+03  0.33714099238E+04  0.33570998953E+04 0.  0.
        3    1    3    3  502    0  0.29255734712E+03  0.13023335033E+04  0.86696492229E+03  0.15916314089E+04  0.10100000352E+00 0. -1.
       -3    1    3    3    0  502 -0.29255734712E+03 -0.13023335033E+04 -0.11772634356E+04  0.17797785149E+04  0.10100000352E+00 0.  1.
</event>
<event>
 5   0  0.1880301E-06  0.3426957E+04  0.7818609E-02  0.8131322E-01
        2   -1    0    0  501    0  0.00000000000E+00  0.00000000000E+00  0.13732055536E+04  0.13732055536E+04  0.25500000920E-02 0. -1.
       -2   -1    0    0    0  501  0.00000000000E+00  0.00000000000E+00 -0.21380688082E+04  0.21380688082E+04  0.25500000920E-02 0.  1.
    10030    2    1    2    0    0  0.00000000000E+00  0.00000000000E+00 -0.76486325458E+03  0.35112743619E+04  0.34269566449E+04 0.  0.
        4    1    3    3  502    0  0.38933456816E+03  0.81147034201E+03 -0.18763667627E+04  0.20810620757E+04  0.12699999809E+01 0.  1.
       -4    1    3    3    0  502 -0.38933456816E+03 -0.81147034201E+03  0.11115035081E+04  0.14302122861E+04  0.12699999809E+01 0. -1.
</event>
<event>
 5   0  0.6134625E-07  0.3403102E+04  0.7818609E-02  0.8137146E-01
        1   -1    0    0  501    0  0.00000000000E+00  0.00000000000E+00  0.18297294506E+04  0.18297294506E+04  0.50400001928E-02 0.  1.
       -1   -1    0    0    0  501  0.00000000000E+00  0.00000000000E+00 -0.15823514974E+04  0.15823514974E+04  0.50400001928E-02 0. -1.
    10030    2    1    2    0    0  0.00000000000E+00  0.00000000000E+00  0.24737795320E+03  0.34120809481E+04  0.34031016066E+04 0.  0.
        3    1    3    3  502    0  0.16617008267E+04  0.67984965995E+02 -0.23698721580E+03  0.16798912298E+04  0.10100000352E+00 0. -1.
       -3    1    3    3    0  502 -0.16617008267E+04 -0.67984965995E+02  0.48436516900E+03  0.17321897183E+04  0.10100000352E+00 0.  1.
</event>
<event>
 5   0  0.1948507E-06  0.3417441E+04  0.7818609E-02  0.8133639E-01
        2   -1    0    0  501    0  0.00000000000E+00  0.00000000000E+00  0.19992516706E+04  0.19992516706E+04  0.25500000920E-02 0.  1.
       -2   -1    0    0    0  501  0.00000000000E+00  0.00000000000E+00 -0.14604090609E+04  0.14604090609E+04  0.25500000920E-02 0. -1.
    10030    2    1    2    0    0  0.00000000000E+00  0.00000000000E+00  0.53884260971E+03  0.34596607316E+04  0.34174407119E+04 0.  0.
        1    1    3    3  502    0  0.15901807742E+03  0.15065520446E+04 -0.53074818199E+03  0.16052038640E+04  0.50400001928E-02 0. -1.
       -1    1    3    3    0  502 -0.15901807742E+03 -0.15065520446E+04  0.10695907917E+04  0.18544568676E+04  0.50400001928E-02 0.  1.
</event>
<event>
 5   0  0.1339844E-06  0.3402317E+04  0.7818609E-02  0.8137338E-01
        2   -1    0    0  501    0  0.00000000000E+00  0.00000000000E+00  0.23122688596E+04  0.23122688596E+04  0.25500000920E-02 0.  1.
       -2   -1    0    0    0  501  0.00000000000E+00  0.00000000000E+00 -0.12515585002E+04  0.12515585002E+04  0.25500000920E-02 0. -1.
    10030    2    1    2    0    0  0.00000000000E+00  0.00000000000E+00  0.10607103594E+04  0.35638273599E+04  0.34023167084E+04 0.  0.
        3    1    3    3  502    0  0.54508115979E+03  0.14967441601E+03  0.22110232273E+04  0.22821348828E+04  0.10100000352E+00 0.  1.
       -3    1    3    3    0  502 -0.54508115979E+03 -0.14967441601E+03 -0.11503128678E+04  0.12816924770E+04  0.10100000352E+00 0. -1.
</event>
<event>
 5   0  0.6146388E-07  0.3362007E+04  0.7818609E-02  0.8147294E-01
       -1   -1    0    0    0  501  0.00000000000E+00  0.00000000000E+00  0.12465527915E+04  0.12465527915E+04  0.50400001928E-02 0.  1.
        1   -1    0    0  501    0  0.00000000000E+00  0.00000000000E+00 -0.22668700969E+04  0.22668700969E+04  0.50400001928E-02 0. -1.
    10030    2    1    2    0    0  0.00000000000E+00  0.00000000000E+00 -0.10203173055E+04  0.35134228884E+04  0.33620072857E+04 0.  0.
        4    1    3    3  502    0  0.15127783511E+04  0.41142288497E+03  0.12379621860E+03  0.15726074673E+04  0.12699999809E+01 0.  1.
       -4    1    3    3    0  502 -0.15127783511E+04 -0.41142288497E+03 -0.11441135241E+04  0.19408154210E+04  0.12699999809E+01 0. -1.
</event>
<event>
 5   0  0.6218695E-07  0.3347760E+04  0.7818609E-02  0.8150848E-01
        1   -1    0    0  501    0  0.00000000000E+00  0.00000000000E+00  0.25614616576E+04  0.25614616576E+04  0.50400001928E-02 0.  1.
       -1   -1    0    0    0  501  0.00000000000E+00  0.00000000000E+00 -0.10938575652E+04  0.10938575653E+04  0.50400001928E-02 0. -1.
    10030    2    1    2    0    0  0.00000000000E+00  0.00000000000E+00  0.14676040923E+04  0.36553192228E+04  0.33477599748E+04 0.  0.
        2    1    3    3  502    0  0.75665441803E+03 -0.25433601469E+02 -0.89623300792E+03  0.11732034695E+04  0.25500000920E-02 0. -1.
       -2    1    3    3    0  502 -0.75665441803E+03  0.25433601469E+02  0.23638371002E+04  0.24821157533E+04  0.25500000920E-02 0.  1.
</event>
<event>
 5   0  0.1911477E-06  0.2749967E+04  0.7818609E-02  0.8318972E-01
        2   -1    0    0  501    0  0.00000000000E+00  0.00000000000E+00  0.26462588469E+04  0.26462588469E+04  0.25500000920E-02 0.  1.
       -2   -1    0    0    0  501  0.00000000000E+00  0.00000000000E+00 -0.71443481006E+03  0.71443481007E+03  0.25500000920E-02 0. -1.
    10030    2    1    2    0    0  0.00000000000E+00  0.00000000000E+00  0.19318240368E+04  0.33606936569E+04  0.27499668628E+04 0.  0.
        5    1    3    3  502    0 -0.12906467318E+04  0.24358849217E+03  0.46881770174E+03  0.13946026198E+04  0.46999998093E+01 0. -1.
       -5    1    3    3    0  502  0.12906467318E+04 -0.24358849217E+03  0.14630063351E+04  0.19660910371E+04  0.46999998093E+01 0.  1.
</event>
<event>
 5   0  0.6134625E-07  0.3430463E+04  0.7818609E-02  0.8130470E-01
       -1   -1    0    0    0  501  0.00000000000E+00  0.00000000000E+00  0.17110458551E+04  0.17110458551E+04  0.50400001928E-02 0.  1.
        1   -1    0    0  501    0  0.00000000000E+00  0.00000000000E+00 -0.17194269412E+04  0.17194269413E+04  0.50400001928E-02 0. -1.
    10030    2    1    2    0    0  0.00000000000E+00  0.00000000000E+00 -0.83810861203E+01  0.34304727964E+04  0.34304625583E+04 0.  0.
        3    1    3    3  502    0 -0.10721057194E+04 -0.10100284607E+04  0.87470352135E+03  0.17130891470E+04  0.10100000352E+00 0. -1.
       -3    1    3    3    0  502  0.10721057194E+04  0.10100284607E+04 -0.88308460747E+03  0.17173836494E+04  0.10100000352E+00 0.  1.
</event>
<event>
 5   0  0.6218695E-07  0.3075496E+04  0.7818609E-02  0.8222495E-01
       -1   -1    0    0    0  501  0.00000000000E+00  0.00000000000E+00  0.17864944943E+04  0.17864944943E+04  0.50400001928E-02 0. -1.
        1   -1    0    0  501    0  0.00000000000E+00  0.00000000000E+00 -0.13236359379E+04  0.13236359379E+04  0.50400001928E-02 0.  1.
    10030    2    1    2    0    0  0.00000000000E+00  0.00000000000E+00  0.46285855638E+03  0.31101304322E+04  0.30754956125E+04 0.  0.
        2    1    3    3  502    0  0.12983875248E+04  0.57202766897E+02 -0.59976742083E+03  0.14313641327E+04  0.25500000920E-02 0.  1.
       -2    1    3    3    0  502 -0.12983875248E+04 -0.57202766897E+02  0.10626259772E+04  0.16787662996E+04  0.25500000920E-02 0. -1.
</event>
<event>
 5   0  0.1797075E-06  0.3218005E+04  0.7818609E-02  0.8184078E-01
        2   -1    0    0  501    0  0.00000000000E+00  0.00000000000E+00  0.17888349108E+04  0.17888349108E+04  0.25500000920E-02 0.  1.
       -2   -1    0    0    0  501  0.00000000000E+00  0.00000000000E+00 -0.14472489470E+04  0.14472489470E+04  0.25500000920E-02 0. -1.
    10030    2    1    2    0    0  0.00000000000E+00  0.00000000000E+00  0.34158596378E+03  0.32360838577E+04  0.32180052461E+04 0.  0.
        2    1    3    3  502    0  0.25086682936E+03 -0.11470695346E+04 -0.93547213307E+03  0.15012697276E+04  0.25500000920E-02 0. -1.
       -2    1    3    3    0  502 -0.25086682936E+03  0.11470695346E+04  0.12770580969E+04  0.17348141301E+04  0.25500000920E-02 0.  1.
</event>
<event>
 5   0  0.1797075E-06  0.3361455E+04  0.7818609E-02  0.8147432E-01
        2   -1    0    0  501    0  0.00000000000E+00  0.00000000000E+00  0.25254124426E+04  0.25254124426E+04  0.25500000920E-02 0. -1.
       -2   -1    0    0    0  501  0.00000000000E+00  0.00000000000E+00 -0.11185679368E+04  0.11185679368E+04  0.25500000920E-02 0.  1.
    10030    2    1    2    0    0  0.00000000000E+00  0.00000000000E+00  0.14068445057E+04  0.36439803794E+04  0.33614552715E+04 0.  0.
        2    1    3    3  502    0  0.55147174872E+03  0.93183477152E+02  0.24215761699E+04  0.24853240023E+04  0.25500000920E-02 0. -1.
       -2    1    3    3    0  502 -0.55147174872E+03 -0.93183477152E+02 -0.10147316641E+04  0.11586563771E+04  0.25500000920E-02 0.  1.
</event>
<event>
 5   0  0.1339844E-06  0.3302180E+04  0.7818609E-02  0.8162341E-01
       -2   -1    0    0    0  501  0.00000000000E+00  0.00000000000E+00  0.10676264064E+04  0.10676264064E+04  0.25500000920E-02 0. -1.
        2   -1    0    0  501    0  0.00000000000E+00  0.00000000000E+00 -0.25534199198E+04  0.25534199198E+04  0.25500000920E-02 0.  1.
    10030    2    1    2    0    0  0.00000000000E+00  0.00000000000E+00 -0.14857935135E+04  0.36210463262E+04  0.33021802089E+04 0.  0.
        3    1    3    3  502    0 -0.20003923963E+03  0.16377318093E+04 -0.67426434214E+03  0.17823618011E+04  0.10100000352E+00 0.  1.
       -3    1    3    3    0  502  0.20003923963E+03 -0.16377318093E+04 -0.81152917134E+03  0.18386845251E+04  0.10100000352E+00 0. -1.
</event>
<event>
 5   0  0.6134625E-07  0.2433653E+04  0.7818609E-02  0.8427011E-01
        1   -1    0    0  501    0  0.00000000000E+00  0.00000000000E+00  0.18949980640E+04  0.18949980641E+04  0.50400001928E-02 0. -1.
       -1   -1    0    0    0  501  0.00000000000E+00  0.00000000000E+00 -0.78135517686E+03  0.78135517688E+03  0.50400001928E-02 0.  1.
    10030    2    1    2    0    0  0.00000000000E+00  0.00000000000E+00  0.11136428872E+04  0.26763532409E+04  0.24336528491E+04 0.  0.
        5    1    3    3  502    0  0.11337412364E+04  0.42690365344E+02  0.10405172417E+04  0.15394446657E+04  0.46999998093E+01 0. -1.
       -5    1    3    3    0  502 -0.11337412364E+04 -0.42690365344E+02  0.73125645530E+02  0.11369085753E+04  0.46999998093E+01 0.  1.
</event>
<event>
 5   0  0.6146388E-07  0.3437509E+04  0.7818609E-02  0.8128761E-01
        1   -1    0    0  501    0  0.00000000000E+00  0.00000000000E+00  0.17146271502E+04  0.17146271502E+04  0.50400001928E-02 0. -1.
       -1   -1    0    0    0  501  0.00000000000E+00  0.00000000000E+00 -0.17228917071E+04  0.17228917071E+04  0.50400001928E-02 0.  1.
    10030    2    1    2    0    0  0.00000000000E+00  0.00000000000E+00 -0.82645569248E+01  0.34375188573E+04  0.34375089224E+04 0.  0.
        4    1    3    3  502    0 -0.10451494558E+04 -0.88272542213E+03 -0.10446033193E+04  0.17212609516E+04  0.12699999809E+01 0.  1.
       -4    1    3    3    0  502  0.10451494558E+04  0.88272542213E+03  0.10363387624E+04  0.17162579058E+04  0.12699999809E+01 0. -1.
</event>
<event>
 5   0  0.6218695E-07  0.3389215E+04  0.7818609E-02  0.8140558E-01
       -1   -1    0    0    0  501  0.00000000000E+00  0.00000000000E+00  0.18128914988E+04  0.18128914988E+04  0.50400001928E-02 0. -1.
        1   -1    0    0  501    0  0.00000000000E+00  0.00000000000E+00 -0.15840411283E+04  0.15840411283E+04  0.50400001928E-02 0.  1.
    10030    2    1    2    0    0  0.00000000000E+00  0.00000000000E+00  0.22885037048E+03  0.33969326271E+04  0.33892150686E+04 0.  0.
        2    1    3    3  502    0 -0.81941984273E+03 -0.10874109570E+04 -0.89672449661E+03  0.16303454514E+04  0.25500000920E-02 0.  1.
       -2    1    3    3    0  502  0.81941984273E+03  0.10874109570E+04  0.11255748671E+04  0.17665871757E+04  0.25500000920E-02 0. -1.
</event>
<event>
 5   0  0.6134625E-07  0.3181117E+04  0.7818609E-02  0.8193822E-01
        3   -1    0    0  501    0  0.00000000000E+00  0.00000000000E+00  0.18185684512E+04  0.18185684540E+04  0.10100000352E+00 0. -1.
       -3   -1    0    0    0  501  0.00000000000E+00  0.00000000000E+00 -0.13911364448E+04  0.13911364484E+04  0.10100000352E+00 0.  1.
    10030    2    1    2    0    0  0.00000000000E+00  0.00000000000E+00  0.42743200639E+03  0.32097049024E+04  0.31811173258E+04 0.  0.
        4    1    3    3  502    0 -0.70764357519E+03  0.12140713568E+04 -0.53806135983E+03  0.15047392893E+04  0.12699999809E+01 0.  1.
       -4    1    3    3    0  502  0.70764357519E+03 -0.12140713568E+04  0.96549336623E+03  0.17049656131E+04  0.12699999809E+01 0. -1.
</event>
<event>
 5   0  0.6218695E-07  0.3077559E+04  0.7818609E-02  0.8221924E-01
       -1   -1    0    0    0  501  0.00000000000E+00  0.00000000000E+00  0.15363829729E+04  0.15363829730E+04  0.50400001928E-02 0. -1.
        1   -1    0    0  501    0  0.00000000000E+00  0.00000000000E+00 -0.15411798864E+04  0.15411798864E+04  0.50400001928E-02 0.  1.
    10030    2    1    2    0    0  0.00000000000E+00  0.00000000000E+00 -0.47969134808E+01  0.30775628594E+04  0.30775591210E+04 0.  0.
        2    1    3    3  502    0 -0.57846956148E+03 -0.37355053175E+03 -0.13785089549E+04  0.15409263357E+04  0.25500000920E-02 0.  1.
       -2    1    3    3    0  502  0.57846956148E+03  0.37355053175E+03  0.13737120414E+04  0.15366365237E+04  0.25500000920E-02 0. -1.
</event>
<event>
 5   0  0.1339844E-06  0.3455168E+04  0.7818609E-02  0.8124498E-01
       -2   -1    0    0    0  501  0.00000000000E+00  0.00000000000E+00  0.19687161492E+04  0.19687161492E+04  0.25500000920E-02 0.  1.
        2   -1    0    0  501    0  0.00000000000E+00  0.00000000000E+00 -0.15159857624E+04  0.15159857624E+04  0.25500000920E-02 0. -1.
    10030    2    1    2    0    0  0.00000000000E+00  0.00000000000E+00  0.45273038683E+03  0.34847019116E+04  0.34551675227E+04 0.  0.
        3    1    3    3  502    0 -0.56355088443E+03  0.16261358179E+04  0.37811175420E+03  0.17620657782E+04  0.10100000352E+00 0. -1.
       -3    1    3    3    0  502  0.56355088443E+03 -0.16261358179E+04  0.74618632623E+02  0.17226361334E+04  0.10100000352E+00 0.  1.
</event>
<event>
 5   0  0.1797075E-06  0.3384439E+04  0.7818609E-02  0.8141736E-01
       -2   -1    0    0    0  501  0.00000000000E+00  0.00000000000E+00  0.19751562491E+04  0.19751562491E+04  0.25500000920E-02 0. -1.
        2   -1    0    0  501    0  0.00000000000E+00  0.00000000000E+00 -0.14498127727E+04  0.14498127727E+04  0.25500000920E-02 0.  1.
    10030    2    1    2    0    0  0.00000000000E+00  0.00000000000E+00  0.52534347644E+03  0.34249690218E+04  0.33844389538E+04 0.  0.
        2    1    3    3  502    0 -0.10097547892E+04  0.13536829402E+04  0.37140387498E+03  0.17291625358E+04  0.25500000920E-02 0. -1.
       -2    1    3    3    0  502  0.10097547892E+04 -0.13536829402E+04  0.15393960146E+03  0.16958064860E+04  0.25500000920E-02 0.  1.
</event>
<event>
 5   0  0.1797075E-06  0.2640627E+04  0.7818609E-02  0.8354531E-01
        2   -1    0    0  501    0  0.00000000000E+00  0.00000000000E+00  0.17823517348E+04  0.17823517348E+04  0.25500000920E-02 0.  1.
       -2   -1    0    0    0  501  0.00000000000E+00  0.00000000000E+00 -0.97804905314E+03  0.97804905315E+03  0.25500000920E-02 0. -1.
    10030    2    1    2    0    0  0.00000000000E+00  0.00000000000E+00  0.80430268168E+03  0.27604007880E+04  0.26406267639E+04 0.  0.
        2    1    3    3  502    0  0.78598490638E+03 -0.53004517320E+03 -0.55850226609E+03  0.11002931155E+04  0.25500000920E-02 0. -1.
       -2    1    3    3    0  502 -0.78598490638E+03  0.53004517320E+03  0.13628049478E+04  0.16601076725E+04  0.25500000920E-02 0.  1.
</event>
<event>
 5   0  0.6218695E-07  0.3144077E+04  0.7818609E-02  0.8203745E-01
       -1   -1    0    0    0  501  0.00000000000E+00  0.00000000000E+00  0.12395821499E+04  0.12395821499E+04  0.50400001928E-02 0. -1.
        1   -1    0    0  501    0  0.00000000000E+00  0.00000000000E+00 -0.19936593013E+04  0.19936593013E+04  0.50400001928E-02 0.  1.
    10030    2    1    2    0    0  0.00000000000E+00  0.00000000000E+00 -0.75407715137E+03  0.32332414512E+04  0.31440766421E+04 0.  0.
        2    1    3    3  502    0 -0.62462865335E+03 -0.14368090744E+04 -0.24405290048E+03  0.15856049599E+04  0.25500000920E-02 0. -1.
       -2    1    3    3    0  502  0.62462865335E+03  0.14368090744E+04 -0.51002425089E+03  0.16476364912E+04  0.25500000920E-02 0.  1.
</event>
<event>
 5   0  0.6134625E-07  0.3395585E+04  0.7818609E-02  0.8138991E-01
        1   -1    0    0  501    0  0.00000000000E+00  0.00000000000E+00  0.22755527697E+04  0.22755527697E+04  0.50400001928E-02 0.  1.
       -1   -1    0    0    0  501  0.00000000000E+00  0.00000000000E+00 -0.12667248088E+04  0.12667248088E+04  0.50400001928E-02 0. -1.
    10030    2    1    2    0    0  0.00000000000E+00  0.00000000000E+00  0.10088279610E+04  0.35422775785E+04  0.33955848669E+04 0.  0.
        5    1    3    3  502    0 -0.13628581549E+04 -0.32718576084E+03  0.15039530926E+04  0.20558039466E+04  0.46999998093E+01 0.  1.
       -5    1    3    3    0  502  0.13628581549E+04  0.32718576084E+03 -0.49512513161E+03  0.14864736319E+04  0.46999998093E+01 0. -1.
</event>
<event>
 5   0  0.6134625E-07  0.3354019E+04  0.7818609E-02  0.8149285E-01
       -3   -1    0    0    0  501  0.00000000000E+00  0.00000000000E+00  0.25232789729E+04  0.25232789749E+04  0.10100000352E+00 0.  1.
        3   -1    0    0  501    0  0.00000000000E+00  0.00000000000E+00 -0.11145659725E+04  0.11145659770E+04  0.10100000352E+00 0. -1.
    10030    2    1    2    0    0  0.00000000000E+00  0.00000000000E+00  0.14087130004E+04  0.36378449519E+04  0.33540190186E+04 0.  0.
        5    1    3    3  502    0  0.48960722104E+03  0.53094068553E+03  0.23459483803E+04  0.24546097725E+04  0.46999998093E+01 0.  1.
       -5    1    3    3    0  502 -0.48960722104E+03 -0.53094068553E+03 -0.93723537989E+03  0.11832351794E+04  0.46999998093E+01 0. -1.
</event>
<event>
 5   0  0.1948507E-06  0.3468484E+04  0.7818609E-02  0.8121300E-01
       -2   -1    0    0    0  501  0.00000000000E+00  0.00000000000E+00  0.13924586751E+04  0.13924586751E+04  0.25500000920E-02 0. -1.
        2   -1    0    0  501    0  0.00000000000E+00  0.00000000000E+00 -0.21599167031E+04  0.21599167031E+04  0.25500000920E-02 0.  1.
    10030    2    1    2    0    0  0.00000000000E+00  0.00000000000E+00 -0.76745802797E+03  0.35523753782E+04  0.34684836749E+04 0.  0.
        1    1    3    3  502    0 -0.11695697402E+04 -0.34012606928E+03 -0.16480982117E+04  0.20493430254E+04  0.50400001928E-02 0.  1.
       -1    1    3    3    0  502  0.11695697402E+04  0.34012606928E+03  0.88064018377E+03  0.15030323528E+04  0.50400001928E-02 0. -1.
</event>
<event>
 5   0  0.1339844E-06  0.3420172E+04  0.7818609E-02  0.8132973E-01
        2   -1    0    0  501    0  0.00000000000E+00  0.00000000000E+00  0.20116475894E+04  0.20116475894E+04  0.25500000920E-02 0.  1.
       -2   -1    0    0    0  501  0.00000000000E+00  0.00000000000E+00 -0.14537312201E+04  0.14537312201E+04  0.25500000920E-02 0. -1.
    10030    2    1    2    0    0  0.00000000000E+00  0.00000000000E+00  0.55791636929E+03  0.34653788095E+04  0.34201724544E+04 0.  0.
        3    1    3    3  502    0 -0.11477444980E+04  0.12102800469E+04 -0.10325411317E+03  0.16711542857E+04  0.10100000352E+00 0. -1.
       -3    1    3    3    0  502  0.11477444980E+04 -0.12102800469E+04  0.66117048246E+03  0.17942245238E+04  0.10100000352E+00 0.  1.
</event>
<event>
 5   0  0.1911477E-06  0.3374643E+04  0.7818609E-02  0.8144158E-01
       -2   -1    0    0    0  501  0.00000000000E+00  0.00000000000E+00  0.14417841859E+04  0.14417841859E+04  0.25500000920E-02 0. -1.
        2   -1    0    0  501    0  0.00000000000E+00  0.00000000000E+00 -0.19746741810E+04  0.19746741810E+04  0.25500000920E-02 0.  1.
    10030    2    1    2    0    0  0.00000000000E+00  0.00000000000E+00 -0.53288999509E+03  0.34164583669E+04  0.33746430961E+04 0.  0.
        5    1    3    3  502    0 -0.63657875802E+03  0.12474126369E+04  0.68636562363E+03  0.15596123432E+04  0.46999998093E+01 0. -1.
       -5    1    3    3    0  502  0.63657875802E+03 -0.12474126369E+04 -0.12192556187E+04  0.18568460237E+04  0.46999998093E+01 0.  1.
</event>
<event>
 5   0  0.1339844E-06  0.3405700E+04  0.7818609E-02  0.8136509E-01
        2   -1    0    0  501    0  0.00000000000E+00  0.00000000000E+00  0.13257363384E+04  0.13257363384E+04  0.25500000920E-02 0.  1.
       -2   -1    0    0    0  501  0.00000000000E+00  0.00000000000E+00 -0.21872354158E+04  0.21872354158E+04  0.25500000920E-02 0. -1.
    10030    2    1    2    0    0  0.00000000000E+00  0.00000000000E+00 -0.86149907742E+03  0.35129717543E+04  0.34056996177E+04 0.  0.
        3    1    3    3  502    0  0.89894768693E+03  0.12091288616E+04  0.38771516906E+03  0.15557707448E+04  0.10100000352E+00 0.  1.
       -3    1    3    3    0  502 -0.89894768693E+03 -0.12091288616E+04 -0.12492142465E+04  0.19572010095E+04  0.10100000352E+00 0. -1.
</event>
<event>
 5   0  0.1797075E-06  0.3391060E+04  0.7818609E-02  0.8140104E-01
       -2   -1    0    0    0  501  0.00000000000E+00  0.00000000000E+00  0.17513836855E+04  0.17513836855E+04  0.25500000920E-02 0.  1.
        2   -1    0    0  501    0  0.00000000000E+00  0.00000000000E+00 -0.16414572671E+04  0.16414572671E+04  0.25500000920E-02 0. -1.
    10030    2    1    2    0    0  0.00000000000E+00  0.00000000000E+00  0.10992641847E+03  0.33928409526E+04  0.33910597034E+04 0.  0.
        2    1    3    3  502    0 -0.51387163399E+03 -0.43756077032E+03  0.16111895005E+04  0.17468414612E+04  0.25500000920E-02 0.  1.
       -2    1    3    3    0  502  0.51387163399E+03  0.43756077032E+03 -0.15012630821E+04  0.16459994914E+04  0.25500000920E-02 0. -1.
</event>
<event>
 5   0  0.1339844E-06  0.3373934E+04  0.7818609E-02  0.8144334E-01
       -2   -1    0    0    0  501  0.00000000000E+00  0.00000000000E+00  0.13737657458E+04  0.13737657458E+04  0.25500000920E-02 0.  1.
        2   -1    0    0  501    0  0.00000000000E+00  0.00000000000E+00 -0.20715736452E+04  0.20715736452E+04  0.25500000920E-02 0. -1.
    10030    2    1    2    0    0  0.00000000000E+00  0.00000000000E+00 -0.69780789943E+03  0.34453393910E+04  0.33739335581E+04 0.  0.
        3    1    3    3  502    0 -0.15200140852E+04 -0.24183101950E+02 -0.10957018081E+04  0.18739237189E+04  0.10100000352E+00 0. -1.
       -3    1    3    3    0  502  0.15200140852E+04  0.24183101950E+02  0.39789390862E+03  0.15714156721E+04  0.10100000352E+00 0.  1.
</event>
<event>
 5   0  0.6134625E-07  0.3506232E+04  0.7818609E-02  0.8112315E-01
        1   -1    0    0  501    0  0.00000000000E+00  0.00000000000E+00  0.25517538391E+04  0.25517538391E+04  0.50400001928E-02 0. -1.
       -1   -1    0    0    0  501  0.00000000000E+00  0.00000000000E+00 -0.12044327900E+04  0.12044327900E+04  0.50400001928E-02 0.  1.
    10030    2    1    2    0    0  0.00000000000E+00  0.00000000000E+00  0.13473210491E+04  0.37561866291E+04  0.35062321633E+04 0.  0.
        3    1    3    3  502    0 -0.45905572712E+03  0.15330451378E+04  0.14405538654E+04  0.21531732407E+04  0.10100000352E+00 0.  1.
       -3    1    3    3    0  502  0.45905572712E+03 -0.15330451378E+04 -0.93232816265E+02  0.16030133884E+04  0.10100000352E+00 0. -1.
</event>
<event>
 5   0  0.6134625E-07  0.3424624E+04  0.7818609E-02  0.8131889E-01
       -1   -1    0    0    0  501  0.00000000000E+00  0.00000000000E+00  0.14699344644E+04  0.14699344644E+04  0.50400001928E-02 0. -1.
        1   -1    0    0  501    0  0.00000000000E+00  0.00000000000E+00 -0.19946548468E+04  0.19946548469E+04  0.50400001928E-02 0.  1.
    10030    2    1    2    0    0  0.00000000000E+00  0.00000000000E+00 -0.52472038242E+03  0.34645893113E+04  0.34246237189E+04 0.  0.
        5    1    3    3  502    0  0.14919583968E+04  0.80667426908E+03 -0.50032120624E+03  0.17683344236E+04  0.46999998093E+01 0.  1.
       -5    1    3    3    0  502 -0.14919583968E+04 -0.80667426908E+03 -0.24399176183E+02  0.16962548877E+04  0.46999998093E+01 0. -1.
</event>
<event>
 5   0  0.1948507E-06  0.3457356E+04  0.7818609E-02  0.8123971E-01
        2   -1    0    0  501    0  0.00000000000E+00  0.00000000000E+00  0.13765042016E+04  0.13765042016E+04  0.25500000920E-02 0. -1.
       -2   -1    0    0    0  501  0.00000000000E+00  0.00000000000E+00 -0.21709537998E+04  0.21709537998E+04  0.25500000920E-02 0.  1.
    10030    2    1    2    0    0  0.00000000000E+00  0.00000000000E+00 -0.79444959813E+03  0.35474580014E+04  0.34573556525E+04 0.  0.
        1    1    3    3  502    0 -0.96075998154E+03  0.91833403074E+03  0.73699271764E+03  0.15197221457E+04  0.50400001928E-02 0. -1.
       -1    1    3    3    0  502  0.96075998154E+03 -0.91833403074E+03 -0.15314423158E+04  0.20277358558E+04  0.50400001928E-02 0.  1.
</event>
<event>
 5   0  0.6218695E-07  0.3374998E+04  0.7818609E-02  0.8144070E-01
       -1   -1    0    0    0  501  0.00000000000E+00  0.00000000000E+00  0.13598933397E+04  0.13598933397E+04  0.50400001928E-02 0. -1.
        1   -1    0    0  501    0  0.00000000000E+00  0.00000000000E+00 -0.20940268647E+04  0.20940268647E+04  0.50400001928E-02 0.  1.
    10030    2    1    2    0    0  0.00000000000E+00  0.00000000000E+00 -0.73413352506E+03  0.34539202044E+04  0.33749981846E+04 0.  0.
        2    1    3    3  502    0 -0.76443142242E+03  0.86887801418E+03 -0.16239346925E+04  0.19941083944E+04  0.25500000920E-02 0.  1.
       -2    1    3    3    0  502  0.76443142242E+03 -0.86887801418E+03  0.88980116743E+03  0.14598118100E+04  0.25500000920E-02 0. -1.
</event>
<event>
 5   0  0.1797075E-06  0.3411566E+04  0.7818609E-02  0.8135073E-01
       -2   -1    0    0    0  501  0.00000000000E+00  0.00000000000E+00  0.26068182435E+04  0.26068182435E+04  0.25500000920E-02 0. -1.
        2   -1    0    0  501    0  0.00000000000E+00  0.00000000000E+00 -0.11161868309E+04  0.11161868309E+04  0.25500000920E-02 0.  1.
    10030    2    1    2    0    0  0.00000000000E+00  0.00000000000E+00  0.14906314126E+04  0.37230050745E+04  0.34115663230E+04 0.  0.
        2    1    3    3  502    0 -0.79005633499E+03  0.15111684107E+04  0.69803358556E+03  0.18425715358E+04  0.25500000920E-02 0.  1.
       -2    1    3    3    0  502  0.79005633499E+03 -0.15111684107E+04  0.79259782701E+03  0.18804335387E+04  0.25500000920E-02 0. -1.
</event>
<event>
 5   0  0.6134625E-07  0.3316994E+04  0.7818609E-02  0.8158585E-01
       -1   -1    0    0    0  501  0.00000000000E+00  0.00000000000E+00  0.20634652062E+04  0.20634652062E+04  0.50400001928E-02 0. -1.
        1   -1    0    0  501    0  0.00000000000E+00  0.00000000000E+00 -0.13330064798E+04  0.13330064798E+04  0.50400001928E-02 0.  1.
    10030    2    1    2    0    0  0.00000000000E+00  0.00000000000E+00  0.73045872634E+03  0.33964716860E+04  0.33169941156E+04 0.  0.
        1    1    3    3  502    0 -0.36685689951E+03  0.16145688205E+04  0.26703569437E+03  0.16771179216E+04  0.50400001928E-02 0. -1.
       -1    1    3    3    0  502  0.36685689951E+03 -0.16145688205E+04  0.46342303197E+03  0.17193537645E+04  0.50400001928E-02 0.  1.
</event>
<event>
 5   0  0.1880301E-06  0.2901099E+04  0.7818609E-02  0.8272551E-01
        2   -1    0    0  501    0  0.00000000000E+00  0.00000000000E+00  0.13316948200E+04  0.13316948200E+04  0.25500000920E-02 0.  1.
       -2   -1    0    0    0  501  0.00000000000E+00  0.00000000000E+00 -0.15800121744E+04  0.15800121744E+04  0.25500000920E-02 0. -1.
    10030    2    1    2    0    0  0.00000000000E+00  0.00000000000E+00 -0.24831735441E+03  0.29117069944E+04  0.29010991215E+04 0.  0.
        4    1    3    3  502    0 -0.28615519100E+03 -0.94497793903E+03 -0.11906939251E+04  0.15468101806E+04  0.12699999809E+01 0. -1.
       -4    1    3    3    0  502  0.28615519100E+03  0.94497793903E+03  0.94237657067E+03  0.13648968138E+04  0.12699999809E+01 0.  1.
</event>
<event>
 5   0  0.6218695E-07  0.3373166E+04  0.7818609E-02  0.8144524E-01
       -1   -1    0    0    0  501  0.00000000000E+00  0.00000000000E+00  0.10745639688E+04  0.10745639688E+04  0.50400001928E-02 0.  1.
        1   -1    0    0  501    0  0.00000000000E+00  0.00000000000E+00 -0.26471787227E+04  0.26471787227E+04  0.50400001928E-02 0. -1.
    10030    2    1    2    0    0  0.00000000000E+00  0.00000000000E+00 -0.15726147539E+04  0.37217426915E+04  0.33731663905E+04 0.  0.
        2    1    3    3  502    0  0.16615439872E+04 -0.28313949983E+03 -0.71949867191E+03  0.18326414643E+04  0.25500000920E-02 0.  1.
       -2    1    3    3    0  502 -0.16615439872E+04  0.28313949983E+03 -0.85311608199E+03  0.18891012273E+04  0.25500000920E-02 0. -1.
</event>
<event>
 5   0  0.1911477E-06  0.3441616E+04  0.7818609E-02  0.8127767E-01
        2   -1    0    0  501    0  0.00000000000E+00  0.00000000000E+00  0.26227472339E+04  0.26227472339E+04  0.25500000920E-02 0.  1.
       -2   -1    0    0    0  501  0.00000000000E+00  0.00000000000E+00 -0.11290376691E+04  0.11290376691E+04  0.25500000920E-02 0. -1.
    10030    2    1    2    0    0  0.00000000000E+00  0.00000000000E+00  0.14937095648E+04  0.37517849030E+04  0.34416161457E+04 0.  0.
        5    1    3    3  502    0 -0.29911598285E+03  0.15769270361E+04  0.14232487247E+04  0.21451872344E+04  0.46999998093E+01 0.  1.
       -5    1    3    3    0  502  0.29911598285E+03 -0.15769270361E+04  0.70460840156E+02  0.16065976685E+04  0.46999998093E+01 0. -1.
</event>
<event>
 5   0  0.6218695E-07  0.3246316E+04  0.7818609E-02  0.8176691E-01
       -1   -1    0    0    0  501  0.00000000000E+00  0.00000000000E+00  0.19589457165E+04  0.19589457165E+04  0.50400001928E-02 0. -1.
        1   -1    0    0  501    0  0.00000000000E+00  0.00000000000E+00 -0.13449282338E+04  0.13449282338E+04  0.50400001928E-02 0.  1.
    10030    2    1    2    0    0  0.00000000000E+00  0.00000000000E+00  0.61401748264E+03  0.33038739503E+04  0.32463156979E+04 0.  0.
        2    1    3    3  502    0 -0.10777231016E+04  0.22871258196E+03 -0.90611764843E+03  0.14264801862E+04  0.25500000920E-02 0.  1.
       -2    1    3    3    0  502  0.10777231016E+04 -0.22871258196E+03  0.15201351311E+04  0.18773937641E+04  0.25500000920E-02 0. -1.
</event>
<event>
 5   0  0.6134625E-07  0.3389736E+04  0.7818609E-02  0.8140430E-01
        1   -1    0    0  501    0  0.00000000000E+00  0.00000000000E+00  0.18469219067E+04  0.18469219067E+04  0.50400001928E-02 0.  1.
       -1   -1    0    0    0  501  0.00000000000E+00  0.00000000000E+00 -0.15553325790E+04  0.15553325790E+04  0.50400001928E-02 0. -1.
    10030    2    1    2    0    0  0.00000000000E+00  0.00000000000E+00  0.29158932766E+03  0.34022544857E+04  0.33897361622E+04 0.  0.
        3    1    3    3  502    0 -0.79340717397E+03 -0.13542385066E+04  0.78778242013E+03  0.17561486350E+04  0.10100000352E+00 0.  1.
       -3    1    3    3    0  502  0.79340717397E+03  0.13542385066E+04 -0.49619309247E+03  0.16461058507E+04  0.10100000352E+00 0. -1.
</event>
<event>
 5   0  0.1948507E-06  0.3390652E+04  0.7818609E-02  0.8140204E-01
       -2   -1    0    0    0  501  0.00000000000E+00  0.00000000000E+00  0.13662517075E+04  0.13662517075E+04  0.25500000920E-02 0.  1.
        2   -1    0    0  501    0  0.00000000000E+00  0.00000000000E+00 -0.21036610245E+04  0.21036610245E+04  0.25500000920E-02 0. -1.
    10030    2    1    2    0    0  0.00000000000E+00  0.00000000000E+00 -0.73740931694E+03  0.34699127320E+04  0.33906521300E+04 0.  0.
        1    1    3    3  502    0 -0.77245153202E+03  0.40889687690E+03 -0.18553333945E+04  0.20508876200E+04  0.50400001928E-02 0. -1.
       -1    1    3    3    0  502  0.77245153202E+03 -0.40889687690E+03  0.11179240775E+04  0.14190251120E+04  0.50400001928E-02 0.  1.
</event>
<event>
 5   0  0.6134625E-07  0.3423218E+04  0.7818609E-02  0.8132231E-01
        1   -1    0    0  501    0  0.00000000000E+00  0.00000000000E+00  0.20633038707E+04  0.20633038707E+04  0.50400001928E-02 0. -1.
       -1   -1    0    0    0  501  0.00000000000E+00  0.00000000000E+00 -0.14198613021E+04  0.14198613021E+04  0.50400001928E-02 0.  1.
    10030    2    1    2    0    0  0.00000000000E+00  0.00000000000E+00  0.64344256861E+03  0.34831651728E+04  0.34232179717E+04 0.  0.
        3    1    3    3  502    0 -0.12273786555E+04 -0.11840719044E+04  0.46959581441E+03  0.17688993408E+04  0.10100000352E+00 0.  1.
       -3    1    3    3    0  502  0.12273786555E+04  0.11840719044E+04  0.17384675420E+03  0.17142658320E+04  0.10100000352E+00 0. -1.
</event>
<event>
 5   0  0.1948507E-06  0.3393601E+04  0.7818609E-02  0.8139479E-01
        2   -1    0    0  501    0  0.00000000000E+00  0.00000000000E+00  0.27942522734E+04  0.27942522734E+04  0.25500000920E-02 0. -1.
       -2   -1    0    0    0  501  0.00000000000E+00  0.00000000000E+00 -0.10303766466E+04  0.10303766466E+04  0.25500000920E-02 0.  1.
    10030    2    1    2    0    0  0.00000000000E+00  0.00000000000E+00  0.17638756268E+04  0.38246289200E+04  0.33936012065E+04 0.  0.
        1    1    3    3  502    0 -0.52936178475E+03 -0.13429495529E+04 -0.12318677282E+03  0.14487623621E+04  0.50400001928E-02 0.  1.
       -1    1    3    3    0  502  0.52936178475E+03  0.13429495529E+04  0.18870623996E+04  0.23758665579E+04  0.50400001928E-02 0. -1.
</event>
<event>
 5   0  0.6134625E-07  0.3408634E+04  0.7818609E-02  0.8135791E-01
       -1   -1    0    0    0  501  0.00000000000E+00  0.00000000000E+00  0.16287574625E+04  0.16287574626E+04  0.50400001928E-02 0.  1.
        1   -1    0    0  501    0  0.00000000000E+00  0.00000000000E+00 -0.17833816128E+04  0.17833816128E+04  0.50400001928E-02 0. -1.
    10030    2    1    2    0    0  0.00000000000E+00  0.00000000000E+00 -0.15462415027E+03  0.34121390754E+04  0.34086338087E+04 0.  0.
        1    1    3    3  502    0 -0.31851982611E+03 -0.23217547279E+03 -0.17371293072E+04  0.17812856480E+04  0.50400001928E-02 0. -1.
       -1    1    3    3    0  502  0.31851982611E+03  0.23217547279E+03  0.15825051569E+04  0.16308534274E+04  0.50400001928E-02 0.  1.
</event>
<event>
 5   0  0.6134625E-07  0.3401509E+04  0.7818609E-02  0.8137536E-01
       -1   -1    0    0    0  501  0.00000000000E+00  0.00000000000E+00  0.17395895193E+04  0.17395895193E+04  0.50400001928E-02 0.  1.
        1   -1    0    0  501    0  0.00000000000E+00  0.00000000000E+00 -0.16627865924E+04  0.16627865924E+04  0.50400001928E-02 0. -1.
    10030    2    1    2    0    0  0.00000000000E+00  0.00000000000E+00  0.76802926913E+02  0.34023761117E+04  0.34015091527E+04 0.  0.
        3    1    3    3  502    0  0.18046472811E+03 -0.68721852578E+02 -0.16517853810E+04  0.16630349263E+04  0.10100000352E+00 0. -1.
       -3    1    3    3    0  502 -0.18046472811E+03  0.68721852578E+02  0.17285883079E+04  0.17393411855E+04  0.10100000352E+00 0.  1.
</event>
<event>
 5   0  0.1880301E-06  0.3383273E+04  0.7818609E-02  0.8142024E-01
        2   -1    0    0  501    0  0.00000000000E+00  0.00000000000E+00  0.26806690750E+04  0.26806690750E+04  0.25500000920E-02 0. -1.
       -2   -1    0    0    0  501  0.00000000000E+00  0.00000000000E+00 -0.10675072996E+04  0.10675072996E+04  0.25500000920E-02 0.  1.
    10030    2    1    2    0    0  0.00000000000E+00  0.00000000000E+00  0.16131617754E+04  0.37481763747E+04  0.33832728566E+04 0.  0.
        4    1    3    3  502    0 -0.10624727905E+02 -0.13813227650E+04 -0.27519118504E+03  0.14085088808E+04  0.12699999809E+01 0.  1.
       -4    1    3    3    0  502  0.10624727905E+02  0.13813227650E+04  0.18883529604E+04  0.23396674939E+04  0.12699999809E+01 0. -1.
</event>
<event>
 5   0  0.1797075E-06  0.3402193E+04  0.7818609E-02  0.8137368E-01
       -2   -1    0    0    0  501  0.00000000000E+00  0.00000000000E+00  0.10082142545E+04  0.10082142545E+04  0.25500000920E-02 0. -1.
        2   -1    0    0  501    0  0.00000000000E+00  0.00000000000E+00 -0.28701524377E+04  0.28701524377E+04  0.25500000920E-02 0.  1.
    10030    2    1    2    0    0  0.00000000000E+00  0.00000000000E+00 -0.18619381832E+04  0.38783666922E+04  0.34021925873E+04 0.  0.
        2    1    3    3  502    0  0.12951857399E+04  0.89075432157E+03 -0.18974965307E+03  0.15833364435E+04  0.25500000920E-02 0.  1.
       -2    1    3    3    0  502 -0.12951857399E+04 -0.89075432157E+03 -0.16721885302E+04  0.22950302488E+04  0.25500000920E-02 0. -1.
</event>
<event>
 5   0  0.6146388E-07  0.3434040E+04  0.7818609E-02  0.8129602E-01
       -1   -1    0    0    0  501  0.00000000000E+00  0.00000000000E+00  0.13925440437E+04  0.13925440437E+04  0.50400001928E-02 0.  1.
        1   -1    0    0  501    0  0.00000000000E+00  0.00000000000E+00 -0.21171024254E+04  0.21171024254E+04  0.50400001928E-02 0. -1.
    10030    2    1    2    0    0  0.00000000000E+00  0.00000000000E+00 -0.72455838170E+03  0.35096464692E+04  0.34340404031E+04 0.  0.
        4    1    3    3  502    0 -0.11894103474E+04  0.84311874158E+03 -0.12892266422E+04  0.19461893882E+04  0.12699999809E+01 0. -1.
       -4    1    3    3    0  502  0.11894103474E+04 -0.84311874158E+03  0.56466826049E+03  0.15634570810E+04  0.12699999809E+01 0.  1.
</event>
<event>
 5   0  0.6134625E-07  0.3462750E+04  0.7818609E-02  0.8122675E-01
       -1   -1    0    0    0  501  0.00000000000E+00  0.00000000000E+00  0.12981119884E+04  0.12981119884E+04  0.50400001928E-02 0.  1.
        1   -1    0    0  501    0  0.00000000000E+00  0.00000000000E+00 -0.23092456635E+04  0.23092456636E+04  0.50400001928E-02 0. -1.
    10030    2    1    2    0    0  0.00000000000E+00  0.00000000000E+00 -0.10111336752E+04  0.36073576519E+04  0.34627500516E+04 0.  0.
        5    1    3    3  502    0  0.86590585009E+03  0.14992813060E+04 -0.50569059762E+03  0.18037135156E+04  0.46999998093E+01 0.  1.
       -5    1    3    3    0  502 -0.86590585009E+03 -0.14992813060E+04 -0.50544307757E+03  0.18036441363E+04  0.46999998093E+01 0. -1.
</event>
<event>
 5   0  0.1339844E-06  0.3348535E+04  0.7818609E-02  0.8150654E-01
        2   -1    0    0  501    0  0.00000000000E+00  0.00000000000E+00  0.18411545206E+04  0.18411545206E+04  0.25500000920E-02 0. -1.
       -2   -1    0    0    0  501  0.00000000000E+00  0.00000000000E+00 -0.15225073152E+04  0.15225073153E+04  0.25500000920E-02 0.  1.
    10030    2    1    2    0    0  0.00000000000E+00  0.00000000000E+00  0.31864720535E+03  0.33636618358E+04  0.33485347399E+04 0.  0.
        3    1    3    3  502    0  0.11974996557E+04  0.47862324053E+03 -0.91324788010E+03  0.15802238236E+04  0.10100000352E+00 0.  1.
       -3    1    3    3    0  502 -0.11974996557E+04 -0.47862324053E+03  0.12318950854E+04  0.17834380123E+04  0.10100000352E+00 0. -1.
</event>
<event>
 5   0  0.6146388E-07  0.3410410E+04  0.7818609E-02  0.8135356E-01
       -1   -1    0    0    0  501  0.00000000000E+00  0.00000000000E+00  0.14420473109E+04  0.14420473109E+04  0.50400001928E-02 0.  1.
        1   -1    0    0  501    0  0.00000000000E+00  0.00000000000E+00 -0.20163865749E+04  0.20163865749E+04  0.50400001928E-02 0. -1.
    10030    2    1    2    0    0  0.00000000000E+00  0.00000000000E+00 -0.57433926399E+03  0.34584338859E+04  0.34104104376E+04 0.  0.
        4    1    3    3  502    0  0.82445348918E+03 -0.12227022321E+04 -0.11553790582E+04  0.18733997665E+04  0.12699999809E+01 0. -1.
       -4    1    3    3    0  502 -0.82445348918E+03  0.12227022321E+04  0.58103979420E+03  0.15850341194E+04  0.12699999809E+01 0.  1.
</event>
<event>
 5   0  0.1880301E-06  0.3559535E+04  0.7818609E-02  0.8099824E-01
        2   -1    0    0  501    0  0.00000000000E+00  0.00000000000E+00  0.18616677392E+04  0.18616677392E+04  0.25500000920E-02 0. -1.
       -2   -1    0    0    0  501  0.00000000000E+00  0.00000000000E+00 -0.17014704544E+04  0.17014704544E+04  0.25500000920E-02 0.  1.
    10030    2    1    2    0    0  0.00000000000E+00  0.00000000000E+00  0.16019728480E+03  0.35631381936E+04  0.35595351686E+04 0.  0.
        4    1    3    3  502    0  0.52455822608E+03 -0.90709624687E+03 -0.13599631521E+04  0.17168244877E+04  0.12699999809E+01 0.  1.
       -4    1    3    3    0  502 -0.52455822608E+03  0.90709624687E+03  0.15201604369E+04  0.18463137059E+04  0.12699999809E+01 0. -1.
</event>
<event>
 5   0  0.6218695E-07  0.3378495E+04  0.7818609E-02  0.8143205E-01
       -1   -1    0    0    0  501  0.00000000000E+00  0.00000000000E+00  0.10363547882E+04  0.10363547882E+04  0.50400001928E-02 0.  1.
        1   -1    0    0  501    0  0.00000000000E+00  0.00000000000E+00 -0.27534551014E+04  0.27534551014E+04  0.50400001928E-02 0. -1.
    10030    2    1    2    0    0  0.00000000000E+00  0.00000000000E+00 -0.17171003132E+04  0.37898098896E+04  0.33784945632E+04 0.  0.
        2    1    3    3  502    0 -0.44720624722E+03 -0.16289043443E+04 -0.87569444603E+03  0.19026727394E+04  0.25500000920E-02 0.  1.
       -2    1    3    3    0  502  0.44720624722E+03  0.16289043443E+04 -0.84140586717E+03  0.18871371502E+04  0.25500000920E-02 0. -1.
</event>
<event>
 5   0  0.6218695E-07  0.3435816E+04  0.7818609E-02  0.8129171E-01
        1   -1    0    0  501    0  0.00000000000E+00  0.00000000000E+00  0.23692797610E+04  0.23692797610E+04  0.50400001928E-02 0. -1.
       -1   -1    0    0    0  501  0.00000000000E+00  0.00000000000E+00 -0.12456138934E+04  0.12456138934E+04  0.50400001928E-02 0.  1.
    10030    2    1    2    0    0  0.00000000000E+00  0.00000000000E+00  0.11236658676E+04  0.36148936545E+04  0.34358159367E+04 0.  0.
        2    1    3    3  502    0 -0.66348105588E+03  0.15844119163E+04  0.53522538659E+03  0.17991760465E+04  0.25500000920E-02 0. -1.
       -2    1    3    3    0  502  0.66348105588E+03 -0.15844119163E+04  0.58844048098E+03  0.18157176079E+04  0.25500000920E-02 0.  1.
</event>
<event>
 5   0  0.1797075E-06  0.3410234E+04  0.7818609E-02  0.8135399E-01
        2   -1    0    0  501    0  0.00000000000E+00  0.00000000000E+00  0.34300943472E+04  0.34300943472E+04  0.25500000920E-02 0.  1.
       -2   -1    0    0    0  501  0.00000000000E+00  0.00000000000E+00 -0.84762200585E+03  0.84762200585E+03  0.25500000920E-02 0. -1.
    10030    2    1    2    0    0  0.00000000000E+00  0.00000000000E+00  0.25824723414E+04  0.42777163531E+04  0.34102336875E+04 0.  0.
        2    1    3    3  502    0 -0.41339166116E+03 -0.11520685139E+04 -0.19786697664E+03  0.12398813922E+04  0.25500000920E-02 0. -1.
       -2    1    3    3    0  502  0.41339166116E+03  0.11520685139E+04  0.27803393180E+04  0.30378349609E+04  0.25500000920E-02 0.  1.
</event>
<event>
 5   0  0.6134625E-07  0.3394066E+04  0.7818609E-02  0.8139364E-01
       -1   -1    0    0    0  501  0.00000000000E+00  0.00000000000E+00  0.16728888738E+04  0.16728888738E+04  0.50400001928E-02 0.  1.
        1   -1    0    0  501    0  0.00000000000E+00  0.00000000000E+00 -0.17215260365E+04  0.17215260365E+04  0.50400001928E-02 0. -1.
    10030    2    1    2    0    0  0.00000000000E+00  0.00000000000E+00 -0.48637162677E+02  0.33944149103E+04  0.33940664416E+04 0.  0.
        5    1    3    3  502    0 -0.97037675724E+03 -0.13542481846E+04  0.29863943467E+03  0.16925799238E+04  0.46999998093E+01 0.  1.
       -5    1    3    3    0  502  0.97037675724E+03  0.13542481846E+04 -0.34727659735E+03  0.17018349866E+04  0.46999998093E+01 0. -1.
</event>
<event>
 5   0  0.6146388E-07  0.3416153E+04  0.7818609E-02  0.8133953E-01
       -1   -1    0    0    0  501  0.00000000000E+00  0.00000000000E+00  0.15294350489E+04  0.15294350489E+04  0.50400001928E-02 0. -1.
        1   -1    0    0  501    0  0.00000000000E+00  0.00000000000E+00 -0.19075836280E+04  0.19075836280E+04  0.50400001928E-02 0.  1.
    10030    2    1    2    0    0  0.00000000000E+00  0.00000000000E+00 -0.37814857917E+03  0.34370186769E+04  0.34161529587E+04 0.  0.
        4    1    3    3  502    0  0.83270232937E+03  0.42544962405E+03 -0.16271834429E+04  0.18767333646E+04  0.12699999809E+01 0.  1.
       -4    1    3    3    0  502 -0.83270232937E+03 -0.42544962405E+03  0.12490348638E+04  0.15602853123E+04  0.12699999809E+01 0. -1.
</event>
<event>
 5   0  0.6134625E-07  0.3417966E+04  0.7818609E-02  0.8133511E-01
        1   -1    0    0  501    0  0.00000000000E+00  0.00000000000E+00  0.23300966465E+04  0.23300966465E+04  0.50400001928E-02 0. -1.
       -1   -1    0    0    0  501  0.00000000000E+00  0.00000000000E+00 -0.12534345200E+04  0.12534345200E+04  0.50400001928E-02 0.  1.
    10030    2    1    2    0    0  0.00000000000E+00  0.00000000000E+00  0.10766621265E+04  0.35835311665E+04  0.34179663964E+04 0.  0.
        3    1    3    3  502    0  0.61020486803E+03  0.13355814002E+04  0.14550389732E+04  0.20671879647E+04  0.10100000352E+00 0. -1.
       -3    1    3    3    0  502 -0.61020486803E+03 -0.13355814002E+04 -0.37837684673E+03  0.15163432019E+04  0.10100000352E+00 0.  1.
</event>
<event>
 5   0  0.1797075E-06  0.3536394E+04  0.7818609E-02  0.8105219E-01
       -2   -1    0    0    0  501  0.00000000000E+00  0.00000000000E+00  0.11283020974E+04  0.11283020974E+04  0.25500000920E-02 0. -1.
        2   -1    0    0  501    0  0.00000000000E+00  0.00000000000E+00 -0.27709955564E+04  0.27709955564E+04  0.25500000920E-02 0.  1.
    10030    2    1    2    0    0  0.00000000000E+00  0.00000000000E+00 -0.16426934590E+04  0.38992976539E+04  0.35363936988E+04 0.  0.
        2    1    3    3  502    0  0.16667070792E+04 -0.15237530227E+03 -0.14503131590E+04  0.22146193758E+04  0.25500000920E-02 0.  1.
       -2    1    3    3    0  502 -0.16667070792E+04  0.15237530227E+03 -0.19238030000E+03  0.16846782780E+04  0.25500000920E-02 0. -1.
</event>
<event>
 5   0  0.1797075E-06  0.3199486E+04  0.7818609E-02  0.8188953E-01
        2   -1    0    0  501    0  0.00000000000E+00  0.00000000000E+00  0.24016891046E+04  0.24016891046E+04  0.25500000920E-02 0. -1.
       -2   -1    0    0    0  501  0.00000000000E+00  0.00000000000E+00 -0.10655739433E+04  0.10655739433E+04  0.25500000920E-02 0.  1.
    10030    2    1    2    0    0  0.00000000000E+00  0.00000000000E+00  0.13361151613E+04  0.34672630480E+04  0.31994857898E+04 0.  0.
        2    1    3    3  502    0  0.83765810240E+03  0.18607459448E+03  0.21311977740E+04  0.22974548533E+04  0.25500000920E-02 0. -1.
       -2    1    3    3    0  502 -0.83765810240E+03 -0.18607459448E+03 -0.79508261266E+03  0.11698081946E+04  0.25500000920E-02 0.  1.
</event>
<event>
 5   0  0.6146388E-07  0.3372582E+04  0.7818609E-02  0.8144668E-01
        1   -1    0    0  501    0  0.00000000000E+00  0.00000000000E+00  0.97405155913E+03  0.97405155914E+03  0.50400001928E-02 0.  1.
       -1   -1    0    0    0  501  0.00000000000E+00  0.00000000000E+00 -0.29193301495E+04  0.29193301495E+04  0.50400001928E-02 0. -1.
    10030    2    1    2    0    0  0.00000000000E+00  0.00000000000E+00 -0.19452785903E+04  0.38933817086E+04  0.33725824430E+04 0.  0.
        4    1    3    3  502    0 -0.16599091051E+04  0.13701509828E+03 -0.66828969584E+03  0.17946264528E+04  0.12699999809E+01 0.  1.
       -4    1    3    3    0  502  0.16599091051E+04 -0.13701509828E+03 -0.12769888945E+04  0.20987552559E+04  0.12699999809E+01 0. -1.
</event>
<event>
 5   0  0.1339844E-06  0.3352249E+04  0.7818609E-02  0.8149726E-01
        2   -1    0    0  501    0  0.00000000000E+00  0.00000000000E+00  0.19758685643E+04  0.19758685643E+04  0.25500000920E-02 0.  1.
       -2   -1    0    0    0  501  0.00000000000E+00  0.00000000000E+00 -0.14218523450E+04  0.14218523450E+04  0.25500000920E-02 0. -1.
    10030    2    1    2    0    0  0.00000000000E+00  0.00000000000E+00  0.55401621925E+03  0.33977209093E+04  0.33522490072E+04 0.  0.
        3    1    3    3  502    0 -0.67376810159E+03 -0.15192559794E+04  0.49742323652E+03  0.17348002974E+04  0.10100000352E+00 0.  1.
       -3    1    3    3    0  502  0.67376810159E+03  0.15192559794E+04  0.56592982729E+02  0.16629206119E+04  0.10100000352E+00 0. -1.
</event>
<event>
 5   0  0.1339844E-06  0.3334635E+04  0.7818609E-02  0.8154138E-01
        2   -1    0    0  501    0  0.00000000000E+00  0.00000000000E+00  0.14595956319E+04  0.14595956319E+04  0.25500000920E-02 0.  1.
       -2   -1    0    0    0  501  0.00000000000E+00  0.00000000000E+00 -0.19046009406E+04  0.19046009406E+04  0.25500000920E-02 0. -1.
    10030    2    1    2    0    0  0.00000000000E+00  0.00000000000E+00 -0.44500530877E+03  0.33641965725E+04  0.33346347406E+04 0.  0.
        3    1    3    3  502    0 -0.32355881675E+02 -0.12661202276E+04 -0.13164771180E+04  0.18268057769E+04  0.10100000352E+00 0. -1.
       -3    1    3    3    0  502  0.32355881675E+02  0.12661202276E+04  0.87147180926E+03  0.15373907956E+04  0.10100000352E+00 0.  1.
</event>
<event>
 5   0  0.1880301E-06  0.3400206E+04  0.7818609E-02  0.8137856E-01
       -2   -1    0    0    0  501  0.00000000000E+00  0.00000000000E+00  0.14940299169E+04  0.14940299169E+04  0.25500000920E-02 0.  1.
        2   -1    0    0  501    0  0.00000000000E+00  0.00000000000E+00 -0.19346003103E+04  0.19346003103E+04  0.25500000920E-02 0. -1.
    10030    2    1    2    0    0  0.00000000000E+00  0.00000000000E+00 -0.44057039332E+03  0.34286302272E+04  0.34002063119E+04 0.  0.
        4    1    3    3  502    0 -0.34243365722E+03  0.71626277534E+03 -0.17362006361E+04  0.19091064492E+04  0.12699999809E+01 0. -1.
       -4    1    3    3    0  502  0.34243365722E+03 -0.71626277534E+03  0.12956302428E+04  0.15195237780E+04  0.12699999809E+01 0.  1.
</event>
<event>
 5   0  0.6218695E-07  0.3598637E+04  0.7818609E-02  0.8090804E-01
        1   -1    0    0  501    0  0.00000000000E+00  0.00000000000E+00  0.27230663662E+04  0.27230663662E+04  0.50400001928E-02 0. -1.
       -1   -1    0    0    0  501  0.00000000000E+00  0.00000000000E+00 -0.11889345222E+04  0.11889345222E+04  0.50400001928E-02 0.  1.
    10030    2    1    2    0    0  0.00000000000E+00  0.00000000000E+00  0.15341318440E+04  0.39120008884E+04  0.35986373027E+04 0.  0.
        2    1    3    3  502    0  0.86510926304E+03 -0.13894930863E+04 -0.45297035985E+02  0.16374238594E+04  0.25500000920E-02 0.  1.
       -2    1    3    3    0  502 -0.86510926304E+03  0.13894930863E+04  0.15794288800E+04  0.22745770290E+04  0.25500000920E-02 0. -1.
</event>
<event>
 5   0  0.6146388E-07  0.3432085E+04  0.7818609E-02  0.8130076E-01
       -1   -1    0    0    0  501  0.00000000000E+00  0.00000000000E+00  0.14788897071E+04  0.14788897071E+04  0.50400001928E-02 0. -1.
        1   -1    0    0  501    0  0.00000000000E+00  0.00000000000E+00 -0.19912252008E+04  0.19912252008E+04  0.50400001928E-02 0.  1.
    10030    2    1    2    0    0  0.00000000000E+00  0.00000000000E+00 -0.51233549370E+03  0.34701149078E+04  0.34320853450E+04 0.  0.
        4    1    3    3  502    0  0.65584088707E+03 -0.12062980173E+04  0.78456706871E+03  0.15814010478E+04  0.12699999809E+01 0. -1.
       -4    1    3    3    0  502 -0.65584088707E+03  0.12062980173E+04 -0.12969025624E+04  0.18887138600E+04  0.12699999809E+01 0.  1.
</event>
<event>
 5   0  0.1339844E-06  0.3155690E+04  0.7818609E-02  0.8200618E-01
       -2   -1    0    0    0  501  0.00000000000E+00  0.00000000000E+00  0.14065553600E+04  0.14065553600E+04  0.25500000920E-02 0. -1.
        2   -1    0    0  501    0  0.00000000000E+00  0.00000000000E+00 -0.17699937192E+04  0.17699937192E+04  0.25500000920E-02 0.  1.
    10030    2    1    2    0    0  0.00000000000E+00  0.00000000000E+00 -0.36343835918E+03  0.31765490793E+04  0.31556895621E+04 0.  0.
        3    1    3    3  502    0 -0.93898550371E+03 -0.66662824124E+03  0.90407079045E+03  0.14640461033E+04  0.10100000352E+00 0. -1.
       -3    1    3    3    0  502  0.93898550371E+03  0.66662824124E+03 -0.12675091496E+04  0.17125029760E+04  0.10100000352E+00 0.  1.
</event>
<event>
 5   0  0.6146388E-07  0.3215301E+04  0.7818609E-02  0.8184788E-01
        1   -1    0    0  501    0  0.00000000000E+00  0.00000000000E+00  0.24555743626E+04  0.24555743626E+04  0.50400001928E-02 0. -1.
       -1   -1    0    0    0  501  0.00000000000E+00  0.00000000000E+00 -0.10525199038E+04  0.10525199038E+04  0.50400001928E-02 0.  1.
    10030    2    1    2    0    0  0.00000000000E+00  0.00000000000E+00  0.14030544588E+04  0.35080942664E+04  0.32153014739E+04 0.  0.
        4    1    3    3  502    0 -0.20338909462E+03 -0.71969903997E+02  0.24397071210E+04  0.24492282948E+04  0.12699999809E+01 0. -1.
       -4    1    3    3    0  502  0.20338909462E+03  0.71969903997E+02 -0.10366526622E+04  0.10588659716E+04  0.12699999809E+01 0.  1.
</event>
<event>
 5   0  0.1339844E-06  0.3377492E+04  0.7818609E-02  0.8143453E-01
       -2   -1    0    0    0  501  0.00000000000E+00  0.00000000000E+00  0.26704348635E+04  0.26704348635E+04  0.25500000920E-02 0.  1.
        2   -1    0    0  501    0  0.00000000000E+00  0.00000000000E+00 -0.10679398555E+04  0.10679398555E+04  0.25500000920E-02 0. -1.
    10030    2    1    2    0    0  0.00000000000E+00  0.00000000000E+00  0.16024950079E+04  0.37383747190E+04  0.33774924558E+04 0.  0.
        3    1    3    3  502    0 -0.92537505815E+03 -0.85997970048E+03 -0.43920390991E+03  0.13374543612E+04  0.10100000352E+00 0. -1.
       -3    1    3    3    0  502  0.92537505815E+03  0.85997970048E+03  0.20416989178E+04  0.24009203579E+04  0.10100000352E+00 0.  1.
</event>
<event>
 5   0  0.1339844E-06  0.3415991E+04  0.7818609E-02  0.8133993E-01
       -2   -1    0    0    0  501  0.00000000000E+00  0.00000000000E+00  0.17257511209E+04  0.17257511209E+04  0.25500000920E-02 0.  1.
        2   -1    0    0  501    0  0.00000000000E+00  0.00000000000E+00 -0.16904221332E+04  0.16904221332E+04  0.25500000920E-02 0. -1.
    10030    2    1    2    0    0  0.00000000000E+00  0.00000000000E+00  0.35328987715E+02  0.34161732540E+04  0.34159905685E+04 0.  0.
        3    1    3    3  502    0 -0.15724528300E+04 -0.19792752738E+03  0.65445962683E+03  0.17146721617E+04  0.10100000352E+00 0.  1.
       -3    1    3    3    0  502  0.15724528300E+04  0.19792752738E+03 -0.61913063912E+03  0.17015010923E+04  0.10100000352E+00 0. -1.
</event>
<event>
 5   0  0.6146388E-07  0.3430040E+04  0.7818609E-02  0.8130573E-01
       -1   -1    0    0    0  501  0.00000000000E+00  0.00000000000E+00  0.10812986055E+04  0.10812986055E+04  0.50400001928E-02 0. -1.
        1   -1    0    0  501    0  0.00000000000E+00  0.00000000000E+00 -0.27201492351E+04  0.27201492351E+04  0.50400001928E-02 0.  1.
    10030    2    1    2    0    0  0.00000000000E+00  0.00000000000E+00 -0.16388506296E+04  0.38014478407E+04  0.34300399851E+04 0.  0.
        4    1    3    3  502    0  0.34120075370E+03 -0.27280678869E+03 -0.26574518079E+04  0.26931196079E+04  0.12699999809E+01 0.  1.
       -4    1    3    3    0  502 -0.34120075370E+03  0.27280678869E+03  0.10186011783E+04  0.11083282328E+04  0.12699999809E+01 0. -1.
</event>
<event>
 5   0  0.6134625E-07  0.3386269E+04  0.7818609E-02  0.8141285E-01
       -1   -1    0    0    0  501  0.00000000000E+00  0.00000000000E+00  0.16156410211E+04  0.16156410211E+04  0.50400001928E-02 0.  1.
        1   -1    0    0  501    0  0.00000000000E+00  0.00000000000E+00 -0.17743447354E+04  0.17743447354E+04  0.50400001928E-02 0. -1.
    10030    2    1    2    0    0  0.00000000000E+00  0.00000000000E+00 -0.15870371423E+03  0.33899857565E+04  0.33862688258E+04 0.  0.
        1    1    3    3  502    0 -0.82935422388E+03  0.72655742927E+03 -0.13656707965E+04  0.17552124804E+04  0.50400001928E-02 0. -1.
       -1    1    3    3    0  502  0.82935422388E+03 -0.72655742927E+03  0.12069670823E+04  0.16347732762E+04  0.50400001928E-02 0.  1.
</event>
<event>
 5   0  0.6218695E-07  0.3392853E+04  0.7818609E-02  0.8139663E-01
       -1   -1    0    0    0  501  0.00000000000E+00  0.00000000000E+00  0.14577957602E+04  0.14577957603E+04  0.50400001928E-02 0.  1.
        1   -1    0    0  501    0  0.00000000000E+00  0.00000000000E+00 -0.19741194808E+04  0.19741194808E+04  0.50400001928E-02 0. -1.
    10030    2    1    2    0    0  0.00000000000E+00  0.00000000000E+00 -0.51632372056E+03  0.34319152411E+04  0.33928530822E+04 0.  0.
        2    1    3    3  502    0  0.12708590519E+03  0.98718671323E+03  0.11313988876E+04  0.15069014158E+04  0.25500000920E-02 0.  1.
       -2    1    3    3    0  502 -0.12708590519E+03 -0.98718671323E+03 -0.16477226082E+04  0.19250138253E+04  0.25500000920E-02 0. -1.
</event>
<event>
 5   0  0.1911477E-06  0.3207970E+04  0.7818609E-02  0.8186716E-01
        2   -1    0    0  501    0  0.00000000000E+00  0.00000000000E+00  0.19074245480E+04  0.19074245481E+04  0.25500000920E-02 0. -1.
       -2   -1    0    0    0  501  0.00000000000E+00  0.00000000000E+00 -0.13488175732E+04  0.13488175732E+04  0.25500000920E-02 0.  1.
    10030    2    1    2    0    0  0.00000000000E+00  0.00000000000E+00  0.55860697481E+03  0.32562421213E+04  0.32079699188E+04 0.  0.
        5    1    3    3  502    0 -0.15867196618E+04 -0.25182881781E+02  0.42485690566E+02  0.15874950666E+04  0.46999998093E+01 0.  1.
       -5    1    3    3    0  502  0.15867196618E+04  0.25182881781E+02  0.51612128425E+03  0.16687470547E+04  0.46999998093E+01 0. -1.
</event>
<event>
 5   0  0.6146388E-07  0.3394500E+04  0.7818609E-02  0.8139257E-01
        1   -1    0    0  501    0  0.00000000000E+00  0.00000000000E+00  0.86928992475E+03  0.86928992477E+03  0.50400001928E-02 0.  1.
       -1   -1    0    0    0  501  0.00000000000E+00  0.00000000000E+00 -0.33138056308E+04  0.33138056308E+04  0.50400001928E-02 0. -1.
    10030    2    1    2    0    0  0.00000000000E+00  0.00000000000E+00 -0.24445157060E+04  0.41830955556E+04  0.33945001679E+04 0.  0.
        4    1    3    3  502    0 -0.73256870951E+03 -0.60912357954E+03 -0.29531975895E+04  0.31030736480E+04  0.12699999809E+01 0. -1.
       -4    1    3    3    0  502  0.73256870951E+03  0.60912357954E+03  0.50868188349E+03  0.10800219076E+04  0.12699999809E+01 0.  1.
</event>
<event>
 5   0  0.6134625E-07  0.3476786E+04  0.7818609E-02  0.8119313E-01
       -1   -1    0    0    0  501  0.00000000000E+00  0.00000000000E+00  0.13831403052E+04  0.13831403052E+04  0.50400001928E-02 0.  1.
        1   -1    0    0  501    0  0.00000000000E+00  0.00000000000E+00 -0.21848908302E+04  0.21848908302E+04  0.50400001928E-02 0. -1.
    10030    2    1    2    0    0  0.00000000000E+00  0.00000000000E+00 -0.80175052494E+03  0.35680311354E+04  0.34767861998E+04 0.  0.
        5    1    3    3  502    0  0.95080246742E+03 -0.13825977053E+04 -0.86709594803E+03  0.18887771758E+04  0.46999998093E+01 0. -1.
       -5    1    3    3    0  502 -0.95080246742E+03  0.13825977053E+04  0.65345423086E+02  0.16792539596E+04  0.46999998093E+01 0.  1.
</event>
<event>
 5   0  0.6218695E-07  0.3347712E+04  0.7818609E-02  0.8150860E-01
        1   -1    0    0  501    0  0.00000000000E+00  0.00000000000E+00  0.18749442863E+04  0.18749442863E+04  0.50400001928E-02 0.  1.
       -1   -1    0    0    0  501  0.00000000000E+00  0.00000000000E+00 -0.14943340603E+04  0.14943340603E+04  0.50400001928E-02 0. -1.
    10030    2    1    2    0    0  0.00000000000E+00  0.00000000000E+00  0.38061022607E+03  0.33692783466E+04  0.33477115217E+04 0.  0.
        2    1    3    3  502    0  0.11254757234E+04  0.11875626882E+04 -0.16523030622E+03  0.16444761466E+04  0.25500000920E-02 0.  1.
       -2    1    3    3    0  502 -0.11254757234E+04 -0.11875626882E+04  0.54584053230E+03  0.17248022000E+04  0.25500000920E-02 0. -1.
</event>
<event>
 5   0  0.6134625E-07  0.3342502E+04  0.7818609E-02  0.8152164E-01
        1   -1    0    0  501    0  0.00000000000E+00  0.00000000000E+00  0.24865438009E+04  0.24865438009E+04  0.50400001928E-02 0. -1.
       -1   -1    0    0    0  501  0.00000000000E+00  0.00000000000E+00 -0.11232781385E+04  0.11232781386E+04  0.50400001928E-02 0.  1.
    10030    2    1    2    0    0  0.00000000000E+00  0.00000000000E+00  0.13632656623E+04  0.36098219395E+04  0.33425022316E+04 0.  0.
        5    1    3    3  502    0  0.28314786650E+03 -0.16605005438E+03  0.24513811998E+04  0.24732644848E+04  0.46999998093E+01 0. -1.
       -5    1    3    3    0  502 -0.28314786650E+03  0.16605005438E+03 -0.10881155375E+04  0.11365574547E+04  0.46999998093E+01 0.  1.
</event>
<event>
 5   0  0.1797075E-06  0.3468705E+04  0.7818609E-02  0.8121247E-01
        2   -1    0    0  501    0  0.00000000000E+00  0.00000000000E+00  0.27310319327E+04  0.27310319327E+04  0.25500000920E-02 0.  1.
       -2   -1    0    0    0  501  0.00000000000E+00  0.00000000000E+00 -0.11014070326E+04  0.11014070326E+04  0.25500000920E-02 0. -1.
    10030    2    1    2    0    0  0.00000000000E+00  0.00000000000E+00  0.16296249001E+04  0.38324389653E+04  0.34687045287E+04 0.  0.
        2    1    3    3  502    0 -0.14952880297E+04 -0.62716411655E+03  0.14947798264E+04  0.22053543594E+04  0.25500000920E-02 0. -1.
       -2    1    3    3    0  502  0.14952880297E+04  0.62716411655E+03  0.13484507369E+03  0.16270846059E+04  0.25500000920E-02 0.  1.
</event>
<event>
 5   0  0.1880301E-06  0.3397957E+04  0.7818609E-02  0.8138408E-01
        2   -1    0    0  501    0  0.00000000000E+00  0.00000000000E+00  0.15159987055E+04  0.15159987055E+04  0.25500000920E-02 0.  1.
       -2   -1    0    0    0  501  0.00000000000E+00  0.00000000000E+00 -0.19040437304E+04  0.19040437304E+04  0.25500000920E-02 0. -1.
    10030    2    1    2    0    0  0.00000000000E+00  0.00000000000E+00 -0.38804502490E+03  0.34200424359E+04  0.33979569335E+04 0.  0.
        4    1    3    3  502    0 -0.71236812347E+03 -0.38238208227E+03  0.13099593651E+04  0.15393763514E+04  0.12699999809E+01 0.  1.
       -4    1    3    3    0  502  0.71236812347E+03  0.38238208227E+03 -0.16980043900E+04  0.18806660845E+04  0.12699999809E+01 0. -1.
</event>
<event>
 5   0  0.1339844E-06  0.3301786E+04  0.7818609E-02  0.8162441E-01
       -2   -1    0    0    0  501  0.00000000000E+00  0.00000000000E+00  0.16406483764E+04  0.16406483764E+04  0.25500000920E-02 0. -1.
        2   -1    0    0  501    0  0.00000000000E+00  0.00000000000E+00 -0.16612018829E+04  0.16612018829E+04  0.25500000920E-02 0.  1.
    10030    2    1    2    0    0  0.00000000000E+00  0.00000000000E+00 -0.20553506477E+02  0.33018502593E+04  0.33017862875E+04 0.  0.
        3    1    3    3  502    0 -0.28531199220E+03  0.10290341494E+04  0.12487686679E+04  0.16430877669E+04  0.10100000352E+00 0. -1.
       -3    1    3    3    0  502  0.28531199220E+03 -0.10290341494E+04 -0.12693221744E+04  0.16587624924E+04  0.10100000352E+00 0.  1.
</event>
<event>
 5   0  0.6146388E-07  0.3420203E+04  0.7818609E-02  0.8132966E-01
       -1   -1    0    0    0  501  0.00000000000E+00  0.00000000000E+00  0.13645237573E+04  0.13645237573E+04  0.50400001928E-02 0. -1.
        1   -1    0    0  501    0  0.00000000000E+00  0.00000000000E+00 -0.21431998672E+04  0.21431998672E+04  0.50400001928E-02 0.  1.
    10030    2    1    2    0    0  0.00000000000E+00  0.00000000000E+00 -0.77867610989E+03  0.35077236245E+04  0.34202029971E+04 0.  0.
        4    1    3    3  502    0 -0.42210137883E+03  0.83856270296E+03 -0.18552810365E+04  0.20792850498E+04  0.12699999809E+01 0.  1.
       -4    1    3    3    0  502  0.42210137883E+03 -0.83856270296E+03  0.10766049266E+04  0.14284385747E+04  0.12699999809E+01 0. -1.
</event>
<event>
 5   0  0.6134625E-07  0.3540012E+04  0.7818609E-02  0.8104372E-01
        1   -1    0    0  501    0  0.00000000000E+00  0.00000000000E+00  0.15854338090E+04  0.15854338091E+04  0.50400001928E-02 0. -1.
       -1   -1    0    0    0  501  0.00000000000E+00  0.00000000000E+00 -0.19760660936E+04  0.19760660936E+04  0.50400001928E-02 0.  1.
    10030    2    1    2    0    0  0.00000000000E+00  0.00000000000E+00 -0.39063228452E+03  0.35614999026E+04  0.35400124258E+04 0.  0.
        1    1    3    3  502    0 -0.13162210549E+04 -0.97960813023E+03  0.47268095845E+03  0.17074827210E+04  0.50400001928E-02 0. -1.
       -1    1    3    3    0  502  0.13162210549E+04  0.97960813023E+03 -0.86331324297E+03  0.18540171816E+04  0.50400001928E-02 0.  1.
</event>
<event>
 5   0  0.6134625E-07  0.3426527E+04  0.7818609E-02  0.8131426E-01
       -1   -1    0    0    0  501  0.00000000000E+00  0.00000000000E+00  0.14546072916E+04  0.14546072916E+04  0.50400001928E-02 0.  1.
        1   -1    0    0  501    0  0.00000000000E+00  0.00000000000E+00 -0.20179132692E+04  0.20179132692E+04  0.50400001928E-02 0. -1.
    10030    2    1    2    0    0  0.00000000000E+00  0.00000000000E+00 -0.56330597767E+03  0.34725205608E+04  0.34265267284E+04 0.  0.
        5    1    3    3  502    0  0.13326152715E+04 -0.73106562584E+02 -0.13703357980E+04  0.19128644281E+04  0.46999998093E+01 0. -1.
       -5    1    3    3    0  502 -0.13326152715E+04  0.73106562584E+02  0.80702982029E+03  0.15596561327E+04  0.46999998093E+01 0.  1.
</event>
<event>
 5   0  0.6134625E-07  0.3312999E+04  0.7818609E-02  0.8159596E-01
        1   -1    0    0  501    0  0.00000000000E+00  0.00000000000E+00  0.18851512458E+04  0.18851512458E+04  0.50400001928E-02 0. -1.
       -1   -1    0    0    0  501  0.00000000000E+00  0.00000000000E+00 -0.14555810775E+04  0.14555810775E+04  0.50400001928E-02 0.  1.
    10030    2    1    2    0    0  0.00000000000E+00  0.00000000000E+00  0.42957016828E+03  0.33407323233E+04  0.33129989324E+04 0.  0.
        3    1    3    3  502    0  0.58054980658E+03  0.11294196516E+04 -0.85777465941E+03  0.15324503920E+04  0.10100000352E+00 0.  1.
       -3    1    3    3    0  502 -0.58054980658E+03 -0.11294196516E+04  0.12873448277E+04  0.18082819313E+04  0.10100000352E+00 0. -1.
</event>
<event>
 5   0  0.1797075E-06  0.3168575E+04  0.7818609E-02  0.8197166E-01
       -2   -1    0    0    0  501  0.00000000000E+00  0.00000000000E+00  0.10883693391E+04  0.10883693391E+04  0.25500000920E-02 0. -1.
        2   -1    0    0  501    0  0.00000000000E+00  0.00000000000E+00 -0.23061722510E+04  0.23061722510E+04  0.25500000920E-02 0.  1.
    10030    2    1    2    0    0  0.00000000000E+00  0.00000000000E+00 -0.12178029118E+04  0.33945415901E+04  0.31685751806E+04 0.  0.
        2    1    3    3  502    0  0.44883149730E+03  0.66523589356E+03 -0.20723264041E+04  0.22222792876E+04  0.25500000920E-02 0.  1.
       -2    1    3    3    0  502 -0.44883149730E+03 -0.66523589356E+03  0.85452349226E+03  0.11722623025E+04  0.25500000920E-02 0. -1.
</event>
<event>
 5   0  0.1797075E-06  0.3457261E+04  0.7818609E-02  0.8123994E-01
       -2   -1    0    0    0  501  0.00000000000E+00  0.00000000000E+00  0.11813413165E+04  0.11813413165E+04  0.25500000920E-02 0. -1.
        2   -1    0    0  501    0  0.00000000000E+00  0.00000000000E+00 -0.25294673047E+04  0.25294673047E+04  0.25500000920E-02 0.  1.
    10030    2    1    2    0    0  0.00000000000E+00  0.00000000000E+00 -0.13481259882E+04  0.37108086212E+04  0.34572614803E+04 0.  0.
        2    1    3    3  502    0 -0.13480260472E+04  0.40856059935E+02  0.48659205738E+03  0.14337417034E+04  0.25500000920E-02 0. -1.
       -2    1    3    3    0  502  0.13480260472E+04 -0.40856059935E+02 -0.18347180456E+04  0.22770669179E+04  0.25500000920E-02 0.  1.
</event>
<event>
 5   0  0.6134625E-07  0.3399252E+04  0.7818609E-02  0.8138090E-01
       -1   -1    0    0    0  501  0.00000000000E+00  0.00000000000E+00  0.12748940859E+04  0.12748940859E+04  0.50400001928E-02 0.  1.
        1   -1    0    0  501    0  0.00000000000E+00  0.00000000000E+00 -0.22658577227E+04  0.22658577227E+04  0.50400001928E-02 0. -1.
    10030    2    1    2    0    0  0.00000000000E+00  0.00000000000E+00 -0.99096363688E+03  0.35407518086E+04  0.33992520413E+04 0.  0.
        1    1    3    3  502    0  0.11624194368E+03 -0.12734418286E+03  0.12657608050E+04  0.12774502518E+04  0.50400001928E-02 0.  1.
       -1    1    3    3    0  502 -0.11624194368E+03  0.12734418286E+03 -0.22567244419E+04  0.22633015568E+04  0.50400001928E-02 0. -1.
</event>
<event>
 5   0  0.6146388E-07  0.3440234E+04  0.7818609E-02  0.8128102E-01
        1   -1    0    0  501    0  0.00000000000E+00  0.00000000000E+00  0.23042864295E+04  0.23042864295E+04  0.50400001928E-02 0.  1.
       -1   -1    0    0    0  501  0.00000000000E+00  0.00000000000E+00 -0.12840425156E+04  0.12840425156E+04  0.50400001928E-02 0. -1.
    10030    2    1    2    0    0  0.00000000000E+00  0.00000000000E+00  0.10202439139E+04  0.35883289451E+04  0.34402335639E+04 0.  0.
        4    1    3    3  502    0 -0.72992954045E+03  0.43288783395E+03 -0.10504853932E+04  0.13504481423E+04  0.12699999809E+01 0. -1.
       -4    1    3    3    0  502  0.72992954045E+03 -0.43288783395E+03  0.20707293072E+04  0.22378808028E+04  0.12699999809E+01 0.  1.
</event>
<event>
 5   0  0.1948507E-06  0.3714068E+04  0.7818609E-02  0.8064851E-01
       -2   -1    0    0    0  501  0.00000000000E+00  0.00000000000E+00  0.13434800517E+04  0.13434800517E+04  0.25500000920E-02 0.  1.
        2   -1    0    0  501    0  0.00000000000E+00  0.00000000000E+00 -0.25668976213E+04  0.25668976213E+04  0.25500000920E-02 0. -1.
    10030    2    1    2    0    0  0.00000000000E+00  0.00000000000E+00 -0.12234175696E+04  0.39103776730E+04  0.37140682541E+04 0.  0.
        1    1    3    3  502    0 -0.15016621500E+04  0.10924263047E+04 -0.62627116053E+03  0.19597448840E+04  0.50400001928E-02 0. -1.
       -1    1    3    3    0  502  0.15016621500E+04 -0.10924263047E+04 -0.59714640911E+03  0.19506327891E+04  0.50400001928E-02 0.  1.
</event>
<event>
 5   0  0.1911477E-06  0.3386164E+04  0.7818609E-02  0.8141310E-01
        2   -1    0    0  501    0  0.00000000000E+00  0.00000000000E+00  0.23461748888E+04  0.23461748888E+04  0.25500000920E-02 0.  1.
       -2   -1    0    0    0  501  0.00000000000E+00  0.00000000000E+00 -0.12217873792E+04  0.12217873792E+04  0.25500000920E-02 0. -1.
    10030    2    1    2    0    0  0.00000000000E+00  0.00000000000E+00  0.11243875096E+04  0.35679622680E+04  0.33861641239E+04 0.  0.
        5    1    3    3  502    0  0.14767631383E+03  0.38610620028E+03  0.22921752669E+04  0.23291577525E+04  0.46999998093E+01 0.  1.
       -5    1    3    3    0  502 -0.14767631383E+03 -0.38610620028E+03 -0.11677877573E+04  0.12388045155E+04  0.46999998093E+01 0. -1.
</event>
<event>
 5   0  0.6218695E-07  0.3274686E+04  0.7818609E-02  0.8169367E-01
       -1   -1    0    0    0  501  0.00000000000E+00  0.00000000000E+00  0.20044790382E+04  0.20044790382E+04  0.50400001928E-02 0. -1.
        1   -1    0    0  501    0  0.00000000000E+00  0.00000000000E+00 -0.13374504497E+04  0.13374504497E+04  0.50400001928E-02 0.  1.
    10030    2    1    2    0    0  0.00000000000E+00  0.00000000000E+00  0.66702858852E+03  0.33419294879E+04  0.32746855672E+04 0.  0.
        2    1    3    3  502    0 -0.76353740670E+03  0.13225185629E+04  0.93627504860E+03  0.17912720863E+04  0.25500000920E-02 0. -1.
       -2    1    3    3    0  502  0.76353740670E+03 -0.13225185629E+04 -0.26924646009E+03  0.15506574015E+04  0.25500000920E-02 0.  1.
</event>
<event>
 5   0  0.6218695E-07  0.3177596E+04  0.7818609E-02  0.8194759E-01
       -1   -1    0    0    0  501  0.00000000000E+00  0.00000000000E+00  0.11945548435E+04  0.11945548435E+04  0.50400001928E-02 0.  1.
        1   -1    0    0  501    0  0.00000000000E+00  0.00000000000E+00 -0.21131542027E+04  0.21131542027E+04  0.50400001928E-02 0. -1.
    10030    2    1    2    0    0  0.00000000000E+00  0.00000000000E+00 -0.91859935914E+03  0.33077090462E+04  0.31775956873E+04 0.  0.
        2    1    3    3  502    0 -0.48595835629E+03 -0.23943036325E+03 -0.20140426728E+04  0.20856294759E+04  0.25500000920E-02 0. -1.
       -2    1    3    3    0  502  0.48595835629E+03  0.23943036325E+03  0.10954433136E+04  0.12220795704E+04  0.25500000920E-02 0.  1.
</event>
<event>
 5   0  0.6134625E-07  0.3389028E+04  0.7818609E-02  0.8140604E-01
       -1   -1    0    0    0  501  0.00000000000E+00  0.00000000000E+00  0.13861798088E+04  0.13861798088E+04  0.50400001928E-02 0.  1.
        1   -1    0    0  501    0  0.00000000000E+00  0.00000000000E+00 -0.20714329395E+04  0.20714329395E+04  0.50400001928E-02 0. -1.
    10030    2    1    2    0    0  0.00000000000E+00  0.00000000000E+00 -0.68525313071E+03  0.34576127483E+04  0.33890284838E+04 0.  0.
        3    1    3    3  502    0  0.68732005184E+02  0.47756917005E+03 -0.19998704999E+04  0.20572502102E+04  0.10100000352E+00 0. -1.
       -3    1    3    3    0  502 -0.68732005184E+02 -0.47756917005E+03  0.13146173692E+04  0.14003625382E+04  0.10100000352E+00 0.  1.
</event>
<event>
 5   0  0.1339844E-06  0.3402601E+04  0.7818609E-02  0.8137268E-01
       -2   -1    0    0    0  501  0.00000000000E+00  0.00000000000E+00  0.20253188976E+04  0.20253188976E+04  0.25500000920E-02 0.  1.
        2   -1    0    0  501    0  0.00000000000E+00  0.00000000000E+00 -0.14291199636E+04  0.14291199636E+04  0.25500000920E-02 0. -1.
    10030    2    1    2    0    0  0.00000000000E+00  0.00000000000E+00  0.59619893402E+03  0.34544388613E+04  0.34026011634E+04 0.  0.
        3    1    3    3  502    0 -0.52520904381E+03  0.19490494518E+03 -0.13327957872E+04  0.14457444788E+04  0.10100000352E+00 0. -1.
       -3    1    3    3    0  502  0.52520904381E+03 -0.19490494518E+03  0.19289947212E+04  0.20086943825E+04  0.10100000352E+00 0.  1.
</event>
<event>
 5   0  0.6134625E-07  0.3369346E+04  0.7818609E-02  0.8145471E-01
        1   -1    0    0  501    0  0.00000000000E+00  0.00000000000E+00  0.16842001028E+04  0.16842001028E+04  0.50400001928E-02 0. -1.
       -1   -1    0    0    0  501  0.00000000000E+00  0.00000000000E+00 -0.16851460788E+04  0.16851460788E+04  0.50400001928E-02 0.  1.
    10030    2    1    2    0    0  0.00000000000E+00  0.00000000000E+00 -0.94597604576E+00  0.33693461816E+04  0.33693460488E+04 0.  0.
        3    1    3    3  502    0  0.16639161640E+04 -0.44327009136E+02  0.25941412141E+03  0.16846001250E+04  0.10100000352E+00 0.  1.
       -3    1    3    3    0  502 -0.16639161640E+04  0.44327009136E+02 -0.26036009746E+03  0.16847460566E+04  0.10100000352E+00 0. -1.
</event>
<event>
 5   0  0.6218695E-07  0.3358332E+04  0.7818609E-02  0.8148209E-01
       -1   -1    0    0    0  501  0.00000000000E+00  0.00000000000E+00  0.91061073161E+03  0.91061073162E+03  0.50400001928E-02 0.  1.
        1   -1    0    0  501    0  0.00000000000E+00  0.00000000000E+00 -0.30963823702E+04  0.30963823702E+04  0.50400001928E-02 0. -1.
    10030    2    1    2    0    0  0.00000000000E+00  0.00000000000E+00 -0.21857716386E+04  0.40069931019E+04  0.33583323335E+04 0.  0.
        2    1    3    3  502    0 -0.66206537601E+03 -0.31508215052E+03 -0.28952890346E+04  0.29866881186E+04  0.25500000920E-02 0. -1.
       -2    1    3    3    0  502  0.66206537601E+03  0.31508215052E+03  0.70951739599E+03  0.10203049833E+04  0.25500000920E-02 0.  1.
</event>
<event>
 5   0  0.1948507E-06  0.3339509E+04  0.7818609E-02  0.8152914E-01
       -2   -1    0    0    0  501  0.00000000000E+00  0.00000000000E+00  0.20980867009E+04  0.20980867009E+04  0.25500000920E-02 0. -1.
        2   -1    0    0  501    0  0.00000000000E+00  0.00000000000E+00 -0.13288679324E+04  0.13288679324E+04  0.25500000920E-02 0.  1.
    10030    2    1    2    0    0  0.00000000000E+00  0.00000000000E+00  0.76921876852E+03  0.34269546334E+04  0.33395090276E+04 0.  0.
        1    1    3    3  502    0  0.87153194992E+03  0.13153875760E+04 -0.17583027679E+03  0.15876802893E+04  0.50400001928E-02 0.  1.
       -1    1    3    3    0  502 -0.87153194992E+03 -0.13153875760E+04  0.94504904532E+03  0.18392743441E+04  0.50400001928E-02 0. -1.
</event>
<event>
 5   0  0.1339844E-06  0.3389659E+04  0.7818609E-02  0.8140449E-01
       -2   -1    0    0    0  501  0.00000000000E+00  0.00000000000E+00  0.15379606886E+04  0.15379606886E+04  0.25500000920E-02 0. -1.
        2   -1    0    0  501    0  0.00000000000E+00  0.00000000000E+00 -0.18676985747E+04  0.18676985747E+04  0.25500000920E-02 0.  1.
    10030    2    1    2    0    0  0.00000000000E+00  0.00000000000E+00 -0.32973788609E+03  0.34056592633E+04  0.33896589716E+04 0.  0.
        3    1    3    3  502    0  0.39111110492E+03  0.12531419612E+04 -0.12418964702E+04  0.18071080555E+04  0.10100000352E+00 0.  1.
       -3    1    3    3    0  502 -0.39111110492E+03 -0.12531419612E+04  0.91215858413E+03  0.15985512078E+04  0.10100000352E+00 0. -1.
</event>
<event>
 5   0  0.1911477E-06  0.3370325E+04  0.7818609E-02  0.8145228E-01
        2   -1    0    0  501    0  0.00000000000E+00  0.00000000000E+00  0.95882337324E+03  0.95882337324E+03  0.25500000920E-02 0.  1.
       -2   -1    0    0    0  501  0.00000000000E+00  0.00000000000E+00 -0.29617271600E+04  0.29617271600E+04  0.25500000920E-02 0. -1.
    10030    2    1    2    0    0  0.00000000000E+00  0.00000000000E+00 -0.20029037868E+04  0.39205505333E+04  0.33703253411E+04 0.  0.
        5    1    3    3  502    0 -0.49718994965E+03 -0.94559713606E+03  0.51453392009E+03  0.11857989014E+04  0.46999998093E+01 0.  1.
       -5    1    3    3    0  502  0.49718994965E+03  0.94559713606E+03 -0.25174377069E+04  0.27347516318E+04  0.46999998093E+01 0. -1.
</event>
<event>
 5   0  0.1911477E-06  0.3359560E+04  0.7818609E-02  0.8147903E-01
        2   -1    0    0  501    0  0.00000000000E+00  0.00000000000E+00  0.22164842696E+04  0.22164842696E+04  0.25500000920E-02 0.  1.
       -2   -1    0    0    0  501  0.00000000000E+00  0.00000000000E+00 -0.12730347389E+04  0.12730347389E+04  0.25500000920E-02 0. -1.
    10030    2    1    2    0    0  0.00000000000E+00  0.00000000000E+00  0.94344953074E+03  0.34895190086E+04  0.33595603721E+04 0.  0.
        5    1    3    3  502    0 -0.37987040011E+03 -0.34503396233E+03  0.21330626036E+04  0.21939298341E+04  0.46999998093E+01 0.  1.
       -5    1    3    3    0  502  0.37987040011E+03  0.34503396233E+03 -0.11896130728E+04  0.12955891745E+04  0.46999998093E+01 0. -1.
</event>
<event>
 5   0  0.1797075E-06  0.3346969E+04  0.7818609E-02  0.8151046E-01
        2   -1    0    0  501    0  0.00000000000E+00  0.00000000000E+00  0.16751114989E+04  0.16751114989E+04  0.25500000920E-02 0.  1.
       -2   -1    0    0    0  501  0.00000000000E+00  0.00000000000E+00 -0.16718592440E+04  0.16718592440E+04  0.25500000920E-02 0. -1.
    10030    2    1    2    0    0  0.00000000000E+00  0.00000000000E+00  0.32522549552E+01  0.33469707429E+04  0.33469691628E+04 0.  0.
        2    1    3    3  502    0  0.17239878074E+03 -0.51239931601E+03  0.15853807214E+04  0.16750243074E+04  0.25500000920E-02 0.  1.
       -2    1    3    3    0  502 -0.17239878074E+03  0.51239931601E+03 -0.15821284665E+04  0.16719464355E+04  0.25500000920E-02 0. -1.
</event>
<event>
 5   0  0.1880301E-06  0.3201572E+04  0.7818609E-02  0.8188402E-01
        2   -1    0    0  501    0  0.00000000000E+00  0.00000000000E+00  0.18721639441E+04  0.18721639441E+04  0.25500000920E-02 0.  1.
       -2   -1    0    0    0  501  0.00000000000E+00  0.00000000000E+00 -0.13687454854E+04  0.13687454854E+04  0.25500000920E-02 0. -1.
    10030    2    1    2    0    0  0.00000000000E+00  0.00000000000E+00  0.50341845868E+03  0.32409094295E+04  0.32015720804E+04 0.  0.
        4    1    3    3  502    0  0.29290699381E+03  0.20278345028E+03  0.18315251171E+04  0.18658514148E+04  0.12699999809E+01 0.  1.
       -4    1    3    3    0  502 -0.29290699381E+03 -0.20278345028E+03 -0.13281066584E+04  0.13750580147E+04  0.12699999809E+01 0. -1.
</event>
<event>
 5   0  0.1339844E-06  0.3400298E+04  0.7818609E-02  0.8137833E-01
       -2   -1    0    0    0  501  0.00000000000E+00  0.00000000000E+00  0.10700529629E+04  0.10700529629E+04  0.25500000920E-02 0.  1.
        2   -1    0    0  501    0  0.00000000000E+00  0.00000000000E+00 -0.27012737719E+04  0.27012737719E+04  0.25500000920E-02 0. -1.
    10030    2    1    2    0    0  0.00000000000E+00  0.00000000000E+00 -0.16312208091E+04  0.37713267348E+04  0.34002976359E+04 0.  0.
        3    1    3    3  502    0  0.60759981245E+03  0.27733141189E+03  0.91845216087E+03  0.11356252138E+04  0.10100000352E+00 0.  1.
       -3    1    3    3    0  502 -0.60759981245E+03 -0.27733141189E+03 -0.25496729700E+04  0.26357015211E+04  0.10100000352E+00 0. -1.
</event>
<event>
 5   0  0.1339844E-06  0.3355046E+04  0.7818609E-02  0.8149029E-01
       -2   -1    0    0    0  501  0.00000000000E+00  0.00000000000E+00  0.13420760688E+04  0.13420760689E+04  0.25500000920E-02 0. -1.
        2   -1    0    0  501    0  0.00000000000E+00  0.00000000000E+00 -0.20968130919E+04  0.20968130919E+04  0.25500000920E-02 0.  1.
    10030    2    1    2    0    0  0.00000000000E+00  0.00000000000E+00 -0.75473702302E+03  0.34388891607E+04  0.33550455564E+04 0.  0.
        3    1    3    3  502    0  0.13670569360E+04  0.81539493167E+03 -0.92009976405E+03  0.18385584426E+04  0.10100000352E+00 0.  1.
       -3    1    3    3    0  502 -0.13670569360E+04 -0.81539493167E+03  0.16536274103E+03  0.16003307181E+04  0.10100000352E+00 0. -1.
</event>
<event>
 5   0  0.1880301E-06  0.3369077E+04  0.7818609E-02  0.8145538E-01
       -2   -1    0    0    0  501  0.00000000000E+00  0.00000000000E+00  0.20679664549E+04  0.20679664549E+04  0.25500000920E-02 0. -1.
        2   -1    0    0  501    0  0.00000000000E+00  0.00000000000E+00 -0.13722029305E+04  0.13722029305E+04  0.25500000920E-02 0.  1.
    10030    2    1    2    0    0  0.00000000000E+00  0.00000000000E+00  0.69576352439E+03  0.34401693854E+04  0.33690768050E+04 0.  0.
        4    1    3    3  502    0 -0.43529760865E+03  0.42821468043E+03  0.19509838675E+04  0.20443070916E+04  0.12699999809E+01 0. -1.
       -4    1    3    3    0  502  0.43529760865E+03 -0.42821468043E+03 -0.12552203431E+04  0.13958622938E+04  0.12699999809E+01 0.  1.
</event>
<event>
 5   0  0.6134625E-07  0.3334144E+04  0.7818609E-02  0.8154262E-01
        1   -1    0    0  501    0  0.00000000000E+00  0.00000000000E+00  0.20689376762E+04  0.20689376762E+04  0.50400001928E-02 0. -1.
       -1   -1    0    0    0  501  0.00000000000E+00  0.00000000000E+00 -0.13432634355E+04  0.13432634355E+04  0.50400001928E-02 0.  1.
    10030    2    1    2    0    0  0.00000000000E+00  0.00000000000E+00  0.72567424068E+03  0.34122011118E+04  0.33341435667E+04 0.  0.
        5    1    3    3  502    0 -0.14001515244E+04  0.86090507882E+03  0.64778768128E+03  0.17667011111E+04  0.46999998093E+01 0. -1.
       -5    1    3    3    0  502  0.14001515244E+04 -0.86090507882E+03  0.77886559406E+02  0.16455000007E+04  0.46999998093E+01 0.  1.
</event>
<event>
 5   0  0.1948507E-06  0.3420711E+04  0.7818609E-02  0.8132842E-01
       -2   -1    0    0    0  501  0.00000000000E+00  0.00000000000E+00  0.20049577393E+04  0.20049577393E+04  0.25500000920E-02 0. -1.
        2   -1    0    0  501    0  0.00000000000E+00  0.00000000000E+00 -0.14590412776E+04  0.14590412776E+04  0.25500000920E-02 0.  1.
    10030    2    1    2    0    0  0.00000000000E+00  0.00000000000E+00  0.54591646170E+03  0.34639990169E+04  0.34207110965E+04 0.  0.
        1    1    3    3  502    0  0.39431138121E+03 -0.15077469617E+03 -0.14054543519E+04  0.14674864257E+04  0.50400001928E-02 0.  1.
       -1    1    3    3    0  502 -0.39431138121E+03  0.15077469617E+03  0.19513708136E+04  0.19965125912E+04  0.50400001928E-02 0. -1.
</event>
<event>
 5   0  0.1911477E-06  0.3633542E+04  0.7818609E-02  0.8082851E-01
        2   -1    0    0  501    0  0.00000000000E+00  0.00000000000E+00  0.24095559191E+04  0.24095559191E+04  0.25500000920E-02 0. -1.
       -2   -1    0    0    0  501  0.00000000000E+00  0.00000000000E+00 -0.13698194199E+04  0.13698194199E+04  0.25500000920E-02 0.  1.
    10030    2    1    2    0    0  0.00000000000E+00  0.00000000000E+00  0.10397364992E+04  0.37793753390E+04  0.36335417935E+04 0.  0.
        5    1    3    3  502    0  0.71265042650E+03 -0.60559870932E+03  0.21399484490E+04  0.23353847395E+04  0.46999998093E+01 0. -1.
       -5    1    3    3    0  502 -0.71265042650E+03  0.60559870932E+03 -0.11002119498E+04  0.14439905995E+04  0.46999998093E+01 0.  1.
</event>
<event>
 5   0  0.1339844E-06  0.3391627E+04  0.7818609E-02  0.8139964E-01
       -2   -1    0    0    0  501  0.00000000000E+00  0.00000000000E+00  0.12747553016E+04  0.12747553016E+04  0.25500000920E-02 0.  1.
        2   -1    0    0  501    0  0.00000000000E+00  0.00000000000E+00 -0.22559488832E+04  0.22559488832E+04  0.25500000920E-02 0. -1.
    10030    2    1    2    0    0  0.00000000000E+00  0.00000000000E+00 -0.98119358166E+03  0.35307041848E+04  0.33916266298E+04 0.  0.
        3    1    3    3  502    0  0.15442734993E+04 -0.32007243931E+03 -0.11395000920E+04  0.19456843210E+04  0.10100000352E+00 0. -1.
       -3    1    3    3    0  502 -0.15442734993E+04  0.32007243931E+03  0.15830651038E+03  0.15850198638E+04  0.10100000352E+00 0.  1.
</event>
<event>
 5   0  0.6146388E-07  0.2727097E+04  0.7818609E-02  0.8326266E-01
        1   -1    0    0  501    0  0.00000000000E+00  0.00000000000E+00  0.21973052999E+04  0.21973052999E+04  0.50400001928E-02 0.  1.
       -1   -1    0    0    0  501  0.00000000000E+00  0.00000000000E+00 -0.84615651543E+03  0.84615651544E+03  0.50400001928E-02 0. -1.
    10030    2    1    2    0    0  0.00000000000E+00  0.00000000000E+00  0.13511487845E+04  0.30434618154E+04  0.27270967683E+04 0.  0.
        4    1    3    3  502    0  0.90449681054E+02 -0.10442449046E+04  0.16488933461E+04  0.19538371082E+04  0.12699999809E+01 0.  1.
       -4    1    3    3    0  502 -0.90449681054E+02  0.10442449046E+04 -0.29774456160E+03  0.10896247072E+04  0.12699999809E+01 0. -1.
</event>
<event>
 5   0  0.6134625E-07  0.3385308E+04  0.7818609E-02  0.8141522E-01
        1   -1    0    0  501    0  0.00000000000E+00  0.00000000000E+00  0.25177605250E+04  0.25177605250E+04  0.50400001928E-02 0.  1.
       -1   -1    0    0    0  501  0.00000000000E+00  0.00000000000E+00 -0.11379468786E+04  0.11379468787E+04  0.50400001928E-02 0. -1.
    10030    2    1    2    0    0  0.00000000000E+00  0.00000000000E+00  0.13798136464E+04  0.36557074037E+04  0.33853080986E+04 0.  0.
        1    1    3    3  502    0 -0.26954892992E+02  0.11954792186E+04  0.19835857566E+04  0.23161410972E+04  0.50400001928E-02 0.  1.
       -1    1    3    3    0  502  0.26954892992E+02 -0.11954792186E+04 -0.60377211025E+03  0.13395663065E+04  0.50400001928E-02 0. -1.
</event>
<event>
 5   0  0.6134625E-07  0.3404713E+04  0.7818609E-02  0.8136750E-01
       -1   -1    0    0    0  501  0.00000000000E+00  0.00000000000E+00  0.26180370865E+04  0.26180370865E+04  0.50400001928E-02 0. -1.
        1   -1    0    0  501    0  0.00000000000E+00  0.00000000000E+00 -0.11069431256E+04  0.11069431256E+04  0.50400001928E-02 0.  1.
    10030    2    1    2    0    0  0.00000000000E+00  0.00000000000E+00  0.15110939610E+04  0.37249802121E+04  0.34047132951E+04 0.  0.
        5    1    3    3  502    0 -0.11266562574E+04  0.71988081621E+03  0.19084313770E+04  0.23301749124E+04  0.46999998093E+01 0. -1.
       -5    1    3    3    0  502  0.11266562574E+04 -0.71988081621E+03 -0.39733741601E+03  0.13948052997E+04  0.46999998093E+01 0.  1.
</event>
<event>
 5   0  0.1880301E-06  0.3364215E+04  0.7818609E-02  0.8146745E-01
       -2   -1    0    0    0  501  0.00000000000E+00  0.00000000000E+00  0.10627007386E+04  0.10627007386E+04  0.25500000920E-02 0. -1.
        2   -1    0    0  501    0  0.00000000000E+00  0.00000000000E+00 -0.26625416977E+04  0.26625416977E+04  0.25500000920E-02 0.  1.
    10030    2    1    2    0    0  0.00000000000E+00  0.00000000000E+00 -0.15998409591E+04  0.37252424363E+04  0.33642146357E+04 0.  0.
        4    1    3    3  502    0 -0.13345195047E+04 -0.99024609318E+03 -0.51126642439E+03  0.17386559761E+04  0.12699999809E+01 0. -1.
       -4    1    3    3    0  502  0.13345195047E+04  0.99024609318E+03 -0.10885745347E+04  0.19865864602E+04  0.12699999809E+01 0.  1.
</event>
<event>
 5   0  0.6218695E-07  0.3453173E+04  0.7818609E-02  0.8124978E-01
        1   -1    0    0  501    0  0.00000000000E+00  0.00000000000E+00  0.19474887623E+04  0.19474887623E+04  0.50400001928E-02 0.  1.
       -1   -1    0    0    0  501  0.00000000000E+00  0.00000000000E+00 -0.15307406500E+04  0.15307406500E+04  0.50400001928E-02 0. -1.
    10030    2    1    2    0    0  0.00000000000E+00  0.00000000000E+00  0.41674811226E+03  0.34782294123E+04  0.34531725783E+04 0.  0.
        2    1    3    3  502    0 -0.85653130979E+03 -0.11062660784E+04 -0.81071321552E+03  0.16170115766E+04  0.25500000920E-02 0. -1.
       -2    1    3    3    0  502  0.85653130979E+03  0.11062660784E+04  0.12274613278E+04  0.18612178357E+04  0.25500000920E-02 0.  1.
</event>
<event>
 5   0  0.1797075E-06  0.3417313E+04  0.7818609E-02  0.8133670E-01
        2   -1    0    0  501    0  0.00000000000E+00  0.00000000000E+00  0.27872313116E+04  0.27872313116E+04  0.25500000920E-02 0.  1.
       -2   -1    0    0    0  501  0.00000000000E+00  0.00000000000E+00 -0.10474580310E+04  0.10474580310E+04  0.25500000920E-02 0. -1.
    10030    2    1    2    0    0  0.00000000000E+00  0.00000000000E+00  0.17397732806E+04  0.38346893426E+04  0.34173134604E+04 0.  0.
        2    1    3    3  502    0  0.63867989585E+03 -0.90754160604E+03 -0.58801077205E+03  0.12559062243E+04  0.25500000920E-02 0. -1.
       -2    1    3    3    0  502 -0.63867989585E+03  0.90754160604E+03  0.23277840526E+04  0.25787831184E+04  0.25500000920E-02 0.  1.
</event>
<event>
 5   0  0.6134625E-07  0.3395131E+04  0.7818609E-02  0.8139102E-01
       -1   -1    0    0    0  501  0.00000000000E+00  0.00000000000E+00  0.98823221121E+03  0.98823221122E+03  0.50400001928E-02 0.  1.
        1   -1    0    0  501    0  0.00000000000E+00  0.00000000000E+00 -0.29160437764E+04  0.29160437764E+04  0.50400001928E-02 0. -1.
    10030    2    1    2    0    0  0.00000000000E+00  0.00000000000E+00 -0.19278115652E+04  0.39042759876E+04  0.33951308600E+04 0.  0.
        5    1    3    3  502    0 -0.14603709234E+03 -0.15232501560E+04 -0.11878957996E+03  0.15348455702E+04  0.46999998093E+01 0. -1.
       -5    1    3    3    0  502  0.14603709234E+03  0.15232501560E+04 -0.18090219852E+04  0.23694304174E+04  0.46999998093E+01 0.  1.
</event>
<event>
 5   0  0.1948507E-06  0.3461097E+04  0.7818609E-02  0.8123072E-01
        2   -1    0    0  501    0  0.00000000000E+00  0.00000000000E+00  0.18124742094E+04  0.18124742094E+04  0.25500000920E-02 0.  1.
       -2   -1    0    0    0  501  0.00000000000E+00  0.00000000000E+00 -0.16523260765E+04  0.16523260765E+04  0.25500000920E-02 0. -1.
    10030    2    1    2    0    0  0.00000000000E+00  0.00000000000E+00  0.16014813294E+03  0.34648002859E+04  0.34610971666E+04 0.  0.
        1    1    3    3  502    0  0.94740988746E+03  0.12289264989E+04  0.84702206252E+03  0.17678496002E+04  0.50400001928E-02 0.  1.
       -1    1    3    3    0  502 -0.94740988746E+03 -0.12289264989E+04 -0.68687392958E+03  0.16969506857E+04  0.50400001928E-02 0. -1.
</event>
<event>
 5   0  0.1911477E-06  0.3373032E+04  0.7818609E-02  0.8144557E-01
       -2   -1    0    0    0  501  0.00000000000E+00  0.00000000000E+00  0.10853574404E+04  0.10853574404E+04  0.25500000920E-02 0.  1.
        2   -1    0    0  501    0  0.00000000000E+00  0.00000000000E+00 -0.26206447818E+04  0.26206447818E+04  0.25500000920E-02 0. -1.
    10030    2    1    2    0    0  0.00000000000E+00  0.00000000000E+00 -0.15352873414E+04  0.37060022222E+04  0.33730320560E+04 0.  0.
        5    1    3    3  502    0 -0.22543361550E+03  0.10223987306E+04  0.68507029560E+03  0.12511845904E+04  0.46999998093E+01 0.  1.
       -5    1    3    3    0  502  0.22543361550E+03 -0.10223987306E+04 -0.22203576370E+04  0.24548176318E+04  0.46999998093E+01 0. -1.
</event>
<event>
 5   0  0.1911477E-06  0.3112312E+04  0.7818609E-02  0.8212367E-01
        2   -1    0    0  501    0  0.00000000000E+00  0.00000000000E+00  0.13416935216E+04  0.13416935216E+04  0.25500000920E-02 0. -1.
       -2   -1    0    0    0  501  0.00000000000E+00  0.00000000000E+00 -0.18048992580E+04  0.18048992581E+04  0.25500000920E-02 0.  1.
    10030    2    1    2    0    0  0.00000000000E+00  0.00000000000E+00 -0.46320573647E+03  0.31465927796E+04  0.31123120934E+04 0.  0.
        5    1    3    3  502    0 -0.13108128566E+04 -0.67457044260E+03 -0.73541275187E+03  0.16474615725E+04  0.46999998093E+01 0.  1.
       -5    1    3    3    0  502  0.13108128566E+04  0.67457044260E+03  0.27220701541E+03  0.14991312072E+04  0.46999998093E+01 0. -1.
</event>
<event>
 5   0  0.6146388E-07  0.3366803E+04  0.7818609E-02  0.8146102E-01
       -1   -1    0    0    0  501  0.00000000000E+00  0.00000000000E+00  0.14947141063E+04  0.14947141063E+04  0.50400001928E-02 0. -1.
        1   -1    0    0  501    0  0.00000000000E+00  0.00000000000E+00 -0.18959085523E+04  0.18959085523E+04  0.50400001928E-02 0.  1.
    10030    2    1    2    0    0  0.00000000000E+00  0.00000000000E+00 -0.40119444595E+03  0.33906226586E+04  0.33668033845E+04 0.  0.
        4    1    3    3  502    0  0.10182309367E+04  0.10658652850E+04  0.61815925049E+03  0.15984322063E+04  0.12699999809E+01 0. -1.
       -4    1    3    3    0  502 -0.10182309367E+04 -0.10658652850E+04 -0.10193536964E+04  0.17921904524E+04  0.12699999809E+01 0.  1.
</event>
<event>
 5   0  0.1880301E-06  0.3423747E+04  0.7818609E-02  0.8132102E-01
        2   -1    0    0  501    0  0.00000000000E+00  0.00000000000E+00  0.31979860130E+04  0.31979860130E+04  0.25500000920E-02 0.  1.
       -2   -1    0    0    0  501  0.00000000000E+00  0.00000000000E+00 -0.91636160012E+03  0.91636160013E+03  0.25500000920E-02 0. -1.
    10030    2    1    2    0    0  0.00000000000E+00  0.00000000000E+00  0.22816244129E+04  0.41143476131E+04  0.34237474089E+04 0.  0.
        4    1    3    3  502    0  0.16929556411E+04  0.23623147303E+03  0.10293323787E+04  0.19953523174E+04  0.12699999809E+01 0.  1.
       -4    1    3    3    0  502 -0.16929556411E+04 -0.23623147303E+03  0.12522920342E+04  0.21189952958E+04  0.12699999809E+01 0. -1.
</event>
<event>
 5   0  0.1339844E-06  0.3376554E+04  0.7818609E-02  0.8143685E-01
        2   -1    0    0  501    0  0.00000000000E+00  0.00000000000E+00  0.19635448039E+04  0.19635448039E+04  0.25500000920E-02 0. -1.
       -2   -1    0    0    0  501  0.00000000000E+00  0.00000000000E+00 -0.14515987048E+04  0.14515987048E+04  0.25500000920E-02 0.  1.
    10030    2    1    2    0    0  0.00000000000E+00  0.00000000000E+00  0.51194609911E+03  0.34151435087E+04  0.33765539203E+04 0.  0.
        3    1    3    3  502    0  0.11856731738E+03  0.12625357972E+04 -0.87131594659E+03  0.15385858237E+04  0.10100000352E+00 0.  1.
       -3    1    3    3    0  502 -0.11856731738E+03 -0.12625357972E+04  0.13832620457E+04  0.18765576850E+04  0.10100000352E+00 0. -1.
</event>
<event>
 5   0  0.6134625E-07  0.3415680E+04  0.7818609E-02  0.8134069E-01
       -1   -1    0    0    0  501  0.00000000000E+00  0.00000000000E+00  0.13655396210E+04  0.13655396210E+04  0.50400001928E-02 0.  1.
        1   -1    0    0  501    0  0.00000000000E+00  0.00000000000E+00 -0.21359454558E+04  0.21359454558E+04  0.50400001928E-02 0. -1.
    10030    2    1    2    0    0  0.00000000000E+00  0.00000000000E+00 -0.77040583482E+03  0.35014850768E+04  0.34156803997E+04 0.  0.
        1    1    3    3  502    0  0.17448578340E+03 -0.12025540424E+04 -0.16154062558E+04  0.20214150700E+04  0.50400001928E-02 0. -1.
       -1    1    3    3    0  502 -0.17448578340E+03  0.12025540424E+04  0.84500042101E+03  0.14800700068E+04  0.50400001928E-02 0.  1.
</event>
<event>
 5   0  0.6134625E-07  0.3402458E+04  0.7818609E-02  0.8137303E-01
       -1   -1    0    0    0  501  0.00000000000E+00  0.00000000000E+00  0.13321375034E+04  0.13321375034E+04  0.50400001928E-02 0. -1.
        1   -1    0    0  501    0  0.00000000000E+00  0.00000000000E+00 -0.21725829769E+04  0.21725829770E+04  0.50400001928E-02 0.  1.
    10030    2    1    2    0    0  0.00000000000E+00  0.00000000000E+00 -0.84044547352E+03  0.35047204804E+04  0.34024575018E+04 0.  0.
        1    1    3    3  502    0 -0.15158754353E+04  0.69043570690E+03 -0.63997002518E+02  0.16669359367E+04  0.50400001928E-02 0. -1.
       -1    1    3    3    0  502  0.15158754353E+04 -0.69043570690E+03 -0.77644847100E+03  0.18377845437E+04  0.50400001928E-02 0.  1.
</event>
<event>
 5   0  0.6218695E-07  0.3350968E+04  0.7818609E-02  0.8150046E-01
       -1   -1    0    0    0  501  0.00000000000E+00  0.00000000000E+00  0.16565417551E+04  0.16565417551E+04  0.50400001928E-02 0.  1.
        1   -1    0    0  501    0  0.00000000000E+00  0.00000000000E+00 -0.16946426764E+04  0.16946426764E+04  0.50400001928E-02 0. -1.
    10030    2    1    2    0    0  0.00000000000E+00  0.00000000000E+00 -0.38100921271E+02  0.33511844315E+04  0.33509678323E+04 0.  0.
        2    1    3    3  502    0  0.87547075644E+03 -0.46540426435E+03 -0.13697658305E+04  0.16909490249E+04  0.25500000920E-02 0. -1.
       -2    1    3    3    0  502 -0.87547075644E+03  0.46540426435E+03  0.13316649092E+04  0.16602354065E+04  0.25500000920E-02 0.  1.
</event>
<event>
 5   0  0.6218695E-07  0.3404883E+04  0.7818609E-02  0.8136709E-01
        1   -1    0    0  501    0  0.00000000000E+00  0.00000000000E+00  0.23308124195E+04  0.23308124195E+04  0.50400001928E-02 0. -1.
       -1   -1    0    0    0  501  0.00000000000E+00  0.00000000000E+00 -0.12434747187E+04  0.12434747187E+04  0.50400001928E-02 0.  1.
    10030    2    1    2    0    0  0.00000000000E+00  0.00000000000E+00  0.10873377009E+04  0.35742871382E+04  0.34048825634E+04 0.  0.
        2    1    3    3  502    0  0.68814195403E+03  0.74348201136E+03 -0.89261538390E+03  0.13502100110E+04  0.25500000920E-02 0.  1.
       -2    1    3    3    0  502 -0.68814195403E+03 -0.74348201136E+03  0.19799530848E+04  0.22240771273E+04  0.25500000920E-02 0. -1.
</event>
<event>
 5   0  0.1339844E-06  0.3387512E+04  0.7818609E-02  0.8140978E-01
       -2   -1    0    0    0  501  0.00000000000E+00  0.00000000000E+00  0.12348035058E+04  0.12348035058E+04  0.25500000920E-02 0. -1.
        2   -1    0    0  501    0  0.00000000000E+00  0.00000000000E+00 -0.23232924848E+04  0.23232924848E+04  0.25500000920E-02 0.  1.
    10030    2    1    2    0    0  0.00000000000E+00  0.00000000000E+00 -0.10884889790E+04  0.35580959906E+04  0.33875121876E+04 0.  0.
        3    1    3    3  502    0  0.59125142933E+03 -0.14783501040E+04 -0.11510129162E+04  0.19646699535E+04  0.10100000352E+00 0.  1.
       -3    1    3    3    0  502 -0.59125142933E+03  0.14783501040E+04  0.62523937219E+02  0.15934260371E+04  0.10100000352E+00 0. -1.
</event>
<event>
 5   0  0.6134625E-07  0.3411886E+04  0.7818609E-02  0.8134995E-01
       -1   -1    0    0    0  501  0.00000000000E+00  0.00000000000E+00  0.12972478886E+04  0.12972478886E+04  0.50400001928E-02 0.  1.
        1   -1    0    0  501    0  0.00000000000E+00  0.00000000000E+00 -0.22433969291E+04  0.22433969291E+04  0.50400001928E-02 0. -1.
    10030    2    1    2    0    0  0.00000000000E+00  0.00000000000E+00 -0.94614904050E+03  0.35406448178E+04  0.34118862406E+04 0.  0.
        5    1    3    3  502    0 -0.55704258478E+03 -0.60298096505E+03 -0.20249485985E+04  0.21850220599E+04  0.46999998093E+01 0. -1.
       -5    1    3    3    0  502  0.55704258478E+03  0.60298096505E+03  0.10787995580E+04  0.13556227579E+04  0.46999998093E+01 0.  1.
</event>
<event>
 5   0  0.6134625E-07  0.3444287E+04  0.7818609E-02  0.8127122E-01
        1   -1    0    0  501    0  0.00000000000E+00  0.00000000000E+00  0.18886698700E+04  0.18886698700E+04  0.50400001928E-02 0. -1.
       -1   -1    0    0    0  501  0.00000000000E+00  0.00000000000E+00 -0.15703002538E+04  0.15703002538E+04  0.50400001928E-02 0.  1.
    10030    2    1    2    0    0  0.00000000000E+00  0.00000000000E+00  0.31836961622E+03  0.34589701238E+04  0.34442873145E+04 0.  0.
        1    1    3    3  502    0  0.26079658096E+03 -0.15959586240E+03 -0.15428240449E+04  0.15728292118E+04  0.50400001928E-02 0.  1.
       -1    1    3    3    0  502 -0.26079658096E+03  0.15959586240E+03  0.18611936611E+04  0.18861409121E+04  0.50400001928E-02 0. -1.
</event>
<event>
 5   0  0.6134625E-07  0.2973423E+04  0.7818609E-02  0.8251361E-01
        1   -1    0    0  501    0  0.00000000000E+00  0.00000000000E+00  0.14201522728E+04  0.14201522728E+04  0.50400001928E-02 0. -1.
       -1   -1    0    0    0  501  0.00000000000E+00  0.00000000000E+00 -0.15563906416E+04  0.15563906416E+04  0.50400001928E-02 0.  1.
    10030    2    1    2    0    0  0.00000000000E+00  0.00000000000E+00 -0.13623836877E+03  0.29765429144E+04  0.29734234189E+04 0.  0.
        3    1    3    3  502    0 -0.13705313074E+04 -0.23670568024E+03  0.45771854639E+03  0.14642035110E+04  0.10100000352E+00 0. -1.
       -3    1    3    3    0  502  0.13705313074E+04  0.23670568024E+03 -0.59395691516E+03  0.15123394034E+04  0.10100000352E+00 0.  1.
</event>
<event>
 5   0  0.6146388E-07  0.3418472E+04  0.7818609E-02  0.8133387E-01
        1   -1    0    0  501    0  0.00000000000E+00  0.00000000000E+00  0.18026407166E+04  0.18026407166E+04  0.50400001928E-02 0. -1.
       -1   -1    0    0    0  501  0.00000000000E+00  0.00000000000E+00 -0.16206712464E+04  0.16206712464E+04  0.50400001928E-02 0.  1.
    10030    2    1    2    0    0  0.00000000000E+00  0.00000000000E+00  0.18196947024E+03  0.34233119630E+04  0.34184721599E+04 0.  0.
        4    1    3    3  502    0  0.65148918450E+02 -0.48787969209E+03  0.17301330249E+04  0.17987864999E+04  0.12699999809E+01 0. -1.
       -4    1    3    3    0  502 -0.65148918450E+02  0.48787969209E+03 -0.15481635546E+04  0.16245254631E+04  0.12699999809E+01 0.  1.
</event>
<event>
 5   0  0.1797075E-06  0.3377386E+04  0.7818609E-02  0.8143479E-01
       -2   -1    0    0    0  501  0.00000000000E+00  0.00000000000E+00  0.15090729565E+04  0.15090729565E+04  0.25500000920E-02 0. -1.
        2   -1    0    0  501    0  0.00000000000E+00  0.00000000000E+00 -0.18896925773E+04  0.18896925773E+04  0.25500000920E-02 0.  1.
    10030    2    1    2    0    0  0.00000000000E+00  0.00000000000E+00 -0.38061962083E+03  0.33987655338E+04  0.33773859504E+04 0.  0.
        2    1    3    3  502    0 -0.14786067369E+04 -0.27044838370E+03 -0.96476820320E+03  0.17861125095E+04  0.25500000920E-02 0. -1.
       -2    1    3    3    0  502  0.14786067369E+04  0.27044838370E+03  0.58414858237E+03  0.16126530243E+04  0.25500000920E-02 0.  1.
</event>
<event>
 5   0  0.1948507E-06  0.3338944E+04  0.7818609E-02  0.8153056E-01
        2   -1    0    0  501    0  0.00000000000E+00  0.00000000000E+00  0.18604312281E+04  0.18604312281E+04  0.25500000920E-02 0. -1.
       -2   -1    0    0    0  501  0.00000000000E+00  0.00000000000E+00 -0.14981137429E+04  0.14981137429E+04  0.25500000920E-02 0.  1.
    10030    2    1    2    0    0  0.00000000000E+00  0.00000000000E+00  0.36231748515E+03  0.33585449710E+04  0.33389444982E+04 0.  0.
        1    1    3    3  502    0  0.74984492714E+03 -0.61993862180E+03 -0.11834725912E+04  0.15320570106E+04  0.50400001928E-02 0.  1.
       -1    1    3    3    0  502 -0.74984492714E+03  0.61993862180E+03  0.15457900763E+04  0.18264879604E+04  0.50400001928E-02 0. -1.
</event>
<event>
 5   0  0.6134625E-07  0.3309965E+04  0.7818609E-02  0.8160364E-01
        1   -1    0    0  501    0  0.00000000000E+00  0.00000000000E+00  0.25213012972E+04  0.25213012972E+04  0.50400001928E-02 0.  1.
       -1   -1    0    0    0  501  0.00000000000E+00  0.00000000000E+00 -0.10863309890E+04  0.10863309890E+04  0.50400001928E-02 0. -1.
    10030    2    1    2    0    0  0.00000000000E+00  0.00000000000E+00  0.14349703082E+04  0.36076322861E+04  0.33099653966E+04 0.  0.
        5    1    3    3  502    0  0.18133691129E+03 -0.15944192661E+04  0.11587250105E+04  0.19793235237E+04  0.46999998093E+01 0.  1.
       -5    1    3    3    0  502 -0.18133691129E+03  0.15944192661E+04  0.27624529768E+03  0.16283087624E+04  0.46999998093E+01 0. -1.
</event>
<event>
 5   0  0.6218695E-07  0.3129144E+04  0.7818609E-02  0.8207785E-01
       -1   -1    0    0    0  501  0.00000000000E+00  0.00000000000E+00  0.13850629439E+04  0.13850629439E+04  0.50400001928E-02 0. -1.
        1   -1    0    0  501    0  0.00000000000E+00  0.00000000000E+00 -0.17673466156E+04  0.17673466156E+04  0.50400001928E-02 0.  1.
    10030    2    1    2    0    0  0.00000000000E+00  0.00000000000E+00 -0.38228367178E+03  0.31524095595E+04  0.31291444878E+04 0.  0.
        2    1    3    3  502    0 -0.51163387331E+03 -0.11757803638E+04 -0.10942765853E+04  0.16857253422E+04  0.25500000920E-02 0.  1.
       -2    1    3    3    0  502  0.51163387331E+03  0.11757803638E+04  0.71199291351E+03  0.14666842173E+04  0.25500000920E-02 0. -1.
</event>
<event>
 5   0  0.6134625E-07  0.3293655E+04  0.7818609E-02  0.8164512E-01
        1   -1    0    0  501    0  0.00000000000E+00  0.00000000000E+00  0.18148242326E+04  0.18148242326E+04  0.50400001928E-02 0. -1.
       -1   -1    0    0    0  501  0.00000000000E+00  0.00000000000E+00 -0.14943819650E+04  0.14943819650E+04  0.50400001928E-02 0.  1.
    10030    2    1    2    0    0  0.00000000000E+00  0.00000000000E+00  0.32044226759E+03  0.33092061976E+04  0.32936548714E+04 0.  0.
        1    1    3    3  502    0  0.10043202741E+04 -0.13048796573E+04  0.18623682464E+03  0.16571222912E+04  0.50400001928E-02 0.  1.
       -1    1    3    3    0  502 -0.10043202741E+04  0.13048796573E+04  0.13420544295E+03  0.16520839065E+04  0.50400001928E-02 0. -1.
</event>
<event>
 5   0  0.1797075E-06  0.3414885E+04  0.7818609E-02  0.8134263E-01
       -2   -1    0    0    0  501  0.00000000000E+00  0.00000000000E+00  0.14963266615E+04  0.14963266615E+04  0.25500000920E-02 0. -1.
        2   -1    0    0  501    0  0.00000000000E+00  0.00000000000E+00 -0.19483448606E+04  0.19483448606E+04  0.25500000920E-02 0.  1.
    10030    2    1    2    0    0  0.00000000000E+00  0.00000000000E+00 -0.45201819911E+03  0.34446715222E+04  0.34148852753E+04 0.  0.
        2    1    3    3  502    0  0.12807790929E+04 -0.11073714985E+04 -0.44860021119E+03  0.17515447097E+04  0.25500000920E-02 0. -1.
       -2    1    3    3    0  502 -0.12807790929E+04  0.11073714985E+04 -0.34179879203E+01  0.16931268125E+04  0.25500000920E-02 0.  1.
</event>
<event>
 5   0  0.1948507E-06  0.3297850E+04  0.7818609E-02  0.8163443E-01
        2   -1    0    0  501    0  0.00000000000E+00  0.00000000000E+00  0.19596069058E+04  0.19596069058E+04  0.25500000920E-02 0. -1.
       -2   -1    0    0    0  501  0.00000000000E+00  0.00000000000E+00 -0.13874997453E+04  0.13874997453E+04  0.25500000920E-02 0.  1.
    10030    2    1    2    0    0  0.00000000000E+00  0.00000000000E+00  0.57210716053E+03  0.33471066511E+04  0.32978502590E+04 0.  0.
        1    1    3    3  502    0  0.27179946641E+02  0.67393932106E+03 -0.12410864309E+04  0.14125255704E+04  0.50400001928E-02 0.  1.
       -1    1    3    3    0  502 -0.27179946641E+02 -0.67393932106E+03  0.18131935914E+04  0.19345810807E+04  0.50400001928E-02 0. -1.
</event>
<event>
 5   0  0.6146388E-07  0.3279594E+04  0.7818609E-02  0.8168107E-01
       -1   -1    0    0    0  501  0.00000000000E+00  0.00000000000E+00  0.13168203802E+04  0.13168203802E+04  0.50400001928E-02 0.  1.
        1   -1    0    0  501    0  0.00000000000E+00  0.00000000000E+00 -0.20419898065E+04  0.20419898065E+04  0.50400001928E-02 0. -1.
    10030    2    1    2    0    0  0.00000000000E+00  0.00000000000E+00 -0.72516942624E+03  0.33588101867E+04  0.32795937513E+04 0.  0.
        4    1    3    3  502    0 -0.65165852892E+02 -0.30722046979E+03  0.12857315464E+04  0.13235324808E+04  0.12699999809E+01 0.  1.
       -4    1    3    3    0  502  0.65165852892E+02  0.30722046979E+03 -0.20109009727E+04  0.20352777059E+04  0.12699999809E+01 0. -1.
</event>
<event>
 5   0  0.1797075E-06  0.3382549E+04  0.7818609E-02  0.8142203E-01
        2   -1    0    0  501    0  0.00000000000E+00  0.00000000000E+00  0.17413010299E+04  0.17413010299E+04  0.25500000920E-02 0. -1.
       -2   -1    0    0    0  501  0.00000000000E+00  0.00000000000E+00 -0.16426856394E+04  0.16426856394E+04  0.25500000920E-02 0.  1.
    10030    2    1    2    0    0  0.00000000000E+00  0.00000000000E+00  0.98615390511E+02  0.33839866694E+04  0.33825494502E+04 0.  0.
        2    1    3    3  502    0  0.46204086745E+03  0.15462009916E+04 -0.45706043125E+03  0.16772368668E+04  0.25500000920E-02 0. -1.
       -2    1    3    3    0  502 -0.46204086745E+03 -0.15462009916E+04  0.55567582176E+03  0.17067498025E+04  0.25500000920E-02 0.  1.
</event>
<event>
 5   0  0.6218695E-07  0.2792904E+04  0.7818609E-02  0.8305475E-01
       -1   -1    0    0    0  501  0.00000000000E+00  0.00000000000E+00  0.15672679991E+04  0.15672679991E+04  0.50400001928E-02 0.  1.
        1   -1    0    0  501    0  0.00000000000E+00  0.00000000000E+00 -0.12442533099E+04  0.12442533099E+04  0.50400001928E-02 0. -1.
    10030    2    1    2    0    0  0.00000000000E+00  0.00000000000E+00  0.32301468924E+03  0.28115213090E+04  0.27929041483E+04 0.  0.
        2    1    3    3  502    0  0.87886746576E+03 -0.10490648706E+04  0.44108742218E+03  0.14378815108E+04  0.25500000920E-02 0.  1.
       -2    1    3    3    0  502 -0.87886746576E+03  0.10490648706E+04 -0.11807273294E+03  0.13736397982E+04  0.25500000920E-02 0. -1.
</event>
<event>
 5   0  0.6134625E-07  0.3313329E+04  0.7818609E-02  0.8159512E-01
        1   -1    0    0  501    0  0.00000000000E+00  0.00000000000E+00  0.20046717339E+04  0.20046717339E+04  0.50400001928E-02 0.  1.
       -1   -1    0    0    0  501  0.00000000000E+00  0.00000000000E+00 -0.13690708315E+04  0.13690708315E+04  0.50400001928E-02 0. -1.
    10030    2    1    2    0    0  0.00000000000E+00  0.00000000000E+00  0.63560090245E+03  0.33737425654E+04  0.33133292004E+04 0.  0.
        5    1    3    3  502    0  0.10301011371E+04  0.12181708589E+04  0.77256100473E+03  0.17725465269E+04  0.46999998093E+01 0.  1.
       -5    1    3    3    0  502 -0.10301011371E+04 -0.12181708589E+04 -0.13696010228E+03  0.16011960385E+04  0.46999998093E+01 0. -1.
</event>
<event>
 5   0  0.6134625E-07  0.3006464E+04  0.7818609E-02  0.8241887E-01
       -1   -1    0    0    0  501  0.00000000000E+00  0.00000000000E+00  0.13482968493E+04  0.13482968493E+04  0.50400001928E-02 0. -1.
        1   -1    0    0  501    0  0.00000000000E+00  0.00000000000E+00 -0.16759710436E+04  0.16759710436E+04  0.50400001928E-02 0.  1.
    10030    2    1    2    0    0  0.00000000000E+00  0.00000000000E+00 -0.32767419432E+03  0.30242678929E+04  0.30064640212E+04 0.  0.
        1    1    3    3  502    0  0.87606307999E+03  0.12123966091E+04 -0.13572370132E+02  0.14958530233E+04  0.50400001928E-02 0. -1.
       -1    1    3    3    0  502 -0.87606307999E+03 -0.12123966091E+04 -0.31410182419E+03  0.15284148697E+04  0.50400001928E-02 0.  1.
</event>
<event>
 5   0  0.1911477E-06  0.3384079E+04  0.7818609E-02  0.8141825E-01
        2   -1    0    0  501    0  0.00000000000E+00  0.00000000000E+00  0.15192118006E+04  0.15192118006E+04  0.25500000920E-02 0. -1.
       -2   -1    0    0    0  501  0.00000000000E+00  0.00000000000E+00 -0.18845283411E+04  0.18845283411E+04  0.25500000920E-02 0.  1.
    10030    2    1    2    0    0  0.00000000000E+00  0.00000000000E+00 -0.36531654058E+03  0.34037401417E+04  0.33840790147E+04 0.  0.
        5    1    3    3  502    0 -0.70885879090E+03 -0.26260787986E+03 -0.17052338407E+04  0.18652850253E+04  0.46999998093E+01 0.  1.
       -5    1    3    3    0  502  0.70885879090E+03  0.26260787986E+03  0.13399173001E+04  0.15384551164E+04  0.46999998093E+01 0. -1.
</event>
<event>
 5   0  0.1797075E-06  0.3343507E+04  0.7818609E-02  0.8151912E-01
       -2   -1    0    0    0  501  0.00000000000E+00  0.00000000000E+00  0.11391132007E+04  0.11391132007E+04  0.25500000920E-02 0.  1.
        2   -1    0    0  501    0  0.00000000000E+00  0.00000000000E+00 -0.24534526184E+04  0.24534526184E+04  0.25500000920E-02 0. -1.
    10030    2    1    2    0    0  0.00000000000E+00  0.00000000000E+00 -0.13143394177E+04  0.35925658191E+04  0.33435072992E+04 0.  0.
        2    1    3    3  502    0 -0.78982025045E+02 -0.21471988457E+03 -0.24365519088E+04  0.24472694975E+04  0.25500000920E-02 0. -1.
       -2    1    3    3    0  502  0.78982025045E+02  0.21471988457E+03  0.11222124911E+04  0.11452963216E+04  0.25500000920E-02 0.  1.
</event>
<event>
 5   0  0.6134625E-07  0.3777673E+04  0.7818609E-02  0.8050963E-01
       -1   -1    0    0    0  501  0.00000000000E+00  0.00000000000E+00  0.21627948858E+04  0.21627948859E+04  0.50400001928E-02 0.  1.
        1   -1    0    0  501    0  0.00000000000E+00  0.00000000000E+00 -0.16495798719E+04  0.16495798719E+04  0.50400001928E-02 0. -1.
    10030    2    1    2    0    0  0.00000000000E+00  0.00000000000E+00  0.51321501398E+03  0.38123747577E+04  0.37776727813E+04 0.  0.
        5    1    3    3  502    0 -0.19131777418E+03 -0.13533026797E+04 -0.10590747610E+04  0.17290726049E+04  0.46999998093E+01 0. -1.
       -5    1    3    3    0  502  0.19131777418E+03  0.13533026797E+04  0.15722897749E+04  0.20833021528E+04  0.46999998093E+01 0.  1.
</event>
<event>
 5   0  0.6134625E-07  0.3459582E+04  0.7818609E-02  0.8123436E-01
       -3   -1    0    0    0  501  0.00000000000E+00  0.00000000000E+00  0.18349739983E+04  0.18349740011E+04  0.10100000352E+00 0. -1.
        3   -1    0    0  501    0  0.00000000000E+00  0.00000000000E+00 -0.16306376849E+04  0.16306376881E+04  0.10100000352E+00 0.  1.
    10030    2    1    2    0    0  0.00000000000E+00  0.00000000000E+00  0.20433631335E+03  0.34656116891E+04  0.34595824966E+04 0.  0.
        5    1    3    3  502    0  0.38695172790E+03  0.16855808117E+04  0.66873812545E+02  0.17307248509E+04  0.46999998093E+01 0.  1.
       -5    1    3    3    0  502 -0.38695172790E+03 -0.16855808117E+04  0.13746250080E+03  0.17348868383E+04  0.46999998093E+01 0. -1.
</event>
<event>
 5   0  0.6134625E-07  0.3197283E+04  0.7818609E-02  0.8189535E-01
        1   -1    0    0  501    0  0.00000000000E+00  0.00000000000E+00  0.13872034508E+04  0.13872034508E+04  0.50400001928E-02 0. -1.
       -1   -1    0    0    0  501  0.00000000000E+00  0.00000000000E+00 -0.18423069589E+04  0.18423069589E+04  0.50400001928E-02 0.  1.
    10030    2    1    2    0    0  0.00000000000E+00  0.00000000000E+00 -0.45510350809E+03  0.32295104096E+04  0.31972829532E+04 0.  0.
        5    1    3    3  502    0  0.53198254540E+03  0.14606765645E+04  0.14910236015E+03  0.15616770019E+04  0.46999998093E+01 0. -1.
       -5    1    3    3    0  502 -0.53198254540E+03 -0.14606765645E+04 -0.60420586824E+03  0.16678334077E+04  0.46999998093E+01 0.  1.
</event>
<event>
 5   0  0.1911477E-06  0.3397153E+04  0.7818609E-02  0.8138605E-01
       -2   -1    0    0    0  501  0.00000000000E+00  0.00000000000E+00  0.10277040465E+04  0.10277040465E+04  0.25500000920E-02 0. -1.
        2   -1    0    0  501    0  0.00000000000E+00  0.00000000000E+00 -0.28073869393E+04  0.28073869393E+04  0.25500000920E-02 0.  1.
    10030    2    1    2    0    0  0.00000000000E+00  0.00000000000E+00 -0.17796828928E+04  0.38350909858E+04  0.33971534658E+04 0.  0.
        5    1    3    3  502    0 -0.35534762377E+03 -0.34329238872E+03 -0.27244621367E+04  0.27689054917E+04  0.46999998093E+01 0.  1.
       -5    1    3    3    0  502  0.35534762377E+03  0.34329238872E+03  0.94477924393E+03  0.10661854940E+04  0.46999998093E+01 0. -1.
</event>
<event>
 5   0  0.6146388E-07  0.3452412E+04  0.7818609E-02  0.8125161E-01
       -1   -1    0    0    0  501  0.00000000000E+00  0.00000000000E+00  0.20207533005E+04  0.20207533005E+04  0.50400001928E-02 0.  1.
        1   -1    0    0  501    0  0.00000000000E+00  0.00000000000E+00 -0.14745926280E+04  0.14745926281E+04  0.50400001928E-02 0. -1.
    10030    2    1    2    0    0  0.00000000000E+00  0.00000000000E+00  0.54616067243E+03  0.34953459285E+04  0.34524124435E+04 0.  0.
        4    1    3    3  502    0 -0.14851299130E+04 -0.87987239846E+03  0.27318665367E+03  0.17476895768E+04  0.12699999809E+01 0. -1.
       -4    1    3    3    0  502  0.14851299130E+04  0.87987239846E+03  0.27297401876E+03  0.17476563518E+04  0.12699999809E+01 0.  1.
</event>
<event>
 5   0  0.1797075E-06  0.3298117E+04  0.7818609E-02  0.8163375E-01
        2   -1    0    0  501    0  0.00000000000E+00  0.00000000000E+00  0.20821221493E+04  0.20821221493E+04  0.25500000920E-02 0. -1.
       -2   -1    0    0    0  501  0.00000000000E+00  0.00000000000E+00 -0.13060683356E+04  0.13060683356E+04  0.25500000920E-02 0.  1.
    10030    2    1    2    0    0  0.00000000000E+00  0.00000000000E+00  0.77605381373E+03  0.33881904849E+04  0.32981169233E+04 0.  0.
        2    1    3    3  502    0 -0.10077952151E+04 -0.11413064162E+03 -0.94776007282E+03  0.13881376569E+04  0.25500000920E-02 0.  1.
       -2    1    3    3    0  502  0.10077952151E+04  0.11413064162E+03  0.17238138866E+04  0.20000528279E+04  0.25500000920E-02 0. -1.
</event>
<event>
 5   0  0.6134625E-07  0.3407309E+04  0.7818609E-02  0.8136115E-01
        1   -1    0    0  501    0  0.00000000000E+00  0.00000000000E+00  0.17428684826E+04  0.17428684826E+04  0.50400001928E-02 0.  1.
       -1   -1    0    0    0  501  0.00000000000E+00  0.00000000000E+00 -0.16653229062E+04  0.16653229062E+04  0.50400001928E-02 0. -1.
    10030    2    1    2    0    0  0.00000000000E+00  0.00000000000E+00  0.77545576360E+02  0.34081913888E+04  0.34073090888E+04 0.  0.
        1    1    3    3  502    0 -0.35558357471E+03  0.88631657352E+03 -0.13724228100E+04  0.16719871760E+04  0.50400001928E-02 0. -1.
       -1    1    3    3    0  502  0.35558357471E+03 -0.88631657352E+03  0.14499683864E+04  0.17362042128E+04  0.50400001928E-02 0.  1.
</event>
<event>
 5   0  0.6134625E-07  0.3570145E+04  0.7818609E-02  0.8097365E-01
        1   -1    0    0  501    0  0.00000000000E+00  0.00000000000E+00  0.16849206495E+04  0.16849206495E+04  0.50400001928E-02 0. -1.
       -1   -1    0    0    0  501  0.00000000000E+00  0.00000000000E+00 -0.18911771623E+04  0.18911771623E+04  0.50400001928E-02 0.  1.
    10030    2    1    2    0    0  0.00000000000E+00  0.00000000000E+00 -0.20625651278E+03  0.35760978118E+04  0.35701447885E+04 0.  0.
        5    1    3    3  502    0  0.65042526187E+03 -0.72436659635E+03 -0.16018521892E+04  0.18744899342E+04  0.46999998093E+01 0.  1.
       -5    1    3    3    0  502 -0.65042526187E+03  0.72436659635E+03  0.13955956764E+04  0.17016078777E+04  0.46999998093E+01 0. -1.
</event>
<event>
 5   0  0.6134625E-07  0.3425923E+04  0.7818609E-02  0.8131573E-01
       -3   -1    0    0    0  501  0.00000000000E+00  0.00000000000E+00  0.13685230110E+04  0.13685230148E+04  0.10100000352E+00 0.  1.
        3   -1    0    0  501    0  0.00000000000E+00  0.00000000000E+00 -0.21440907766E+04  0.21440907790E+04  0.10100000352E+00 0. -1.
    10030    2    1    2    0    0  0.00000000000E+00  0.00000000000E+00 -0.77556776553E+03  0.35126137937E+04  0.34259232777E+04 0.  0.
        5    1    3    3  502    0 -0.16886310507E+04  0.28584207683E+03 -0.35479890265E+03  0.17490239763E+04  0.46999998093E+01 0. -1.
       -5    1    3    3    0  502  0.16886310507E+04 -0.28584207683E+03 -0.42076886288E+03  0.17635898175E+04  0.46999998093E+01 0.  1.
</event>
<event>
 5   0  0.1911477E-06  0.3580756E+04  0.7818609E-02  0.8094914E-01
        2   -1    0    0  501    0  0.00000000000E+00  0.00000000000E+00  0.24869202907E+04  0.24869202907E+04  0.25500000920E-02 0.  1.
       -2   -1    0    0    0  501  0.00000000000E+00  0.00000000000E+00 -0.12889250218E+04  0.12889250219E+04  0.25500000920E-02 0. -1.
    10030    2    1    2    0    0  0.00000000000E+00  0.00000000000E+00  0.11979952688E+04  0.37758453125E+04  0.35807562274E+04 0.  0.
        5    1    3    3  502    0 -0.88202755741E+03  0.25359332367E+03  0.22200051859E+04  0.24022338149E+04  0.46999998093E+01 0.  1.
       -5    1    3    3    0  502  0.88202755741E+03 -0.25359332367E+03 -0.10220099171E+04  0.13736114976E+04  0.46999998093E+01 0. -1.
</event>
<event>
 5   0  0.6134625E-07  0.3356779E+04  0.7818609E-02  0.8148596E-01
        1   -1    0    0  501    0  0.00000000000E+00  0.00000000000E+00  0.96395502174E+03  0.96395502176E+03  0.50400001928E-02 0. -1.
       -1   -1    0    0    0  501  0.00000000000E+00  0.00000000000E+00 -0.29223259880E+04  0.29223259881E+04  0.50400001928E-02 0.  1.
    10030    2    1    2    0    0  0.00000000000E+00  0.00000000000E+00 -0.19583709663E+04  0.38862810098E+04  0.33567787007E+04 0.  0.
        1    1    3    3  502    0 -0.11864310043E+04  0.97330935273E+03 -0.19222697483E+03  0.15465771348E+04  0.50400001928E-02 0. -1.
       -1    1    3    3    0  502  0.11864310043E+04 -0.97330935273E+03 -0.17661439915E+04  0.23397038750E+04  0.50400001928E-02 0.  1.
</event>
<event>
 5   0  0.6134625E-07  0.3326116E+04  0.7818609E-02  0.8156282E-01
        1   -1    0    0  501    0  0.00000000000E+00  0.00000000000E+00  0.14568981812E+04  0.14568981813E+04  0.50400001928E-02 0.  1.
       -1   -1    0    0    0  501  0.00000000000E+00  0.00000000000E+00 -0.18983903410E+04  0.18983903410E+04  0.50400001928E-02 0. -1.
    10030    2    1    2    0    0  0.00000000000E+00  0.00000000000E+00 -0.44149215971E+03  0.33552885222E+04  0.33261157136E+04 0.  0.
        5    1    3    3  502    0 -0.33208026383E+03  0.86762556962E+03 -0.16122239284E+04  0.18607362833E+04  0.46999998093E+01 0. -1.
       -5    1    3    3    0  502  0.33208026383E+03 -0.86762556962E+03  0.11707317687E+04  0.14945522389E+04  0.46999998093E+01 0.  1.
</event>
<event>
 5   0  0.6134625E-07  0.3438283E+04  0.7818609E-02  0.8128574E-01
        1   -1    0    0  501    0  0.00000000000E+00  0.00000000000E+00  0.25998826279E+04  0.25998826279E+04  0.50400001928E-02 0.  1.
       -1   -1    0    0    0  501  0.00000000000E+00  0.00000000000E+00 -0.11367618692E+04  0.11367618692E+04  0.50400001928E-02 0. -1.
    10030    2    1    2    0    0  0.00000000000E+00  0.00000000000E+00  0.14631207587E+04  0.37366444971E+04  0.34382829644E+04 0.  0.
        3    1    3    3  502    0  0.11533632198E+04  0.89927669062E+03  0.17135769814E+04  0.22528407322E+04  0.10100000352E+00 0.  1.
       -3    1    3    3    0  502 -0.11533632198E+04 -0.89927669062E+03 -0.25045622276E+03  0.14838037649E+04  0.10100000352E+00 0. -1.
</event>
<event>
 5   0  0.1797075E-06  0.3400946E+04  0.7818609E-02  0.8137674E-01
       -2   -1    0    0    0  501  0.00000000000E+00  0.00000000000E+00  0.13604117660E+04  0.13604117660E+04  0.25500000920E-02 0. -1.
        2   -1    0    0  501    0  0.00000000000E+00  0.00000000000E+00 -0.21255389936E+04  0.21255389936E+04  0.25500000920E-02 0.  1.
    10030    2    1    2    0    0  0.00000000000E+00  0.00000000000E+00 -0.76512722758E+03  0.34859507596E+04  0.34009459014E+04 0.  0.
        2    1    3    3  502    0  0.14765711891E+03 -0.15117229628E+04 -0.11661980776E+04  0.19149743855E+04  0.25500000920E-02 0.  1.
       -2    1    3    3    0  502 -0.14765711891E+03  0.15117229628E+04  0.40107085002E+03  0.15709763741E+04  0.25500000920E-02 0. -1.
</event>
<event>
 5   0  0.6134625E-07  0.3411216E+04  0.7818609E-02  0.8135159E-01
        1   -1    0    0  501    0  0.00000000000E+00  0.00000000000E+00  0.23312192593E+04  0.23312192593E+04  0.50400001928E-02 0.  1.
       -1   -1    0    0    0  501  0.00000000000E+00  0.00000000000E+00 -0.12478872541E+04  0.12478872541E+04  0.50400001928E-02 0. -1.
    10030    2    1    2    0    0  0.00000000000E+00  0.00000000000E+00  0.10833320052E+04  0.35791065134E+04  0.34112160882E+04 0.  0.
        5    1    3    3  502    0 -0.33915117271E+03  0.15452221436E+04  0.12104888471E+04  0.19919940588E+04  0.46999998093E+01 0.  1.
       -5    1    3    3    0  502  0.33915117271E+03 -0.15452221436E+04 -0.12715684189E+03  0.15871124546E+04  0.46999998093E+01 0. -1.
</event>
<event>
 5   0  0.6134625E-07  0.3529603E+04  0.7818609E-02  0.8106810E-01
        1   -1    0    0  501    0  0.00000000000E+00  0.00000000000E+00  0.21399883757E+04  0.21399883757E+04  0.50400001928E-02 0. -1.
       -1   -1    0    0    0  501  0.00000000000E+00  0.00000000000E+00 -0.14553932351E+04  0.14553932351E+04  0.50400001928E-02 0.  1.
    10030    2    1    2    0    0  0.00000000000E+00  0.00000000000E+00  0.68459514063E+03  0.35953816108E+04  0.35296031535E+04 0.  0.
        1    1    3    3  502    0  0.79870184103E+03 -0.10484534213E+04  0.15377726987E+04  0.20253207352E+04  0.50400001928E-02 0. -1.
       -1    1    3    3    0  502 -0.79870184103E+03  0.10484534213E+04 -0.85317755810E+03  0.15700608756E+04  0.50400001928E-02 0.  1.
</event>
<event>
 5   0  0.1797075E-06  0.2515029E+04  0.7818609E-02  0.8397651E-01
        2   -1    0    0  501    0  0.00000000000E+00  0.00000000000E+00  0.22435165510E+04  0.22435165510E+04  0.25500000920E-02 0. -1.
       -2   -1    0    0    0  501  0.00000000000E+00  0.00000000000E+00 -0.70485000412E+03  0.70485000412E+03  0.25500000920E-02 0.  1.
    10030    2    1    2    0    0  0.00000000000E+00  0.00000000000E+00  0.15386665468E+04  0.29483665551E+04  0.25150289463E+04 0.  0.
        2    1    3    3  502    0 -0.10040382331E+04 -0.33865561255E+03  0.15631817933E+04  0.18884696758E+04  0.25500000920E-02 0. -1.
       -2    1    3    3    0  502  0.10040382331E+04  0.33865561255E+03 -0.24515246450E+02  0.10598968793E+04  0.25500000920E-02 0.  1.
</event>
<event>
 5   0  0.1911477E-06  0.3543400E+04  0.7818609E-02  0.8103581E-01
        2   -1    0    0  501    0  0.00000000000E+00  0.00000000000E+00  0.20436445850E+04  0.20436445851E+04  0.25500000920E-02 0. -1.
       -2   -1    0    0    0  501  0.00000000000E+00  0.00000000000E+00 -0.15359423052E+04  0.15359423052E+04  0.25500000920E-02 0.  1.
    10030    2    1    2    0    0  0.00000000000E+00  0.00000000000E+00  0.50770227986E+03  0.35795868902E+04  0.35433995964E+04 0.  0.
        5    1    3    3  502    0  0.14526675143E+04 -0.70948362106E+03 -0.47831828217E+03  0.16859479187E+04  0.46999998093E+01 0.  1.
       -5    1    3    3    0  502 -0.14526675143E+04  0.70948362106E+03  0.98602056203E+03  0.18936389715E+04  0.46999998093E+01 0. -1.
</event>
<event>
 5   0  0.6218695E-07  0.3350413E+04  0.7818609E-02  0.8150185E-01
        1   -1    0    0  501    0  0.00000000000E+00  0.00000000000E+00  0.18080257326E+04  0.18080257326E+04  0.50400001928E-02 0.  1.
       -1   -1    0    0    0  501  0.00000000000E+00  0.00000000000E+00 -0.15521439719E+04  0.15521439719E+04  0.50400001928E-02 0. -1.
    10030    2    1    2    0    0  0.00000000000E+00  0.00000000000E+00  0.25588176073E+03  0.33601697045E+04  0.33504126563E+04 0.  0.
        2    1    3    3  502    0  0.16783485987E+03 -0.16603491791E+04 -0.18732431061E+02  0.16689154684E+04  0.25500000920E-02 0. -1.
       -2    1    3    3    0  502 -0.16783485987E+03  0.16603491791E+04  0.27461419180E+03  0.16912542361E+04  0.25500000920E-02 0.  1.
</event>
<event>
 5   0  0.6218695E-07  0.3331909E+04  0.7818609E-02  0.8154823E-01
        1   -1    0    0  501    0  0.00000000000E+00  0.00000000000E+00  0.19073360682E+04  0.19073360682E+04  0.50400001928E-02 0.  1.
       -1   -1    0    0    0  501  0.00000000000E+00  0.00000000000E+00 -0.14551210313E+04  0.14551210313E+04  0.50400001928E-02 0. -1.
    10030    2    1    2    0    0  0.00000000000E+00  0.00000000000E+00  0.45221503691E+03  0.33624570995E+04  0.33319092584E+04 0.  0.
        2    1    3    3  502    0  0.11165741044E+04 -0.12103054610E+04 -0.28850385926E+02  0.16469393991E+04  0.25500000920E-02 0. -1.
       -2    1    3    3    0  502 -0.11165741044E+04  0.12103054610E+04  0.48106542284E+03  0.17155177004E+04  0.25500000920E-02 0.  1.
</event>
<event>
 5   0  0.6146388E-07  0.3396355E+04  0.7818609E-02  0.8138802E-01
        1   -1    0    0  501    0  0.00000000000E+00  0.00000000000E+00  0.22355180094E+04  0.22355180094E+04  0.50400001928E-02 0.  1.
       -1   -1    0    0    0  501  0.00000000000E+00  0.00000000000E+00 -0.12899946243E+04  0.12899946243E+04  0.50400001928E-02 0. -1.
    10030    2    1    2    0    0  0.00000000000E+00  0.00000000000E+00  0.94552338510E+03  0.35255126337E+04  0.33963546426E+04 0.  0.
        4    1    3    3  502    0 -0.31607515733E+03 -0.12514594705E+04  0.16182439423E+04  0.20699684493E+04  0.12699999809E+01 0.  1.
       -4    1    3    3    0  502  0.31607515733E+03  0.12514594705E+04 -0.67272055723E+03  0.14555441843E+04  0.12699999809E+01 0. -1.
</event>
<event>
 5   0  0.6134625E-07  0.3378340E+04  0.7818609E-02  0.8143243E-01
        1   -1    0    0  501    0  0.00000000000E+00  0.00000000000E+00  0.29880665623E+04  0.29880665623E+04  0.50400001928E-02 0.  1.
       -1   -1    0    0    0  501  0.00000000000E+00  0.00000000000E+00 -0.95489667482E+03  0.95489667483E+03  0.50400001928E-02 0. -1.
    10030    2    1    2    0    0  0.00000000000E+00  0.00000000000E+00  0.20331698875E+04  0.39429632372E+04  0.33783397251E+04 0.  0.
        5    1    3    3  502    0 -0.77382743750E+03 -0.14885982663E+04  0.78746134861E+03  0.18533351470E+04  0.46999998093E+01 0.  1.
       -5    1    3    3    0  502  0.77382743750E+03  0.14885982663E+04  0.12457085389E+04  0.20896280902E+04  0.46999998093E+01 0. -1.
</event>
<event>
 5   0  0.6134625E-07  0.2619304E+04  0.7818609E-02  0.8361674E-01
        1   -1    0    0  501    0  0.00000000000E+00  0.00000000000E+00  0.13666860179E+04  0.13666860179E+04  0.50400001928E-02 0. -1.
       -1   -1    0    0    0  501  0.00000000000E+00  0.00000000000E+00 -0.12549977111E+04  0.12549977111E+04  0.50400001928E-02 0.  1.
    10030    2    1    2    0    0  0.00000000000E+00  0.00000000000E+00  0.11168830682E+03  0.26216837290E+04  0.26193035901E+04 0.  0.
        3    1    3    3  502    0 -0.59936554273E+03  0.52307535819E+02 -0.11084896068E+04  0.12612392123E+04  0.10100000352E+00 0.  1.
       -3    1    3    3    0  502  0.59936554273E+03 -0.52307535819E+02  0.12201779136E+04  0.13604445167E+04  0.10100000352E+00 0. -1.
</event>
<event>
 5   0  0.1339844E-06  0.3367659E+04  0.7818609E-02  0.8145890E-01
       -2   -1    0    0    0  501  0.00000000000E+00  0.00000000000E+00  0.15868148597E+04  0.15868148597E+04  0.25500000920E-02 0.  1.
        2   -1    0    0  501    0  0.00000000000E+00  0.00000000000E+00 -0.17867753315E+04  0.17867753315E+04  0.25500000920E-02 0. -1.
    10030    2    1    2    0    0  0.00000000000E+00  0.00000000000E+00 -0.19996047186E+03  0.33735901912E+04  0.33676589180E+04 0.  0.
        3    1    3    3  502    0  0.49851606015E+03 -0.75625827420E+03  0.13219692325E+04  0.16025128709E+04  0.10100000352E+00 0.  1.
       -3    1    3    3    0  502 -0.49851606015E+03  0.75625827420E+03 -0.15219297043E+04  0.17710773203E+04  0.10100000352E+00 0. -1.
</event>
<event>
 5   0  0.6134625E-07  0.2988792E+04  0.7818609E-02  0.8246939E-01
       -1   -1    0    0    0  501  0.00000000000E+00  0.00000000000E+00  0.21961077712E+04  0.21961077712E+04  0.50400001928E-02 0. -1.
        1   -1    0    0  501    0  0.00000000000E+00  0.00000000000E+00 -0.10168986962E+04  0.10168986962E+04  0.50400001928E-02 0.  1.
    10030    2    1    2    0    0  0.00000000000E+00  0.00000000000E+00  0.11792090750E+04  0.32130064674E+04  0.29887918155E+04 0.  0.
        5    1    3    3  502    0 -0.29593566082E+03 -0.71037672043E+01  0.21642657970E+04  0.21844214128E+04  0.46999998093E+01 0. -1.
       -5    1    3    3    0  502  0.29593566082E+03  0.71037672043E+01 -0.98505672198E+03  0.10285850545E+04  0.46999998093E+01 0.  1.
</event>
<event>
 5   0  0.1880301E-06  0.3400793E+04  0.7818609E-02  0.8137712E-01
       -2   -1    0    0    0  501  0.00000000000E+00  0.00000000000E+00  0.14349712821E+04  0.14349712821E+04  0.25500000920E-02 0.  1.
        2   -1    0    0  501    0  0.00000000000E+00  0.00000000000E+00 -0.20149169361E+04  0.20149169361E+04  0.25500000920E-02 0. -1.
    10030    2    1    2    0    0  0.00000000000E+00  0.00000000000E+00 -0.57994565399E+03  0.34498882182E+04  0.34007928129E+04 0.  0.
        4    1    3    3  502    0  0.13991446950E+04 -0.96604284431E+03 -0.26725144833E+03  0.17211245173E+04  0.12699999809E+01 0.  1.
       -4    1    3    3    0  502 -0.13991446950E+04  0.96604284431E+03 -0.31269420566E+03  0.17287637009E+04  0.12699999809E+01 0. -1.
</event>
<event>
 5   0  0.6134625E-07  0.3381963E+04  0.7818609E-02  0.8142347E-01
        1   -1    0    0  501    0  0.00000000000E+00  0.00000000000E+00  0.27908311888E+04  0.27908311888E+04  0.50400001928E-02 0. -1.
       -1   -1    0    0    0  501  0.00000000000E+00  0.00000000000E+00 -0.10245759850E+04  0.10245759850E+04  0.50400001928E-02 0.  1.
    10030    2    1    2    0    0  0.00000000000E+00  0.00000000000E+00  0.17662552038E+04  0.38154071738E+04  0.33819631070E+04 0.  0.
        3    1    3    3  502    0  0.88073723679E+03 -0.15899066506E+03 -0.73547932806E+03  0.11584066488E+04  0.10100000352E+00 0.  1.
       -3    1    3    3    0  502 -0.88073723679E+03  0.15899066506E+03  0.25017345319E+04  0.26570005250E+04  0.10100000352E+00 0. -1.
</event>
<event>
 5   0  0.6218695E-07  0.3047832E+04  0.7818609E-02  0.8230202E-01
       -1   -1    0    0    0  501  0.00000000000E+00  0.00000000000E+00  0.29961709169E+04  0.29961709169E+04  0.50400001928E-02 0. -1.
        1   -1    0    0  501    0  0.00000000000E+00  0.00000000000E+00 -0.77509610014E+03  0.77509610016E+03  0.50400001928E-02 0.  1.
    10030    2    1    2    0    0  0.00000000000E+00  0.00000000000E+00  0.22210748167E+04  0.37712670170E+04  0.30478322743E+04 0.  0.
        2    1    3    3  502    0  0.10308254342E+04  0.24414864883E+03 -0.24498556706E+03  0.10873028863E+04  0.25500000920E-02 0.  1.
       -2    1    3    3    0  502 -0.10308254342E+04 -0.24414864883E+03  0.24660603838E+04  0.26839641307E+04  0.25500000920E-02 0. -1.
</event>
<event>
 5   0  0.6134625E-07  0.3475732E+04  0.7818609E-02  0.8119565E-01
        1   -1    0    0  501    0  0.00000000000E+00  0.00000000000E+00  0.16920243245E+04  0.16920243245E+04  0.50400001928E-02 0.  1.
       -1   -1    0    0    0  501  0.00000000000E+00  0.00000000000E+00 -0.17849499996E+04  0.17849499996E+04  0.50400001928E-02 0. -1.
    10030    2    1    2    0    0  0.00000000000E+00  0.00000000000E+00 -0.92925675128E+02  0.34769743240E+04  0.34757323356E+04 0.  0.
        5    1    3    3  502    0 -0.16028950355E+04 -0.32112428678E+03  0.54346258391E+03  0.17227208051E+04  0.46999998093E+01 0.  1.
       -5    1    3    3    0  502  0.16028950355E+04  0.32112428678E+03 -0.63638825904E+03  0.17542535189E+04  0.46999998093E+01 0. -1.
</event>
<event>
 5   0  0.1948507E-06  0.2962248E+04  0.7818609E-02  0.8254594E-01
       -2   -1    0    0    0  501  0.00000000000E+00  0.00000000000E+00  0.89600887443E+03  0.89600887444E+03  0.25500000920E-02 0. -1.
        2   -1    0    0  501    0  0.00000000000E+00  0.00000000000E+00 -0.24483336793E+04  0.24483336793E+04  0.25500000920E-02 0.  1.
    10030    2    1    2    0    0  0.00000000000E+00  0.00000000000E+00 -0.15523248049E+04  0.33443425538E+04  0.29622482707E+04 0.  0.
        1    1    3    3  502    0 -0.26129095795E+03  0.33586861942E+03 -0.23778330414E+04  0.24156097920E+04  0.50400001928E-02 0.  1.
       -1    1    3    3    0  502  0.26129095795E+03 -0.33586861942E+03  0.82550823653E+03  0.92873276179E+03  0.50400001928E-02 0. -1.
</event>
<event>
 5   0  0.1339844E-06  0.3395784E+04  0.7818609E-02  0.8138942E-01
        2   -1    0    0  501    0  0.00000000000E+00  0.00000000000E+00  0.18755968702E+04  0.18755968702E+04  0.25500000920E-02 0.  1.
       -2   -1    0    0    0  501  0.00000000000E+00  0.00000000000E+00 -0.15370238951E+04  0.15370238951E+04  0.25500000920E-02 0. -1.
    10030    2    1    2    0    0  0.00000000000E+00  0.00000000000E+00  0.33857297511E+03  0.34126207652E+04  0.33957839784E+04 0.  0.
        3    1    3    3  502    0 -0.13036008253E+04  0.55098900421E+03  0.11119528702E+04  0.17998342119E+04  0.10100000352E+00 0.  1.
       -3    1    3    3    0  502  0.13036008253E+04 -0.55098900421E+03 -0.77337989510E+03  0.16127865534E+04  0.10100000352E+00 0. -1.
</event>
<event>
 5   0  0.1948507E-06  0.3326571E+04  0.7818609E-02  0.8156167E-01
       -2   -1    0    0    0  501  0.00000000000E+00  0.00000000000E+00  0.27686601038E+04  0.27686601038E+04  0.25500000920E-02 0.  1.
        2   -1    0    0  501    0  0.00000000000E+00  0.00000000000E+00 -0.99922653761E+03  0.99922653761E+03  0.25500000920E-02 0. -1.
    10030    2    1    2    0    0  0.00000000000E+00  0.00000000000E+00  0.17694335662E+04  0.37678866414E+04  0.33265709969E+04 0.  0.
        1    1    3    3  502    0  0.77211463283E+03  0.16479346072E+03  0.25428997846E+04  0.26626410207E+04  0.50400001928E-02 0.  1.
       -1    1    3    3    0  502 -0.77211463283E+03 -0.16479346072E+03 -0.77346621840E+03  0.11052456207E+04  0.50400001928E-02 0. -1.
</event>
<event>
 5   0  0.1339844E-06  0.3418224E+04  0.7818609E-02  0.8133448E-01
        2   -1    0    0  501    0  0.00000000000E+00  0.00000000000E+00  0.26144718932E+04  0.26144718932E+04  0.25500000920E-02 0.  1.
       -2   -1    0    0    0  501  0.00000000000E+00  0.00000000000E+00 -0.11172673493E+04  0.11172673493E+04  0.25500000920E-02 0. -1.
    10030    2    1    2    0    0  0.00000000000E+00  0.00000000000E+00  0.14972045439E+04  0.37317392425E+04  0.34182241482E+04 0.  0.
        3    1    3    3  502    0 -0.88560140670E+03  0.11855306587E+04 -0.18498720587E+03  0.14913058274E+04  0.10100000352E+00 0.  1.
       -3    1    3    3    0  502  0.88560140670E+03 -0.11855306587E+04  0.16821917498E+04  0.22404334151E+04  0.10100000352E+00 0. -1.
</event>
<event>
 5   0  0.1797075E-06  0.2748595E+04  0.7818609E-02  0.8319408E-01
       -2   -1    0    0    0  501  0.00000000000E+00  0.00000000000E+00  0.15068834310E+04  0.15068834310E+04  0.25500000920E-02 0. -1.
        2   -1    0    0  501    0  0.00000000000E+00  0.00000000000E+00 -0.12533776705E+04  0.12533776705E+04  0.25500000920E-02 0.  1.
    10030    2    1    2    0    0  0.00000000000E+00  0.00000000000E+00  0.25350576052E+03  0.27602611015E+04  0.27485953099E+04 0.  0.
        2    1    3    3  502    0  0.13660149100E+04 -0.61256081833E+02 -0.11472151863E+02  0.13674357945E+04  0.25500000920E-02 0. -1.
       -2    1    3    3    0  502 -0.13660149100E+04  0.61256081833E+02  0.26497791238E+03  0.13928253070E+04  0.25500000920E-02 0.  1.
</event>
<event>
 5   0  0.1948507E-06  0.3433317E+04  0.7818609E-02  0.8129777E-01
        2   -1    0    0  501    0  0.00000000000E+00  0.00000000000E+00  0.19444048984E+04  0.19444048984E+04  0.25500000920E-02 0. -1.
       -2   -1    0    0    0  501  0.00000000000E+00  0.00000000000E+00 -0.15155878455E+04  0.15155878455E+04  0.25500000920E-02 0.  1.
    10030    2    1    2    0    0  0.00000000000E+00  0.00000000000E+00  0.42881705293E+03  0.34599927439E+04  0.34333170146E+04 0.  0.
        1    1    3    3  502    0 -0.24533788867E+03 -0.72546812289E+03  0.17627119942E+04  0.19218866385E+04  0.50400001928E-02 0. -1.
       -1    1    3    3    0  502  0.24533788867E+03  0.72546812289E+03 -0.13338949413E+04  0.15381061053E+04  0.50400001928E-02 0.  1.
</event>
<event>
 5   0  0.6134625E-07  0.3418835E+04  0.7818609E-02  0.8133299E-01
       -1   -1    0    0    0  501  0.00000000000E+00  0.00000000000E+00  0.16082171528E+04  0.16082171528E+04  0.50400001928E-02 0.  1.
        1   -1    0    0  501    0  0.00000000000E+00  0.00000000000E+00 -0.18169864795E+04  0.18169864795E+04  0.50400001928E-02 0. -1.
    10030    2    1    2    0    0  0.00000000000E+00  0.00000000000E+00 -0.20876932674E+03  0.34252036323E+04  0.34188353705E+04 0.  0.
        3    1    3    3  502    0  0.14666976322E+04  0.18181287104E+03 -0.96496719672E+03  0.17650551168E+04  0.10100000352E+00 0. -1.
       -3    1    3    3    0  502 -0.14666976322E+04 -0.18181287104E+03  0.75619786998E+03  0.16601485154E+04  0.10100000352E+00 0.  1.
</event>
<event>
 5   0  0.6134625E-07  0.3386468E+04  0.7818609E-02  0.8141236E-01
       -1   -1    0    0    0  501  0.00000000000E+00  0.00000000000E+00  0.31079733239E+04  0.31079733240E+04  0.50400001928E-02 0. -1.
        1   -1    0    0  501    0  0.00000000000E+00  0.00000000000E+00 -0.92247920190E+03  0.92247920192E+03  0.50400001928E-02 0.  1.
    10030    2    1    2    0    0  0.00000000000E+00  0.00000000000E+00  0.21854941220E+04  0.40304525259E+04  0.33864676295E+04 0.  0.
        3    1    3    3  502    0 -0.88460320461E+03  0.11212224688E+04  0.10169830142E+02  0.14282037984E+04  0.10100000352E+00 0.  1.
       -3    1    3    3    0  502  0.88460320461E+03 -0.11212224688E+04  0.21753242919E+04  0.26022487274E+04  0.10100000352E+00 0. -1.
</event>
<event>
 5   0  0.1797075E-06  0.3452387E+04  0.7818609E-02  0.8125167E-01
       -2   -1    0    0    0  501  0.00000000000E+00  0.00000000000E+00  0.13598240528E+04  0.13598240528E+04  0.25500000920E-02 0.  1.
        2   -1    0    0  501    0  0.00000000000E+00  0.00000000000E+00 -0.21912717147E+04  0.21912717147E+04  0.25500000920E-02 0. -1.
    10030    2    1    2    0    0  0.00000000000E+00  0.00000000000E+00 -0.83144766194E+03  0.35510957674E+04  0.34523869909E+04 0.  0.
        2    1    3    3  502    0 -0.12093611939E+04 -0.56117899760E+03  0.71210576877E+03  0.15114797354E+04  0.25500000920E-02 0.  1.
       -2    1    3    3    0  502  0.12093611939E+04  0.56117899760E+03 -0.15435534307E+04  0.20396160320E+04  0.25500000920E-02 0. -1.
</event>
<event>
 5   0  0.6134625E-07  0.3263075E+04  0.7818609E-02  0.8172355E-01
       -1   -1    0    0    0  501  0.00000000000E+00  0.00000000000E+00  0.13312681358E+04  0.13312681359E+04  0.50400001928E-02 0. -1.
        1   -1    0    0  501    0  0.00000000000E+00  0.00000000000E+00 -0.19995329737E+04  0.19995329737E+04  0.50400001928E-02 0.  1.
    10030    2    1    2    0    0  0.00000000000E+00  0.00000000000E+00 -0.66826483788E+03  0.33308011096E+04  0.32630749513E+04 0.  0.
        3    1    3    3  502    0 -0.15489973641E+04 -0.19861801344E+03 -0.81624086685E+03  0.17621268717E+04  0.10100000352E+00 0.  1.
       -3    1    3    3    0  502  0.15489973641E+04  0.19861801344E+03  0.14797602897E+03  0.15686742379E+04  0.10100000352E+00 0. -1.
</event>
<event>
 5   0  0.6134625E-07  0.3391534E+04  0.7818609E-02  0.8139987E-01
        1   -1    0    0  501    0  0.00000000000E+00  0.00000000000E+00  0.17690719695E+04  0.17690719695E+04  0.50400001928E-02 0. -1.
       -1   -1    0    0    0  501  0.00000000000E+00  0.00000000000E+00 -0.16254991150E+04  0.16254991150E+04  0.50400001928E-02 0.  1.
    10030    2    1    2    0    0  0.00000000000E+00  0.00000000000E+00  0.14357285443E+03  0.33945710845E+04  0.33915335297E+04 0.  0.
        3    1    3    3  502    0 -0.74628347048E+03 -0.13438197503E+04 -0.64497950445E+03  0.16669700390E+04  0.10100000352E+00 0.  1.
       -3    1    3    3    0  502  0.74628347048E+03  0.13438197503E+04  0.78855235888E+03  0.17276010455E+04  0.10100000352E+00 0. -1.
</event>
<event>
 5   0  0.1911477E-06  0.3409420E+04  0.7818609E-02  0.8135598E-01
       -2   -1    0    0    0  501  0.00000000000E+00  0.00000000000E+00  0.93111132791E+03  0.93111132791E+03  0.25500000920E-02 0. -1.
        2   -1    0    0  501    0  0.00000000000E+00  0.00000000000E+00 -0.31210409444E+04  0.31210409444E+04  0.25500000920E-02 0.  1.
    10030    2    1    2    0    0  0.00000000000E+00  0.00000000000E+00 -0.21899296165E+04  0.40521522724E+04  0.34094202312E+04 0.  0.
        5    1    3    3  502    0  0.10638123818E+04 -0.10690510578E+04 -0.15052592058E+03  0.15156672097E+04  0.46999998093E+01 0. -1.
       -5    1    3    3    0  502 -0.10638123818E+04  0.10690510578E+04 -0.20394036960E+04  0.25364850626E+04  0.46999998093E+01 0.  1.
</event>
<event>
 5   0  0.1339844E-06  0.3443780E+04  0.7818609E-02  0.8127244E-01
        2   -1    0    0  501    0  0.00000000000E+00  0.00000000000E+00  0.18701939086E+04  0.18701939086E+04  0.25500000920E-02 0.  1.
       -2   -1    0    0    0  501  0.00000000000E+00  0.00000000000E+00 -0.15853464222E+04  0.15853464222E+04  0.25500000920E-02 0. -1.
    10030    2    1    2    0    0  0.00000000000E+00  0.00000000000E+00  0.28484748638E+03  0.34555403308E+04  0.34437800289E+04 0.  0.
        3    1    3    3  502    0 -0.11352225332E+04  0.23741032608E+03 -0.11346406074E+04  0.16224990543E+04  0.10100000352E+00 0. -1.
       -3    1    3    3    0  502  0.11352225332E+04 -0.23741032608E+03  0.14194880938E+04  0.18330412765E+04  0.10100000352E+00 0.  1.
</event>
<event>
 5   0  0.6134625E-07  0.3381344E+04  0.7818609E-02  0.8142500E-01
       -1   -1    0    0    0  501  0.00000000000E+00  0.00000000000E+00  0.14983082240E+04  0.14983082240E+04  0.50400001928E-02 0.  1.
        1   -1    0    0  501    0  0.00000000000E+00  0.00000000000E+00 -0.19077327757E+04  0.19077327757E+04  0.50400001928E-02 0. -1.
    10030    2    1    2    0    0  0.00000000000E+00  0.00000000000E+00 -0.40942455165E+03  0.34060409997E+04  0.33813439382E+04 0.  0.
        5    1    3    3  502    0  0.15472482094E+03  0.16811145878E+04 -0.29628052117E+03  0.17140274982E+04  0.46999998093E+01 0. -1.
       -5    1    3    3    0  502 -0.15472482094E+03 -0.16811145878E+04 -0.11314403048E+03  0.16920135015E+04  0.46999998093E+01 0.  1.
</event>
<event>
 5   0  0.1797075E-06  0.3345025E+04  0.7818609E-02  0.8151532E-01
        2   -1    0    0  501    0  0.00000000000E+00  0.00000000000E+00  0.16480160525E+04  0.16480160525E+04  0.25500000920E-02 0. -1.
       -2   -1    0    0    0  501  0.00000000000E+00  0.00000000000E+00 -0.16973735579E+04  0.16973735579E+04  0.25500000920E-02 0.  1.
    10030    2    1    2    0    0  0.00000000000E+00  0.00000000000E+00 -0.49357505418E+02  0.33453896104E+04  0.33450254830E+04 0.  0.
        2    1    3    3  502    0  0.84509017986E+03  0.87503221430E+03  0.11232441199E+04  0.16557584791E+04  0.25500000920E-02 0. -1.
       -2    1    3    3    0  502 -0.84509017986E+03 -0.87503221430E+03 -0.11726016253E+04  0.16896311313E+04  0.25500000920E-02 0.  1.
</event>
<event>
 5   0  0.6134625E-07  0.3416410E+04  0.7818609E-02  0.8133890E-01
        1   -1    0    0  501    0  0.00000000000E+00  0.00000000000E+00  0.21220102312E+04  0.21220102312E+04  0.50400001928E-02 0. -1.
       -1   -1    0    0    0  501  0.00000000000E+00  0.00000000000E+00 -0.13750943240E+04  0.13750943241E+04  0.50400001928E-02 0.  1.
    10030    2    1    2    0    0  0.00000000000E+00  0.00000000000E+00  0.74691590717E+03  0.34971045553E+04  0.34164099429E+04 0.  0.
        1    1    3    3  502    0  0.65636724065E+03  0.10088435131E+04 -0.86735367522E+03  0.14835381985E+04  0.50400001928E-02 0.  1.
       -1    1    3    3    0  502 -0.65636724065E+03 -0.10088435131E+04  0.16142695824E+04  0.20135663568E+04  0.50400001928E-02 0. -1.
</event>
<event>
 5   0  0.6134625E-07  0.3399782E+04  0.7818609E-02  0.8137960E-01
        1   -1    0    0  501    0  0.00000000000E+00  0.00000000000E+00  0.30141936833E+04  0.30141936833E+04  0.50400001928E-02 0.  1.
       -1   -1    0    0    0  501  0.00000000000E+00  0.00000000000E+00 -0.95867392966E+03  0.95867392967E+03  0.50400001928E-02 0. -1.
    10030    2    1    2    0    0  0.00000000000E+00  0.00000000000E+00  0.20555197536E+04  0.39728676130E+04  0.33997817007E+04 0.  0.
        5    1    3    3  502    0  0.12799400602E+04  0.89630978485E+03  0.18099039321E+04  0.23911068820E+04  0.46999998093E+01 0.  1.
       -5    1    3    3    0  502 -0.12799400602E+04 -0.89630978485E+03  0.24561582159E+03  0.15817607309E+04  0.46999998093E+01 0. -1.
</event>
<event>
 5   0  0.1948507E-06  0.3375210E+04  0.7818609E-02  0.8144018E-01
        2   -1    0    0  501    0  0.00000000000E+00  0.00000000000E+00  0.15221276835E+04  0.15221276835E+04  0.25500000920E-02 0.  1.
       -2   -1    0    0    0  501  0.00000000000E+00  0.00000000000E+00 -0.18710721234E+04  0.18710721234E+04  0.25500000920E-02 0. -1.
    10030    2    1    2    0    0  0.00000000000E+00  0.00000000000E+00 -0.34894443996E+03  0.33931998069E+04  0.33752100242E+04 0.  0.
        1    1    3    3  502    0  0.44260105080E+03 -0.16023179141E+04 -0.46704274182E+03  0.17266868016E+04  0.50400001928E-02 0. -1.
       -1    1    3    3    0  502 -0.44260105080E+03  0.16023179141E+04  0.11809830186E+03  0.16665130053E+04  0.50400001928E-02 0.  1.
</event>
<event>
 5   0  0.1911477E-06  0.3263494E+04  0.7818609E-02  0.8172247E-01
        2   -1    0    0  501    0  0.00000000000E+00  0.00000000000E+00  0.13456845431E+04  0.13456845431E+04  0.25500000920E-02 0. -1.
       -2   -1    0    0    0  501  0.00000000000E+00  0.00000000000E+00 -0.19786200693E+04  0.19786200693E+04  0.25500000920E-02 0.  1.
    10030    2    1    2    0    0  0.00000000000E+00  0.00000000000E+00 -0.63293552620E+03  0.33243046124E+04  0.32634941053E+04 0.  0.
        5    1    3    3  502    0  0.69117952355E+02  0.13057159514E+04 -0.13108257433E+04  0.18514744547E+04  0.46999998093E+01 0.  1.
       -5    1    3    3    0  502 -0.69117952355E+02 -0.13057159514E+04  0.67789021708E+03  0.14728301577E+04  0.46999998093E+01 0. -1.
</event>
<event>
 5   0  0.6134625E-07  0.2620020E+04  0.7818609E-02  0.8361433E-01
        1   -1    0    0  501    0  0.00000000000E+00  0.00000000000E+00  0.18789429132E+04  0.18789429132E+04  0.50400001928E-02 0.  1.
       -1   -1    0    0    0  501  0.00000000000E+00  0.00000000000E+00 -0.91334666365E+03  0.91334666366E+03  0.50400001928E-02 0. -1.
    10030    2    1    2    0    0  0.00000000000E+00  0.00000000000E+00  0.96559624954E+03  0.27922895769E+04  0.26200200312E+04 0.  0.
        3    1    3    3  502    0 -0.40429190827E+02 -0.88606921269E+03 -0.54462866004E+03  0.10408523222E+04  0.10100000352E+00 0. -1.
       -3    1    3    3    0  502  0.40429190827E+02  0.88606921269E+03  0.15102249096E+04  0.17514372546E+04  0.10100000352E+00 0.  1.
</event>
<event>
 5   0  0.6134625E-07  0.3330846E+04  0.7818609E-02  0.8155091E-01
        1   -1    0    0  501    0  0.00000000000E+00  0.00000000000E+00  0.24390689603E+04  0.24390689603E+04  0.50400001928E-02 0. -1.
       -1   -1    0    0    0  501  0.00000000000E+00  0.00000000000E+00 -0.11371690445E+04  0.11371690445E+04  0.50400001928E-02 0.  1.
    10030    2    1    2    0    0  0.00000000000E+00  0.00000000000E+00  0.13018999158E+04  0.35762380049E+04  0.33308459701E+04 0.  0.
        3    1    3    3  502    0  0.12207412463E+04 -0.38507760594E+03 -0.49297235532E+03  0.13716835299E+04  0.10100000352E+00 0.  1.
       -3    1    3    3    0  502 -0.12207412463E+04  0.38507760594E+03  0.17948722711E+04  0.22045544749E+04  0.10100000352E+00 0. -1.
</event>
<event>
 5   0  0.6218695E-07  0.3437958E+04  0.7818609E-02  0.8128652E-01
        1   -1    0    0  501    0  0.00000000000E+00  0.00000000000E+00  0.88927124786E+03  0.88927124788E+03  0.50400001928E-02 0.  1.
       -1   -1    0    0    0  501  0.00000000000E+00  0.00000000000E+00 -0.33228215217E+04  0.33228215217E+04  0.50400001928E-02 0. -1.
    10030    2    1    2    0    0  0.00000000000E+00  0.00000000000E+00 -0.24335502738E+04  0.42120927696E+04  0.34379584878E+04 0.  0.
        2    1    3    3  502    0  0.45473031857E+03 -0.15957175838E+04 -0.66640748612E+03  0.17880696876E+04  0.25500000920E-02 0. -1.
       -2    1    3    3    0  502 -0.45473031857E+03  0.15957175838E+04 -0.17671427877E+04  0.24240230820E+04  0.25500000920E-02 0.  1.
</event>
<event>
 5   0  0.6134625E-07  0.3215887E+04  0.7818609E-02  0.8184634E-01
       -3   -1    0    0    0  501  0.00000000000E+00  0.00000000000E+00  0.14743520921E+04  0.14743520955E+04  0.10100000352E+00 0. -1.
        3   -1    0    0  501    0  0.00000000000E+00  0.00000000000E+00 -0.17536392847E+04  0.17536392876E+04  0.10100000352E+00 0.  1.
    10030    2    1    2    0    0  0.00000000000E+00  0.00000000000E+00 -0.27928719265E+03  0.32279913832E+04  0.32158866637E+04 0.  0.
        2    1    3    3  502    0 -0.87856993925E+03 -0.12947107024E+04 -0.51160666493E+03  0.16461780951E+04  0.25500000920E-02 0.  1.
       -2    1    3    3    0  502  0.87856993925E+03  0.12947107024E+04  0.23231947228E+03  0.15818132881E+04  0.25500000920E-02 0. -1.
</event>
<event>
 5   0  0.1880301E-06  0.3352777E+04  0.7818609E-02  0.8149595E-01
        2   -1    0    0  501    0  0.00000000000E+00  0.00000000000E+00  0.14568083748E+04  0.14568083748E+04  0.25500000920E-02 0. -1.
       -2   -1    0    0    0  501  0.00000000000E+00  0.00000000000E+00 -0.19290650514E+04  0.19290650514E+04  0.25500000920E-02 0.  1.
    10030    2    1    2    0    0  0.00000000000E+00  0.00000000000E+00 -0.47225667663E+03  0.33858734262E+04  0.33527768327E+04 0.  0.
        4    1    3    3  502    0 -0.13840099797E+04 -0.91114318520E+03  0.20567744903E+02  0.16571331186E+04  0.12699999809E+01 0. -1.
       -4    1    3    3    0  502  0.13840099797E+04  0.91114318520E+03 -0.49282442153E+03  0.17287403076E+04  0.12699999809E+01 0.  1.
</event>
<event>
 5   0  0.6146388E-07  0.3380004E+04  0.7818609E-02  0.8142832E-01
        1   -1    0    0  501    0  0.00000000000E+00  0.00000000000E+00  0.12789456846E+04  0.12789456847E+04  0.50400001928E-02 0. -1.
       -1   -1    0    0    0  501  0.00000000000E+00  0.00000000000E+00 -0.22331722128E+04  0.22331722128E+04  0.50400001928E-02 0.  1.
    10030    2    1    2    0    0  0.00000000000E+00  0.00000000000E+00 -0.95422652816E+03  0.35121178975E+04  0.33800035294E+04 0.  0.
        4    1    3    3  502    0 -0.18473100566E+03 -0.12165059956E+04  0.72665550425E+03  0.14290004256E+04  0.12699999809E+01 0. -1.
       -4    1    3    3    0  502  0.18473100566E+03  0.12165059956E+04 -0.16808820324E+04  0.20831174718E+04  0.12699999809E+01 0.  1.
</event>
<event>
 5   0  0.6134625E-07  0.3456456E+04  0.7818609E-02  0.8124188E-01
        1   -1    0    0  501    0  0.00000000000E+00  0.00000000000E+00  0.20127601848E+04  0.20127601848E+04  0.50400001928E-02 0.  1.
       -1   -1    0    0    0  501  0.00000000000E+00  0.00000000000E+00 -0.14839183512E+04  0.14839183512E+04  0.50400001928E-02 0. -1.
    10030    2    1    2    0    0  0.00000000000E+00  0.00000000000E+00  0.52884183360E+03  0.34966785360E+04  0.34564558582E+04 0.  0.
        3    1    3    3  502    0  0.32662574893E+03  0.14568674558E+04  0.11449662645E+04  0.18815139970E+04  0.10100000352E+00 0. -1.
       -3    1    3    3    0  502 -0.32662574893E+03 -0.14568674558E+04 -0.61612443091E+03  0.16151645391E+04  0.10100000352E+00 0.  1.
</event>
<event>
 5   0  0.1911477E-06  0.3345928E+04  0.7818609E-02  0.8151306E-01
        2   -1    0    0  501    0  0.00000000000E+00  0.00000000000E+00  0.27822545526E+04  0.27822545526E+04  0.25500000920E-02 0. -1.
       -2   -1    0    0    0  501  0.00000000000E+00  0.00000000000E+00 -0.10059498967E+04  0.10059498967E+04  0.25500000920E-02 0.  1.
    10030    2    1    2    0    0  0.00000000000E+00  0.00000000000E+00  0.17763046559E+04  0.37882044493E+04  0.33459280804E+04 0.  0.
        5    1    3    3  502    0  0.11485056763E+04 -0.43642745738E+03 -0.39738821637E+03  0.12913069730E+04  0.46999998093E+01 0.  1.
       -5    1    3    3    0  502 -0.11485056763E+04  0.43642745738E+03  0.21736928723E+04  0.24968974763E+04  0.46999998093E+01 0. -1.
</event>
<event>
 5   0  0.1948507E-06  0.3746643E+04  0.7818609E-02  0.8057703E-01
       -2   -1    0    0    0  501  0.00000000000E+00  0.00000000000E+00  0.24984133379E+04  0.24984133379E+04  0.25500000920E-02 0. -1.
        2   -1    0    0  501    0  0.00000000000E+00  0.00000000000E+00 -0.14046249164E+04  0.14046249164E+04  0.25500000920E-02 0.  1.
    10030    2    1    2    0    0  0.00000000000E+00  0.00000000000E+00  0.10937884215E+04  0.39030382543E+04  0.37466430980E+04 0.  0.
        1    1    3    3  502    0 -0.34269555254E+03  0.16658431416E+04  0.13650835043E+04  0.21808087004E+04  0.50400001928E-02 0. -1.
       -1    1    3    3    0  502  0.34269555254E+03 -0.16658431416E+04 -0.27129508281E+03  0.17222295539E+04  0.50400001928E-02 0.  1.
</event>
<event>
 5   0  0.1339844E-06  0.3361629E+04  0.7818609E-02  0.8147388E-01
        2   -1    0    0  501    0  0.00000000000E+00  0.00000000000E+00  0.17536080191E+04  0.17536080191E+04  0.25500000920E-02 0.  1.
       -2   -1    0    0    0  501  0.00000000000E+00  0.00000000000E+00 -0.16110429910E+04  0.16110429910E+04  0.25500000920E-02 0. -1.
    10030    2    1    2    0    0  0.00000000000E+00  0.00000000000E+00  0.14256502812E+03  0.33646510101E+04  0.33616293122E+04 0.  0.
        3    1    3    3  502    0 -0.53875795506E+03 -0.12544818338E+04 -0.90998288824E+03  0.16407479004E+04  0.10100000352E+00 0. -1.
       -3    1    3    3    0  502  0.53875795506E+03  0.12544818338E+04  0.10525479164E+04  0.17239031098E+04  0.10100000352E+00 0.  1.
</event>
<event>
 5   0  0.1339844E-06  0.3376076E+04  0.7818609E-02  0.8143803E-01
       -2   -1    0    0    0  501  0.00000000000E+00  0.00000000000E+00  0.25094007321E+04  0.25094007321E+04  0.25500000920E-02 0.  1.
        2   -1    0    0  501    0  0.00000000000E+00  0.00000000000E+00 -0.11355193607E+04  0.11355193607E+04  0.25500000920E-02 0. -1.
    10030    2    1    2    0    0  0.00000000000E+00  0.00000000000E+00  0.13738813714E+04  0.36449200928E+04  0.33760764891E+04 0.  0.
        3    1    3    3  502    0 -0.16157115357E+04  0.46554144205E+03  0.84787649515E+03  0.18831216535E+04  0.10100000352E+00 0. -1.
       -3    1    3    3    0  502  0.16157115357E+04 -0.46554144205E+03  0.52600487625E+03  0.17617984393E+04  0.10100000352E+00 0.  1.
</event>
<event>
 5   0  0.6146388E-07  0.3392110E+04  0.7818609E-02  0.8139845E-01
       -1   -1    0    0    0  501  0.00000000000E+00  0.00000000000E+00  0.16026815673E+04  0.16026815673E+04  0.50400001928E-02 0. -1.
        1   -1    0    0  501    0  0.00000000000E+00  0.00000000000E+00 -0.17948687764E+04  0.17948687764E+04  0.50400001928E-02 0.  1.
    10030    2    1    2    0    0  0.00000000000E+00  0.00000000000E+00 -0.19218720908E+03  0.33975503437E+04  0.33921103188E+04 0.  0.
        4    1    3    3  502    0  0.14295175270E+03 -0.11927629356E+04 -0.12952951677E+04  0.17666096933E+04  0.12699999809E+01 0.  1.
       -4    1    3    3    0  502 -0.14295175270E+03  0.11927629356E+04  0.11031079586E+04  0.16309406504E+04  0.12699999809E+01 0. -1.
</event>
<event>
 5   0  0.1948507E-06  0.3330926E+04  0.7818609E-02  0.8155070E-01
        2   -1    0    0  501    0  0.00000000000E+00  0.00000000000E+00  0.15188247649E+04  0.15188247649E+04  0.25500000920E-02 0.  1.
       -2   -1    0    0    0  501  0.00000000000E+00  0.00000000000E+00 -0.18262592474E+04  0.18262592474E+04  0.25500000920E-02 0. -1.
    10030    2    1    2    0    0  0.00000000000E+00  0.00000000000E+00 -0.30743448247E+03  0.33450840123E+04  0.33309264609E+04 0.  0.
        1    1    3    3  502    0 -0.40590989287E+03  0.14389407556E+04 -0.89063065745E+03  0.17402690330E+04  0.50400001928E-02 0. -1.
       -1    1    3    3    0  502  0.40590989287E+03 -0.14389407556E+04  0.58319617498E+03  0.16048149793E+04  0.50400001928E-02 0.  1.
</event>
<event>
 5   0  0.6218695E-07  0.3399742E+04  0.7818609E-02  0.8137970E-01
       -1   -1    0    0    0  501  0.00000000000E+00  0.00000000000E+00  0.23341788407E+04  0.23341788407E+04  0.50400001928E-02 0. -1.
        1   -1    0    0  501    0  0.00000000000E+00  0.00000000000E+00 -0.12379350990E+04  0.12379350990E+04  0.50400001928E-02 0.  1.
    10030    2    1    2    0    0  0.00000000000E+00  0.00000000000E+00  0.10962437417E+04  0.35721139396E+04  0.33997422927E+04 0.  0.
        2    1    3    3  502    0 -0.23686346808E+03  0.57195816331E+03 -0.11152819416E+04  0.12755760473E+04  0.25500000920E-02 0.  1.
       -2    1    3    3    0  502  0.23686346808E+03 -0.57195816331E+03  0.22115256833E+04  0.22965378924E+04  0.25500000920E-02 0. -1.
</event>
<event>
 5   0  0.6134625E-07  0.2461945E+04  0.7818609E-02  0.8416670E-01
       -1   -1    0    0    0  501  0.00000000000E+00  0.00000000000E+00  0.11087525161E+04  0.11087525161E+04  0.50400001928E-02 0. -1.
        1   -1    0    0  501    0  0.00000000000E+00  0.00000000000E+00 -0.13666647530E+04  0.13666647531E+04  0.50400001928E-02 0.  1.
    10030    2    1    2    0    0  0.00000000000E+00  0.00000000000E+00 -0.25791223696E+03  0.24754172691E+04  0.24619447464E+04 0.  0.
        1    1    3    3  502    0 -0.62413714079E+03 -0.86080487041E+03  0.49472919496E+03  0.11727272367E+04  0.50400001928E-02 0. -1.
       -1    1    3    3    0  502  0.62413714079E+03  0.86080487041E+03 -0.75264143192E+03  0.13026900324E+04  0.50400001928E-02 0.  1.
</event>
<event>
 5   0  0.6134625E-07  0.3537169E+04  0.7818609E-02  0.8105037E-01
       -1   -1    0    0    0  501  0.00000000000E+00  0.00000000000E+00  0.12416112643E+04  0.12416112643E+04  0.50400001928E-02 0. -1.
        1   -1    0    0  501    0  0.00000000000E+00  0.00000000000E+00 -0.25192197162E+04  0.25192197163E+04  0.50400001928E-02 0.  1.
    10030    2    1    2    0    0  0.00000000000E+00  0.00000000000E+00 -0.12776084519E+04  0.37608309806E+04  0.35371692507E+04 0.  0.
        5    1    3    3  502    0 -0.13290786276E+04  0.51758525307E+03 -0.17506443220E+04  0.22581235849E+04  0.46999998093E+01 0.  1.
       -5    1    3    3    0  502  0.13290786276E+04 -0.51758525307E+03  0.47303587005E+03  0.15027073957E+04  0.46999998093E+01 0. -1.
</event>
<event>
 5   0  0.1797075E-06  0.3416699E+04  0.7818609E-02  0.8133820E-01
       -2   -1    0    0    0  501  0.00000000000E+00  0.00000000000E+00  0.31868570086E+04  0.31868570086E+04  0.25500000920E-02 0. -1.
        2   -1    0    0  501    0  0.00000000000E+00  0.00000000000E+00 -0.91577943114E+03  0.91577943114E+03  0.25500000920E-02 0.  1.
    10030    2    1    2    0    0  0.00000000000E+00  0.00000000000E+00  0.22710775774E+04  0.41026364397E+04  0.34166990493E+04 0.  0.
        2    1    3    3  502    0  0.18137302613E+03 -0.48622085507E+03 -0.81884422680E+03  0.96943940620E+03  0.25500000920E-02 0.  1.
       -2    1    3    3    0  502 -0.18137302613E+03  0.48622085507E+03  0.30899218043E+04  0.31331970335E+04  0.25500000920E-02 0. -1.
</event>
<event>
 5   0  0.1880301E-06  0.3424224E+04  0.7818609E-02  0.8131986E-01
        2   -1    0    0  501    0  0.00000000000E+00  0.00000000000E+00  0.13642866293E+04  0.13642866293E+04  0.25500000920E-02 0. -1.
       -2   -1    0    0    0  501  0.00000000000E+00  0.00000000000E+00 -0.21486159479E+04  0.21486159479E+04  0.25500000920E-02 0.  1.
    10030    2    1    2    0    0  0.00000000000E+00  0.00000000000E+00 -0.78432931856E+03  0.35129025772E+04  0.34242242971E+04 0.  0.
        4    1    3    3  502    0  0.78676209417E+02  0.17040353906E+04 -0.24208938544E+03  0.17229438301E+04  0.12699999809E+01 0. -1.
       -4    1    3    3    0  502 -0.78676209417E+02 -0.17040353906E+04 -0.54223993312E+03  0.17899587471E+04  0.12699999809E+01 0.  1.
</event>
<event>
 5   0  0.1339844E-06  0.3411804E+04  0.7818609E-02  0.8135015E-01
        2   -1    0    0  501    0  0.00000000000E+00  0.00000000000E+00  0.22325664096E+04  0.22325664096E+04  0.25500000920E-02 0.  1.
       -2   -1    0    0    0  501  0.00000000000E+00  0.00000000000E+00 -0.13034782318E+04  0.13034782318E+04  0.25500000920E-02 0. -1.
    10030    2    1    2    0    0  0.00000000000E+00  0.00000000000E+00  0.92908817781E+03  0.35360446414E+04  0.34118040482E+04 0.  0.
        3    1    3    3  502    0 -0.11504262721E+04  0.91013946521E+03  0.13670390983E+04  0.20051509570E+04  0.10100000352E+00 0.  1.
       -3    1    3    3    0  502  0.11504262721E+04 -0.91013946521E+03 -0.43795092054E+03  0.15308936843E+04  0.10100000352E+00 0. -1.
</event>
<event>
 5   0  0.6134625E-07  0.3316969E+04  0.7818609E-02  0.8158591E-01
       -1   -1    0    0    0  501  0.00000000000E+00  0.00000000000E+00  0.14094084570E+04  0.14094084571E+04  0.50400001928E-02 0. -1.
        1   -1    0    0  501    0  0.00000000000E+00  0.00000000000E+00 -0.19515778218E+04  0.19515778218E+04  0.50400001928E-02 0.  1.
    10030    2    1    2    0    0  0.00000000000E+00  0.00000000000E+00 -0.54216936473E+03  0.33609862788E+04  0.33169686683E+04 0.  0.
        5    1    3    3  502    0  0.75236150556E+02  0.15654873881E+04  0.27845640287E+03  0.15918452497E+04  0.46999998093E+01 0.  1.
       -5    1    3    3    0  502 -0.75236150556E+02 -0.15654873881E+04 -0.82062576760E+03  0.17691410292E+04  0.46999998093E+01 0. -1.
</event>
<event>
 5   0  0.1911477E-06  0.3387435E+04  0.7818609E-02  0.8140997E-01
       -2   -1    0    0    0  501  0.00000000000E+00  0.00000000000E+00  0.17856992910E+04  0.17856992910E+04  0.25500000920E-02 0. -1.
        2   -1    0    0  501    0  0.00000000000E+00  0.00000000000E+00 -0.16064739598E+04  0.16064739598E+04  0.25500000920E-02 0.  1.
    10030    2    1    2    0    0  0.00000000000E+00  0.00000000000E+00  0.17922533114E+03  0.33921732508E+04  0.33874352605E+04 0.  0.
        5    1    3    3  502    0  0.42908017012E+03  0.59220081851E+03  0.16194423828E+04  0.17769151142E+04  0.46999998093E+01 0. -1.
       -5    1    3    3    0  502 -0.42908017012E+03 -0.59220081851E+03 -0.14402170517E+04  0.16152581366E+04  0.46999998093E+01 0.  1.
</event>
<event>
 5   0  0.1797075E-06  0.3460878E+04  0.7818609E-02  0.8123125E-01
       -2   -1    0    0    0  501  0.00000000000E+00  0.00000000000E+00  0.13436599478E+04  0.13436599478E+04  0.25500000920E-02 0. -1.
        2   -1    0    0  501    0  0.00000000000E+00  0.00000000000E+00 -0.22285538092E+04  0.22285538092E+04  0.25500000920E-02 0.  1.
    10030    2    1    2    0    0  0.00000000000E+00  0.00000000000E+00 -0.88489386142E+03  0.35722137571E+04  0.34608776315E+04 0.  0.
        2    1    3    3  502    0 -0.24675610180E+03 -0.44660550734E+03  0.12642495104E+04  0.13633311695E+04  0.25500000920E-02 0. -1.
       -2    1    3    3    0  502  0.24675610180E+03  0.44660550734E+03 -0.21491433719E+04  0.22088825876E+04  0.25500000920E-02 0.  1.
</event>
<event>
 5   0  0.1948507E-06  0.3391878E+04  0.7818609E-02  0.8139903E-01
       -2   -1    0    0    0  501  0.00000000000E+00  0.00000000000E+00  0.13279605773E+04  0.13279605773E+04  0.25500000920E-02 0. -1.
        2   -1    0    0  501    0  0.00000000000E+00  0.00000000000E+00 -0.21658848566E+04  0.21658848566E+04  0.25500000920E-02 0.  1.
    10030    2    1    2    0    0  0.00000000000E+00  0.00000000000E+00 -0.83792427933E+03  0.34938454340E+04  0.33918783614E+04 0.  0.
        1    1    3    3  502    0  0.32357694723E+03  0.67615300662E+01 -0.21337795281E+04  0.21581850786E+04  0.50400001928E-02 0.  1.
       -1    1    3    3    0  502 -0.32357694723E+03 -0.67615300662E+01  0.12958552488E+04  0.13356603553E+04  0.50400001928E-02 0. -1.
</event>
<event>
 5   0  0.6146388E-07  0.3329715E+04  0.7818609E-02  0.8155375E-01
       -1   -1    0    0    0  501  0.00000000000E+00  0.00000000000E+00  0.10638839603E+04  0.10638839604E+04  0.50400001928E-02 0. -1.
        1   -1    0    0  501    0  0.00000000000E+00  0.00000000000E+00 -0.26053127090E+04  0.26053127090E+04  0.50400001928E-02 0.  1.
    10030    2    1    2    0    0  0.00000000000E+00  0.00000000000E+00 -0.15414287487E+04  0.36691966694E+04  0.33297149444E+04 0.  0.
        4    1    3    3  502    0 -0.13696431392E+04  0.70586407136E+03 -0.75886077889E+02  0.15427011136E+04  0.12699999809E+01 0. -1.
       -4    1    3    3    0  502  0.13696431392E+04 -0.70586407136E+03 -0.14655426708E+04  0.21264955558E+04  0.12699999809E+01 0.  1.
</event>
<event>
 5   0  0.6134625E-07  0.3387182E+04  0.7818609E-02  0.8141060E-01
       -1   -1    0    0    0  501  0.00000000000E+00  0.00000000000E+00  0.19192287000E+04  0.19192287000E+04  0.50400001928E-02 0. -1.
        1   -1    0    0  501    0  0.00000000000E+00  0.00000000000E+00 -0.14944805977E+04  0.14944805978E+04  0.50400001928E-02 0.  1.
    10030    2    1    2    0    0  0.00000000000E+00  0.00000000000E+00  0.42474810229E+03  0.34137092978E+04  0.33871817518E+04 0.  0.
        3    1    3    3  502    0 -0.16376142954E+03  0.32806675231E+03 -0.14539971705E+04  0.14995177164E+04  0.10100000352E+00 0.  1.
       -3    1    3    3    0  502  0.16376142954E+03 -0.32806675231E+03  0.18787452728E+04  0.19141915814E+04  0.10100000352E+00 0. -1.
</event>
<event>
 5   0  0.1339844E-06  0.3408933E+04  0.7818609E-02  0.8135717E-01
       -2   -1    0    0    0  501  0.00000000000E+00  0.00000000000E+00  0.22337940929E+04  0.22337940929E+04  0.25500000920E-02 0.  1.
        2   -1    0    0  501    0  0.00000000000E+00  0.00000000000E+00 -0.13005705027E+04  0.13005705027E+04  0.25500000920E-02 0. -1.
    10030    2    1    2    0    0  0.00000000000E+00  0.00000000000E+00  0.93322359020E+03  0.35343645956E+04  0.34089333853E+04 0.  0.
        3    1    3    3  502    0  0.16434324667E+04 -0.16470713641E+03  0.90306177157E+03  0.18824237798E+04  0.10100000352E+00 0.  1.
       -3    1    3    3    0  502 -0.16434324667E+04  0.16470713641E+03  0.30161818627E+02  0.16519408158E+04  0.10100000352E+00 0. -1.
</event>
<event>
 5   0  0.1911477E-06  0.3421294E+04  0.7818609E-02  0.8132700E-01
       -2   -1    0    0    0  501  0.00000000000E+00  0.00000000000E+00  0.14441788028E+04  0.14441788028E+04  0.25500000920E-02 0. -1.
        2   -1    0    0  501    0  0.00000000000E+00  0.00000000000E+00 -0.20262820333E+04  0.20262820333E+04  0.25500000920E-02 0.  1.
    10030    2    1    2    0    0  0.00000000000E+00  0.00000000000E+00 -0.58210323046E+03  0.34704608361E+04  0.34212942352E+04 0.  0.
        5    1    3    3  502    0  0.13336552778E+03  0.53659300013E+03 -0.19331336819E+04  0.20106581842E+04  0.46999998093E+01 0.  1.
       -5    1    3    3    0  502 -0.13336552778E+03 -0.53659300013E+03  0.13510304514E+04  0.14598026519E+04  0.46999998093E+01 0. -1.
</event>
<event>
 5   0  0.1911477E-06  0.3422787E+04  0.7818609E-02  0.8132336E-01
        2   -1    0    0  501    0  0.00000000000E+00  0.00000000000E+00  0.24493404476E+04  0.24493404476E+04  0.25500000920E-02 0.  1.
       -2   -1    0    0    0  501  0.00000000000E+00  0.00000000000E+00 -0.11957781852E+04  0.11957781852E+04  0.25500000920E-02 0. -1.
    10030    2    1    2    0    0  0.00000000000E+00  0.00000000000E+00  0.12535622624E+04  0.36451186328E+04  0.34227870956E+04 0.  0.
        5    1    3    3  502    0  0.16335062379E+04 -0.50953704099E+03  0.65828584104E+03  0.18333938377E+04  0.46999998093E+01 0.  1.
       -5    1    3    3    0  502 -0.16335062379E+04  0.50953704099E+03  0.59527642132E+03  0.18117247951E+04  0.46999998093E+01 0. -1.
</event>
<event>
 5   0  0.1880301E-06  0.3679614E+04  0.7818609E-02  0.8072495E-01
        2   -1    0    0  501    0  0.00000000000E+00  0.00000000000E+00  0.15706374681E+04  0.15706374681E+04  0.25500000920E-02 0.  1.
       -2   -1    0    0    0  501  0.00000000000E+00  0.00000000000E+00 -0.21551057059E+04  0.21551057059E+04  0.25500000920E-02 0. -1.
    10030    2    1    2    0    0  0.00000000000E+00  0.00000000000E+00 -0.58446823780E+03  0.37257431740E+04  0.36796139849E+04 0.  0.
        4    1    3    3  502    0 -0.17647768418E+04  0.50150202052E+03 -0.15286195163E+03  0.18410078672E+04  0.12699999809E+01 0.  1.
       -4    1    3    3    0  502  0.17647768418E+04 -0.50150202052E+03 -0.43160628617E+03  0.18847353069E+04  0.12699999809E+01 0. -1.
</event>
<event>
 5   0  0.1880301E-06  0.3432994E+04  0.7818609E-02  0.8129856E-01
        2   -1    0    0  501    0  0.00000000000E+00  0.00000000000E+00  0.33388846883E+04  0.33388846883E+04  0.25500000920E-02 0.  1.
       -2   -1    0    0    0  501  0.00000000000E+00  0.00000000000E+00 -0.88243901474E+03  0.88243901475E+03  0.25500000920E-02 0. -1.
    10030    2    1    2    0    0  0.00000000000E+00  0.00000000000E+00  0.24564456735E+04  0.42213237030E+04  0.34329940953E+04 0.  0.
        4    1    3    3  502    0 -0.90066914663E+03  0.65884022618E+03 -0.37553438901E+03  0.11774137104E+04  0.12699999809E+01 0. -1.
       -4    1    3    3    0  502  0.90066914663E+03 -0.65884022618E+03  0.28319800625E+04  0.30439099926E+04  0.12699999809E+01 0.  1.
</event>
<event>
 5   0  0.6134625E-07  0.3349181E+04  0.7818609E-02  0.8150493E-01
       -1   -1    0    0    0  501  0.00000000000E+00  0.00000000000E+00  0.21470979197E+04  0.21470979197E+04  0.50400001928E-02 0.  1.
        1   -1    0    0  501    0  0.00000000000E+00  0.00000000000E+00 -0.13060667950E+04  0.13060667950E+04  0.50400001928E-02 0. -1.
    10030    2    1    2    0    0  0.00000000000E+00  0.00000000000E+00  0.84103112467E+03  0.34531647147E+04  0.33491809736E+04 0.  0.
        3    1    3    3  502    0  0.73162779045E+03  0.14963598829E+04  0.24228694171E+03  0.16831741131E+04  0.10100000352E+00 0. -1.
       -3    1    3    3    0  502 -0.73162779045E+03 -0.14963598829E+04  0.59874418295E+03  0.17699906016E+04  0.10100000352E+00 0.  1.
</event>
<event>
 5   0  0.1339844E-06  0.3380258E+04  0.7818609E-02  0.8142769E-01
        2   -1    0    0  501    0  0.00000000000E+00  0.00000000000E+00  0.20719531428E+04  0.20719531428E+04  0.25500000920E-02 0.  1.
       -2   -1    0    0    0  501  0.00000000000E+00  0.00000000000E+00 -0.13786678863E+04  0.13786678863E+04  0.25500000920E-02 0. -1.
    10030    2    1    2    0    0  0.00000000000E+00  0.00000000000E+00  0.69328525654E+03  0.34506210291E+04  0.33802575404E+04 0.  0.
        3    1    3    3  502    0  0.14315289203E+04  0.24967365900E+03  0.12276980808E+04  0.19023287238E+04  0.10100000352E+00 0.  1.
       -3    1    3    3    0  502 -0.14315289203E+04 -0.24967365900E+03 -0.53441282421E+03  0.15482923053E+04  0.10100000352E+00 0. -1.
</event>
<event>
 5   0  0.1797075E-06  0.3376431E+04  0.7818609E-02  0.8143715E-01
        2   -1    0    0  501    0  0.00000000000E+00  0.00000000000E+00  0.19161541930E+04  0.19161541930E+04  0.25500000920E-02 0.  1.
       -2   -1    0    0    0  501  0.00000000000E+00  0.00000000000E+00 -0.14873911472E+04  0.14873911472E+04  0.25500000920E-02 0. -1.
    10030    2    1    2    0    0  0.00000000000E+00  0.00000000000E+00  0.42876304581E+03  0.34035453402E+04  0.33764305314E+04 0.  0.
        2    1    3    3  502    0  0.23752318614E+03  0.79501173038E+03 -0.12676668497E+04  0.15150710074E+04  0.25500000920E-02 0. -1.
       -2    1    3    3    0  502 -0.23752318614E+03 -0.79501173038E+03  0.16964298956E+04  0.18884743329E+04  0.25500000920E-02 0.  1.
</event>
<event>
 5   0  0.6134625E-07  0.3357195E+04  0.7818609E-02  0.8148493E-01
        1   -1    0    0  501    0  0.00000000000E+00  0.00000000000E+00  0.26214638531E+04  0.26214638531E+04  0.50400001928E-02 0.  1.
       -1   -1    0    0    0  501  0.00000000000E+00  0.00000000000E+00 -0.10748537772E+04  0.10748537772E+04  0.50400001928E-02 0. -1.
    10030    2    1    2    0    0  0.00000000000E+00  0.00000000000E+00  0.15466100759E+04  0.36963176303E+04  0.33571954511E+04 0.  0.
        1    1    3    3  502    0 -0.16035528010E+04  0.42989399049E+03  0.50026279236E+03  0.17339127112E+04  0.50400001928E-02 0.  1.
       -1    1    3    3    0  502  0.16035528010E+04 -0.42989399049E+03  0.10463472835E+04  0.19624049191E+04  0.50400001928E-02 0. -1.
</event>
<event>
 5   0  0.1911477E-06  0.3354405E+04  0.7818609E-02  0.8149188E-01
        2   -1    0    0  501    0  0.00000000000E+00  0.00000000000E+00  0.14135477603E+04  0.14135477603E+04  0.25500000920E-02 0.  1.
       -2   -1    0    0    0  501  0.00000000000E+00  0.00000000000E+00 -0.19900339784E+04  0.19900339784E+04  0.25500000920E-02 0. -1.
    10030    2    1    2    0    0  0.00000000000E+00  0.00000000000E+00 -0.57648621811E+03  0.34035817386E+04  0.33544049088E+04 0.  0.
        5    1    3    3  502    0 -0.12476837760E+04 -0.10402019652E+04  0.13531051439E+03  0.16300509067E+04  0.46999998093E+01 0.  1.
       -5    1    3    3    0  502  0.12476837760E+04  0.10402019652E+04 -0.71179673251E+03  0.17735308319E+04  0.46999998093E+01 0. -1.
</event>
<event>
 5   0  0.1797075E-06  0.3380281E+04  0.7818609E-02  0.8142763E-01
        2   -1    0    0  501    0  0.00000000000E+00  0.00000000000E+00  0.12951785982E+04  0.12951785982E+04  0.25500000920E-02 0. -1.
       -2   -1    0    0    0  501  0.00000000000E+00  0.00000000000E+00 -0.22055458017E+04  0.22055458017E+04  0.25500000920E-02 0.  1.
    10030    2    1    2    0    0  0.00000000000E+00  0.00000000000E+00 -0.91036720356E+03  0.35007243999E+04  0.33802814792E+04 0.  0.
        2    1    3    3  502    0  0.12074786876E+04 -0.40784015902E+03  0.69443091376E+03  0.14514036896E+04  0.25500000920E-02 0. -1.
       -2    1    3    3    0  502 -0.12074786876E+04  0.40784015902E+03 -0.16047981173E+04  0.20493207103E+04  0.25500000920E-02 0.  1.
</event>
<event>
 5   0  0.6134625E-07  0.3291244E+04  0.7818609E-02  0.8165127E-01
       -1   -1    0    0    0  501  0.00000000000E+00  0.00000000000E+00  0.11277921562E+04  0.11277921562E+04  0.50400001928E-02 0. -1.
        1   -1    0    0  501    0  0.00000000000E+00  0.00000000000E+00 -0.24012156211E+04  0.24012156211E+04  0.50400001928E-02 0.  1.
    10030    2    1    2    0    0  0.00000000000E+00  0.00000000000E+00 -0.12734234649E+04  0.35290077773E+04  0.32912442284E+04 0.  0.
        1    1    3    3  502    0 -0.80791666639E+03  0.64170700525E+03  0.73791446261E+03  0.12684774238E+04  0.50400001928E-02 0. -1.
       -1    1    3    3    0  502  0.80791666639E+03 -0.64170700525E+03 -0.20113379275E+04  0.22605303535E+04  0.50400001928E-02 0.  1.
</event>
<event>
 5   0  0.1339844E-06  0.3378208E+04  0.7818609E-02  0.8143276E-01
       -2   -1    0    0    0  501  0.00000000000E+00  0.00000000000E+00  0.13576564640E+04  0.13576564640E+04  0.25500000920E-02 0. -1.
        2   -1    0    0  501    0  0.00000000000E+00  0.00000000000E+00 -0.21014688394E+04  0.21014688394E+04  0.25500000920E-02 0.  1.
    10030    2    1    2    0    0  0.00000000000E+00  0.00000000000E+00 -0.74381237545E+03  0.34591253034E+04  0.33782082551E+04 0.  0.
        3    1    3    3  502    0  0.30329761318E+03 -0.43313835470E+03 -0.20145364031E+04  0.20827758415E+04  0.10100000352E+00 0.  1.
       -3    1    3    3    0  502 -0.30329761318E+03  0.43313835470E+03  0.12707240277E+04  0.13763494619E+04  0.10100000352E+00 0. -1.
</event>
<event>
 5   0  0.1911477E-06  0.3504587E+04  0.7818609E-02  0.8112704E-01
       -2   -1    0    0    0  501  0.00000000000E+00  0.00000000000E+00  0.14680479890E+04  0.14680479890E+04  0.25500000920E-02 0. -1.
        2   -1    0    0  501    0  0.00000000000E+00  0.00000000000E+00 -0.20915752110E+04  0.20915752110E+04  0.25500000920E-02 0.  1.
    10030    2    1    2    0    0  0.00000000000E+00  0.00000000000E+00 -0.62352722198E+03  0.35596232001E+04  0.35045871554E+04 0.  0.
        5    1    3    3  502    0 -0.13032024577E+04 -0.90801644254E+03 -0.10634396017E+04  0.19114801548E+04  0.46999998093E+01 0.  1.
       -5    1    3    3    0  502  0.13032024577E+04  0.90801644254E+03  0.43991237972E+03  0.16481430453E+04  0.46999998093E+01 0. -1.
</event>
<event>
 5   0  0.1339844E-06  0.3064976E+04  0.7818609E-02  0.8225416E-01
       -2   -1    0    0    0  501  0.00000000000E+00  0.00000000000E+00  0.13041196410E+04  0.13041196410E+04  0.25500000920E-02 0.  1.
        2   -1    0    0  501    0  0.00000000000E+00  0.00000000000E+00 -0.18008462288E+04  0.18008462288E+04  0.25500000920E-02 0. -1.
    10030    2    1    2    0    0  0.00000000000E+00  0.00000000000E+00 -0.49672658778E+03  0.31049658698E+04  0.30649756524E+04 0.  0.
        3    1    3    3  502    0  0.61050618043E+02 -0.10355533192E+04  0.89437091387E+03  0.13696704701E+04  0.10100000352E+00 0.  1.
       -3    1    3    3    0  502 -0.61050618043E+02  0.10355533192E+04 -0.13910975017E+04  0.17352953997E+04  0.10100000352E+00 0. -1.
</event>
<event>
 5   0  0.1911477E-06  0.3606761E+04  0.7818609E-02  0.8088945E-01
        2   -1    0    0  501    0  0.00000000000E+00  0.00000000000E+00  0.26133854905E+04  0.26133854905E+04  0.25500000920E-02 0. -1.
       -2   -1    0    0    0  501  0.00000000000E+00  0.00000000000E+00 -0.12444323740E+04  0.12444323740E+04  0.25500000920E-02 0.  1.
    10030    2    1    2    0    0  0.00000000000E+00  0.00000000000E+00  0.13689531165E+04  0.38578178645E+04  0.36067611565E+04 0.  0.
        5    1    3    3  502    0  0.64203227064E+03 -0.93528470378E+03 -0.81495734983E+03  0.13968323041E+04  0.46999998093E+01 0.  1.
       -5    1    3    3    0  502 -0.64203227064E+03  0.93528470378E+03  0.21839104663E+04  0.24609855604E+04  0.46999998093E+01 0. -1.
</event>
<event>
 5   0  0.6134625E-07  0.3430046E+04  0.7818609E-02  0.8130571E-01
        1   -1    0    0  501    0  0.00000000000E+00  0.00000000000E+00  0.19085397246E+04  0.19085397246E+04  0.50400001928E-02 0.  1.
       -1   -1    0    0    0  501  0.00000000000E+00  0.00000000000E+00 -0.15411277835E+04  0.15411277835E+04  0.50400001928E-02 0. -1.
    10030    2    1    2    0    0  0.00000000000E+00  0.00000000000E+00  0.36741194109E+03  0.34496675082E+04  0.34300458281E+04 0.  0.
        3    1    3    3  502    0  0.46981667577E+03  0.12605876480E+04  0.12535083749E+04  0.18387746417E+04  0.10100000352E+00 0.  1.
       -3    1    3    3    0  502 -0.46981667577E+03 -0.12605876480E+04 -0.88609643379E+03  0.16108928664E+04  0.10100000352E+00 0. -1.
</event>
<event>
 5   0  0.1797075E-06  0.3345577E+04  0.7818609E-02  0.8151394E-01
        2   -1    0    0  501    0  0.00000000000E+00  0.00000000000E+00  0.24528432993E+04  0.24528432993E+04  0.25500000920E-02 0.  1.
       -2   -1    0    0    0  501  0.00000000000E+00  0.00000000000E+00 -0.11408070409E+04  0.11408070409E+04  0.25500000920E-02 0. -1.
    10030    2    1    2    0    0  0.00000000000E+00  0.00000000000E+00  0.13120362584E+04  0.35936503402E+04  0.33455767252E+04 0.  0.
        2    1    3    3  502    0 -0.11899984501E+04 -0.10353305919E+04  0.12542868996E+04  0.20152521857E+04  0.25500000920E-02 0.  1.
       -2    1    3    3    0  502  0.11899984501E+04  0.10353305919E+04  0.57749358782E+02  0.15783981545E+04  0.25500000920E-02 0. -1.
</event>
<event>
 5   0  0.1948507E-06  0.3280617E+04  0.7818609E-02  0.8167845E-01
       -2   -1    0    0    0  501  0.00000000000E+00  0.00000000000E+00  0.18792615447E+04  0.18792615447E+04  0.25500000920E-02 0. -1.
        2   -1    0    0  501    0  0.00000000000E+00  0.00000000000E+00 -0.14317393353E+04  0.14317393353E+04  0.25500000920E-02 0.  1.
    10030    2    1    2    0    0  0.00000000000E+00  0.00000000000E+00  0.44752220942E+03  0.33110008801E+04  0.32806174266E+04 0.  0.
        1    1    3    3  502    0 -0.54303584372E+03  0.14195384211E+04 -0.39890941882E+03  0.15713389135E+04  0.50400001928E-02 0. -1.
       -1    1    3    3    0  502  0.54303584372E+03 -0.14195384211E+04  0.84643162824E+03  0.17396619666E+04  0.50400001928E-02 0.  1.
</event>
<event>
 5   0  0.6218695E-07  0.3403506E+04  0.7818609E-02  0.8137046E-01
        1   -1    0    0  501    0  0.00000000000E+00  0.00000000000E+00  0.15567183151E+04  0.15567183151E+04  0.50400001928E-02 0. -1.
       -1   -1    0    0    0  501  0.00000000000E+00  0.00000000000E+00 -0.18603000683E+04  0.18603000683E+04  0.50400001928E-02 0.  1.
    10030    2    1    2    0    0  0.00000000000E+00  0.00000000000E+00 -0.30358175318E+03  0.34170183834E+04  0.34035059500E+04 0.  0.
        2    1    3    3  502    0  0.95930850231E+03  0.21183128225E+03  0.12432645363E+04  0.15845668184E+04  0.25500000920E-02 0. -1.
       -2    1    3    3    0  502 -0.95930850231E+03 -0.21183128225E+03 -0.15468462895E+04  0.18324515650E+04  0.25500000920E-02 0.  1.
</event>
<event>
 5   0  0.6134625E-07  0.3358456E+04  0.7818609E-02  0.8148178E-01
        1   -1    0    0  501    0  0.00000000000E+00  0.00000000000E+00  0.15128911732E+04  0.15128911732E+04  0.50400001928E-02 0. -1.
       -1   -1    0    0    0  501  0.00000000000E+00  0.00000000000E+00 -0.18638533631E+04  0.18638533631E+04  0.50400001928E-02 0.  1.
    10030    2    1    2    0    0  0.00000000000E+00  0.00000000000E+00 -0.35096218988E+03  0.33767445363E+04  0.33584563723E+04 0.  0.
        1    1    3    3  502    0 -0.14993585503E+04 -0.56413205153E+03  0.33073472446E+03  0.16357586900E+04  0.50400001928E-02 0. -1.
       -1    1    3    3    0  502  0.14993585503E+04  0.56413205153E+03 -0.68169691434E+03  0.17409858463E+04  0.50400001928E-02 0.  1.
</event>
<event>
 5   0  0.1797075E-06  0.2798047E+04  0.7818609E-02  0.8303875E-01
       -2   -1    0    0    0  501  0.00000000000E+00  0.00000000000E+00  0.98368933175E+03  0.98368933175E+03  0.25500000920E-02 0. -1.
        2   -1    0    0  501    0  0.00000000000E+00  0.00000000000E+00 -0.19897202876E+04  0.19897202876E+04  0.25500000920E-02 0.  1.
    10030    2    1    2    0    0  0.00000000000E+00  0.00000000000E+00 -0.10060309558E+04  0.29734096193E+04  0.27980469046E+04 0.  0.
        2    1    3    3  502    0 -0.51004610240E+03 -0.68827378901E+03 -0.16784103023E+04  0.18843908772E+04  0.25500000920E-02 0.  1.
       -2    1    3    3    0  502  0.51004610240E+03  0.68827378901E+03  0.67237934645E+03  0.10890187421E+04  0.25500000920E-02 0. -1.
</event>
<event>
 5   0  0.6134625E-07  0.3421763E+04  0.7818609E-02  0.8132586E-01
        1   -1    0    0  501    0  0.00000000000E+00  0.00000000000E+00  0.17662180701E+04  0.17662180701E+04  0.50400001928E-02 0.  1.
       -1   -1    0    0    0  501  0.00000000000E+00  0.00000000000E+00 -0.16572783802E+04  0.16572783802E+04  0.50400001928E-02 0. -1.
    10030    2    1    2    0    0  0.00000000000E+00  0.00000000000E+00  0.10893968986E+03  0.34234964503E+04  0.34217627167E+04 0.  0.
        1    1    3    3  502    0  0.69879570910E+03  0.12052461011E+04 -0.93909999256E+03  0.16801316625E+04  0.50400001928E-02 0. -1.
       -1    1    3    3    0  502 -0.69879570910E+03 -0.12052461011E+04  0.10480396824E+04  0.17433647878E+04  0.50400001928E-02 0.  1.
</event>
<event>
 5   0  0.6146388E-07  0.2774300E+04  0.7818609E-02  0.8311292E-01
       -1   -1    0    0    0  501  0.00000000000E+00  0.00000000000E+00  0.89703982287E+03  0.89703982288E+03  0.50400001928E-02 0.  1.
        1   -1    0    0  501    0  0.00000000000E+00  0.00000000000E+00 -0.21450384431E+04  0.21450384431E+04  0.50400001928E-02 0. -1.
    10030    2    1    2    0    0  0.00000000000E+00  0.00000000000E+00 -0.12479986202E+04  0.30420782660E+04  0.27742998433E+04 0.  0.
        4    1    3    3  502    0  0.12461446596E+04  0.51093513608E+03 -0.98809065447E+03  0.16704059328E+04  0.12699999809E+01 0. -1.
       -4    1    3    3    0  502 -0.12461446596E+04 -0.51093513608E+03 -0.25990796577E+03  0.13716723332E+04  0.12699999809E+01 0.  1.
</event>
<event>
 5   0  0.6218695E-07  0.3463610E+04  0.7818609E-02  0.8122468E-01
       -1   -1    0    0    0  501  0.00000000000E+00  0.00000000000E+00  0.20266739925E+04  0.20266739925E+04  0.50400001928E-02 0.  1.
        1   -1    0    0  501    0  0.00000000000E+00  0.00000000000E+00 -0.14798378604E+04  0.14798378604E+04  0.50400001928E-02 0. -1.
    10030    2    1    2    0    0  0.00000000000E+00  0.00000000000E+00  0.54683613211E+03  0.35065118529E+04  0.34636102002E+04 0.  0.
        2    1    3    3  502    0  0.16832425110E+02 -0.27381493447E+03 -0.14577007914E+04  0.14832901086E+04  0.25500000920E-02 0. -1.
       -2    1    3    3    0  502 -0.16832425110E+02  0.27381493447E+03  0.20045369235E+04  0.20232217443E+04  0.25500000920E-02 0.  1.
</event>
<event>
 5   0  0.1880301E-06  0.3392335E+04  0.7818609E-02  0.8139790E-01
       -2   -1    0    0    0  501  0.00000000000E+00  0.00000000000E+00  0.13179539749E+04  0.13179539749E+04  0.25500000920E-02 0. -1.
        2   -1    0    0  501    0  0.00000000000E+00  0.00000000000E+00 -0.21829175665E+04  0.21829175665E+04  0.25500000920E-02 0.  1.
    10030    2    1    2    0    0  0.00000000000E+00  0.00000000000E+00 -0.86496359159E+03  0.35008715413E+04  0.33923354100E+04 0.  0.
        4    1    3    3  502    0  0.16028005993E+04  0.52722027490E+03 -0.61138420339E+03  0.17946373551E+04  0.12699999809E+01 0.  1.
       -4    1    3    3    0  502 -0.16028005993E+04 -0.52722027490E+03 -0.25357938821E+03  0.17062341862E+04  0.12699999809E+01 0. -1.
</event>
<event>
 5   0  0.1911477E-06  0.3391013E+04  0.7818609E-02  0.8140116E-01
        2   -1    0    0  501    0  0.00000000000E+00  0.00000000000E+00  0.22451175265E+04  0.22451175265E+04  0.25500000920E-02 0. -1.
       -2   -1    0    0    0  501  0.00000000000E+00  0.00000000000E+00 -0.12804416650E+04  0.12804416650E+04  0.25500000920E-02 0.  1.
    10030    2    1    2    0    0  0.00000000000E+00  0.00000000000E+00  0.96467586154E+03  0.35255591915E+04  0.33910128420E+04 0.  0.
        5    1    3    3  502    0 -0.15516887433E+04 -0.49128129632E+03  0.97618429846E+03  0.18979075696E+04  0.46999998093E+01 0. -1.
       -5    1    3    3    0  502  0.15516887433E+04  0.49128129632E+03 -0.11508436928E+02  0.16276516219E+04  0.46999998093E+01 0.  1.
</event>
<event>
 5   0  0.1880301E-06  0.3383593E+04  0.7818609E-02  0.8141945E-01
        2   -1    0    0  501    0  0.00000000000E+00  0.00000000000E+00  0.16773204484E+04  0.16773204484E+04  0.25500000920E-02 0. -1.
       -2   -1    0    0    0  501  0.00000000000E+00  0.00000000000E+00 -0.17063975569E+04  0.17063975569E+04  0.25500000920E-02 0.  1.
    10030    2    1    2    0    0  0.00000000000E+00  0.00000000000E+00 -0.29077108451E+02  0.33837180053E+04  0.33835930697E+04 0.  0.
        4    1    3    3  502    0  0.86690393278E+03  0.14514493858E+04 -0.77359295545E+02  0.16923988365E+04  0.12699999809E+01 0.  1.
       -4    1    3    3    0  502 -0.86690393278E+03 -0.14514493858E+04  0.48282187094E+02  0.16913191688E+04  0.12699999809E+01 0. -1.
</event>
<event>
 5   0  0.1948507E-06  0.3315273E+04  0.7818609E-02  0.8159020E-01
       -2   -1    0    0    0  501  0.00000000000E+00  0.00000000000E+00  0.14827370050E+04  0.14827370050E+04  0.25500000920E-02 0.  1.
        2   -1    0    0  501    0  0.00000000000E+00  0.00000000000E+00 -0.18531669190E+04  0.18531669190E+04  0.25500000920E-02 0. -1.
    10030    2    1    2    0    0  0.00000000000E+00  0.00000000000E+00 -0.37042991404E+03  0.33359039241E+04  0.33152732420E+04 0.  0.
        1    1    3    3  502    0 -0.14333807700E+04  0.29139272549E+03  0.59955442916E+03  0.15808085482E+04  0.50400001928E-02 0.  1.
       -1    1    3    3    0  502  0.14333807700E+04 -0.29139272549E+03 -0.96998434320E+03  0.17550953759E+04  0.50400001928E-02 0. -1.
</event>
<event>
 5   0  0.1911477E-06  0.3415233E+04  0.7818609E-02  0.8134178E-01
       -2   -1    0    0    0  501  0.00000000000E+00  0.00000000000E+00  0.20608553246E+04  0.20608553246E+04  0.25500000920E-02 0. -1.
        2   -1    0    0  501    0  0.00000000000E+00  0.00000000000E+00 -0.14149245031E+04  0.14149245031E+04  0.25500000920E-02 0.  1.
    10030    2    1    2    0    0  0.00000000000E+00  0.00000000000E+00  0.64593082152E+03  0.34757798278E+04  0.34152333427E+04 0.  0.
        5    1    3    3  502    0  0.24486934150E+02  0.17066614521E+04  0.37525411244E+03  0.17476071243E+04  0.46999998093E+01 0.  1.
       -5    1    3    3    0  502 -0.24486934150E+02 -0.17066614521E+04  0.27067670908E+03  0.17281727034E+04  0.46999998093E+01 0. -1.
</event>
<event>
 5   0  0.1339844E-06  0.3419479E+04  0.7818609E-02  0.8133142E-01
       -2   -1    0    0    0  501  0.00000000000E+00  0.00000000000E+00  0.20329304878E+04  0.20329304878E+04  0.25500000920E-02 0.  1.
        2   -1    0    0  501    0  0.00000000000E+00  0.00000000000E+00 -0.14379288131E+04  0.14379288131E+04  0.25500000920E-02 0. -1.
    10030    2    1    2    0    0  0.00000000000E+00  0.00000000000E+00  0.59500167473E+03  0.34708593009E+04  0.34194790968E+04 0.  0.
        3    1    3    3  502    0 -0.32933423589E+02 -0.52946936629E+03  0.19472805024E+04  0.20182477017E+04  0.10100000352E+00 0.  1.
       -3    1    3    3    0  502  0.32933423589E+02  0.52946936629E+03 -0.13522788277E+04  0.14526115992E+04  0.10100000352E+00 0. -1.
</event>
<event>
 5   0  0.1880301E-06  0.3385428E+04  0.7818609E-02  0.8141492E-01
        2   -1    0    0  501    0  0.00000000000E+00  0.00000000000E+00  0.21657295029E+04  0.21657295029E+04  0.25500000920E-02 0. -1.
       -2   -1    0    0    0  501  0.00000000000E+00  0.00000000000E+00 -0.13230095342E+04  0.13230095342E+04  0.25500000920E-02 0.  1.
    10030    2    1    2    0    0  0.00000000000E+00  0.00000000000E+00  0.84271996866E+03  0.34887390371E+04  0.33854280561E+04 0.  0.
        4    1    3    3  502    0 -0.77327201508E+03 -0.45259458418E+03 -0.10586020669E+04  0.13868782989E+04  0.12699999809E+01 0.  1.
       -4    1    3    3    0  502  0.77327201508E+03  0.45259458418E+03  0.19013220356E+04  0.21018607382E+04  0.12699999809E+01 0. -1.
</event>
<event>
 5   0  0.6134625E-07  0.3371229E+04  0.7818609E-02  0.8145004E-01
       -1   -1    0    0    0  501  0.00000000000E+00  0.00000000000E+00  0.11257116856E+04  0.11257116856E+04  0.50400001928E-02 0. -1.
        1   -1    0    0  501    0  0.00000000000E+00  0.00000000000E+00 -0.25240004935E+04  0.25240004935E+04  0.50400001928E-02 0.  1.
    10030    2    1    2    0    0  0.00000000000E+00  0.00000000000E+00 -0.13982888079E+04  0.36497121791E+04  0.33712293604E+04 0.  0.
        1    1    3    3  502    0  0.21371154664E+03  0.10853675419E+04 -0.20760561027E+04  0.23523826789E+04  0.50400001928E-02 0.  1.
       -1    1    3    3    0  502 -0.21371154664E+03 -0.10853675419E+04  0.67776729488E+03  0.12973295002E+04  0.50400001928E-02 0. -1.
</event>
<event>
 5   0  0.6218695E-07  0.3342139E+04  0.7818609E-02  0.8152255E-01
        1   -1    0    0  501    0  0.00000000000E+00  0.00000000000E+00  0.15074285728E+04  0.15074285728E+04  0.50400001928E-02 0. -1.
       -1   -1    0    0    0  501  0.00000000000E+00  0.00000000000E+00 -0.18524743468E+04  0.18524743468E+04  0.50400001928E-02 0.  1.
    10030    2    1    2    0    0  0.00000000000E+00  0.00000000000E+00 -0.34504577405E+03  0.33599029196E+04  0.33421386930E+04 0.  0.
        2    1    3    3  502    0  0.68470285444E+03 -0.77497202644E+03 -0.14921587649E+04  0.18154716798E+04  0.25500000920E-02 0.  1.
       -2    1    3    3    0  502 -0.68470285444E+03  0.77497202644E+03  0.11471129908E+04  0.15444312398E+04  0.25500000920E-02 0. -1.
</event>
<event>
 5   0  0.6134625E-07  0.3371072E+04  0.7818609E-02  0.8145043E-01
       -1   -1    0    0    0  501  0.00000000000E+00  0.00000000000E+00  0.17698586747E+04  0.17698586747E+04  0.50400001928E-02 0.  1.
        1   -1    0    0  501    0  0.00000000000E+00  0.00000000000E+00 -0.16052303590E+04  0.16052303590E+04  0.50400001928E-02 0. -1.
    10030    2    1    2    0    0  0.00000000000E+00  0.00000000000E+00  0.16462831562E+03  0.33750890337E+04  0.33710715660E+04 0.  0.
        3    1    3    3  502    0  0.72413625611E+03 -0.74041879419E+03  0.14137251134E+04  0.17524873793E+04  0.10100000352E+00 0.  1.
       -3    1    3    3    0  502 -0.72413625611E+03  0.74041879419E+03 -0.12490967978E+04  0.16226016544E+04  0.10100000352E+00 0. -1.
</event>
<event>
 5   0  0.1880301E-06  0.3280349E+04  0.7818609E-02  0.8167914E-01
       -2   -1    0    0    0  501  0.00000000000E+00  0.00000000000E+00  0.14714188637E+04  0.14714188637E+04  0.25500000920E-02 0.  1.
        2   -1    0    0  501    0  0.00000000000E+00  0.00000000000E+00 -0.18282845757E+04  0.18282845757E+04  0.25500000920E-02 0. -1.
    10030    2    1    2    0    0  0.00000000000E+00  0.00000000000E+00 -0.35686571193E+03  0.32997034394E+04  0.32803490137E+04 0.  0.
        4    1    3    3  502    0  0.56725365969E+03  0.17622839306E+03  0.13594228302E+04  0.14835313293E+04  0.12699999809E+01 0.  1.
       -4    1    3    3    0  502 -0.56725365969E+03 -0.17622839306E+03 -0.17162885421E+04  0.18161721101E+04  0.12699999809E+01 0. -1.
</event>
<event>
 5   0  0.6146388E-07  0.3458480E+04  0.7818609E-02  0.8123701E-01
        1   -1    0    0  501    0  0.00000000000E+00  0.00000000000E+00  0.18811976868E+04  0.18811976868E+04  0.50400001928E-02 0. -1.
       -1   -1    0    0    0  501  0.00000000000E+00  0.00000000000E+00 -0.15895566720E+04  0.15895566720E+04  0.50400001928E-02 0.  1.
    10030    2    1    2    0    0  0.00000000000E+00  0.00000000000E+00  0.29164101474E+03  0.34707543588E+04  0.34584796281E+04 0.  0.
        4    1    3    3  502    0 -0.48391595559E+03  0.59770134397E+03 -0.14084977423E+04  0.16047707162E+04  0.12699999809E+01 0.  1.
       -4    1    3    3    0  502  0.48391595559E+03 -0.59770134397E+03  0.17001387570E+04  0.18659836426E+04  0.12699999809E+01 0. -1.
</event>
<event>
 5   0  0.6134625E-07  0.3093524E+04  0.7818609E-02  0.8217517E-01
       -1   -1    0    0    0  501  0.00000000000E+00  0.00000000000E+00  0.12742051344E+04  0.12742051344E+04  0.50400001928E-02 0. -1.
        1   -1    0    0  501    0  0.00000000000E+00  0.00000000000E+00 -0.18776199306E+04  0.18776199306E+04  0.50400001928E-02 0.  1.
    10030    2    1    2    0    0  0.00000000000E+00  0.00000000000E+00 -0.60341479622E+03  0.31518250651E+04  0.30935241755E+04 0.  0.
        3    1    3    3  502    0  0.10328833053E+04 -0.11436542609E+04 -0.16623551461E+03  0.15499765312E+04  0.10100000352E+00 0. -1.
       -3    1    3    3    0  502 -0.10328833053E+04  0.11436542609E+04 -0.43717928160E+03  0.16018485338E+04  0.10100000352E+00 0.  1.
</event>
<event>
 5   0  0.6146388E-07  0.3429983E+04  0.7818609E-02  0.8130586E-01
        1   -1    0    0  501    0  0.00000000000E+00  0.00000000000E+00  0.13273307210E+04  0.13273307210E+04  0.50400001928E-02 0.  1.
       -1   -1    0    0    0  501  0.00000000000E+00  0.00000000000E+00 -0.22158728793E+04  0.22158728793E+04  0.50400001928E-02 0. -1.
    10030    2    1    2    0    0  0.00000000000E+00  0.00000000000E+00 -0.88854215831E+03  0.35432036004E+04  0.34299831758E+04 0.  0.
        4    1    3    3  502    0  0.15037905086E+04  0.81508820717E+03 -0.57262990069E+03  0.18037908125E+04  0.12699999809E+01 0.  1.
       -4    1    3    3    0  502 -0.15037905086E+04 -0.81508820717E+03 -0.31591225762E+03  0.17394127879E+04  0.12699999809E+01 0. -1.
</event>
<event>
 5   0  0.6218695E-07  0.2461428E+04  0.7818609E-02  0.8416857E-01
        1   -1    0    0  501    0  0.00000000000E+00  0.00000000000E+00  0.83774487028E+03  0.83774487030E+03  0.50400001928E-02 0.  1.
       -1   -1    0    0    0  501  0.00000000000E+00  0.00000000000E+00 -0.18080168401E+04  0.18080168401E+04  0.50400001928E-02 0. -1.
    10030    2    1    2    0    0  0.00000000000E+00  0.00000000000E+00 -0.97027196978E+03  0.26457617104E+04  0.24614279052E+04 0.  0.
        2    1    3    3  502    0  0.54663450317E+03  0.25740349650E+03 -0.16376209896E+04  0.17455280994E+04  0.25500000920E-02 0. -1.
       -2    1    3    3    0  502 -0.54663450317E+03 -0.25740349650E+03  0.66734901984E+03  0.90023361099E+03  0.25500000920E-02 0.  1.
</event>
<event>
 5   0  0.1339844E-06  0.2774409E+04  0.7818609E-02  0.8311258E-01
       -2   -1    0    0    0  501  0.00000000000E+00  0.00000000000E+00  0.13078200825E+04  0.13078200826E+04  0.25500000920E-02 0.  1.
        2   -1    0    0  501    0  0.00000000000E+00  0.00000000000E+00 -0.14714076275E+04  0.14714076275E+04  0.25500000920E-02 0. -1.
    10030    2    1    2    0    0  0.00000000000E+00  0.00000000000E+00 -0.16358754490E+03  0.27792277100E+04  0.27744090865E+04 0.  0.
        3    1    3    3  502    0 -0.55403647019E+02 -0.12075225720E+04 -0.76353150410E+03  0.14297414780E+04  0.10100000352E+00 0. -1.
       -3    1    3    3    0  502  0.55403647019E+02  0.12075225720E+04  0.59994395920E+03  0.13494862320E+04  0.10100000352E+00 0.  1.
</event>
<event>
 5   0  0.1880301E-06  0.3353806E+04  0.7818609E-02  0.8149338E-01
        2   -1    0    0  501    0  0.00000000000E+00  0.00000000000E+00  0.24709643681E+04  0.24709643681E+04  0.25500000920E-02 0. -1.
       -2   -1    0    0    0  501  0.00000000000E+00  0.00000000000E+00 -0.11380189883E+04  0.11380189883E+04  0.25500000920E-02 0.  1.
    10030    2    1    2    0    0  0.00000000000E+00  0.00000000000E+00  0.13329453798E+04  0.36089833564E+04  0.33538064168E+04 0.  0.
        4    1    3    3  502    0 -0.10221179364E+04  0.86471148649E+03 -0.42008182350E+03  0.14031825904E+04  0.12699999809E+01 0.  1.
       -4    1    3    3    0  502  0.10221179364E+04 -0.86471148649E+03  0.17530272033E+04  0.22058007660E+04  0.12699999809E+01 0. -1.
</event>
<event>
 5   0  0.6134625E-07  0.3202268E+04  0.7818609E-02  0.8188218E-01
       -1   -1    0    0    0  501  0.00000000000E+00  0.00000000000E+00  0.13991115458E+04  0.13991115459E+04  0.50400001928E-02 0. -1.
        1   -1    0    0  501    0  0.00000000000E+00  0.00000000000E+00 -0.18323273361E+04  0.18323273361E+04  0.50400001928E-02 0.  1.
    10030    2    1    2    0    0  0.00000000000E+00  0.00000000000E+00 -0.43321579028E+03  0.32314388820E+04  0.32022681535E+04 0.  0.
        3    1    3    3  502    0 -0.29467266889E+03 -0.15024636139E+03 -0.17974750710E+04  0.18276549434E+04  0.10100000352E+00 0.  1.
       -3    1    3    3    0  502  0.29467266889E+03  0.15024636139E+03  0.13642592808E+04  0.14037839386E+04  0.10100000352E+00 0. -1.
</event>
<event>
 5   0  0.1911477E-06  0.3328382E+04  0.7818609E-02  0.8155711E-01
       -2   -1    0    0    0  501  0.00000000000E+00  0.00000000000E+00  0.14901956863E+04  0.14901956863E+04  0.25500000920E-02 0.  1.
        2   -1    0    0  501    0  0.00000000000E+00  0.00000000000E+00 -0.18585015021E+04  0.18585015021E+04  0.25500000920E-02 0. -1.
    10030    2    1    2    0    0  0.00000000000E+00  0.00000000000E+00 -0.36830581582E+03  0.33486971884E+04  0.33283815414E+04 0.  0.
        5    1    3    3  502    0  0.15900415336E+04  0.48948055645E+03 -0.14284701681E+03  0.16698055737E+04  0.46999998093E+01 0.  1.
       -5    1    3    3    0  502 -0.15900415336E+04 -0.48948055645E+03 -0.22545879901E+03  0.16788916147E+04  0.46999998093E+01 0. -1.
</event>
<event>
 5   0  0.1797075E-06  0.3406447E+04  0.7818609E-02  0.8136326E-01
        2   -1    0    0  501    0  0.00000000000E+00  0.00000000000E+00  0.21732338759E+04  0.21732338759E+04  0.25500000920E-02 0.  1.
       -2   -1    0    0    0  501  0.00000000000E+00  0.00000000000E+00 -0.13348634040E+04  0.13348634040E+04  0.25500000920E-02 0. -1.
    10030    2    1    2    0    0  0.00000000000E+00  0.00000000000E+00  0.83837047186E+03  0.35080972799E+04  0.34064470460E+04 0.  0.
        2    1    3    3  502    0 -0.81447708028E+03 -0.93613053524E+03  0.16207302923E+04  0.20411957216E+04  0.25500000920E-02 0.  1.
       -2    1    3    3    0  502  0.81447708028E+03  0.93613053524E+03 -0.78235982045E+03  0.14669015584E+04  0.25500000920E-02 0. -1.
</event>
<event>
 5   0  0.6146388E-07  0.2454104E+04  0.7818609E-02  0.8419521E-01
        1   -1    0    0  501    0  0.00000000000E+00  0.00000000000E+00  0.12522531148E+04  0.12522531148E+04  0.50400001928E-02 0. -1.
       -1   -1    0    0    0  501  0.00000000000E+00  0.00000000000E+00 -0.12023581742E+04  0.12023581742E+04  0.50400001928E-02 0.  1.
    10030    2    1    2    0    0  0.00000000000E+00  0.00000000000E+00  0.49894940604E+02  0.24546112890E+04  0.24541041288E+04 0.  0.
        4    1    3    3  502    0 -0.51356186170E+03  0.43188050822E+03 -0.10025859115E+04  0.12064189496E+04  0.12699999809E+01 0.  1.
       -4    1    3    3    0  502  0.51356186170E+03 -0.43188050822E+03  0.10524808521E+04  0.12481923394E+04  0.12699999809E+01 0. -1.
</event>
<event>
 5   0  0.1880301E-06  0.3404811E+04  0.7818609E-02  0.8136727E-01
        2   -1    0    0  501    0  0.00000000000E+00  0.00000000000E+00  0.24327140716E+04  0.24327140716E+04  0.25500000920E-02 0. -1.
       -2   -1    0    0    0  501  0.00000000000E+00  0.00000000000E+00 -0.11913375809E+04  0.11913375809E+04  0.25500000920E-02 0.  1.
    10030    2    1    2    0    0  0.00000000000E+00  0.00000000000E+00  0.12413764907E+04  0.36240516525E+04  0.34048105364E+04 0.  0.
        4    1    3    3  502    0  0.40571050628E+03  0.37140222219E+03 -0.10941524441E+04  0.12246272124E+04  0.12699999809E+01 0.  1.
       -4    1    3    3    0  502 -0.40571050628E+03 -0.37140222219E+03  0.23355289348E+04  0.23994244401E+04  0.12699999809E+01 0. -1.
</event>
<event>
 5   0  0.6146388E-07  0.3389657E+04  0.7818609E-02  0.8140450E-01
       -1   -1    0    0    0  501  0.00000000000E+00  0.00000000000E+00  0.15939198167E+04  0.15939198167E+04  0.50400001928E-02 0. -1.
        1   -1    0    0  501    0  0.00000000000E+00  0.00000000000E+00 -0.18021250859E+04  0.18021250859E+04  0.50400001928E-02 0.  1.
    10030    2    1    2    0    0  0.00000000000E+00  0.00000000000E+00 -0.20820526920E+03  0.33960449026E+04  0.33896565529E+04 0.  0.
        4    1    3    3  502    0  0.59448518386E+03  0.14495149472E+04  0.54359472762E+03  0.16583133169E+04  0.12699999809E+01 0. -1.
       -4    1    3    3    0  502 -0.59448518386E+03 -0.14495149472E+04 -0.75179999682E+03  0.17377315858E+04  0.12699999809E+01 0.  1.
</event>
<event>
 5   0  0.6146388E-07  0.3384833E+04  0.7818609E-02  0.8141639E-01
        1   -1    0    0  501    0  0.00000000000E+00  0.00000000000E+00  0.18905751419E+04  0.18905751419E+04  0.50400001928E-02 0.  1.
       -1   -1    0    0    0  501  0.00000000000E+00  0.00000000000E+00 -0.15150276900E+04  0.15150276900E+04  0.50400001928E-02 0. -1.
    10030    2    1    2    0    0  0.00000000000E+00  0.00000000000E+00  0.37554745188E+03  0.34056028319E+04  0.33848330475E+04 0.  0.
        4    1    3    3  502    0  0.98650498278E+03 -0.10579184059E+04  0.10717366933E+04  0.18002790304E+04  0.12699999809E+01 0.  1.
       -4    1    3    3    0  502 -0.98650498278E+03  0.10579184059E+04 -0.69618924145E+03  0.16053238014E+04  0.12699999809E+01 0. -1.
</event>
<event>
 5   0  0.1339844E-06  0.3452785E+04  0.7818609E-02  0.8125071E-01
       -2   -1    0    0    0  501  0.00000000000E+00  0.00000000000E+00  0.19023961191E+04  0.19023961191E+04  0.25500000920E-02 0.  1.
        2   -1    0    0  501    0  0.00000000000E+00  0.00000000000E+00 -0.15666721883E+04  0.15666721883E+04  0.25500000920E-02 0. -1.
    10030    2    1    2    0    0  0.00000000000E+00  0.00000000000E+00  0.33572393081E+03  0.34690683075E+04  0.34527850156E+04 0.  0.
        3    1    3    3  502    0 -0.17952624130E+03 -0.14095523968E+04  0.11529773840E+04  0.18298700743E+04  0.10100000352E+00 0.  1.
       -3    1    3    3    0  502  0.17952624130E+03  0.14095523968E+04 -0.81725345316E+03  0.16391982332E+04  0.10100000352E+00 0. -1.
</event>
<event>
 5   0  0.6134625E-07  0.3328083E+04  0.7818609E-02  0.8155786E-01
       -1   -1    0    0    0  501  0.00000000000E+00  0.00000000000E+00  0.12029244286E+04  0.12029244286E+04  0.50400001928E-02 0. -1.
        1   -1    0    0  501    0  0.00000000000E+00  0.00000000000E+00 -0.23019188201E+04  0.23019188201E+04  0.50400001928E-02 0.  1.
    10030    2    1    2    0    0  0.00000000000E+00  0.00000000000E+00 -0.10989943915E+04  0.35048432487E+04  0.33280831609E+04 0.  0.
        5    1    3    3  502    0  0.12703022540E+04  0.17049234970E+03 -0.16671245047E+04  0.21028698633E+04  0.46999998093E+01 0.  1.
       -5    1    3    3    0  502 -0.12703022540E+04 -0.17049234970E+03  0.56813011320E+03  0.14019733854E+04  0.46999998093E+01 0. -1.
</event>
<event>
 5   0  0.1339844E-06  0.3458470E+04  0.7818609E-02  0.8123703E-01
       -2   -1    0    0    0  501  0.00000000000E+00  0.00000000000E+00  0.16339955192E+04  0.16339955192E+04  0.25500000920E-02 0.  1.
        2   -1    0    0  501    0  0.00000000000E+00  0.00000000000E+00 -0.18300251530E+04  0.18300251530E+04  0.25500000920E-02 0. -1.
    10030    2    1    2    0    0  0.00000000000E+00  0.00000000000E+00 -0.19602963383E+03  0.34640206722E+04  0.34584695459E+04 0.  0.
        3    1    3    3  502    0  0.83171979082E+03  0.11303007183E+04  0.91401052904E+03  0.16747396161E+04  0.10100000352E+00 0.  1.
       -3    1    3    3    0  502 -0.83171979082E+03 -0.11303007183E+04 -0.11100401629E+04  0.17892810561E+04  0.10100000352E+00 0. -1.
</event>
<event>
 5   0  0.1880301E-06  0.3437126E+04  0.7818609E-02  0.8128854E-01
       -2   -1    0    0    0  501  0.00000000000E+00  0.00000000000E+00  0.15439624431E+04  0.15439624431E+04  0.25500000920E-02 0. -1.
        2   -1    0    0  501    0  0.00000000000E+00  0.00000000000E+00 -0.19129079348E+04  0.19129079348E+04  0.25500000920E-02 0.  1.
    10030    2    1    2    0    0  0.00000000000E+00  0.00000000000E+00 -0.36894549166E+03  0.34568703779E+04  0.34371255482E+04 0.  0.
        4    1    3    3  502    0  0.64703063628E+03 -0.75580197294E+03 -0.15937972987E+04  0.18788498367E+04  0.12699999809E+01 0.  1.
       -4    1    3    3    0  502 -0.64703063628E+03  0.75580197294E+03  0.12248518070E+04  0.15780205413E+04  0.12699999809E+01 0. -1.
</event>
<event>
 5   0  0.1339844E-06  0.3450029E+04  0.7818609E-02  0.8125736E-01
        2   -1    0    0  501    0  0.00000000000E+00  0.00000000000E+00  0.19325941281E+04  0.19325941281E+04  0.25500000920E-02 0.  1.
       -2   -1    0    0    0  501  0.00000000000E+00  0.00000000000E+00 -0.15397311228E+04  0.15397311228E+04  0.25500000920E-02 0. -1.
    10030    2    1    2    0    0  0.00000000000E+00  0.00000000000E+00  0.39286300535E+03  0.34723252509E+04  0.34500291748E+04 0.  0.
        3    1    3    3  502    0  0.14843533981E+04 -0.32508997281E+03 -0.62535416793E+03  0.16431848181E+04  0.10100000352E+00 0.  1.
       -3    1    3    3    0  502 -0.14843533981E+04  0.32508997281E+03  0.10182171733E+04  0.18291404328E+04  0.10100000352E+00 0. -1.
</event>
<event>
 5   0  0.1948507E-06  0.3471908E+04  0.7818609E-02  0.8120480E-01
        2   -1    0    0  501    0  0.00000000000E+00  0.00000000000E+00  0.17496069873E+04  0.17496069873E+04  0.25500000920E-02 0. -1.
       -2   -1    0    0    0  501  0.00000000000E+00  0.00000000000E+00 -0.17224075389E+04  0.17224075389E+04  0.25500000920E-02 0.  1.
    10030    2    1    2    0    0  0.00000000000E+00  0.00000000000E+00  0.27199448455E+02  0.34720145262E+04  0.34719079855E+04 0.  0.
        1    1    3    3  502    0 -0.14616056821E+04 -0.56878181789E+03  0.75775449527E+03  0.17418369044E+04  0.50400001928E-02 0. -1.
       -1    1    3    3    0  502  0.14616056821E+04  0.56878181789E+03 -0.73055504681E+03  0.17301776218E+04  0.50400001928E-02 0.  1.
</event>
<event>
 5   0  0.1911477E-06  0.3363094E+04  0.7818609E-02  0.8147024E-01
        2   -1    0    0  501    0  0.00000000000E+00  0.00000000000E+00  0.19542049085E+04  0.19542049085E+04  0.25500000920E-02 0. -1.
       -2   -1    0    0    0  501  0.00000000000E+00  0.00000000000E+00 -0.14469314117E+04  0.14469314117E+04  0.25500000920E-02 0.  1.
    10030    2    1    2    0    0  0.00000000000E+00  0.00000000000E+00  0.50727349681E+03  0.34011363203E+04  0.33630940915E+04 0.  0.
        5    1    3    3  502    0  0.42296156634E+03 -0.11574348402E+04 -0.90343219579E+03  0.15279933633E+04  0.46999998093E+01 0.  1.
       -5    1    3    3    0  502 -0.42296156634E+03  0.11574348402E+04  0.14107056926E+04  0.18731429569E+04  0.46999998093E+01 0. -1.
</event>
<event>
 5   0  0.6218695E-07  0.3380955E+04  0.7818609E-02  0.8142596E-01
        1   -1    0    0  501    0  0.00000000000E+00  0.00000000000E+00  0.17085536751E+04  0.17085536751E+04  0.50400001928E-02 0. -1.
       -1   -1    0    0    0  501  0.00000000000E+00  0.00000000000E+00 -0.16725929274E+04  0.16725929274E+04  0.50400001928E-02 0.  1.
    10030    2    1    2    0    0  0.00000000000E+00  0.00000000000E+00  0.35960747707E+02  0.33811466025E+04  0.33809553638E+04 0.  0.
        2    1    3    3  502    0 -0.29129058082E+03  0.10647789752E+04  0.12983302312E+04  0.17041906753E+04  0.25500000920E-02 0. -1.
       -2    1    3    3    0  502  0.29129058082E+03 -0.10647789752E+04 -0.12623694835E+04  0.16769559271E+04  0.25500000920E-02 0.  1.
</event>
<event>
 5   0  0.1911477E-06  0.3427570E+04  0.7818609E-02  0.8131173E-01
       -2   -1    0    0    0  501  0.00000000000E+00  0.00000000000E+00  0.14192606091E+04  0.14192606091E+04  0.25500000920E-02 0.  1.
        2   -1    0    0  501    0  0.00000000000E+00  0.00000000000E+00 -0.20694284144E+04  0.20694284144E+04  0.25500000920E-02 0. -1.
    10030    2    1    2    0    0  0.00000000000E+00  0.00000000000E+00 -0.65016780533E+03  0.34886890234E+04  0.34275695364E+04 0.  0.
        5    1    3    3  502    0 -0.30237732249E+03  0.12503956886E+03  0.13871647740E+04  0.14252421335E+04  0.46999998093E+01 0.  1.
       -5    1    3    3    0  502  0.30237732249E+03 -0.12503956886E+03 -0.20373325793E+04  0.20634468899E+04  0.46999998093E+01 0. -1.
</event>
<event>
 5   0  0.6146388E-07  0.3398818E+04  0.7818609E-02  0.8138197E-01
       -1   -1    0    0    0  501  0.00000000000E+00  0.00000000000E+00  0.14919188366E+04  0.14919188366E+04  0.50400001928E-02 0. -1.
        1   -1    0    0  501    0  0.00000000000E+00  0.00000000000E+00 -0.19357557492E+04  0.19357557492E+04  0.50400001928E-02 0.  1.
    10030    2    1    2    0    0  0.00000000000E+00  0.00000000000E+00 -0.44383691257E+03  0.34276745858E+04  0.33988177152E+04 0.  0.
        4    1    3    3  502    0  0.16842292915E+04 -0.52315959957E+02 -0.44429819023E+03  0.17426324227E+04  0.12699999809E+01 0. -1.
       -4    1    3    3    0  502 -0.16842292915E+04  0.52315959957E+02  0.46127765580E+00  0.16850421631E+04  0.12699999809E+01 0.  1.
</event>
<event>
 5   0  0.6134625E-07  0.3247888E+04  0.7818609E-02  0.8176283E-01
       -3   -1    0    0    0  501  0.00000000000E+00  0.00000000000E+00  0.14375352641E+04  0.14375352676E+04  0.10100000352E+00 0. -1.
        3   -1    0    0  501    0  0.00000000000E+00  0.00000000000E+00 -0.18345245232E+04  0.18345245260E+04  0.10100000352E+00 0.  1.
    10030    2    1    2    0    0  0.00000000000E+00  0.00000000000E+00 -0.39698925917E+03  0.32720597937E+04  0.32478877476E+04 0.  0.
        1    1    3    3  502    0 -0.49997803827E+03 -0.14912455335E+04 -0.60573373041E+03  0.16854390028E+04  0.50400001928E-02 0. -1.
       -1    1    3    3    0  502  0.49997803827E+03  0.14912455335E+04  0.20874447124E+03  0.15866207909E+04  0.50400001928E-02 0.  1.
</event>
<event>
 5   0  0.6146388E-07  0.3578472E+04  0.7818609E-02  0.8095441E-01
       -1   -1    0    0    0  501  0.00000000000E+00  0.00000000000E+00  0.15211402067E+04  0.15211402067E+04  0.50400001928E-02 0. -1.
        1   -1    0    0  501    0  0.00000000000E+00  0.00000000000E+00 -0.21045824403E+04  0.21045824403E+04  0.50400001928E-02 0.  1.
    10030    2    1    2    0    0  0.00000000000E+00  0.00000000000E+00 -0.58344223359E+03  0.36257226470E+04  0.35784717231E+04 0.  0.
        4    1    3    3  502    0 -0.12340721655E+04 -0.12826399211E+04 -0.10692844761E+03  0.17831249487E+04  0.12699999809E+01 0. -1.
       -4    1    3    3    0  502  0.12340721655E+04  0.12826399211E+04 -0.47651378598E+03  0.18425976984E+04  0.12699999809E+01 0.  1.
</event>
<event>
 5   0  0.6134625E-07  0.2465306E+04  0.7818609E-02  0.8415451E-01
        1   -1    0    0  501    0  0.00000000000E+00  0.00000000000E+00  0.14966694504E+04  0.14966694504E+04  0.50400001928E-02 0. -1.
       -1   -1    0    0    0  501  0.00000000000E+00  0.00000000000E+00 -0.10152097603E+04  0.10152097603E+04  0.50400001928E-02 0.  1.
    10030    2    1    2    0    0  0.00000000000E+00  0.00000000000E+00  0.48145969010E+03  0.25118792107E+04  0.24653060127E+04 0.  0.
        3    1    3    3  502    0 -0.12827202455E+03 -0.39894044083E+03  0.14218646699E+04  0.14823313858E+04  0.10100000352E+00 0. -1.
       -3    1    3    3    0  502  0.12827202455E+03  0.39894044083E+03 -0.94040497980E+03  0.10295478249E+04  0.10100000352E+00 0.  1.
</event>
<event>
 5   0  0.1880301E-06  0.3381340E+04  0.7818609E-02  0.8142501E-01
       -2   -1    0    0    0  501  0.00000000000E+00  0.00000000000E+00  0.28631018579E+04  0.28631018579E+04  0.25500000920E-02 0. -1.
        2   -1    0    0  501    0  0.00000000000E+00  0.00000000000E+00 -0.99834546661E+03  0.99834546661E+03  0.25500000920E-02 0.  1.
    10030    2    1    2    0    0  0.00000000000E+00  0.00000000000E+00  0.18647563913E+04  0.38614473245E+04  0.33813398293E+04 0.  0.
        4    1    3    3  502    0 -0.12896741087E+04 -0.88874407443E+03  0.20540855418E+03  0.15796580717E+04  0.12699999809E+01 0. -1.
       -4    1    3    3    0  502  0.12896741087E+04  0.88874407443E+03  0.16593478371E+04  0.22817892528E+04  0.12699999809E+01 0.  1.
</event>
<event>
 5   0  0.6146388E-07  0.3394528E+04  0.7818609E-02  0.8139251E-01
       -1   -1    0    0    0  501  0.00000000000E+00  0.00000000000E+00  0.30113591861E+04  0.30113591861E+04  0.50400001928E-02 0.  1.
        1   -1    0    0  501    0  0.00000000000E+00  0.00000000000E+00 -0.95661284665E+03  0.95661284667E+03  0.50400001928E-02 0. -1.
    10030    2    1    2    0    0  0.00000000000E+00  0.00000000000E+00  0.20547463394E+04  0.39679720328E+04  0.33945278808E+04 0.  0.
        4    1    3    3  502    0 -0.27042613355E+03  0.16594390564E+04  0.12985930750E+04  0.21244325979E+04  0.12699999809E+01 0.  1.
       -4    1    3    3    0  502  0.27042613355E+03 -0.16594390564E+04  0.75615326445E+03  0.18435394349E+04  0.12699999809E+01 0. -1.
</event>
<event>
 5   0  0.1797075E-06  0.3381928E+04  0.7818609E-02  0.8142356E-01
        2   -1    0    0  501    0  0.00000000000E+00  0.00000000000E+00  0.22285719616E+04  0.22285719616E+04  0.25500000920E-02 0.  1.
       -2   -1    0    0    0  501  0.00000000000E+00  0.00000000000E+00 -0.12830451747E+04  0.12830451747E+04  0.25500000920E-02 0. -1.
    10030    2    1    2    0    0  0.00000000000E+00  0.00000000000E+00  0.94552678688E+03  0.35116171364E+04  0.33819275580E+04 0.  0.
        2    1    3    3  502    0  0.76361615035E+03 -0.46252723638E+03  0.19639109302E+04  0.21573101797E+04  0.25500000920E-02 0.  1.
       -2    1    3    3    0  502 -0.76361615035E+03  0.46252723638E+03 -0.10183841433E+04  0.13543069567E+04  0.25500000920E-02 0. -1.
</event>
<event>
 5   0  0.1911477E-06  0.3134544E+04  0.7818609E-02  0.8206321E-01
        2   -1    0    0  501    0  0.00000000000E+00  0.00000000000E+00  0.15800826133E+04  0.15800826133E+04  0.25500000920E-02 0.  1.
       -2   -1    0    0    0  501  0.00000000000E+00  0.00000000000E+00 -0.15545655695E+04  0.15545655695E+04  0.25500000920E-02 0. -1.
    10030    2    1    2    0    0  0.00000000000E+00  0.00000000000E+00  0.25517043776E+02  0.31346481828E+04  0.31345443227E+04 0.  0.
        5    1    3    3  502    0 -0.23562614063E+03  0.15282670553E+04  0.26811002099E+03  0.15694027347E+04  0.46999998093E+01 0. -1.
       -5    1    3    3    0  502  0.23562614063E+03 -0.15282670553E+04 -0.24259297722E+03  0.15652454481E+04  0.46999998093E+01 0.  1.
</event>
<event>
 5   0  0.6134625E-07  0.3440851E+04  0.7818609E-02  0.8127952E-01
       -1   -1    0    0    0  501  0.00000000000E+00  0.00000000000E+00  0.13199358495E+04  0.13199358495E+04  0.50400001928E-02 0.  1.
        1   -1    0    0  501    0  0.00000000000E+00  0.00000000000E+00 -0.22424300543E+04  0.22424300543E+04  0.50400001928E-02 0. -1.
    10030    2    1    2    0    0  0.00000000000E+00  0.00000000000E+00 -0.92249420482E+03  0.35623659039E+04  0.34408509522E+04 0.  0.
        3    1    3    3  502    0 -0.15986263716E+04 -0.20371821762E+03  0.16231572644E+03  0.16197079346E+04  0.10100000352E+00 0.  1.
       -3    1    3    3    0  502  0.15986263716E+04  0.20371821762E+03 -0.10848099313E+04  0.19426579692E+04  0.10100000352E+00 0. -1.
</event>
<event>
 5   0  0.6134625E-07  0.3469931E+04  0.7818609E-02  0.8120953E-01
       -1   -1    0    0    0  501  0.00000000000E+00  0.00000000000E+00  0.20443735738E+04  0.20443735738E+04  0.50400001928E-02 0.  1.
        1   -1    0    0  501    0  0.00000000000E+00  0.00000000000E+00 -0.14723854230E+04  0.14723854230E+04  0.50400001928E-02 0. -1.
    10030    2    1    2    0    0  0.00000000000E+00  0.00000000000E+00  0.57198815081E+03  0.35167589969E+04  0.34699313246E+04 0.  0.
        5    1    3    3  502    0 -0.13612574586E+04  0.10192129871E+04 -0.62546312042E+02  0.17016906631E+04  0.46999998093E+01 0. -1.
       -5    1    3    3    0  502  0.13612574586E+04 -0.10192129871E+04  0.63453446285E+03  0.18150683338E+04  0.46999998093E+01 0.  1.
</event>
<event>
 5   0  0.6134625E-07  0.3414183E+04  0.7818609E-02  0.8134434E-01
        1   -1    0    0  501    0  0.00000000000E+00  0.00000000000E+00  0.18223032677E+04  0.18223032677E+04  0.50400001928E-02 0.  1.
       -1   -1    0    0    0  501  0.00000000000E+00  0.00000000000E+00 -0.15991642068E+04  0.15991642068E+04  0.50400001928E-02 0. -1.
    10030    2    1    2    0    0  0.00000000000E+00  0.00000000000E+00  0.22313906084E+03  0.34214674745E+04  0.34141834513E+04 0.  0.
        3    1    3    3  502    0 -0.27601003447E+03  0.84132024807E+03  0.15741903875E+04  0.18061220018E+04  0.10100000352E+00 0.  1.
       -3    1    3    3    0  502  0.27601003447E+03 -0.84132024807E+03 -0.13510513267E+04  0.16153454728E+04  0.10100000352E+00 0. -1.
</event>
<event>
 5   0  0.1797075E-06  0.3374992E+04  0.7818609E-02  0.8144071E-01
        2   -1    0    0  501    0  0.00000000000E+00  0.00000000000E+00  0.12341268113E+04  0.12341268113E+04  0.25500000920E-02 0. -1.
       -2   -1    0    0    0  501  0.00000000000E+00  0.00000000000E+00 -0.23074156778E+04  0.23074156778E+04  0.25500000920E-02 0.  1.
    10030    2    1    2    0    0  0.00000000000E+00  0.00000000000E+00 -0.10732888664E+04  0.35415424891E+04  0.33749924757E+04 0.  0.
        2    1    3    3  502    0 -0.27648050426E+03 -0.11643545254E+03  0.12059198812E+04  0.12426751159E+04  0.25500000920E-02 0. -1.
       -2    1    3    3    0  502  0.27648050426E+03  0.11643545254E+03 -0.22792087477E+04  0.22988673731E+04  0.25500000920E-02 0.  1.
</event>
<event>
 5   0  0.6146388E-07  0.3404699E+04  0.7818609E-02  0.8136754E-01
        1   -1    0    0  501    0  0.00000000000E+00  0.00000000000E+00  0.16092833335E+04  0.16092833335E+04  0.50400001928E-02 0.  1.
       -1   -1    0    0    0  501  0.00000000000E+00  0.00000000000E+00 -0.18007977026E+04  0.18007977026E+04  0.50400001928E-02 0. -1.
    10030    2    1    2    0    0  0.00000000000E+00  0.00000000000E+00 -0.19151436911E+03  0.34100810360E+04  0.34046989469E+04 0.  0.
        4    1    3    3  502    0  0.10278738965E+04 -0.97982102320E+03 -0.10360799992E+04  0.17578502104E+04  0.12699999809E+01 0. -1.
       -4    1    3    3    0  502 -0.10278738965E+04  0.97982102320E+03  0.84456563010E+03  0.16522308256E+04  0.12699999809E+01 0.  1.
</event>
<event>
 5   0  0.1339844E-06  0.3450916E+04  0.7818609E-02  0.8125522E-01
        2   -1    0    0  501    0  0.00000000000E+00  0.00000000000E+00  0.20566775610E+04  0.20566775610E+04  0.25500000920E-02 0. -1.
       -2   -1    0    0    0  501  0.00000000000E+00  0.00000000000E+00 -0.14475801526E+04  0.14475801526E+04  0.25500000920E-02 0.  1.
    10030    2    1    2    0    0  0.00000000000E+00  0.00000000000E+00  0.60909740840E+03  0.35042577135E+04  0.34509161784E+04 0.  0.
        3    1    3    3  502    0 -0.24579296170E+03 -0.62594890031E+03 -0.13090314628E+04  0.14716621850E+04  0.10100000352E+00 0.  1.
       -3    1    3    3    0  502  0.24579296170E+03  0.62594890031E+03  0.19181288712E+04  0.20325955286E+04  0.10100000352E+00 0. -1.
</event>
<event>
 5   0  0.1339844E-06  0.3438440E+04  0.7818609E-02  0.8128536E-01
       -2   -1    0    0    0  501  0.00000000000E+00  0.00000000000E+00  0.21129905436E+04  0.21129905436E+04  0.25500000920E-02 0. -1.
        2   -1    0    0  501    0  0.00000000000E+00  0.00000000000E+00 -0.13988309428E+04  0.13988309428E+04  0.25500000920E-02 0.  1.
    10030    2    1    2    0    0  0.00000000000E+00  0.00000000000E+00  0.71415960077E+03  0.35118214864E+04  0.34384395032E+04 0.  0.
        3    1    3    3  502    0 -0.35040150803E+02 -0.17631886179E+03  0.21033650849E+04  0.21110331224E+04  0.10100000352E+00 0. -1.
       -3    1    3    3    0  502  0.35040150803E+02  0.17631886179E+03 -0.13892054842E+04  0.14007883640E+04  0.10100000352E+00 0.  1.
</event>
<event>
 5   0  0.1880301E-06  0.2971897E+04  0.7818609E-02  0.8251802E-01
       -2   -1    0    0    0  501  0.00000000000E+00  0.00000000000E+00  0.10188974709E+04  0.10188974709E+04  0.25500000920E-02 0.  1.
        2   -1    0    0  501    0  0.00000000000E+00  0.00000000000E+00 -0.21670907773E+04  0.21670907773E+04  0.25500000920E-02 0. -1.
    10030    2    1    2    0    0  0.00000000000E+00  0.00000000000E+00 -0.11481933064E+04  0.31859882481E+04  0.29718972473E+04 0.  0.
        4    1    3    3  502    0  0.70964940992E+03 -0.33315001917E+02 -0.19732319631E+04  0.20972263034E+04  0.12699999809E+01 0. -1.
       -4    1    3    3    0  502 -0.70964940992E+03  0.33315001917E+02  0.82503865673E+03  0.10887619448E+04  0.12699999809E+01 0.  1.
</event>
<event>
 5   0  0.6146388E-07  0.3394689E+04  0.7818609E-02  0.8139211E-01
        1   -1    0    0  501    0  0.00000000000E+00  0.00000000000E+00  0.25302749304E+04  0.25302749304E+04  0.50400001928E-02 0.  1.
       -1   -1    0    0    0  501  0.00000000000E+00  0.00000000000E+00 -0.11386029029E+04  0.11386029029E+04  0.50400001928E-02 0. -1.
    10030    2    1    2    0    0  0.00000000000E+00  0.00000000000E+00  0.13916720275E+04  0.36688778333E+04  0.33946890172E+04 0.  0.
        4    1    3    3  502    0  0.14388839866E+04  0.85140218485E+03  0.37943803369E+03  0.17144234137E+04  0.12699999809E+01 0.  1.
       -4    1    3    3    0  502 -0.14388839866E+04 -0.85140218485E+03  0.10122339938E+04  0.19544544196E+04  0.12699999809E+01 0. -1.
</event>
<event>
 5   0  0.1948507E-06  0.3426032E+04  0.7818609E-02  0.8131547E-01
       -2   -1    0    0    0  501  0.00000000000E+00  0.00000000000E+00  0.23864971053E+04  0.23864971053E+04  0.25500000920E-02 0. -1.
        2   -1    0    0  501    0  0.00000000000E+00  0.00000000000E+00 -0.12295944253E+04  0.12295944254E+04  0.25500000920E-02 0.  1.
    10030    2    1    2    0    0  0.00000000000E+00  0.00000000000E+00  0.11569026800E+04  0.36160915307E+04  0.34260318369E+04 0.  0.
        1    1    3    3  502    0 -0.32583365394E+03  0.55797252084E+03 -0.10960401836E+04  0.12723226746E+04  0.50400001928E-02 0.  1.
       -1    1    3    3    0  502  0.32583365394E+03 -0.55797252084E+03  0.22529428636E+04  0.23437688561E+04  0.50400001928E-02 0. -1.
</event>
<event>
 5   0  0.6146388E-07  0.3200638E+04  0.7818609E-02  0.8188649E-01
       -1   -1    0    0    0  501  0.00000000000E+00  0.00000000000E+00  0.11373527451E+04  0.11373527452E+04  0.50400001928E-02 0.  1.
        1   -1    0    0  501    0  0.00000000000E+00  0.00000000000E+00 -0.22517380623E+04  0.22517380623E+04  0.50400001928E-02 0. -1.
    10030    2    1    2    0    0  0.00000000000E+00  0.00000000000E+00 -0.11143853171E+04  0.33890908075E+04  0.32006377280E+04 0.  0.
        4    1    3    3  502    0 -0.27343000463E+03 -0.56611186010E+03  0.10011145420E+04  0.11821499671E+04  0.12699999809E+01 0.  1.
       -4    1    3    3    0  502  0.27343000463E+03  0.56611186010E+03 -0.21154998592E+04  0.22069408403E+04  0.12699999809E+01 0. -1.
</event>
<event>
 5   0  0.1880301E-06  0.3407367E+04  0.7818609E-02  0.8136100E-01
       -2   -1    0    0    0  501  0.00000000000E+00  0.00000000000E+00  0.11546803348E+04  0.11546803348E+04  0.25500000920E-02 0.  1.
        2   -1    0    0  501    0  0.00000000000E+00  0.00000000000E+00 -0.25137158912E+04  0.25137158912E+04  0.25500000920E-02 0. -1.
    10030    2    1    2    0    0  0.00000000000E+00  0.00000000000E+00 -0.13590355564E+04  0.36683962259E+04  0.34073674922E+04 0.  0.
        4    1    3    3  502    0  0.94881370615E+03 -0.13171902106E+04 -0.12290126450E+03  0.16279876638E+04  0.12699999809E+01 0. -1.
       -4    1    3    3    0  502 -0.94881370615E+03  0.13171902106E+04 -0.12361342919E+04  0.20404085621E+04  0.12699999809E+01 0.  1.
</event>
<event>
 5   0  0.6134625E-07  0.2928559E+04  0.7818609E-02  0.8264431E-01
        1   -1    0    0  501    0  0.00000000000E+00  0.00000000000E+00  0.21076360620E+04  0.21076360620E+04  0.50400001928E-02 0. -1.
       -1   -1    0    0    0  501  0.00000000000E+00  0.00000000000E+00 -0.10173076875E+04  0.10173076875E+04  0.50400001928E-02 0.  1.
    10030    2    1    2    0    0  0.00000000000E+00  0.00000000000E+00  0.10903283745E+04  0.31249437495E+04  0.29285589414E+04 0.  0.
        1    1    3    3  502    0 -0.34458197131E+03 -0.10643228846E+04 -0.46296298696E+03  0.12107248510E+04  0.50400001928E-02 0.  1.
       -1    1    3    3    0  502  0.34458197131E+03  0.10643228846E+04  0.15532913614E+04  0.19142188984E+04  0.50400001928E-02 0. -1.
</event>
<event>
 5   0  0.1339844E-06  0.3394006E+04  0.7818609E-02  0.8139379E-01
        2   -1    0    0  501    0  0.00000000000E+00  0.00000000000E+00  0.21712638195E+04  0.21712638195E+04  0.25500000920E-02 0. -1.
       -2   -1    0    0    0  501  0.00000000000E+00  0.00000000000E+00 -0.13263331648E+04  0.13263331648E+04  0.25500000920E-02 0.  1.
    10030    2    1    2    0    0  0.00000000000E+00  0.00000000000E+00  0.84493065467E+03  0.34975969844E+04  0.33940060185E+04 0.  0.
        3    1    3    3  502    0 -0.54963413577E+03 -0.51039843312E+03  0.19911668550E+04  0.21277569642E+04  0.10100000352E+00 0. -1.
       -3    1    3    3    0  502  0.54963413577E+03  0.51039843312E+03 -0.11462362004E+04  0.13698400202E+04  0.10100000352E+00 0.  1.
</event>
<event>
 5   0  0.1911477E-06  0.3201970E+04  0.7818609E-02  0.8188297E-01
        2   -1    0    0  501    0  0.00000000000E+00  0.00000000000E+00  0.21173962194E+04  0.21173962194E+04  0.25500000920E-02 0. -1.
       -2   -1    0    0    0  501  0.00000000000E+00  0.00000000000E+00 -0.12105213248E+04  0.12105213248E+04  0.25500000920E-02 0.  1.
    10030    2    1    2    0    0  0.00000000000E+00  0.00000000000E+00  0.90687489455E+03  0.33279175442E+04  0.32019701914E+04 0.  0.
        5    1    3    3  502    0 -0.37316156964E+03  0.13030612439E+04 -0.43208090633E+03  0.14226504005E+04  0.46999998093E+01 0.  1.
       -5    1    3    3    0  502  0.37316156964E+03 -0.13030612439E+04  0.13389558009E+04  0.19052671438E+04  0.46999998093E+01 0. -1.
</event>
<event>
 5   0  0.1797075E-06  0.3475060E+04  0.7818609E-02  0.8119726E-01
        2   -1    0    0  501    0  0.00000000000E+00  0.00000000000E+00  0.20746664970E+04  0.20746664970E+04  0.25500000920E-02 0.  1.
       -2   -1    0    0    0  501  0.00000000000E+00  0.00000000000E+00 -0.14551783649E+04  0.14551783649E+04  0.25500000920E-02 0. -1.
    10030    2    1    2    0    0  0.00000000000E+00  0.00000000000E+00  0.61948813217E+03  0.35298448619E+04  0.34750595970E+04 0.  0.
        2    1    3    3  502    0  0.13204141547E+04 -0.11114122795E+04  0.10588373217E+03  0.17291449216E+04  0.25500000920E-02 0. -1.
       -2    1    3    3    0  502 -0.13204141547E+04  0.11114122795E+04  0.51360440000E+03  0.18006999403E+04  0.25500000920E-02 0.  1.
</event>
<event>
 5   0  0.1797075E-06  0.3367947E+04  0.7818609E-02  0.8145818E-01
       -2   -1    0    0    0  501  0.00000000000E+00  0.00000000000E+00  0.15380610840E+04  0.15380610840E+04  0.25500000920E-02 0. -1.
        2   -1    0    0  501    0  0.00000000000E+00  0.00000000000E+00 -0.18437285954E+04  0.18437285954E+04  0.25500000920E-02 0.  1.
    10030    2    1    2    0    0  0.00000000000E+00  0.00000000000E+00 -0.30566751139E+03  0.33817896794E+04  0.33679472692E+04 0.  0.
        2    1    3    3  502    0  0.25129153246E+03 -0.10586285217E+04 -0.14433887902E+04  0.18075433552E+04  0.25500000920E-02 0.  1.
       -2    1    3    3    0  502 -0.25129153246E+03  0.10586285217E+04  0.11377212788E+04  0.15742463242E+04  0.25500000920E-02 0. -1.
</event>
<event>
 5   0  0.1948507E-06  0.3380065E+04  0.7818609E-02  0.8142816E-01
        2   -1    0    0  501    0  0.00000000000E+00  0.00000000000E+00  0.19218380162E+04  0.19218380162E+04  0.25500000920E-02 0. -1.
       -2   -1    0    0    0  501  0.00000000000E+00  0.00000000000E+00 -0.14861865200E+04  0.14861865200E+04  0.25500000920E-02 0.  1.
    10030    2    1    2    0    0  0.00000000000E+00  0.00000000000E+00  0.43565149625E+03  0.34080245362E+04  0.33800649422E+04 0.  0.
        1    1    3    3  502    0 -0.46443790402E+03 -0.16228919173E+04  0.13511664781E+03  0.16934394735E+04  0.50400001928E-02 0.  1.
       -1    1    3    3    0  502  0.46443790402E+03  0.16228919173E+04  0.30053484844E+03  0.17145850627E+04  0.50400001928E-02 0. -1.
</event>
<event>
 5   0  0.6134625E-07  0.3391990E+04  0.7818609E-02  0.8139875E-01
       -1   -1    0    0    0  501  0.00000000000E+00  0.00000000000E+00  0.12168499984E+04  0.12168499984E+04  0.50400001928E-02 0. -1.
        1   -1    0    0  501    0  0.00000000000E+00  0.00000000000E+00 -0.23638075845E+04  0.23638075845E+04  0.50400001928E-02 0.  1.
    10030    2    1    2    0    0  0.00000000000E+00  0.00000000000E+00 -0.11469575861E+04  0.35806575829E+04  0.33919901270E+04 0.  0.
        3    1    3    3  502    0 -0.13582709914E+04 -0.46581174755E+03 -0.15261843721E+04  0.20954998015E+04  0.10100000352E+00 0.  1.
       -3    1    3    3    0  502  0.13582709914E+04  0.46581174755E+03  0.37922678602E+03  0.14851577814E+04  0.10100000352E+00 0. -1.
</event>
<event>
 5   0  0.6134625E-07  0.3443805E+04  0.7818609E-02  0.8127238E-01
        1   -1    0    0  501    0  0.00000000000E+00  0.00000000000E+00  0.10778900721E+04  0.10778900721E+04  0.50400001928E-02 0. -1.
       -1   -1    0    0    0  501  0.00000000000E+00  0.00000000000E+00 -0.27506962901E+04  0.27506962901E+04  0.50400001928E-02 0.  1.
    10030    2    1    2    0    0  0.00000000000E+00  0.00000000000E+00 -0.16728062180E+04  0.38285863623E+04  0.34438050018E+04 0.  0.
        3    1    3    3  502    0  0.71885882795E+03  0.66635909061E+03  0.73745519993E+03  0.12266346784E+04  0.10100000352E+00 0. -1.
       -3    1    3    3    0  502 -0.71885882795E+03 -0.66635909061E+03 -0.24102614179E+04  0.26019516839E+04  0.10100000352E+00 0.  1.
</event>
<event>
 5   0  0.6134625E-07  0.3433980E+04  0.7818609E-02  0.8129616E-01
        1   -1    0    0  501    0  0.00000000000E+00  0.00000000000E+00  0.27435341107E+04  0.27435341107E+04  0.50400001928E-02 0. -1.
       -1   -1    0    0    0  501  0.00000000000E+00  0.00000000000E+00 -0.10745466384E+04  0.10745466384E+04  0.50400001928E-02 0.  1.
    10030    2    1    2    0    0  0.00000000000E+00  0.00000000000E+00  0.16689874723E+04  0.38180807491E+04  0.34339804053E+04 0.  0.
        5    1    3    3  502    0 -0.13029443156E+03 -0.61406634229E+03  0.26113650272E+04  0.26857593911E+04  0.46999998093E+01 0. -1.
       -5    1    3    3    0  502  0.13029443156E+03  0.61406634229E+03 -0.94237755498E+03  0.11323213580E+04  0.46999998093E+01 0.  1.
</event>
<event>
 5   0  0.1339844E-06  0.3373183E+04  0.7818609E-02  0.8144520E-01
       -2   -1    0    0    0  501  0.00000000000E+00  0.00000000000E+00  0.12325129329E+04  0.12325129329E+04  0.25500000920E-02 0. -1.
        2   -1    0    0  501    0  0.00000000000E+00  0.00000000000E+00 -0.23079604326E+04  0.23079604326E+04  0.25500000920E-02 0.  1.
    10030    2    1    2    0    0  0.00000000000E+00  0.00000000000E+00 -0.10754474998E+04  0.35404733655E+04  0.33731831150E+04 0.  0.
        3    1    3    3  502    0  0.15511368453E+04  0.32654828137E+03  0.66984412070E+02  0.15865516741E+04  0.10100000352E+00 0. -1.
       -3    1    3    3    0  502 -0.15511368453E+04 -0.32654828137E+03 -0.11424319118E+04  0.19539216914E+04  0.10100000352E+00 0.  1.
</event>
<event>
 5   0  0.6146388E-07  0.3408569E+04  0.7818609E-02  0.8135806E-01
       -1   -1    0    0    0  501  0.00000000000E+00  0.00000000000E+00  0.19594648956E+04  0.19594648956E+04  0.50400001928E-02 0. -1.
        1   -1    0    0  501    0  0.00000000000E+00  0.00000000000E+00 -0.14823360022E+04  0.14823360022E+04  0.50400001928E-02 0.  1.
    10030    2    1    2    0    0  0.00000000000E+00  0.00000000000E+00  0.47712889341E+03  0.34418008979E+04  0.34085688257E+04 0.  0.
        4    1    3    3  502    0 -0.62476284035E+03  0.93429227393E+03  0.15322081651E+04  0.19002352838E+04  0.12699999809E+01 0. -1.
       -4    1    3    3    0  502  0.62476284035E+03 -0.93429227393E+03 -0.10550792717E+04  0.15415656140E+04  0.12699999809E+01 0.  1.
</event>
<event>
 5   0  0.1797075E-06  0.3377605E+04  0.7818609E-02  0.8143425E-01
       -2   -1    0    0    0  501  0.00000000000E+00  0.00000000000E+00  0.14518094055E+04  0.14518094055E+04  0.25500000920E-02 0.  1.
        2   -1    0    0  501    0  0.00000000000E+00  0.00000000000E+00 -0.19644821050E+04  0.19644821050E+04  0.25500000920E-02 0. -1.
    10030    2    1    2    0    0  0.00000000000E+00  0.00000000000E+00 -0.51267269949E+03  0.34162915105E+04  0.33776048301E+04 0.  0.
        2    1    3    3  502    0 -0.71441590717E+03  0.12903884663E+04  0.57561820027E+03  0.15832968120E+04  0.25500000920E-02 0.  1.
       -2    1    3    3    0  502  0.71441590717E+03 -0.12903884663E+04 -0.10882908998E+04  0.18329946985E+04  0.25500000920E-02 0. -1.
</event>
<event>
 5   0  0.6146388E-07  0.3378739E+04  0.7818609E-02  0.8143144E-01
        1   -1    0    0  501    0  0.00000000000E+00  0.00000000000E+00  0.14641999858E+04  0.14641999858E+04  0.50400001928E-02 0. -1.
       -1   -1    0    0    0  501  0.00000000000E+00  0.00000000000E+00 -0.19491657672E+04  0.19491657672E+04  0.50400001928E-02 0.  1.
    10030    2    1    2    0    0  0.00000000000E+00  0.00000000000E+00 -0.48496578142E+03  0.34133657530E+04  0.33787385152E+04 0.  0.
        4    1    3    3  502    0 -0.12164016252E+04 -0.63086353983E+03  0.75574553391E+03  0.15648561099E+04  0.12699999809E+01 0. -1.
       -4    1    3    3    0  502  0.12164016252E+04  0.63086353983E+03 -0.12407113153E+04  0.18485096431E+04  0.12699999809E+01 0.  1.
</event>
<event>
 5   0  0.6146388E-07  0.3357586E+04  0.7818609E-02  0.8148395E-01
        1   -1    0    0  501    0  0.00000000000E+00  0.00000000000E+00  0.18535701491E+04  0.18535701491E+04  0.50400001928E-02 0. -1.
       -1   -1    0    0    0  501  0.00000000000E+00  0.00000000000E+00 -0.15204956640E+04  0.15204956640E+04  0.50400001928E-02 0.  1.
    10030    2    1    2    0    0  0.00000000000E+00  0.00000000000E+00  0.33307448513E+03  0.33740658131E+04  0.33575856651E+04 0.  0.
        4    1    3    3  502    0 -0.12572852396E+04 -0.21036309315E+02  0.12842623465E+04  0.17973703256E+04  0.12699999809E+01 0. -1.
       -4    1    3    3    0  502  0.12572852396E+04  0.21036309315E+02 -0.95118786132E+03  0.15766954875E+04  0.12699999809E+01 0.  1.
</event>
<event>
 5   0  0.6134625E-07  0.3388041E+04  0.7818609E-02  0.8140848E-01
       -4   -1    0    0    0  501  0.00000000000E+00  0.00000000000E+00  0.15551056691E+04  0.15551061877E+04  0.12699999809E+01 0.  1.
        4   -1    0    0  501    0  0.00000000000E+00  0.00000000000E+00 -0.18453438027E+04  0.18453442397E+04  0.12699999809E+01 0. -1.
    10030    2    1    2    0    0  0.00000000000E+00  0.00000000000E+00 -0.29023813361E+03  0.34004504274E+04  0.33880414600E+04 0.  0.
        2    1    3    3  502    0 -0.52985630126E+03  0.13112016862E+04  0.79087831084E+03  0.16203351704E+04  0.25500000920E-02 0.  1.
       -2    1    3    3    0  502  0.52985630126E+03 -0.13112016862E+04 -0.10811164444E+04  0.17801152570E+04  0.25500000920E-02 0. -1.
</event>
<event>
 5   0  0.6134625E-07  0.2655632E+04  0.7818609E-02  0.8349546E-01
       -1   -1    0    0    0  501  0.00000000000E+00  0.00000000000E+00  0.95963164068E+03  0.95963164069E+03  0.50400001928E-02 0. -1.
        1   -1    0    0  501    0  0.00000000000E+00  0.00000000000E+00 -0.18372625907E+04  0.18372625907E+04  0.50400001928E-02 0.  1.
    10030    2    1    2    0    0  0.00000000000E+00  0.00000000000E+00 -0.87763095005E+03  0.27968942314E+04  0.26556319883E+04 0.  0.
        3    1    3    3  502    0  0.76208543310E+03  0.96193649461E+03 -0.97273290988E+03  0.15659838285E+04  0.10100000352E+00 0. -1.
       -3    1    3    3    0  502 -0.76208543310E+03 -0.96193649461E+03  0.95101959834E+02  0.12309104029E+04  0.10100000352E+00 0.  1.
</event>
<event>
 5   0  0.1880301E-06  0.3393301E+04  0.7818609E-02  0.8139552E-01
       -2   -1    0    0    0  501  0.00000000000E+00  0.00000000000E+00  0.18734864573E+04  0.18734864573E+04  0.25500000920E-02 0.  1.
        2   -1    0    0  501    0  0.00000000000E+00  0.00000000000E+00 -0.15365061128E+04  0.15365061128E+04  0.25500000920E-02 0. -1.
    10030    2    1    2    0    0  0.00000000000E+00  0.00000000000E+00  0.33698034448E+03  0.34099925701E+04  0.33933012799E+04 0.  0.
        4    1    3    3  502    0  0.12419494694E+04 -0.22158251882E+03 -0.97158775955E+03  0.15923321527E+04  0.12699999809E+01 0. -1.
       -4    1    3    3    0  502 -0.12419494694E+04  0.22158251882E+03  0.13085681040E+04  0.18176604174E+04  0.12699999809E+01 0.  1.
</event>
<event>
 5   0  0.1880301E-06  0.3390841E+04  0.7818609E-02  0.8140158E-01
       -2   -1    0    0    0  501  0.00000000000E+00  0.00000000000E+00  0.18688482048E+04  0.18688482048E+04  0.25500000920E-02 0.  1.
        2   -1    0    0  501    0  0.00000000000E+00  0.00000000000E+00 -0.15380867684E+04  0.15380867684E+04  0.25500000920E-02 0. -1.
    10030    2    1    2    0    0  0.00000000000E+00  0.00000000000E+00  0.33076143640E+03  0.34069349732E+04  0.33908410143E+04 0.  0.
        4    1    3    3  502    0  0.13021176964E+04 -0.10219213019E+02 -0.92551383203E+03  0.15975582599E+04  0.12699999809E+01 0. -1.
       -4    1    3    3    0  502 -0.13021176964E+04  0.10219213019E+02  0.12562752684E+04  0.18093767133E+04  0.12699999809E+01 0.  1.
</event>
<event>
 5   0  0.6218695E-07  0.3457069E+04  0.7818609E-02  0.8124040E-01
       -1   -1    0    0    0  501  0.00000000000E+00  0.00000000000E+00  0.16418816174E+04  0.16418816174E+04  0.50400001928E-02 0. -1.
        1   -1    0    0  501    0  0.00000000000E+00  0.00000000000E+00 -0.18197608801E+04  0.18197608801E+04  0.50400001928E-02 0.  1.
    10030    2    1    2    0    0  0.00000000000E+00  0.00000000000E+00 -0.17787926274E+03  0.34616424975E+04  0.34570692427E+04 0.  0.
        2    1    3    3  502    0  0.74221844236E+03 -0.67601265303E+02  0.14727304610E+04  0.16505735846E+04  0.25500000920E-02 0. -1.
       -2    1    3    3    0  502 -0.74221844236E+03  0.67601265303E+02 -0.16506097238E+04  0.18110689129E+04  0.25500000920E-02 0.  1.
</event>
<event>
 5   0  0.1880301E-06  0.3336031E+04  0.7818609E-02  0.8153787E-01
       -2   -1    0    0    0  501  0.00000000000E+00  0.00000000000E+00  0.23050198530E+04  0.23050198530E+04  0.25500000920E-02 0. -1.
        2   -1    0    0  501    0  0.00000000000E+00  0.00000000000E+00 -0.12070503963E+04  0.12070503963E+04  0.25500000920E-02 0.  1.
    10030    2    1    2    0    0  0.00000000000E+00  0.00000000000E+00  0.10979694567E+04  0.35120702493E+04  0.33360306516E+04 0.  0.
        4    1    3    3  502    0 -0.12926442628E+03  0.50248553544E+03  0.22179053139E+04  0.22777854595E+04  0.12699999809E+01 0. -1.
       -4    1    3    3    0  502  0.12926442628E+03 -0.50248553544E+03 -0.11199358572E+04  0.12342847898E+04  0.12699999809E+01 0.  1.
</event>
<event>
 5   0  0.1948507E-06  0.3432094E+04  0.7818609E-02  0.8130074E-01
       -2   -1    0    0    0  501  0.00000000000E+00  0.00000000000E+00  0.20851161874E+04  0.20851161875E+04  0.25500000920E-02 0.  1.
        2   -1    0    0  501    0  0.00000000000E+00  0.00000000000E+00 -0.14123039747E+04  0.14123039747E+04  0.25500000920E-02 0. -1.
    10030    2    1    2    0    0  0.00000000000E+00  0.00000000000E+00  0.67281221270E+03  0.34974201622E+04  0.34320943340E+04 0.  0.
        1    1    3    3  502    0 -0.11052440542E+04 -0.47926246160E+03 -0.90896867940E+03  0.15091325278E+04  0.50400001928E-02 0.  1.
       -1    1    3    3    0  502  0.11052440542E+04  0.47926246160E+03  0.15817808921E+04  0.19882876344E+04  0.50400001928E-02 0. -1.
</event>
<event>
 5   0  0.6134625E-07  0.3040191E+04  0.7818609E-02  0.8232346E-01
       -1   -1    0    0    0  501  0.00000000000E+00  0.00000000000E+00  0.13020361869E+04  0.13020361869E+04  0.50400001928E-02 0.  1.
        1   -1    0    0  501    0  0.00000000000E+00  0.00000000000E+00 -0.17746750099E+04  0.17746750099E+04  0.50400001928E-02 0. -1.
    10030    2    1    2    0    0  0.00000000000E+00  0.00000000000E+00 -0.47263882300E+03  0.30767111968E+04  0.30401914958E+04 0.  0.
        5    1    3    3  502    0 -0.11544283012E+04 -0.36519893429E+03  0.69373808038E+03  0.13954818445E+04  0.46999998093E+01 0.  1.
       -5    1    3    3    0  502  0.11544283012E+04  0.36519893429E+03 -0.11663769034E+04  0.16812293523E+04  0.46999998093E+01 0. -1.
</event>
<event>
 5   0  0.1880301E-06  0.3358444E+04  0.7818609E-02  0.8148182E-01
        2   -1    0    0  501    0  0.00000000000E+00  0.00000000000E+00  0.12205356829E+04  0.12205356829E+04  0.25500000920E-02 0.  1.
       -2   -1    0    0    0  501  0.00000000000E+00  0.00000000000E+00 -0.23102856796E+04  0.23102856796E+04  0.25500000920E-02 0. -1.
    10030    2    1    2    0    0  0.00000000000E+00  0.00000000000E+00 -0.10897499967E+04  0.35308213625E+04  0.33584437525E+04 0.  0.
        4    1    3    3  502    0  0.65681812808E+03  0.67160912944E+03 -0.20081901065E+04  0.22170471337E+04  0.12699999809E+01 0. -1.
       -4    1    3    3    0  502 -0.65681812808E+03 -0.67160912944E+03  0.91844010983E+03  0.13137742288E+04  0.12699999809E+01 0.  1.
</event>
<event>
 5   0  0.6134625E-07  0.3413035E+04  0.7818609E-02  0.8134715E-01
       -1   -1    0    0    0  501  0.00000000000E+00  0.00000000000E+00  0.14374516458E+04  0.14374516458E+04  0.50400001928E-02 0. -1.
        1   -1    0    0  501    0  0.00000000000E+00  0.00000000000E+00 -0.20259477565E+04  0.20259477565E+04  0.50400001928E-02 0.  1.
    10030    2    1    2    0    0  0.00000000000E+00  0.00000000000E+00 -0.58849611074E+03  0.34633994023E+04  0.34130349760E+04 0.  0.
        3    1    3    3  502    0 -0.31517045576E+02  0.16675783317E+04  0.72177563795E+02  0.16694371589E+04  0.10100000352E+00 0. -1.
       -3    1    3    3    0  502  0.31517045576E+02 -0.16675783317E+04 -0.66067367454E+03  0.17939622434E+04  0.10100000352E+00 0.  1.
</event>
<event>
 5   0  0.1911477E-06  0.3416277E+04  0.7818609E-02  0.8133923E-01
        2   -1    0    0  501    0  0.00000000000E+00  0.00000000000E+00  0.23028457261E+04  0.23028457262E+04  0.25500000920E-02 0. -1.
       -2   -1    0    0    0  501  0.00000000000E+00  0.00000000000E+00 -0.12670137882E+04  0.12670137882E+04  0.25500000920E-02 0.  1.
    10030    2    1    2    0    0  0.00000000000E+00  0.00000000000E+00  0.10358319380E+04  0.35698595143E+04  0.34162770889E+04 0.  0.
        5    1    3    3  502    0 -0.49056246007E+03 -0.30766314513E+03 -0.11613148151E+04  0.12976834467E+04  0.46999998093E+01 0.  1.
       -5    1    3    3    0  502  0.49056246007E+03  0.30766314513E+03  0.21971467530E+04  0.22721760677E+04  0.46999998093E+01 0. -1.
</event>
<event>
 5   0  0.6134625E-07  0.3436669E+04  0.7818609E-02  0.8128965E-01
        1   -1    0    0  501    0  0.00000000000E+00  0.00000000000E+00  0.89548506776E+03  0.89548506777E+03  0.50400001928E-02 0.  1.
       -1   -1    0    0    0  501  0.00000000000E+00  0.00000000000E+00 -0.32972890412E+04  0.32972890412E+04  0.50400001928E-02 0. -1.
    10030    2    1    2    0    0  0.00000000000E+00  0.00000000000E+00 -0.24018039734E+04  0.41927741090E+04  0.34366687943E+04 0.  0.
        3    1    3    3  502    0  0.13528703745E+03  0.33393907917E+03  0.84888195285E+03  0.92218136566E+03  0.10100000352E+00 0.  1.
       -3    1    3    3    0  502 -0.13528703745E+03 -0.33393907917E+03 -0.32506859263E+04  0.32705927433E+04  0.10100000352E+00 0. -1.
</event>
<event>
 5   0  0.6134625E-07  0.3417559E+04  0.7818609E-02  0.8133610E-01
       -1   -1    0    0    0  501  0.00000000000E+00  0.00000000000E+00  0.15584269393E+04  0.15584269393E+04  0.50400001928E-02 0. -1.
        1   -1    0    0  501    0  0.00000000000E+00  0.00000000000E+00 -0.18736372705E+04  0.18736372705E+04  0.50400001928E-02 0.  1.
    10030    2    1    2    0    0  0.00000000000E+00  0.00000000000E+00 -0.31521033121E+03  0.34320642098E+04  0.34175586589E+04 0.  0.
        1    1    3    3  502    0  0.59011936516E+03 -0.40349245002E+03 -0.17162493716E+04  0.18591823277E+04  0.50400001928E-02 0.  1.
       -1    1    3    3    0  502 -0.59011936516E+03  0.40349245002E+03  0.14010390403E+04  0.15728818821E+04  0.50400001928E-02 0. -1.
</event>
<event>
 5   0  0.1339844E-06  0.3430995E+04  0.7818609E-02  0.8130341E-01
        2   -1    0    0  501    0  0.00000000000E+00  0.00000000000E+00  0.25361915431E+04  0.25361915431E+04  0.25500000920E-02 0. -1.
       -2   -1    0    0    0  501  0.00000000000E+00  0.00000000000E+00 -0.11603745364E+04  0.11603745364E+04  0.25500000920E-02 0.  1.
    10030    2    1    2    0    0  0.00000000000E+00  0.00000000000E+00  0.13758170067E+04  0.36965660795E+04  0.34309952411E+04 0.  0.
        3    1    3    3  502    0 -0.15237346654E+04  0.20442777935E+03  0.15079916180E+04  0.21535080166E+04  0.10100000352E+00 0. -1.
       -3    1    3    3    0  502  0.15237346654E+04 -0.20442777935E+03 -0.13217461129E+03  0.15430580629E+04  0.10100000352E+00 0.  1.
</event>
<event>
 5   0  0.6134625E-07  0.3357123E+04  0.7818609E-02  0.8148511E-01
       -3   -1    0    0    0  501  0.00000000000E+00  0.00000000000E+00  0.15855562011E+04  0.15855562043E+04  0.10100000352E+00 0. -1.
        3   -1    0    0  501    0  0.00000000000E+00  0.00000000000E+00 -0.17770218938E+04  0.17770218967E+04  0.10100000352E+00 0.  1.
    10030    2    1    2    0    0  0.00000000000E+00  0.00000000000E+00 -0.19146569275E+03  0.33625781010E+04  0.33571226331E+04 0.  0.
        3    1    3    3  502    0  0.15004235245E+04  0.69601096182E+03  0.19085459142E+03  0.16649707196E+04  0.10100000352E+00 0.  1.
       -3    1    3    3    0  502 -0.15004235245E+04 -0.69601096182E+03 -0.38232028417E+03  0.16976073815E+04  0.10100000352E+00 0. -1.
</event>
<event>
 5   0  0.6146388E-07  0.3410979E+04  0.7818609E-02  0.8135217E-01
       -1   -1    0    0    0  501  0.00000000000E+00  0.00000000000E+00  0.16975131601E+04  0.16975131601E+04  0.50400001928E-02 0. -1.
        1   -1    0    0  501    0  0.00000000000E+00  0.00000000000E+00 -0.17135034191E+04  0.17135034191E+04  0.50400001928E-02 0.  1.
    10030    2    1    2    0    0  0.00000000000E+00  0.00000000000E+00 -0.15990259044E+02  0.34110165792E+04  0.34109790992E+04 0.  0.
        4    1    3    3  502    0 -0.15086498862E+04 -0.24680756942E+03  0.74815769917E+03  0.17019635752E+04  0.12699999809E+01 0. -1.
       -4    1    3    3    0  502  0.15086498862E+04  0.24680756942E+03 -0.76414795821E+03  0.17090530040E+04  0.12699999809E+01 0.  1.
</event>
<event>
 5   0  0.6146388E-07  0.3140827E+04  0.7818609E-02  0.8204622E-01
       -1   -1    0    0    0  501  0.00000000000E+00  0.00000000000E+00  0.15236769337E+04  0.15236769337E+04  0.50400001928E-02 0. -1.
        1   -1    0    0  501    0  0.00000000000E+00  0.00000000000E+00 -0.16185832668E+04  0.16185832668E+04  0.50400001928E-02 0.  1.
    10030    2    1    2    0    0  0.00000000000E+00  0.00000000000E+00 -0.94906333109E+02  0.31422602005E+04  0.31408266357E+04 0.  0.
        4    1    3    3  502    0  0.10953588656E+03  0.23484138854E+03 -0.15970461061E+04  0.16179327755E+04  0.12699999809E+01 0.  1.
       -4    1    3    3    0  502 -0.10953588656E+03 -0.23484138854E+03  0.15021397730E+04  0.15243274250E+04  0.12699999809E+01 0. -1.
</event>
<event>
 5   0  0.6134625E-07  0.3391328E+04  0.7818609E-02  0.8140038E-01
       -1   -1    0    0    0  501  0.00000000000E+00  0.00000000000E+00  0.20819985296E+04  0.20819985296E+04  0.50400001928E-02 0. -1.
        1   -1    0    0  501    0  0.00000000000E+00  0.00000000000E+00 -0.13810171639E+04  0.13810171639E+04  0.50400001928E-02 0.  1.
    10030    2    1    2    0    0  0.00000000000E+00  0.00000000000E+00  0.70098136563E+03  0.34630156935E+04  0.33913275894E+04 0.  0.
        3    1    3    3  502    0  0.28663406499E+03 -0.16560321364E+04  0.58035843064E+03  0.17780375255E+04  0.10100000352E+00 0.  1.
       -3    1    3    3    0  502 -0.28663406499E+03  0.16560321364E+04  0.12062293499E+03  0.16849781680E+04  0.10100000352E+00 0. -1.
</event>
<event>
 5   0  0.6134625E-07  0.3383858E+04  0.7818609E-02  0.8141880E-01
        3   -1    0    0  501    0  0.00000000000E+00  0.00000000000E+00  0.18482583363E+04  0.18482583391E+04  0.10100000352E+00 0. -1.
       -3   -1    0    0    0  501  0.00000000000E+00  0.00000000000E+00 -0.15488221463E+04  0.15488221496E+04  0.10100000352E+00 0.  1.
    10030    2    1    2    0    0  0.00000000000E+00  0.00000000000E+00  0.29943619005E+03  0.33970804887E+04  0.33838578302E+04 0.  0.
        4    1    3    3  502    0 -0.14150561967E+04 -0.78258729298E+03  0.64945329011E+03  0.17425894811E+04  0.12699999809E+01 0. -1.
       -4    1    3    3    0  502  0.14150561967E+04  0.78258729298E+03 -0.35001710006E+03  0.16544910076E+04  0.12699999809E+01 0.  1.
</event>
<event>
 5   0  0.6146388E-07  0.3264832E+04  0.7818609E-02  0.8171902E-01
        1   -1    0    0  501    0  0.00000000000E+00  0.00000000000E+00  0.20781079091E+04  0.20781079091E+04  0.50400001928E-02 0.  1.
       -1   -1    0    0    0  501  0.00000000000E+00  0.00000000000E+00 -0.12823118400E+04  0.12823118400E+04  0.50400001928E-02 0. -1.
    10030    2    1    2    0    0  0.00000000000E+00  0.00000000000E+00  0.79579606905E+03  0.33604197491E+04  0.32648322326E+04 0.  0.
        4    1    3    3  502    0  0.58771784370E+03  0.13201767009E+04 -0.38360930306E+03  0.14951376176E+04  0.12699999809E+01 0. -1.
       -4    1    3    3    0  502 -0.58771784370E+03 -0.13201767009E+04  0.11794053721E+04  0.18652821315E+04  0.12699999809E+01 0.  1.
</event>
<event>
 5   0  0.6146388E-07  0.3327485E+04  0.7818609E-02  0.8155937E-01
       -1   -1    0    0    0  501  0.00000000000E+00  0.00000000000E+00  0.16603325410E+04  0.16603325410E+04  0.50400001928E-02 0. -1.
        1   -1    0    0  501    0  0.00000000000E+00  0.00000000000E+00 -0.16671592006E+04  0.16671592006E+04  0.50400001928E-02 0.  1.
    10030    2    1    2    0    0  0.00000000000E+00  0.00000000000E+00 -0.68266596239E+01  0.33274917416E+04  0.33274847388E+04 0.  0.
        4    1    3    3  502    0  0.62036335297E+03 -0.73825140501E+03 -0.13592079194E+04  0.16665274098E+04  0.12699999809E+01 0.  1.
       -4    1    3    3    0  502 -0.62036335297E+03  0.73825140501E+03  0.13523812597E+04  0.16609643317E+04  0.12699999809E+01 0. -1.
</event>
<event>
 5   0  0.1880301E-06  0.3445402E+04  0.7818609E-02  0.8126852E-01
       -2   -1    0    0    0  501  0.00000000000E+00  0.00000000000E+00  0.11160440400E+04  0.11160440400E+04  0.25500000920E-02 0.  1.
        2   -1    0    0  501    0  0.00000000000E+00  0.00000000000E+00 -0.26591227965E+04  0.26591227965E+04  0.25500000920E-02 0. -1.
    10030    2    1    2    0    0  0.00000000000E+00  0.00000000000E+00 -0.15430787565E+04  0.37751668364E+04  0.34454016593E+04 0.  0.
        4    1    3    3  502    0 -0.21932339422E+03  0.25518924538E+03 -0.26227643590E+04  0.26442614844E+04  0.12699999809E+01 0. -1.
       -4    1    3    3    0  502  0.21932339422E+03 -0.25518924538E+03  0.10796856025E+04  0.11309053520E+04  0.12699999809E+01 0.  1.
</event>
<event>
 5   0  0.6146388E-07  0.3294148E+04  0.7818609E-02  0.8164386E-01
       -1   -1    0    0    0  501  0.00000000000E+00  0.00000000000E+00  0.12368179169E+04  0.12368179169E+04  0.50400001928E-02 0.  1.
        1   -1    0    0  501    0  0.00000000000E+00  0.00000000000E+00 -0.21934136199E+04  0.21934136199E+04  0.50400001928E-02 0. -1.
    10030    2    1    2    0    0  0.00000000000E+00  0.00000000000E+00 -0.95659570297E+03  0.34302315368E+04  0.32941483052E+04 0.  0.
        4    1    3    3  502    0  0.92374511301E+02 -0.15794251456E+03  0.12262015654E+04  0.12397785206E+04  0.12699999809E+01 0.  1.
       -4    1    3    3    0  502 -0.92374511301E+02  0.15794251456E+03 -0.21827972684E+04  0.21904530162E+04  0.12699999809E+01 0. -1.
</event>
<event>
 5   0  0.6146388E-07  0.3374945E+04  0.7818609E-02  0.8144083E-01
        1   -1    0    0  501    0  0.00000000000E+00  0.00000000000E+00  0.20895152060E+04  0.20895152060E+04  0.50400001928E-02 0.  1.
       -1   -1    0    0    0  501  0.00000000000E+00  0.00000000000E+00 -0.13627870438E+04  0.13627870438E+04  0.50400001928E-02 0. -1.
    10030    2    1    2    0    0  0.00000000000E+00  0.00000000000E+00  0.72672816223E+03  0.34523022498E+04  0.33749454814E+04 0.  0.
        4    1    3    3  502    0 -0.26941597147E+03  0.15480948431E+04 -0.26586118423E+03  0.15936958277E+04  0.12699999809E+01 0.  1.
       -4    1    3    3    0  502  0.26941597147E+03 -0.15480948431E+04  0.99258934646E+03  0.18586064222E+04  0.12699999809E+01 0. -1.
</event>
<event>
 5   0  0.6134625E-07  0.2724032E+04  0.7818609E-02  0.8327249E-01
       -1   -1    0    0    0  501  0.00000000000E+00  0.00000000000E+00  0.15380087407E+04  0.15380087408E+04  0.50400001928E-02 0. -1.
        1   -1    0    0  501    0  0.00000000000E+00  0.00000000000E+00 -0.12061621462E+04  0.12061621463E+04  0.50400001928E-02 0.  1.
    10030    2    1    2    0    0  0.00000000000E+00  0.00000000000E+00  0.33184659449E+03  0.27441708870E+04  0.27240322492E+04 0.  0.
        1    1    3    3  502    0  0.68074711589E+03  0.10979316094E+04 -0.26879619873E+03  0.13195157639E+04  0.50400001928E-02 0.  1.
       -1    1    3    3    0  502 -0.68074711589E+03 -0.10979316094E+04  0.60064279323E+03  0.14246551231E+04  0.50400001928E-02 0. -1.
</event>
<event>
 5   0  0.6134625E-07  0.3401265E+04  0.7818609E-02  0.8137596E-01
        1   -1    0    0  501    0  0.00000000000E+00  0.00000000000E+00  0.20103040703E+04  0.20103040704E+04  0.50400001928E-02 0.  1.
       -1   -1    0    0    0  501  0.00000000000E+00  0.00000000000E+00 -0.14386636770E+04  0.14386636771E+04  0.50400001928E-02 0. -1.
    10030    2    1    2    0    0  0.00000000000E+00  0.00000000000E+00  0.57164039330E+03  0.34489677474E+04  0.34012653209E+04 0.  0.
        3    1    3    3  502    0 -0.16108654218E+04 -0.30892218475E+03  0.74137714912E+03  0.17999890029E+04  0.10100000352E+00 0.  1.
       -3    1    3    3    0  502  0.16108654218E+04  0.30892218475E+03 -0.16973675583E+03  0.16489787445E+04  0.10100000352E+00 0. -1.
</event>
<event>
 5   0  0.6134625E-07  0.3628387E+04  0.7818609E-02  0.8084020E-01
        1   -1    0    0  501    0  0.00000000000E+00  0.00000000000E+00  0.17408988440E+04  0.17408988440E+04  0.50400001928E-02 0.  1.
       -1   -1    0    0    0  501  0.00000000000E+00  0.00000000000E+00 -0.18905740733E+04  0.18905740733E+04  0.50400001928E-02 0. -1.
    10030    2    1    2    0    0  0.00000000000E+00  0.00000000000E+00 -0.14967522930E+03  0.36314729172E+04  0.36283870899E+04 0.  0.
        5    1    3    3  502    0  0.11570194333E+04  0.38476083070E+03 -0.14193122248E+04  0.18711504876E+04  0.46999998093E+01 0. -1.
       -5    1    3    3    0  502 -0.11570194333E+04 -0.38476083070E+03  0.12696369955E+04  0.17603224296E+04  0.46999998093E+01 0.  1.
</event>
<event>
 5   0  0.1880301E-06  0.3420091E+04  0.7818609E-02  0.8132993E-01
        2   -1    0    0  501    0  0.00000000000E+00  0.00000000000E+00  0.14300243515E+04  0.14300243515E+04  0.25500000920E-02 0.  1.
       -2   -1    0    0    0  501  0.00000000000E+00  0.00000000000E+00 -0.20448995378E+04  0.20448995378E+04  0.25500000920E-02 0. -1.
    10030    2    1    2    0    0  0.00000000000E+00  0.00000000000E+00 -0.61487518634E+03  0.34749238893E+04  0.34200913061E+04 0.  0.
        4    1    3    3  502    0 -0.67789428724E+03  0.53785475369E+03 -0.18060170187E+04  0.20026301420E+04  0.12699999809E+01 0. -1.
       -4    1    3    3    0  502  0.67789428724E+03 -0.53785475369E+03  0.11911418324E+04  0.14722937474E+04  0.12699999809E+01 0.  1.
</event>
<event>
 5   0  0.6218695E-07  0.3375198E+04  0.7818609E-02  0.8144020E-01
       -1   -1    0    0    0  501  0.00000000000E+00  0.00000000000E+00  0.15542225071E+04  0.15542225071E+04  0.50400001928E-02 0.  1.
        1   -1    0    0  501    0  0.00000000000E+00  0.00000000000E+00 -0.18324212813E+04  0.18324212813E+04  0.50400001928E-02 0. -1.
    10030    2    1    2    0    0  0.00000000000E+00  0.00000000000E+00 -0.27819877414E+03  0.33866437884E+04  0.33751980078E+04 0.  0.
        2    1    3    3  502    0 -0.12947221074E+04  0.70076070722E+03  0.68869495777E+03  0.16253220140E+04  0.25500000920E-02 0.  1.
       -2    1    3    3    0  502  0.12947221074E+04 -0.70076070722E+03 -0.96689373191E+03  0.17613217744E+04  0.25500000920E-02 0. -1.
</event>
<event>
 5   0  0.6146388E-07  0.3429667E+04  0.7818609E-02  0.8130663E-01
        1   -1    0    0  501    0  0.00000000000E+00  0.00000000000E+00  0.17532165937E+04  0.17532165937E+04  0.50400001928E-02 0.  1.
       -1   -1    0    0    0  501  0.00000000000E+00  0.00000000000E+00 -0.16772908096E+04  0.16772908096E+04  0.50400001928E-02 0. -1.
    10030    2    1    2    0    0  0.00000000000E+00  0.00000000000E+00  0.75925784130E+02  0.34305074033E+04  0.34296670858E+04 0.  0.
        4    1    3    3  502    0  0.14115748525E+03  0.64750297485E+03 -0.15440272689E+04  0.16802402680E+04  0.12699999809E+01 0. -1.
       -4    1    3    3    0  502 -0.14115748525E+03 -0.64750297485E+03  0.16199530530E+04  0.17502671353E+04  0.12699999809E+01 0.  1.
</event>
<event>
 5   0  0.1880301E-06  0.3409665E+04  0.7818609E-02  0.8135538E-01
        2   -1    0    0  501    0  0.00000000000E+00  0.00000000000E+00  0.23158197589E+04  0.23158197589E+04  0.25500000920E-02 0. -1.
       -2   -1    0    0    0  501  0.00000000000E+00  0.00000000000E+00 -0.12550429276E+04  0.12550429277E+04  0.25500000920E-02 0.  1.
    10030    2    1    2    0    0  0.00000000000E+00  0.00000000000E+00  0.10607768312E+04  0.35708626865E+04  0.34096646229E+04 0.  0.
        4    1    3    3  502    0  0.15262315204E+04  0.24648412917E+03 -0.22213263796E+03  0.15618839911E+04  0.12699999809E+01 0.  1.
       -4    1    3    3    0  502 -0.15262315204E+04 -0.24648412917E+03  0.12829094692E+04  0.20089786955E+04  0.12699999809E+01 0. -1.
</event>
<event>
 5   0  0.1339844E-06  0.3400370E+04  0.7818609E-02  0.8137815E-01
        2   -1    0    0  501    0  0.00000000000E+00  0.00000000000E+00  0.18944558722E+04  0.18944558722E+04  0.25500000920E-02 0.  1.
       -2   -1    0    0    0  501  0.00000000000E+00  0.00000000000E+00 -0.15258361079E+04  0.15258361079E+04  0.25500000920E-02 0. -1.
    10030    2    1    2    0    0  0.00000000000E+00  0.00000000000E+00  0.36861976429E+03  0.34202919800E+04  0.34003700825E+04 0.  0.
        3    1    3    3  502    0 -0.15617643048E+03 -0.15725091089E+03 -0.15112440492E+04  0.15274087576E+04  0.10100000352E+00 0. -1.
       -3    1    3    3    0  502  0.15617643048E+03  0.15725091089E+03  0.18798638135E+04  0.18928832224E+04  0.10100000352E+00 0.  1.
</event>
<event>
 5   0  0.6218695E-07  0.3440439E+04  0.7818609E-02  0.8128052E-01
       -1   -1    0    0    0  501  0.00000000000E+00  0.00000000000E+00  0.32311208219E+04  0.32311208219E+04  0.50400001928E-02 0.  1.
        1   -1    0    0  501    0  0.00000000000E+00  0.00000000000E+00 -0.91582945344E+03  0.91582945345E+03  0.50400001928E-02 0. -1.
    10030    2    1    2    0    0  0.00000000000E+00  0.00000000000E+00  0.23152913685E+04  0.41469502753E+04  0.34404392838E+04 0.  0.
        2    1    3    3  502    0  0.39754209168E+03 -0.75142496024E+03  0.29602362463E+04  0.30798827606E+04  0.25500000920E-02 0.  1.
       -2    1    3    3    0  502 -0.39754209168E+03  0.75142496024E+03 -0.64494487781E+03  0.10670675147E+04  0.25500000920E-02 0. -1.
</event>
<event>
 5   0  0.1880301E-06  0.3692665E+04  0.7818609E-02  0.8069589E-01
        2   -1    0    0  501    0  0.00000000000E+00  0.00000000000E+00  0.13658046767E+04  0.13658046767E+04  0.25500000920E-02 0.  1.
       -2   -1    0    0    0  501  0.00000000000E+00  0.00000000000E+00 -0.24959226220E+04  0.24959226220E+04  0.25500000920E-02 0. -1.
    10030    2    1    2    0    0  0.00000000000E+00  0.00000000000E+00 -0.11301179453E+04  0.38617272987E+04  0.36926645068E+04 0.  0.
        4    1    3    3  502    0  0.92355285543E+03  0.90511777480E+03  0.81313641855E+03  0.15275406741E+04  0.12699999809E+01 0.  1.
       -4    1    3    3    0  502 -0.92355285543E+03 -0.90511777480E+03 -0.19432543638E+04  0.23341866246E+04  0.12699999809E+01 0. -1.
</event>
<event>
 5   0  0.1339844E-06  0.3352566E+04  0.7818609E-02  0.8149647E-01
       -2   -1    0    0    0  501  0.00000000000E+00  0.00000000000E+00  0.13236240382E+04  0.13236240382E+04  0.25500000920E-02 0. -1.
        2   -1    0    0  501    0  0.00000000000E+00  0.00000000000E+00 -0.21229020808E+04  0.21229020808E+04  0.25500000920E-02 0.  1.
    10030    2    1    2    0    0  0.00000000000E+00  0.00000000000E+00 -0.79927804262E+03  0.34465261191E+04  0.33525657190E+04 0.  0.
        3    1    3    3  502    0 -0.12024598989E+04  0.11115738331E+04 -0.76803701703E+03  0.18086976156E+04  0.10100000352E+00 0.  1.
       -3    1    3    3    0  502  0.12024598989E+04 -0.11115738331E+04 -0.31241025589E+02  0.16378285035E+04  0.10100000352E+00 0. -1.
</event>
<event>
 5   0  0.6134625E-07  0.3363146E+04  0.7818609E-02  0.8147011E-01
        1   -1    0    0  501    0  0.00000000000E+00  0.00000000000E+00  0.17170153825E+04  0.17170153825E+04  0.50400001928E-02 0. -1.
       -1   -1    0    0    0  501  0.00000000000E+00  0.00000000000E+00 -0.16468622223E+04  0.16468622223E+04  0.50400001928E-02 0.  1.
    10030    2    1    2    0    0  0.00000000000E+00  0.00000000000E+00  0.70153160168E+02  0.33638776049E+04  0.33631460085E+04 0.  0.
        3    1    3    3  502    0  0.13155607849E+04  0.63611574687E+02 -0.10105890936E+04  0.16601316025E+04  0.10100000352E+00 0.  1.
       -3    1    3    3    0  502 -0.13155607849E+04 -0.63611574687E+02  0.10807422538E+04  0.17037460024E+04  0.10100000352E+00 0. -1.
</event>
<event>
 5   0  0.1797075E-06  0.3410593E+04  0.7818609E-02  0.8135311E-01
        2   -1    0    0  501    0  0.00000000000E+00  0.00000000000E+00  0.23547182454E+04  0.23547182454E+04  0.25500000920E-02 0. -1.
       -2   -1    0    0    0  501  0.00000000000E+00  0.00000000000E+00 -0.12349823218E+04  0.12349823218E+04  0.25500000920E-02 0.  1.
    10030    2    1    2    0    0  0.00000000000E+00  0.00000000000E+00  0.11197359236E+04  0.35897005672E+04  0.34105925620E+04 0.  0.
        2    1    3    3  502    0 -0.41876665294E+03 -0.20044075856E+03 -0.11671852022E+04  0.12561302892E+04  0.25500000920E-02 0.  1.
       -2    1    3    3    0  502  0.41876665294E+03  0.20044075856E+03  0.22869211257E+04  0.23335702780E+04  0.25500000920E-02 0. -1.
</event>
<event>
 5   0  0.6134625E-07  0.3416748E+04  0.7818609E-02  0.8133808E-01
       -1   -1    0    0    0  501  0.00000000000E+00  0.00000000000E+00  0.12002099818E+04  0.12002099818E+04  0.50400001928E-02 0.  1.
        1   -1    0    0  501    0  0.00000000000E+00  0.00000000000E+00 -0.24316922423E+04  0.24316922423E+04  0.50400001928E-02 0. -1.
    10030    2    1    2    0    0  0.00000000000E+00  0.00000000000E+00 -0.12314822605E+04  0.36319022242E+04  0.34167477531E+04 0.  0.
        5    1    3    3  502    0  0.13543353066E+04 -0.17604720032E+02 -0.17224487488E+04  0.21912064785E+04  0.46999998093E+01 0. -1.
       -5    1    3    3    0  502 -0.13543353066E+04  0.17604720032E+02  0.49096648835E+03  0.14406957457E+04  0.46999998093E+01 0.  1.
</event>
<event>
 5   0  0.1797075E-06  0.3383572E+04  0.7818609E-02  0.8141950E-01
       -2   -1    0    0    0  501  0.00000000000E+00  0.00000000000E+00  0.18828548774E+04  0.18828548774E+04  0.25500000920E-02 0.  1.
        2   -1    0    0  501    0  0.00000000000E+00  0.00000000000E+00 -0.15201066483E+04  0.15201066483E+04  0.25500000920E-02 0. -1.
    10030    2    1    2    0    0  0.00000000000E+00  0.00000000000E+00  0.36274822915E+03  0.34029615257E+04  0.33835722051E+04 0.  0.
        2    1    3    3  502    0 -0.10302176746E+04 -0.13061705848E+02  0.15309358744E+04  0.18453410841E+04  0.25500000920E-02 0.  1.
       -2    1    3    3    0  502  0.10302176746E+04  0.13061705848E+02 -0.11681876453E+04  0.15576204415E+04  0.25500000920E-02 0. -1.
</event>
<event>
 5   0  0.6134625E-07  0.3332889E+04  0.7818609E-02  0.8154577E-01
        1   -1    0    0  501    0  0.00000000000E+00  0.00000000000E+00  0.12773216013E+04  0.12773216014E+04  0.50400001928E-02 0. -1.
       -1   -1    0    0    0  501  0.00000000000E+00  0.00000000000E+00 -0.21741094532E+04  0.21741094532E+04  0.50400001928E-02 0.  1.
    10030    2    1    2    0    0  0.00000000000E+00  0.00000000000E+00 -0.89678785182E+03  0.34514310545E+04  0.33328888180E+04 0.  0.
        3    1    3    3  502    0 -0.13693576400E+04 -0.93805671314E+03 -0.60180552156E+03  0.17655765742E+04  0.10100000352E+00 0. -1.
       -3    1    3    3    0  502  0.13693576400E+04  0.93805671314E+03 -0.29498233026E+03  0.16858544803E+04  0.10100000352E+00 0.  1.
</event>
<event>
 5   0  0.1339844E-06  0.3342740E+04  0.7818609E-02  0.8152105E-01
        2   -1    0    0  501    0  0.00000000000E+00  0.00000000000E+00  0.26501138947E+04  0.26501138947E+04  0.25500000920E-02 0. -1.
       -2   -1    0    0    0  501  0.00000000000E+00  0.00000000000E+00 -0.10540971626E+04  0.10540971626E+04  0.25500000920E-02 0.  1.
    10030    2    1    2    0    0  0.00000000000E+00  0.00000000000E+00  0.15960167321E+04  0.37042110573E+04  0.33427399163E+04 0.  0.
        3    1    3    3  502    0 -0.16119440309E+04 -0.30384396998E+03  0.11532914301E+04  0.20051847420E+04  0.10100000352E+00 0. -1.
       -3    1    3    3    0  502  0.16119440309E+04  0.30384396998E+03  0.44272530193E+03  0.16990263152E+04  0.10100000352E+00 0.  1.
</event>
<event>
 5   0  0.6218695E-07  0.3420766E+04  0.7818609E-02  0.8132828E-01
        1   -1    0    0  501    0  0.00000000000E+00  0.00000000000E+00  0.20201588250E+04  0.20201588250E+04  0.50400001928E-02 0. -1.
       -1   -1    0    0    0  501  0.00000000000E+00  0.00000000000E+00 -0.14481088159E+04  0.14481088159E+04  0.50400001928E-02 0.  1.
    10030    2    1    2    0    0  0.00000000000E+00  0.00000000000E+00  0.57205000902E+03  0.34682676409E+04  0.34207658815E+04 0.  0.
        2    1    3    3  502    0  0.14162064171E+04 -0.92069178199E+01 -0.68629375944E+03  0.15737612612E+04  0.25500000920E-02 0.  1.
       -2    1    3    3    0  502 -0.14162064171E+04  0.92069178199E+01  0.12583437685E+04  0.18945063797E+04  0.25500000920E-02 0. -1.
</event>
<event>
 5   0  0.6134625E-07  0.3406181E+04  0.7818609E-02  0.8136391E-01
       -1   -1    0    0    0  501  0.00000000000E+00  0.00000000000E+00  0.16263094457E+04  0.16263094457E+04  0.50400001928E-02 0.  1.
        1   -1    0    0  501    0  0.00000000000E+00  0.00000000000E+00 -0.17834960333E+04  0.17834960333E+04  0.50400001928E-02 0. -1.
    10030    2    1    2    0    0  0.00000000000E+00  0.00000000000E+00 -0.15718658752E+03  0.34098054790E+04  0.34061805268E+04 0.  0.
        1    1    3    3  502    0 -0.12067326895E+04 -0.81176778092E+03 -0.96573375300E+03  0.17457984980E+04  0.50400001928E-02 0. -1.
       -1    1    3    3    0  502  0.12067326895E+04  0.81176778092E+03  0.80854716547E+03  0.16640069810E+04  0.50400001928E-02 0.  1.
</event>
<event>
 5   0  0.1797075E-06  0.3313462E+04  0.7818609E-02  0.8159478E-01
        2   -1    0    0  501    0  0.00000000000E+00  0.00000000000E+00  0.96955546074E+03  0.96955546075E+03  0.25500000920E-02 0. -1.
       -2   -1    0    0    0  501  0.00000000000E+00  0.00000000000E+00 -0.28309450062E+04  0.28309450062E+04  0.25500000920E-02 0.  1.
    10030    2    1    2    0    0  0.00000000000E+00  0.00000000000E+00 -0.18613895455E+04  0.38005004670E+04  0.33134623522E+04 0.  0.
        2    1    3    3  502    0 -0.61626206545E+03  0.60016013876E+03 -0.25547203899E+04  0.26956571363E+04  0.25500000920E-02 0.  1.
       -2    1    3    3    0  502  0.61626206545E+03 -0.60016013876E+03  0.69333084448E+03  0.11048433307E+04  0.25500000920E-02 0. -1.
</event>
<event>
 5   0  0.6134625E-07  0.3380854E+04  0.7818609E-02  0.8142621E-01
       -1   -1    0    0    0  501  0.00000000000E+00  0.00000000000E+00  0.19589010661E+04  0.19589010661E+04  0.50400001928E-02 0.  1.
        1   -1    0    0  501    0  0.00000000000E+00  0.00000000000E+00 -0.14587480215E+04  0.14587480215E+04  0.50400001928E-02 0. -1.
    10030    2    1    2    0    0  0.00000000000E+00  0.00000000000E+00  0.50015304460E+03  0.34176490875E+04  0.33808537705E+04 0.  0.
        3    1    3    3  502    0 -0.13510615570E+04 -0.13491254555E+03 -0.76784561569E+03  0.15598575657E+04  0.10100000352E+00 0. -1.
       -3    1    3    3    0  502  0.13510615570E+04  0.13491254555E+03  0.12679986603E+04  0.18577915218E+04  0.10100000352E+00 0.  1.
</event>
<event>
 5   0  0.1880301E-06  0.3384741E+04  0.7818609E-02  0.8141662E-01
        2   -1    0    0  501    0  0.00000000000E+00  0.00000000000E+00  0.21179161826E+04  0.21179161826E+04  0.25500000920E-02 0. -1.
       -2   -1    0    0    0  501  0.00000000000E+00  0.00000000000E+00 -0.13523281226E+04  0.13523281226E+04  0.25500000920E-02 0.  1.
    10030    2    1    2    0    0  0.00000000000E+00  0.00000000000E+00  0.76558805993E+03  0.34702443052E+04  0.33847408261E+04 0.  0.
        4    1    3    3  502    0 -0.58027290332E+03  0.12607020412E+04  0.13757795839E+04  0.19541896928E+04  0.12699999809E+01 0. -1.
       -4    1    3    3    0  502  0.58027290332E+03 -0.12607020412E+04 -0.61019152400E+03  0.15160546124E+04  0.12699999809E+01 0.  1.
</event>
<event>
 5   0  0.1339844E-06  0.3390358E+04  0.7818609E-02  0.8140277E-01
       -2   -1    0    0    0  501  0.00000000000E+00  0.00000000000E+00  0.13077504898E+04  0.13077504898E+04  0.25500000920E-02 0.  1.
        2   -1    0    0  501    0  0.00000000000E+00  0.00000000000E+00 -0.21973856290E+04  0.21973856290E+04  0.25500000920E-02 0. -1.
    10030    2    1    2    0    0  0.00000000000E+00  0.00000000000E+00 -0.88963513922E+03  0.35051361188E+04  0.33903581714E+04 0.  0.
        3    1    3    3  502    0 -0.12585785470E+04  0.11169982600E+04 -0.23312458616E+03  0.16988384722E+04  0.10100000352E+00 0.  1.
       -3    1    3    3    0  502  0.12585785470E+04 -0.11169982600E+04 -0.65651055306E+03  0.18062976466E+04  0.10100000352E+00 0. -1.
</event>
<event>
 5   0  0.1911477E-06  0.3403364E+04  0.7818609E-02  0.8137081E-01
       -2   -1    0    0    0  501  0.00000000000E+00  0.00000000000E+00  0.14928988566E+04  0.14928988566E+04  0.25500000920E-02 0. -1.
        2   -1    0    0  501    0  0.00000000000E+00  0.00000000000E+00 -0.19396637788E+04  0.19396637788E+04  0.25500000920E-02 0.  1.
    10030    2    1    2    0    0  0.00000000000E+00  0.00000000000E+00 -0.44676492219E+03  0.34325626354E+04  0.34033641225E+04 0.  0.
        5    1    3    3  502    0  0.16241901358E+04 -0.79286390114E+02  0.28233716580E+03  0.16504594191E+04  0.46999998093E+01 0.  1.
       -5    1    3    3    0  502 -0.16241901358E+04  0.79286390114E+02 -0.72910208799E+03  0.17821032163E+04  0.46999998093E+01 0. -1.
</event>
<event>
 5   0  0.6146388E-07  0.3459225E+04  0.7818609E-02  0.8123522E-01
       -1   -1    0    0    0  501  0.00000000000E+00  0.00000000000E+00  0.10707392487E+04  0.10707392487E+04  0.50400001928E-02 0.  1.
        1   -1    0    0  501    0  0.00000000000E+00  0.00000000000E+00 -0.27939192313E+04  0.27939192313E+04  0.50400001928E-02 0. -1.
    10030    2    1    2    0    0  0.00000000000E+00  0.00000000000E+00 -0.17231799826E+04  0.38646584799E+04  0.34592247562E+04 0.  0.
        4    1    3    3  502    0 -0.98263996611E+03  0.32702607263E+03 -0.24092416738E+04  0.26223985988E+04  0.12699999809E+01 0. -1.
       -4    1    3    3    0  502  0.98263996611E+03 -0.32702607263E+03  0.68606169125E+03  0.12422598811E+04  0.12699999809E+01 0.  1.
</event>
<event>
 5   0  0.6134625E-07  0.2880274E+04  0.7818609E-02  0.8278771E-01
        1   -1    0    0  501    0  0.00000000000E+00  0.00000000000E+00  0.20805845922E+04  0.20805845922E+04  0.50400001928E-02 0. -1.
       -1   -1    0    0    0  501  0.00000000000E+00  0.00000000000E+00 -0.99683266300E+03  0.99683266302E+03  0.50400001928E-02 0.  1.
    10030    2    1    2    0    0  0.00000000000E+00  0.00000000000E+00  0.10837519292E+04  0.30774172552E+04  0.28802740700E+04 0.  0.
        1    1    3    3  502    0 -0.12735084948E+04  0.16376962441E+03  0.12387045264E+04  0.17841057368E+04  0.50400001928E-02 0.  1.
       -1    1    3    3    0  502  0.12735084948E+04 -0.16376962441E+03 -0.15495259721E+03  0.12933115184E+04  0.50400001928E-02 0. -1.
</event>
<event>
 5   0  0.6134625E-07  0.3447645E+04  0.7818609E-02  0.8126311E-01
       -1   -1    0    0    0  501  0.00000000000E+00  0.00000000000E+00  0.10376132488E+04  0.10376132488E+04  0.50400001928E-02 0.  1.
        1   -1    0    0  501    0  0.00000000000E+00  0.00000000000E+00 -0.28638461989E+04  0.28638461989E+04  0.50400001928E-02 0. -1.
    10030    2    1    2    0    0  0.00000000000E+00  0.00000000000E+00 -0.18262329502E+04  0.39014594477E+04  0.34476454333E+04 0.  0.
        3    1    3    3  502    0 -0.16581015613E+04 -0.40752380828E+03 -0.11813589037E+04  0.20762912396E+04  0.10100000352E+00 0. -1.
       -3    1    3    3    0  502  0.16581015613E+04  0.40752380828E+03 -0.64487404648E+03  0.18251682081E+04  0.10100000352E+00 0.  1.
</event>
<event>
 5   0  0.1797075E-06  0.3324462E+04  0.7818609E-02  0.8156699E-01
       -2   -1    0    0    0  501  0.00000000000E+00  0.00000000000E+00  0.12510396363E+04  0.12510396363E+04  0.25500000920E-02 0.  1.
        2   -1    0    0  501    0  0.00000000000E+00  0.00000000000E+00 -0.22085729347E+04  0.22085729347E+04  0.25500000920E-02 0. -1.
    10030    2    1    2    0    0  0.00000000000E+00  0.00000000000E+00 -0.95753329842E+03  0.34596125710E+04  0.33244622308E+04 0.  0.
        2    1    3    3  502    0  0.12870255302E+03  0.15132640712E+04  0.22433292982E+03  0.15352060969E+04  0.25500000920E-02 0.  1.
       -2    1    3    3    0  502 -0.12870255302E+03 -0.15132640712E+04 -0.11818662282E+04  0.19244064742E+04  0.25500000920E-02 0. -1.
</event>
<event>
 5   0  0.1880301E-06  0.3373766E+04  0.7818609E-02  0.8144375E-01
       -2   -1    0    0    0  501  0.00000000000E+00  0.00000000000E+00  0.21167181064E+04  0.21167181064E+04  0.25500000920E-02 0. -1.
        2   -1    0    0  501    0  0.00000000000E+00  0.00000000000E+00 -0.13443332414E+04  0.13443332414E+04  0.25500000920E-02 0.  1.
    10030    2    1    2    0    0  0.00000000000E+00  0.00000000000E+00  0.77238486505E+03  0.34610513478E+04  0.33737661526E+04 0.  0.
        4    1    3    3  502    0 -0.76875433144E+03 -0.12660231479E+04 -0.44202036543E+03  0.15456977225E+04  0.12699999809E+01 0.  1.
       -4    1    3    3    0  502  0.76875433144E+03  0.12660231479E+04  0.12144052305E+04  0.19153536253E+04  0.12699999809E+01 0. -1.
</event>
<event>
 5   0  0.1339844E-06  0.3410889E+04  0.7818609E-02  0.8135239E-01
       -2   -1    0    0    0  501  0.00000000000E+00  0.00000000000E+00  0.11868223690E+04  0.11868223690E+04  0.25500000920E-02 0.  1.
        2   -1    0    0  501    0  0.00000000000E+00  0.00000000000E+00 -0.24506957710E+04  0.24506957710E+04  0.25500000920E-02 0. -1.
    10030    2    1    2    0    0  0.00000000000E+00  0.00000000000E+00 -0.12638734020E+04  0.36375181400E+04  0.34108887760E+04 0.  0.
        3    1    3    3  502    0  0.60753967272E+03  0.31816840963E+03 -0.22971609061E+04  0.23973493341E+04  0.10100000352E+00 0. -1.
       -3    1    3    3    0  502 -0.60753967272E+03 -0.31816840963E+03  0.10332875041E+04  0.12401688059E+04  0.10100000352E+00 0.  1.
</event>
<event>
 5   0  0.1880301E-06  0.3430533E+04  0.7818609E-02  0.8130453E-01
       -2   -1    0    0    0  501  0.00000000000E+00  0.00000000000E+00  0.16403924928E+04  0.16403924928E+04  0.25500000920E-02 0.  1.
        2   -1    0    0  501    0  0.00000000000E+00  0.00000000000E+00 -0.17935578678E+04  0.17935578678E+04  0.25500000920E-02 0. -1.
    10030    2    1    2    0    0  0.00000000000E+00  0.00000000000E+00 -0.15316537498E+03  0.34339503606E+04  0.34305328226E+04 0.  0.
        4    1    3    3  502    0 -0.13971120545E+04  0.99279728506E+03 -0.89231425532E+01  0.17139573441E+04  0.12699999809E+01 0.  1.
       -4    1    3    3    0  502  0.13971120545E+04 -0.99279728506E+03 -0.14424223243E+03  0.17199930164E+04  0.12699999809E+01 0. -1.
</event>
<event>
 5   0  0.1797075E-06  0.3376774E+04  0.7818609E-02  0.8143630E-01
        2   -1    0    0  501    0  0.00000000000E+00  0.00000000000E+00  0.18961964233E+04  0.18961964233E+04  0.25500000920E-02 0. -1.
       -2   -1    0    0    0  501  0.00000000000E+00  0.00000000000E+00 -0.15033522515E+04  0.15033522515E+04  0.25500000920E-02 0.  1.
    10030    2    1    2    0    0  0.00000000000E+00  0.00000000000E+00  0.39284417188E+03  0.33995486748E+04  0.33767742964E+04 0.  0.
        2    1    3    3  502    0  0.37154581799E+03  0.15677120979E+04  0.70468709870E+03  0.17585082951E+04  0.25500000920E-02 0. -1.
       -2    1    3    3    0  502 -0.37154581799E+03 -0.15677120979E+04 -0.31184292683E+03  0.16410403797E+04  0.25500000920E-02 0.  1.
</event>
<event>
 5   0  0.1339844E-06  0.3413477E+04  0.7818609E-02  0.8134607E-01
        2   -1    0    0  501    0  0.00000000000E+00  0.00000000000E+00  0.26417120206E+04  0.26417120206E+04  0.25500000920E-02 0. -1.
       -2   -1    0    0    0  501  0.00000000000E+00  0.00000000000E+00 -0.11026774294E+04  0.11026774294E+04  0.25500000920E-02 0.  1.
    10030    2    1    2    0    0  0.00000000000E+00  0.00000000000E+00  0.15390345912E+04  0.37443894500E+04  0.34134769488E+04 0.  0.
        3    1    3    3  502    0 -0.74006473258E+03  0.70322637648E+03  0.22698581998E+04  0.24888711100E+04  0.10100000352E+00 0. -1.
       -3    1    3    3    0  502  0.74006473258E+03 -0.70322637648E+03 -0.73082360856E+03  0.12555183400E+04  0.10100000352E+00 0.  1.
</event>
<event>
 5   0  0.1911477E-06  0.3375470E+04  0.7818609E-02  0.8143953E-01
       -2   -1    0    0    0  501  0.00000000000E+00  0.00000000000E+00  0.16296199714E+04  0.16296199714E+04  0.25500000920E-02 0.  1.
        2   -1    0    0  501    0  0.00000000000E+00  0.00000000000E+00 -0.17479226328E+04  0.17479226329E+04  0.25500000920E-02 0. -1.
    10030    2    1    2    0    0  0.00000000000E+00  0.00000000000E+00 -0.11830266147E+03  0.33775426042E+04  0.33754701189E+04 0.  0.
        5    1    3    3  502    0  0.10802984888E+04 -0.10639926625E+04  0.68245305384E+03  0.16627956794E+04  0.46999998093E+01 0. -1.
       -5    1    3    3    0  502 -0.10802984888E+04  0.10639926625E+04 -0.80075571532E+03  0.17147469248E+04  0.46999998093E+01 0.  1.
</event>
<event>
 5   0  0.1911477E-06  0.3341723E+04  0.7818609E-02  0.8152359E-01
       -2   -1    0    0    0  501  0.00000000000E+00  0.00000000000E+00  0.11152123974E+04  0.11152123974E+04  0.25500000920E-02 0.  1.
        2   -1    0    0  501    0  0.00000000000E+00  0.00000000000E+00 -0.25033607292E+04  0.25033607292E+04  0.25500000920E-02 0. -1.
    10030    2    1    2    0    0  0.00000000000E+00  0.00000000000E+00 -0.13881483318E+04  0.36185731265E+04  0.33417234597E+04 0.  0.
        5    1    3    3  502    0  0.46581241144E+02 -0.66120119556E+03  0.96674531808E+03  0.11721669817E+04  0.46999998093E+01 0.  1.
       -5    1    3    3    0  502 -0.46581241144E+02  0.66120119556E+03 -0.23548936499E+04  0.24464061448E+04  0.46999998093E+01 0. -1.
</event>
<event>
 5   0  0.1911477E-06  0.3391582E+04  0.7818609E-02  0.8139976E-01
        2   -1    0    0  501    0  0.00000000000E+00  0.00000000000E+00  0.14828236589E+04  0.14828236589E+04  0.25500000920E-02 0. -1.
       -2   -1    0    0    0  501  0.00000000000E+00  0.00000000000E+00 -0.19393448059E+04  0.19393448059E+04  0.25500000920E-02 0.  1.
    10030    2    1    2    0    0  0.00000000000E+00  0.00000000000E+00 -0.45652114702E+03  0.34221684647E+04  0.33915815549E+04 0.  0.
        5    1    3    3  502    0  0.13712665532E+04 -0.98921625546E+03 -0.35890220932E+03  0.17285119745E+04  0.46999998093E+01 0. -1.
       -5    1    3    3    0  502 -0.13712665532E+04  0.98921625546E+03 -0.97618937692E+02  0.16936564903E+04  0.46999998093E+01 0.  1.
</event>
<event>
 5   0  0.1911477E-06  0.3346251E+04  0.7818609E-02  0.8151226E-01
        2   -1    0    0  501    0  0.00000000000E+00  0.00000000000E+00  0.28692639488E+04  0.28692639488E+04  0.25500000920E-02 0.  1.
       -2   -1    0    0    0  501  0.00000000000E+00  0.00000000000E+00 -0.97563313383E+03  0.97563313384E+03  0.25500000920E-02 0. -1.
    10030    2    1    2    0    0  0.00000000000E+00  0.00000000000E+00  0.18936308150E+04  0.38448970827E+04  0.33462510236E+04 0.  0.
        5    1    3    3  502    0 -0.29803418205E+03  0.93482185993E+03  0.25039808111E+04  0.26893601983E+04  0.46999998093E+01 0.  1.
       -5    1    3    3    0  502  0.29803418205E+03 -0.93482185993E+03 -0.61034999613E+03  0.11555368844E+04  0.46999998093E+01 0. -1.
</event>
<event>
 5   0  0.6134625E-07  0.3448055E+04  0.7818609E-02  0.8126212E-01
       -1   -1    0    0    0  501  0.00000000000E+00  0.00000000000E+00  0.16009694591E+04  0.16009694591E+04  0.50400001928E-02 0. -1.
        1   -1    0    0  501    0  0.00000000000E+00  0.00000000000E+00 -0.18565439923E+04  0.18565439923E+04  0.50400001928E-02 0.  1.
    10030    2    1    2    0    0  0.00000000000E+00  0.00000000000E+00 -0.25557453323E+03  0.34575134514E+04  0.34480546580E+04 0.  0.
        3    1    3    3  502    0 -0.14886124385E+04  0.92382529544E+02 -0.99489563440E+03  0.17928521571E+04  0.10100000352E+00 0.  1.
       -3    1    3    3    0  502  0.14886124385E+04 -0.92382529544E+02  0.73932110116E+03  0.16646612943E+04  0.10100000352E+00 0. -1.
</event>
<event>
 5   0  0.1339844E-06  0.3409402E+04  0.7818609E-02  0.8135603E-01
       -2   -1    0    0    0  501  0.00000000000E+00  0.00000000000E+00  0.11518293933E+04  0.11518293933E+04  0.25500000920E-02 0. -1.
        2   -1    0    0  501    0  0.00000000000E+00  0.00000000000E+00 -0.25229477087E+04  0.25229477087E+04  0.25500000920E-02 0.  1.
    10030    2    1    2    0    0  0.00000000000E+00  0.00000000000E+00 -0.13711183154E+04  0.36747771020E+04  0.34094018999E+04 0.  0.
        3    1    3    3  502    0 -0.12842312427E+03 -0.11614140859E+04  0.65227413003E+03  0.13382214797E+04  0.10100000352E+00 0. -1.
       -3    1    3    3    0  502  0.12842312427E+03  0.11614140859E+04 -0.20233924455E+04  0.23365556223E+04  0.10100000352E+00 0.  1.
</event>
<event>
 5   0  0.6134625E-07  0.3424201E+04  0.7818609E-02  0.8131992E-01
        1   -1    0    0  501    0  0.00000000000E+00  0.00000000000E+00  0.91970412840E+03  0.91970412841E+03  0.50400001928E-02 0. -1.
       -1   -1    0    0    0  501  0.00000000000E+00  0.00000000000E+00 -0.31872078404E+04  0.31872078404E+04  0.50400001928E-02 0.  1.
    10030    2    1    2    0    0  0.00000000000E+00  0.00000000000E+00 -0.22675037120E+04  0.41069119688E+04  0.34242010507E+04 0.  0.
        1    1    3    3  502    0  0.12178728861E+04 -0.73833776842E+03  0.59295514702E+01  0.14242163412E+04  0.50400001928E-02 0. -1.
       -1    1    3    3    0  502 -0.12178728861E+04  0.73833776842E+03 -0.22734332635E+04  0.26826956276E+04  0.50400001928E-02 0.  1.
</event>
<event>
 5   0  0.1911477E-06  0.3389856E+04  0.7818609E-02  0.8140401E-01
       -2   -1    0    0    0  501  0.00000000000E+00  0.00000000000E+00  0.13038463490E+04  0.13038463490E+04  0.25500000920E-02 0. -1.
        2   -1    0    0  501    0  0.00000000000E+00  0.00000000000E+00 -0.22033119189E+04  0.22033119189E+04  0.25500000920E-02 0.  1.
    10030    2    1    2    0    0  0.00000000000E+00  0.00000000000E+00 -0.89946556986E+03  0.35071582679E+04  0.33898555728E+04 0.  0.
        5    1    3    3  502    0  0.23207052327E+03 -0.16232736518E+04 -0.89338860347E+03  0.18673616049E+04  0.46999998093E+01 0.  1.
       -5    1    3    3    0  502 -0.23207052327E+03  0.16232736518E+04 -0.60769663820E+01  0.16397966630E+04  0.46999998093E+01 0. -1.
</event>
<event>
 5   0  0.6134625E-07  0.3332518E+04  0.7818609E-02  0.8154670E-01
       -1   -1    0    0    0  501  0.00000000000E+00  0.00000000000E+00  0.25622029842E+04  0.25622029842E+04  0.50400001928E-02 0. -1.
        1   -1    0    0  501    0  0.00000000000E+00  0.00000000000E+00 -0.10836059274E+04  0.10836059275E+04  0.50400001928E-02 0.  1.
    10030    2    1    2    0    0  0.00000000000E+00  0.00000000000E+00  0.14785970567E+04  0.36458089116E+04  0.33325175714E+04 0.  0.
        3    1    3    3  502    0 -0.31008784690E+03 -0.16049700438E+04  0.38592297746E+03  0.16795891965E+04  0.10100000352E+00 0. -1.
       -3    1    3    3    0  502  0.31008784690E+03  0.16049700438E+04  0.10926740793E+04  0.19662197151E+04  0.10100000352E+00 0.  1.
</event>
<event>
 5   0  0.1797075E-06  0.3441651E+04  0.7818609E-02  0.8127759E-01
       -2   -1    0    0    0  501  0.00000000000E+00  0.00000000000E+00  0.14350326715E+04  0.14350326715E+04  0.25500000920E-02 0. -1.
        2   -1    0    0  501    0  0.00000000000E+00  0.00000000000E+00 -0.20635349636E+04  0.20635349636E+04  0.25500000920E-02 0.  1.
    10030    2    1    2    0    0  0.00000000000E+00  0.00000000000E+00 -0.62850229206E+03  0.34985676351E+04  0.34416508199E+04 0.  0.
        2    1    3    3  502    0  0.12529803159E+04 -0.11775743542E+04 -0.24531325340E+03  0.17368994283E+04  0.25500000920E-02 0.  1.
       -2    1    3    3    0  502 -0.12529803159E+04  0.11775743542E+04 -0.38318903865E+03  0.17616682068E+04  0.25500000920E-02 0. -1.
</event>
<event>
 5   0  0.1880301E-06  0.3384699E+04  0.7818609E-02  0.8141672E-01
       -2   -1    0    0    0  501  0.00000000000E+00  0.00000000000E+00  0.17656275973E+04  0.17656275973E+04  0.25500000920E-02 0.  1.
        2   -1    0    0  501    0  0.00000000000E+00  0.00000000000E+00 -0.16221123176E+04  0.16221123176E+04  0.25500000920E-02 0. -1.
    10030    2    1    2    0    0  0.00000000000E+00  0.00000000000E+00  0.14351527966E+03  0.33877399149E+04  0.33846986713E+04 0.  0.
        4    1    3    3  502    0 -0.11126036048E+04 -0.29274392292E+03 -0.11705098061E+04  0.16412436153E+04  0.12699999809E+01 0. -1.
       -4    1    3    3    0  502  0.11126036048E+04  0.29274392292E+03  0.13140250857E+04  0.17464962996E+04  0.12699999809E+01 0.  1.
</event>
<event>
 5   0  0.6134625E-07  0.3483216E+04  0.7818609E-02  0.8117779E-01
        1   -1    0    0  501    0  0.00000000000E+00  0.00000000000E+00  0.21176996671E+04  0.21176996671E+04  0.50400001928E-02 0. -1.
       -1   -1    0    0    0  501  0.00000000000E+00  0.00000000000E+00 -0.14323078645E+04  0.14323078645E+04  0.50400001928E-02 0.  1.
    10030    2    1    2    0    0  0.00000000000E+00  0.00000000000E+00  0.68539180254E+03  0.35500075316E+04  0.34832156912E+04 0.  0.
        3    1    3    3  502    0  0.11087771255E+04 -0.12034816908E+04 -0.26492664357E+03  0.16576914763E+04  0.10100000352E+00 0.  1.
       -3    1    3    3    0  502 -0.11087771255E+04  0.12034816908E+04  0.95031844611E+03  0.18923160553E+04  0.10100000352E+00 0. -1.
</event>
<event>
 5   0  0.1797075E-06  0.3406384E+04  0.7818609E-02  0.8136341E-01
       -2   -1    0    0    0  501  0.00000000000E+00  0.00000000000E+00  0.21960899293E+04  0.21960899293E+04  0.25500000920E-02 0. -1.
        2   -1    0    0  501    0  0.00000000000E+00  0.00000000000E+00 -0.13209217189E+04  0.13209217189E+04  0.25500000920E-02 0.  1.
    10030    2    1    2    0    0  0.00000000000E+00  0.00000000000E+00  0.87516821040E+03  0.35170116481E+04  0.34063839385E+04 0.  0.
        2    1    3    3  502    0 -0.16429376974E+04 -0.15361311984E+03  0.19553091533E+01  0.16501045698E+04  0.25500000920E-02 0. -1.
       -2    1    3    3    0  502  0.16429376974E+04  0.15361311984E+03  0.87321290125E+03  0.18669070783E+04  0.25500000920E-02 0.  1.
</event>
<event>
 5   0  0.6134625E-07  0.3376741E+04  0.7818609E-02  0.8143638E-01
        1   -1    0    0  501    0  0.00000000000E+00  0.00000000000E+00  0.16166853893E+04  0.16166853893E+04  0.50400001928E-02 0. -1.
       -1   -1    0    0    0  501  0.00000000000E+00  0.00000000000E+00 -0.17632343904E+04  0.17632343904E+04  0.50400001928E-02 0.  1.
    10030    2    1    2    0    0  0.00000000000E+00  0.00000000000E+00 -0.14654900109E+03  0.33799197798E+04  0.33767411965E+04 0.  0.
        5    1    3    3  502    0  0.11092664962E+04 -0.66447853499E+03 -0.11599157304E+04  0.17370752646E+04  0.46999998093E+01 0.  1.
       -5    1    3    3    0  502 -0.11092664962E+04  0.66447853499E+03  0.10133667293E+04  0.16428445152E+04  0.46999998093E+01 0. -1.
</event>
<event>
 5   0  0.6134625E-07  0.3304064E+04  0.7818609E-02  0.8161862E-01
        1   -1    0    0  501    0  0.00000000000E+00  0.00000000000E+00  0.18108246650E+04  0.18108246650E+04  0.50400001928E-02 0.  1.
       -1   -1    0    0    0  501  0.00000000000E+00  0.00000000000E+00 -0.15071643136E+04  0.15071643136E+04  0.50400001928E-02 0. -1.
    10030    2    1    2    0    0  0.00000000000E+00  0.00000000000E+00  0.30366035138E+03  0.33179889786E+04  0.33040643537E+04 0.  0.
        5    1    3    3  502    0 -0.17699537355E+03 -0.19945141592E+03  0.17890630823E+04  0.18088330581E+04  0.46999998093E+01 0.  1.
       -5    1    3    3    0  502  0.17699537355E+03  0.19945141592E+03 -0.14854027309E+04  0.15091559206E+04  0.46999998093E+01 0. -1.
</event>
<event>
 5   0  0.6146388E-07  0.3295551E+04  0.7818609E-02  0.8164028E-01
       -1   -1    0    0    0  501  0.00000000000E+00  0.00000000000E+00  0.16707523147E+04  0.16707523147E+04  0.50400001928E-02 0. -1.
        1   -1    0    0  501    0  0.00000000000E+00  0.00000000000E+00 -0.16251149263E+04  0.16251149263E+04  0.50400001928E-02 0.  1.
    10030    2    1    2    0    0  0.00000000000E+00  0.00000000000E+00  0.45637388407E+02  0.32958672410E+04  0.32955512588E+04 0.  0.
        4    1    3    3  502    0  0.90837932802E+03 -0.13231675432E+04 -0.35036257930E+03  0.16427662344E+04  0.12699999809E+01 0.  1.
       -4    1    3    3    0  502 -0.90837932802E+03  0.13231675432E+04  0.39599996770E+03  0.16531010067E+04  0.12699999809E+01 0. -1.
</event>
<event>
 5   0  0.6218695E-07  0.3391389E+04  0.7818609E-02  0.8140023E-01
       -1   -1    0    0    0  501  0.00000000000E+00  0.00000000000E+00  0.12503997539E+04  0.12503997539E+04  0.50400001928E-02 0. -1.
        1   -1    0    0  501    0  0.00000000000E+00  0.00000000000E+00 -0.22995678968E+04  0.22995678968E+04  0.50400001928E-02 0.  1.
    10030    2    1    2    0    0  0.00000000000E+00  0.00000000000E+00 -0.10491681429E+04  0.35499676507E+04  0.33913885842E+04 0.  0.
        2    1    3    3  502    0  0.15523159450E+04  0.35470816666E+03  0.85665357917E+02  0.15946288691E+04  0.25500000920E-02 0.  1.
       -2    1    3    3    0  502 -0.15523159450E+04 -0.35470816666E+03 -0.11348335008E+04  0.19553387816E+04  0.25500000920E-02 0. -1.
</event>
<event>
 5   0  0.6134625E-07  0.2903619E+04  0.7818609E-02  0.8271801E-01
        1   -1    0    0  501    0  0.00000000000E+00  0.00000000000E+00  0.89797367478E+03  0.89797367479E+03  0.50400001928E-02 0. -1.
       -1   -1    0    0    0  501  0.00000000000E+00  0.00000000000E+00 -0.23472307768E+04  0.23472307768E+04  0.50400001928E-02 0.  1.
    10030    2    1    2    0    0  0.00000000000E+00  0.00000000000E+00 -0.14492571020E+04  0.32452044516E+04  0.29036194284E+04 0.  0.
        5    1    3    3  502    0  0.11756868262E+04  0.17355573740E+03  0.20735832688E+03  0.12063915919E+04  0.46999998093E+01 0. -1.
       -5    1    3    3    0  502 -0.11756868262E+04 -0.17355573740E+03 -0.16566154289E+04  0.20388128596E+04  0.46999998093E+01 0.  1.
</event>
<event>
 5   0  0.6134625E-07  0.3419590E+04  0.7818609E-02  0.8133115E-01
       -1   -1    0    0    0  501  0.00000000000E+00  0.00000000000E+00  0.12723317024E+04  0.12723317024E+04  0.50400001928E-02 0. -1.
        1   -1    0    0  501    0  0.00000000000E+00  0.00000000000E+00 -0.22976704983E+04  0.22976704983E+04  0.50400001928E-02 0.  1.
    10030    2    1    2    0    0  0.00000000000E+00  0.00000000000E+00 -0.10253387959E+04  0.35700022007E+04  0.34195900437E+04 0.  0.
        1    1    3    3  502    0 -0.11660775961E+04 -0.30892841247E+02  0.79239912316E+03  0.14101729320E+04  0.50400001928E-02 0. -1.
       -1    1    3    3    0  502  0.11660775961E+04  0.30892841247E+02 -0.18177379190E+04  0.21598292687E+04  0.50400001928E-02 0.  1.
</event>
<event>
 5   0  0.1339844E-06  0.3439209E+04  0.7818609E-02  0.8128350E-01
       -2   -1    0    0    0  501  0.00000000000E+00  0.00000000000E+00  0.11195585636E+04  0.11195585636E+04  0.25500000920E-02 0. -1.
        2   -1    0    0  501    0  0.00000000000E+00  0.00000000000E+00 -0.26412551171E+04  0.26412551171E+04  0.25500000920E-02 0.  1.
    10030    2    1    2    0    0  0.00000000000E+00  0.00000000000E+00 -0.15216965535E+04  0.37608136807E+04  0.34392090864E+04 0.  0.
        3    1    3    3  502    0  0.97824994168E+03  0.12434069404E+04 -0.14976557769E+04  0.21785331313E+04  0.10100000352E+00 0.  1.
       -3    1    3    3    0  502 -0.97824994168E+03 -0.12434069404E+04 -0.24040776598E+02  0.15822805494E+04  0.10100000352E+00 0. -1.
</event>
<event>
 5   0  0.1339844E-06  0.3155224E+04  0.7818609E-02  0.8200743E-01
        2   -1    0    0  501    0  0.00000000000E+00  0.00000000000E+00  0.17254537304E+04  0.17254537304E+04  0.25500000920E-02 0.  1.
       -2   -1    0    0    0  501  0.00000000000E+00  0.00000000000E+00 -0.14424379771E+04  0.14424379771E+04  0.25500000920E-02 0. -1.
    10030    2    1    2    0    0  0.00000000000E+00  0.00000000000E+00  0.28301575333E+03  0.31678917075E+04  0.31552242319E+04 0.  0.
        3    1    3    3  502    0 -0.97274621629E+02  0.98194814902E+03  0.13773743823E+04  0.16943567271E+04  0.10100000352E+00 0.  1.
       -3    1    3    3    0  502  0.97274621629E+02 -0.98194814902E+03 -0.10943586290E+04  0.14735349804E+04  0.10100000352E+00 0. -1.
</event>
<event>
 5   0  0.6134625E-07  0.3439427E+04  0.7818609E-02  0.8128297E-01
        1   -1    0    0  501    0  0.00000000000E+00  0.00000000000E+00  0.21955509595E+04  0.21955509595E+04  0.50400001928E-02 0.  1.
       -1   -1    0    0    0  501  0.00000000000E+00  0.00000000000E+00 -0.13470033662E+04  0.13470033662E+04  0.50400001928E-02 0. -1.
    10030    2    1    2    0    0  0.00000000000E+00  0.00000000000E+00  0.84854759324E+03  0.35425543257E+04  0.34394270064E+04 0.  0.
        3    1    3    3  502    0  0.13297295105E+04 -0.95828337618E+03 -0.11183940787E+03  0.16428620342E+04  0.10100000352E+00 0. -1.
       -3    1    3    3    0  502 -0.13297295105E+04  0.95828337618E+03  0.96038700111E+03  0.18996922915E+04  0.10100000352E+00 0.  1.
</event>
<event>
 5   0  0.6134625E-07  0.2737036E+04  0.7818609E-02  0.8323087E-01
        1   -1    0    0  501    0  0.00000000000E+00  0.00000000000E+00  0.17958993787E+04  0.17958993787E+04  0.50400001928E-02 0.  1.
       -1   -1    0    0    0  501  0.00000000000E+00  0.00000000000E+00 -0.10428433129E+04  0.10428433129E+04  0.50400001928E-02 0. -1.
    10030    2    1    2    0    0  0.00000000000E+00  0.00000000000E+00  0.75305606581E+03  0.28387426916E+04  0.27370361033E+04 0.  0.
        1    1    3    3  502    0 -0.10149689582E+04 -0.91780894572E+03  0.35837298250E+03  0.14145552098E+04  0.50400001928E-02 0.  1.
       -1    1    3    3    0  502  0.10149689582E+04  0.91780894572E+03  0.39468308331E+03  0.14241874818E+04  0.50400001928E-02 0. -1.
</event>
<event>
 5   0  0.6134625E-07  0.2444578E+04  0.7818609E-02  0.8423000E-01
        1   -1    0    0  501    0  0.00000000000E+00  0.00000000000E+00  0.18825541593E+04  0.18825541593E+04  0.50400001928E-02 0. -1.
       -1   -1    0    0    0  501  0.00000000000E+00  0.00000000000E+00 -0.79359736233E+03  0.79359736235E+03  0.50400001928E-02 0.  1.
    10030    2    1    2    0    0  0.00000000000E+00  0.00000000000E+00  0.10889567969E+04  0.26761515216E+04  0.24445776856E+04 0.  0.
        3    1    3    3  502    0  0.84838752958E+03 -0.32337701183E+03 -0.35136626308E+03  0.97354627685E+03  0.10100000352E+00 0.  1.
       -3    1    3    3    0  502 -0.84838752958E+03  0.32337701183E+03  0.14403230600E+04  0.17026052448E+04  0.10100000352E+00 0. -1.
</event>
<event>
 5   0  0.1797075E-06  0.3347711E+04  0.7818609E-02  0.8150860E-01
        2   -1    0    0  501    0  0.00000000000E+00  0.00000000000E+00  0.18904733973E+04  0.18904733973E+04  0.25500000920E-02 0. -1.
       -2   -1    0    0    0  501  0.00000000000E+00  0.00000000000E+00 -0.14820588733E+04  0.14820588733E+04  0.25500000920E-02 0.  1.
    10030    2    1    2    0    0  0.00000000000E+00  0.00000000000E+00  0.40841452400E+03  0.33725322706E+04  0.33477113813E+04 0.  0.
        2    1    3    3  502    0 -0.13569721313E+04  0.15493298284E+03  0.11790674859E+04  0.18043219587E+04  0.25500000920E-02 0. -1.
       -2    1    3    3    0  502  0.13569721313E+04 -0.15493298284E+03 -0.77065296193E+03  0.15682103118E+04  0.25500000920E-02 0.  1.
</event>
<event>
 5   0  0.1797075E-06  0.3419287E+04  0.7818609E-02  0.8133189E-01
        2   -1    0    0  501    0  0.00000000000E+00  0.00000000000E+00  0.18141004900E+04  0.18141004900E+04  0.25500000920E-02 0. -1.
       -2   -1    0    0    0  501  0.00000000000E+00  0.00000000000E+00 -0.16112011794E+04  0.16112011794E+04  0.25500000920E-02 0.  1.
    10030    2    1    2    0    0  0.00000000000E+00  0.00000000000E+00  0.20289931069E+03  0.34253016694E+04  0.34192869719E+04 0.  0.
        2    1    3    3  502    0 -0.16582016575E+04 -0.13985539091E+03  0.49417061097E+03  0.17359138401E+04  0.25500000920E-02 0.  1.
       -2    1    3    3    0  502  0.16582016575E+04  0.13985539091E+03 -0.29127130028E+03  0.16893878293E+04  0.25500000920E-02 0. -1.
</event>
<event>
 5   0  0.6146388E-07  0.3340888E+04  0.7818609E-02  0.8152569E-01
        1   -1    0    0  501    0  0.00000000000E+00  0.00000000000E+00  0.14383516228E+04  0.14383516228E+04  0.50400001928E-02 0. -1.
       -1   -1    0    0    0  501  0.00000000000E+00  0.00000000000E+00 -0.19399865881E+04  0.19399865881E+04  0.50400001928E-02 0.  1.
    10030    2    1    2    0    0  0.00000000000E+00  0.00000000000E+00 -0.50163496534E+03  0.33783382110E+04  0.33408878205E+04 0.  0.
        4    1    3    3  502    0  0.11812783659E+04  0.43163182470E+03 -0.13625305289E+04  0.18542426122E+04  0.12699999809E+01 0.  1.
       -4    1    3    3    0  502 -0.11812783659E+04 -0.43163182470E+03  0.86089556357E+03  0.15240955987E+04  0.12699999809E+01 0. -1.
</event>
<event>
 5   0  0.1948507E-06  0.3399048E+04  0.7818609E-02  0.8138140E-01
       -2   -1    0    0    0  501  0.00000000000E+00  0.00000000000E+00  0.16533551533E+04  0.16533551533E+04  0.25500000920E-02 0. -1.
        2   -1    0    0  501    0  0.00000000000E+00  0.00000000000E+00 -0.17469817961E+04  0.17469817961E+04  0.25500000920E-02 0.  1.
    10030    2    1    2    0    0  0.00000000000E+00  0.00000000000E+00 -0.93626642834E+02  0.34003369494E+04  0.33990477227E+04 0.  0.
        1    1    3    3  502    0  0.43265234640E+03  0.12814416280E+04  0.98270317806E+03  0.16718212329E+04  0.50400001928E-02 0. -1.
       -1    1    3    3    0  502 -0.43265234640E+03 -0.12814416280E+04 -0.10763298209E+04  0.17285157165E+04  0.50400001928E-02 0.  1.
</event>
<event>
 5   0  0.6134625E-07  0.3406069E+04  0.7818609E-02  0.8136418E-01
       -1   -1    0    0    0  501  0.00000000000E+00  0.00000000000E+00  0.26740807729E+04  0.26740807729E+04  0.50400001928E-02 0. -1.
        1   -1    0    0  501    0  0.00000000000E+00  0.00000000000E+00 -0.10846070689E+04  0.10846070689E+04  0.50400001928E-02 0.  1.
    10030    2    1    2    0    0  0.00000000000E+00  0.00000000000E+00  0.15894737040E+04  0.37586878418E+04  0.34060692354E+04 0.  0.
        5    1    3    3  502    0  0.52003095359E+03 -0.33696103236E+03 -0.95578112689E+03  0.11390849760E+04  0.46999998093E+01 0.  1.
       -5    1    3    3    0  502 -0.52003095359E+03  0.33696103236E+03  0.25452548309E+04  0.26196028658E+04  0.46999998093E+01 0. -1.
</event>
<event>
 5   0  0.1911477E-06  0.2939471E+04  0.7818609E-02  0.8261230E-01
        2   -1    0    0  501    0  0.00000000000E+00  0.00000000000E+00  0.26727717901E+04  0.26727717901E+04  0.25500000920E-02 0. -1.
       -2   -1    0    0    0  501  0.00000000000E+00  0.00000000000E+00 -0.80819564502E+03  0.80819564502E+03  0.25500000920E-02 0.  1.
    10030    2    1    2    0    0  0.00000000000E+00  0.00000000000E+00  0.18645761451E+04  0.34809674351E+04  0.29394710551E+04 0.  0.
        5    1    3    3  502    0  0.12697498079E+04 -0.22495337393E+03  0.97242388124E+02  0.12931924710E+04  0.46999998093E+01 0. -1.
       -5    1    3    3    0  502 -0.12697498079E+04  0.22495337393E+03  0.17673337569E+04  0.21877749641E+04  0.46999998093E+01 0.  1.
</event>
<event>
 5   0  0.1911477E-06  0.3411079E+04  0.7818609E-02  0.8135192E-01
       -2   -1    0    0    0  501  0.00000000000E+00  0.00000000000E+00  0.13235799825E+04  0.13235799825E+04  0.25500000920E-02 0.  1.
        2   -1    0    0  501    0  0.00000000000E+00  0.00000000000E+00 -0.21977254256E+04  0.21977254256E+04  0.25500000920E-02 0. -1.
    10030    2    1    2    0    0  0.00000000000E+00  0.00000000000E+00 -0.87414544309E+03  0.35213054081E+04  0.34110792312E+04 0.  0.
        5    1    3    3  502    0  0.12251785322E+04 -0.61120729079E+03  0.61274891340E+03  0.15000400358E+04  0.46999998093E+01 0.  1.
       -5    1    3    3    0  502 -0.12251785322E+04  0.61120729079E+03 -0.14868943565E+04  0.20212653723E+04  0.46999998093E+01 0. -1.
</event>
<event>
 5   0  0.6134625E-07  0.3332680E+04  0.7818609E-02  0.8154630E-01
       -1   -1    0    0    0  501  0.00000000000E+00  0.00000000000E+00  0.15960374842E+04  0.15960374842E+04  0.50400001928E-02 0.  1.
        1   -1    0    0  501    0  0.00000000000E+00  0.00000000000E+00 -0.17397387388E+04  0.17397387388E+04  0.50400001928E-02 0. -1.
    10030    2    1    2    0    0  0.00000000000E+00  0.00000000000E+00 -0.14370125457E+03  0.33357762231E+04  0.33326795465E+04 0.  0.
        5    1    3    3  502    0  0.72265663469E+03 -0.15013667782E+04 -0.53631091039E+02  0.16671032357E+04  0.46999998093E+01 0. -1.
       -5    1    3    3    0  502 -0.72265663469E+03  0.15013667782E+04 -0.90070163533E+02  0.16686729874E+04  0.46999998093E+01 0.  1.
</event>
<event>
 5   0  0.1797075E-06  0.3181089E+04  0.7818609E-02  0.8193829E-01
       -2   -1    0    0    0  501  0.00000000000E+00  0.00000000000E+00  0.19458859679E+04  0.19458859679E+04  0.25500000920E-02 0. -1.
        2   -1    0    0  501    0  0.00000000000E+00  0.00000000000E+00 -0.13000929181E+04  0.13000929181E+04  0.25500000920E-02 0.  1.
    10030    2    1    2    0    0  0.00000000000E+00  0.00000000000E+00  0.64579304977E+03  0.32459788860E+04  0.31810894777E+04 0.  0.
        2    1    3    3  502    0  0.37806296334E+03 -0.34605152371E+03 -0.12135231727E+04  0.13173161170E+04  0.25500000920E-02 0.  1.
       -2    1    3    3    0  502 -0.37806296334E+03  0.34605152371E+03  0.18593162225E+04  0.19286627690E+04  0.25500000920E-02 0. -1.
</event>
<event>
 5   0  0.6134625E-07  0.3341175E+04  0.7818609E-02  0.8152497E-01
       -1   -1    0    0    0  501  0.00000000000E+00  0.00000000000E+00  0.16513207758E+04  0.16513207758E+04  0.50400001928E-02 0. -1.
        1   -1    0    0  501    0  0.00000000000E+00  0.00000000000E+00 -0.16900786176E+04  0.16900786176E+04  0.50400001928E-02 0.  1.
    10030    2    1    2    0    0  0.00000000000E+00  0.00000000000E+00 -0.38757841760E+02  0.33413993934E+04  0.33411746042E+04 0.  0.
        5    1    3    3  502    0 -0.14389450532E+04 -0.83055408392E+03  0.15515184972E+03  0.16686752646E+04  0.46999998093E+01 0. -1.
       -5    1    3    3    0  502  0.14389450532E+04  0.83055408392E+03 -0.19390969148E+03  0.16727241287E+04  0.46999998093E+01 0.  1.
</event>
<event>
 5   0  0.1339844E-06  0.3429182E+04  0.7818609E-02  0.8130781E-01
       -2   -1    0    0    0  501  0.00000000000E+00  0.00000000000E+00  0.22103123149E+04  0.22103123149E+04  0.25500000920E-02 0. -1.
        2   -1    0    0  501    0  0.00000000000E+00  0.00000000000E+00 -0.13300482741E+04  0.13300482741E+04  0.25500000920E-02 0.  1.
    10030    2    1    2    0    0  0.00000000000E+00  0.00000000000E+00  0.88026404083E+03  0.35403605890E+04  0.34291818731E+04 0.  0.
        3    1    3    3  502    0  0.16134941313E+02 -0.30281801917E+03 -0.13021422510E+04  0.13369867393E+04  0.10100000352E+00 0.  1.
       -3    1    3    3    0  502 -0.16134941313E+02  0.30281801917E+03  0.21824062918E+04  0.22033738497E+04  0.10100000352E+00 0. -1.
</event>
<event>
 5   0  0.6134625E-07  0.3233240E+04  0.7818609E-02  0.8180093E-01
        1   -1    0    0  501    0  0.00000000000E+00  0.00000000000E+00  0.15801898341E+04  0.15801898342E+04  0.50400001928E-02 0. -1.
       -1   -1    0    0    0  501  0.00000000000E+00  0.00000000000E+00 -0.16538905245E+04  0.16538905245E+04  0.50400001928E-02 0.  1.
    10030    2    1    2    0    0  0.00000000000E+00  0.00000000000E+00 -0.73700690333E+02  0.32340803586E+04  0.32332404758E+04 0.  0.
        3    1    3    3  502    0 -0.35053454720E+03 -0.43700194711E+03 -0.15536926862E+04  0.16516071397E+04  0.10100000352E+00 0.  1.
       -3    1    3    3    0  502  0.35053454720E+03  0.43700194711E+03  0.14799919959E+04  0.15824732189E+04  0.10100000352E+00 0. -1.
</event>
<event>
 5   0  0.1880301E-06  0.3315583E+04  0.7818609E-02  0.8158942E-01
       -2   -1    0    0    0  501  0.00000000000E+00  0.00000000000E+00  0.27954606963E+04  0.27954606963E+04  0.25500000920E-02 0. -1.
        2   -1    0    0  501    0  0.00000000000E+00  0.00000000000E+00 -0.98311948827E+03  0.98311948827E+03  0.25500000920E-02 0.  1.
    10030    2    1    2    0    0  0.00000000000E+00  0.00000000000E+00  0.18123412081E+04  0.37785801846E+04  0.33155825366E+04 0.  0.
        4    1    3    3  502    0  0.43413740297E+03 -0.11735262018E+04  0.21455191846E+04  0.24837256723E+04  0.12699999809E+01 0. -1.
       -4    1    3    3    0  502 -0.43413740297E+03  0.11735262018E+04 -0.33317797650E+03  0.12948545123E+04  0.12699999809E+01 0.  1.
</event>
<event>
 5   0  0.6218695E-07  0.2582530E+04  0.7818609E-02  0.8374160E-01
       -1   -1    0    0    0  501  0.00000000000E+00  0.00000000000E+00  0.86676098046E+03  0.86676098048E+03  0.50400001928E-02 0. -1.
        1   -1    0    0  501    0  0.00000000000E+00  0.00000000000E+00 -0.19236733385E+04  0.19236733385E+04  0.50400001928E-02 0.  1.
    10030    2    1    2    0    0  0.00000000000E+00  0.00000000000E+00 -0.10569123580E+04  0.27904343190E+04  0.25825297590E+04 0.  0.
        2    1    3    3  502    0  0.11560067311E+04 -0.23754144064E+03 -0.10946522405E+04  0.16096710925E+04  0.25500000920E-02 0.  1.
       -2    1    3    3    0  502 -0.11560067311E+04  0.23754144064E+03  0.37739882526E+02  0.11807632265E+04  0.25500000920E-02 0. -1.
</event>
<event>
 5   0  0.6134625E-07  0.3393411E+04  0.7818609E-02  0.8139525E-01
       -1   -1    0    0    0  501  0.00000000000E+00  0.00000000000E+00  0.13568434017E+04  0.13568434017E+04  0.50400001928E-02 0.  1.
        1   -1    0    0  501    0  0.00000000000E+00  0.00000000000E+00 -0.21216959426E+04  0.21216959426E+04  0.50400001928E-02 0. -1.
    10030    2    1    2    0    0  0.00000000000E+00  0.00000000000E+00 -0.76485254093E+03  0.34785393444E+04  0.33934107563E+04 0.  0.
        1    1    3    3  502    0 -0.19466569547E+03 -0.16340164938E+04 -0.80620313484E+03  0.18324486704E+04  0.50400001928E-02 0. -1.
       -1    1    3    3    0  502  0.19466569547E+03  0.16340164938E+04  0.41350593907E+02  0.16460906739E+04  0.50400001928E-02 0.  1.
</event>
<event>
 5   0  0.1339844E-06  0.3409038E+04  0.7818609E-02  0.8135692E-01
       -2   -1    0    0    0  501  0.00000000000E+00  0.00000000000E+00  0.15389770388E+04  0.15389770388E+04  0.25500000920E-02 0.  1.
        2   -1    0    0  501    0  0.00000000000E+00  0.00000000000E+00 -0.18878675619E+04  0.18878675619E+04  0.25500000920E-02 0. -1.
    10030    2    1    2    0    0  0.00000000000E+00  0.00000000000E+00 -0.34889052308E+03  0.34268446006E+04  0.34090378877E+04 0.  0.
        3    1    3    3  502    0 -0.31514005914E+03 -0.61653280039E+03 -0.17401299316E+04  0.18728262439E+04  0.10100000352E+00 0. -1.
       -3    1    3    3    0  502  0.31514005914E+03  0.61653280039E+03  0.13912394086E+04  0.15540183567E+04  0.10100000352E+00 0.  1.
</event>
<event>
 5   0  0.6134625E-07  0.3383253E+04  0.7818609E-02  0.8142029E-01
       -1   -1    0    0    0  501  0.00000000000E+00  0.00000000000E+00  0.17592255943E+04  0.17592255943E+04  0.50400001928E-02 0. -1.
        1   -1    0    0  501    0  0.00000000000E+00  0.00000000000E+00 -0.16266246073E+04  0.16266246073E+04  0.50400001928E-02 0.  1.
    10030    2    1    2    0    0  0.00000000000E+00  0.00000000000E+00  0.13260098699E+03  0.33858502016E+04  0.33832526607E+04 0.  0.
        3    1    3    3  502    0  0.91320251028E+03 -0.14147646076E+04 -0.95384407103E+02  0.16865929904E+04  0.10100000352E+00 0.  1.
       -3    1    3    3    0  502 -0.91320251028E+03  0.14147646076E+04  0.22798539410E+03  0.16992572112E+04  0.10100000352E+00 0. -1.
</event>
<event>
 5   0  0.1339844E-06  0.3453414E+04  0.7818609E-02  0.8124920E-01
       -2   -1    0    0    0  501  0.00000000000E+00  0.00000000000E+00  0.28152136947E+04  0.28152136947E+04  0.25500000920E-02 0. -1.
        2   -1    0    0  501    0  0.00000000000E+00  0.00000000000E+00 -0.10590733449E+04  0.10590733449E+04  0.25500000920E-02 0.  1.
    10030    2    1    2    0    0  0.00000000000E+00  0.00000000000E+00  0.17561403498E+04  0.38742870396E+04  0.34534144173E+04 0.  0.
        3    1    3    3  502    0  0.15499546810E+04  0.14157622597E+03  0.17169378270E+04  0.23173862114E+04  0.10100000352E+00 0. -1.
       -3    1    3    3    0  502 -0.15499546810E+04 -0.14157622597E+03  0.39202522811E+02  0.15569008282E+04  0.10100000352E+00 0.  1.
</event>
<event>
 5   0  0.1948507E-06  0.3287394E+04  0.7818609E-02  0.8166110E-01
       -2   -1    0    0    0  501  0.00000000000E+00  0.00000000000E+00  0.10974633259E+04  0.10974633259E+04  0.25500000920E-02 0. -1.
        2   -1    0    0  501    0  0.00000000000E+00  0.00000000000E+00 -0.24618041230E+04  0.24618041230E+04  0.25500000920E-02 0.  1.
    10030    2    1    2    0    0  0.00000000000E+00  0.00000000000E+00 -0.13643407971E+04  0.35592674489E+04  0.32873939469E+04 0.  0.
        1    1    3    3  502    0  0.18571754344E+03 -0.40676904588E+03 -0.23946842630E+04  0.24360756930E+04  0.50400001928E-02 0.  1.
       -1    1    3    3    0  502 -0.18571754344E+03  0.40676904588E+03  0.10303434659E+04  0.11231917559E+04  0.50400001928E-02 0. -1.
</event>
<event>
 5   0  0.1911477E-06  0.3394946E+04  0.7818609E-02  0.8139148E-01
        2   -1    0    0  501    0  0.00000000000E+00  0.00000000000E+00  0.18526437300E+04  0.18526437300E+04  0.25500000920E-02 0.  1.
       -2   -1    0    0    0  501  0.00000000000E+00  0.00000000000E+00 -0.15552988656E+04  0.15552988656E+04  0.25500000920E-02 0. -1.
    10030    2    1    2    0    0  0.00000000000E+00  0.00000000000E+00  0.29734486437E+03  0.34079425955E+04  0.33949460623E+04 0.  0.
        5    1    3    3  502    0  0.68513019687E+03  0.51965186692E+03 -0.13204709163E+04  0.15757877332E+04  0.46999998093E+01 0. -1.
       -5    1    3    3    0  502 -0.68513019687E+03 -0.51965186692E+03  0.16178157806E+04  0.18321548623E+04  0.46999998093E+01 0.  1.
</event>
<event>
 5   0  0.1911477E-06  0.3257453E+04  0.7818609E-02  0.8173807E-01
        2   -1    0    0  501    0  0.00000000000E+00  0.00000000000E+00  0.28372494356E+04  0.28372494356E+04  0.25500000920E-02 0.  1.
       -2   -1    0    0    0  501  0.00000000000E+00  0.00000000000E+00 -0.93497232096E+03  0.93497232097E+03  0.25500000920E-02 0. -1.
    10030    2    1    2    0    0  0.00000000000E+00  0.00000000000E+00  0.19022771146E+04  0.37722217566E+04  0.32574528024E+04 0.  0.
        5    1    3    3  502    0 -0.11530734516E+04  0.49195839732E+03  0.21552239001E+04  0.24933137787E+04  0.46999998093E+01 0.  1.
       -5    1    3    3    0  502  0.11530734516E+04 -0.49195839732E+03 -0.25294678544E+03  0.12789079779E+04  0.46999998093E+01 0. -1.
</event>
<event>
 5   0  0.1339844E-06  0.3464438E+04  0.7818609E-02  0.8122270E-01
       -2   -1    0    0    0  501  0.00000000000E+00  0.00000000000E+00  0.17066394816E+04  0.17066394816E+04  0.25500000920E-02 0.  1.
        2   -1    0    0  501    0  0.00000000000E+00  0.00000000000E+00 -0.17581821131E+04  0.17581821131E+04  0.25500000920E-02 0. -1.
    10030    2    1    2    0    0  0.00000000000E+00  0.00000000000E+00 -0.51542631475E+02  0.34648215946E+04  0.34644381997E+04 0.  0.
        3    1    3    3  502    0 -0.13175963868E+04  0.11223705069E+04 -0.95113009715E+02  0.17334423233E+04  0.10100000352E+00 0. -1.
       -3    1    3    3    0  502  0.13175963868E+04 -0.11223705069E+04  0.43570378240E+02  0.17313792714E+04  0.10100000352E+00 0.  1.
</event>
<event>
 5   0  0.1339844E-06  0.3402940E+04  0.7818609E-02  0.8137185E-01
       -2   -1    0    0    0  501  0.00000000000E+00  0.00000000000E+00  0.99867557168E+03  0.99867557169E+03  0.25500000920E-02 0. -1.
        2   -1    0    0  501    0  0.00000000000E+00  0.00000000000E+00 -0.28988403076E+04  0.28988403076E+04  0.25500000920E-02 0.  1.
    10030    2    1    2    0    0  0.00000000000E+00  0.00000000000E+00 -0.19001647359E+04  0.38975158793E+04  0.34029404940E+04 0.  0.
        3    1    3    3  502    0  0.78707112162E+03  0.22230731134E+03  0.75877503638E+03  0.11156348225E+04  0.10100000352E+00 0. -1.
       -3    1    3    3    0  502 -0.78707112162E+03 -0.22230731134E+03 -0.26589397723E+04  0.27818810568E+04  0.10100000352E+00 0.  1.
</event>
<event>
 5   0  0.6218695E-07  0.2621505E+04  0.7818609E-02  0.8360933E-01
       -1   -1    0    0    0  501  0.00000000000E+00  0.00000000000E+00  0.10579640422E+04  0.10579640422E+04  0.50400001928E-02 0.  1.
        1   -1    0    0  501    0  0.00000000000E+00  0.00000000000E+00 -0.16239419924E+04  0.16239419924E+04  0.50400001928E-02 0. -1.
    10030    2    1    2    0    0  0.00000000000E+00  0.00000000000E+00 -0.56597795021E+03  0.26819060346E+04  0.26215050902E+04 0.  0.
        2    1    3    3  502    0 -0.26350668508E+03 -0.91867021578E+03  0.63471974732E+03  0.11472837034E+04  0.25500000920E-02 0.  1.
       -2    1    3    3    0  502  0.26350668508E+03  0.91867021578E+03 -0.12006976975E+04  0.15346223312E+04  0.25500000920E-02 0. -1.
</event>
<event>
 5   0  0.6146388E-07  0.3412462E+04  0.7818609E-02  0.8134855E-01
       -1   -1    0    0    0  501  0.00000000000E+00  0.00000000000E+00  0.14505731816E+04  0.14505731816E+04  0.50400001928E-02 0. -1.
        1   -1    0    0  501    0  0.00000000000E+00  0.00000000000E+00 -0.20069474110E+04  0.20069474110E+04  0.50400001928E-02 0.  1.
    10030    2    1    2    0    0  0.00000000000E+00  0.00000000000E+00 -0.55637422939E+03  0.34575205926E+04  0.34124619214E+04 0.  0.
        4    1    3    3  502    0  0.16831521376E+04 -0.12414860034E+03 -0.24261729106E+02  0.16878993565E+04  0.12699999809E+01 0. -1.
       -4    1    3    3    0  502 -0.16831521376E+04  0.12414860034E+03 -0.53211250029E+03  0.17696212361E+04  0.12699999809E+01 0.  1.
</event>
<event>
 5   0  0.6146388E-07  0.2646596E+04  0.7818609E-02  0.8352544E-01
        1   -1    0    0  501    0  0.00000000000E+00  0.00000000000E+00  0.22396834212E+04  0.22396834212E+04  0.50400001928E-02 0.  1.
       -1   -1    0    0    0  501  0.00000000000E+00  0.00000000000E+00 -0.78185950275E+03  0.78185950277E+03  0.50400001928E-02 0. -1.
    10030    2    1    2    0    0  0.00000000000E+00  0.00000000000E+00  0.14578239184E+04  0.30215429240E+04  0.26465961279E+04 0.  0.
        4    1    3    3  502    0  0.98529725416E+03  0.79842760460E+03  0.29745861711E+03  0.13026052973E+04  0.12699999809E+01 0. -1.
       -4    1    3    3    0  502 -0.98529725416E+03 -0.79842760460E+03  0.11603653013E+04  0.17189376266E+04  0.12699999809E+01 0.  1.
</event>
<event>
 5   0  0.6134625E-07  0.3408162E+04  0.7818609E-02  0.8135906E-01
        1   -1    0    0  501    0  0.00000000000E+00  0.00000000000E+00  0.30628993600E+04  0.30628993600E+04  0.50400001928E-02 0. -1.
       -1   -1    0    0    0  501  0.00000000000E+00  0.00000000000E+00 -0.94808596958E+03  0.94808596960E+03  0.50400001928E-02 0.  1.
    10030    2    1    2    0    0  0.00000000000E+00  0.00000000000E+00  0.21148133904E+04  0.40109853296E+04  0.34081619149E+04 0.  0.
        1    1    3    3  502    0 -0.73665469176E+03  0.13134069345E+04  0.19961041463E+04  0.25004258984E+04  0.50400001928E-02 0. -1.
       -1    1    3    3    0  502  0.73665469176E+03 -0.13134069345E+04  0.11870924410E+03  0.15105594312E+04  0.50400001928E-02 0.  1.
</event>
<event>
 5   0  0.6218695E-07  0.3415000E+04  0.7818609E-02  0.8134235E-01
       -1   -1    0    0    0  501  0.00000000000E+00  0.00000000000E+00  0.16951518719E+04  0.16951518719E+04  0.50400001928E-02 0.  1.
        1   -1    0    0  501    0  0.00000000000E+00  0.00000000000E+00 -0.17199377788E+04  0.17199377788E+04  0.50400001928E-02 0. -1.
    10030    2    1    2    0    0  0.00000000000E+00  0.00000000000E+00 -0.24785906932E+02  0.34150896507E+04  0.34149997044E+04 0.  0.
        2    1    3    3  502    0 -0.55434880816E+03  0.10042415063E+04 -0.12772393523E+04  0.17167247791E+04  0.25500000920E-02 0. -1.
       -2    1    3    3    0  502  0.55434880816E+03 -0.10042415063E+04  0.12524534454E+04  0.16983648716E+04  0.25500000920E-02 0.  1.
</event>
<event>
 5   0  0.6134625E-07  0.3436715E+04  0.7818609E-02  0.8128954E-01
        1   -1    0    0  501    0  0.00000000000E+00  0.00000000000E+00  0.22339386939E+04  0.22339386939E+04  0.50400001928E-02 0. -1.
       -1   -1    0    0    0  501  0.00000000000E+00  0.00000000000E+00 -0.13217699863E+04  0.13217699863E+04  0.50400001928E-02 0.  1.
    10030    2    1    2    0    0  0.00000000000E+00  0.00000000000E+00  0.91216870767E+03  0.35557086802E+04  0.34367153602E+04 0.  0.
        3    1    3    3  502    0  0.71678071111E+03  0.11699998828E+03 -0.11551711104E+04  0.13645086623E+04  0.10100000352E+00 0.  1.
       -3    1    3    3    0  502 -0.71678071111E+03 -0.11699998828E+03  0.20673398180E+04  0.21912000179E+04  0.10100000352E+00 0. -1.
</event>
<event>
 5   0  0.6134625E-07  0.3405627E+04  0.7818609E-02  0.8136527E-01
       -1   -1    0    0    0  501  0.00000000000E+00  0.00000000000E+00  0.16372203515E+04  0.16372203515E+04  0.50400001928E-02 0.  1.
        1   -1    0    0  501    0  0.00000000000E+00  0.00000000000E+00 -0.17710345218E+04  0.17710345218E+04  0.50400001928E-02 0. -1.
    10030    2    1    2    0    0  0.00000000000E+00  0.00000000000E+00 -0.13381417022E+03  0.34082548733E+04  0.34056269686E+04 0.  0.
        5    1    3    3  502    0 -0.12485889874E+04 -0.84150234377E+03 -0.86278863348E+03  0.17353751669E+04  0.46999998093E+01 0. -1.
       -5    1    3    3    0  502  0.12485889874E+04  0.84150234377E+03  0.72897446325E+03  0.16728797064E+04  0.46999998093E+01 0.  1.
</event>
<event>
 5   0  0.1911477E-06  0.3412816E+04  0.7818609E-02  0.8134768E-01
        2   -1    0    0  501    0  0.00000000000E+00  0.00000000000E+00  0.12891580096E+04  0.12891580096E+04  0.25500000920E-02 0.  1.
       -2   -1    0    0    0  501  0.00000000000E+00  0.00000000000E+00 -0.22587055730E+04  0.22587055730E+04  0.25500000920E-02 0. -1.
    10030    2    1    2    0    0  0.00000000000E+00  0.00000000000E+00 -0.96954756340E+03  0.35478635827E+04  0.34128160694E+04 0.  0.
        5    1    3    3  502    0  0.10059091948E+04 -0.80281741097E+03 -0.16495742162E+04  0.20922443185E+04  0.46999998093E+01 0. -1.
       -5    1    3    3    0  502 -0.10059091948E+04  0.80281741097E+03  0.68002665284E+03  0.14556192641E+04  0.46999998093E+01 0.  1.
</event>
<event>
 5   0  0.1948507E-06  0.3246658E+04  0.7818609E-02  0.8176603E-01
       -2   -1    0    0    0  501  0.00000000000E+00  0.00000000000E+00  0.16088776940E+04  0.16088776940E+04  0.25500000920E-02 0.  1.
        2   -1    0    0  501    0  0.00000000000E+00  0.00000000000E+00 -0.16379096599E+04  0.16379096599E+04  0.25500000920E-02 0. -1.
    10030    2    1    2    0    0  0.00000000000E+00  0.00000000000E+00 -0.29031965810E+02  0.32467873539E+04  0.32466575530E+04 0.  0.
        1    1    3    3  502    0 -0.33853227935E+03 -0.15355219288E+04 -0.41797308524E+03  0.16270012901E+04  0.50400001928E-02 0. -1.
       -1    1    3    3    0  502  0.33853227935E+03  0.15355219288E+04  0.38894111943E+03  0.16197860638E+04  0.50400001928E-02 0.  1.
</event>
<event>
 5   0  0.1948507E-06  0.3398414E+04  0.7818609E-02  0.8138296E-01
       -2   -1    0    0    0  501  0.00000000000E+00  0.00000000000E+00  0.17361467321E+04  0.17361467321E+04  0.25500000920E-02 0. -1.
        2   -1    0    0  501    0  0.00000000000E+00  0.00000000000E+00 -0.16630536974E+04  0.16630536974E+04  0.25500000920E-02 0.  1.
    10030    2    1    2    0    0  0.00000000000E+00  0.00000000000E+00  0.73093034608E+02  0.33992004295E+04  0.33984144786E+04 0.  0.
        1    1    3    3  502    0  0.81678292779E+03 -0.27931615139E+03  0.15004947145E+04  0.17310795048E+04  0.50400001928E-02 0. -1.
       -1    1    3    3    0  502 -0.81678292779E+03  0.27931615139E+03 -0.14274016799E+04  0.16681209247E+04  0.50400001928E-02 0.  1.
</event>
<event>
 5   0  0.1797075E-06  0.3430906E+04  0.7818609E-02  0.8130362E-01
       -2   -1    0    0    0  501  0.00000000000E+00  0.00000000000E+00  0.14160091387E+04  0.14160091387E+04  0.25500000920E-02 0. -1.
        2   -1    0    0  501    0  0.00000000000E+00  0.00000000000E+00 -0.20782208872E+04  0.20782208872E+04  0.25500000920E-02 0.  1.
    10030    2    1    2    0    0  0.00000000000E+00  0.00000000000E+00 -0.66221174843E+03  0.34942300259E+04  0.34309064508E+04 0.  0.
        2    1    3    3  502    0 -0.41214788398E+03  0.11567991329E+04 -0.15510154842E+04  0.19783071411E+04  0.25500000920E-02 0.  1.
       -2    1    3    3    0  502  0.41214788398E+03 -0.11567991329E+04  0.88880373576E+03  0.15159228849E+04  0.25500000920E-02 0. -1.
</event>
<event>
 5   0  0.6218695E-07  0.3563476E+04  0.7818609E-02  0.8098909E-01
        1   -1    0    0  501    0  0.00000000000E+00  0.00000000000E+00  0.21665565328E+04  0.21665565328E+04  0.50400001928E-02 0.  1.
       -1   -1    0    0    0  501  0.00000000000E+00  0.00000000000E+00 -0.14652702556E+04  0.14652702556E+04  0.50400001928E-02 0. -1.
    10030    2    1    2    0    0  0.00000000000E+00  0.00000000000E+00  0.70128627719E+03  0.36318267884E+04  0.35634763053E+04 0.  0.
        2    1    3    3  502    0  0.91598979281E+03  0.13036286163E+04 -0.46221730467E+03  0.16589544016E+04  0.25500000920E-02 0. -1.
       -2    1    3    3    0  502 -0.91598979281E+03 -0.13036286163E+04  0.11635035819E+04  0.19728723869E+04  0.25500000920E-02 0.  1.
</event>
<event>
 5   0  0.6218695E-07  0.3320273E+04  0.7818609E-02  0.8157756E-01
        1   -1    0    0  501    0  0.00000000000E+00  0.00000000000E+00  0.24785580126E+04  0.24785580126E+04  0.50400001928E-02 0.  1.
       -1   -1    0    0    0  501  0.00000000000E+00  0.00000000000E+00 -0.11119585379E+04  0.11119585379E+04  0.50400001928E-02 0. -1.
    10030    2    1    2    0    0  0.00000000000E+00  0.00000000000E+00  0.13665994747E+04  0.35905165505E+04  0.33202733284E+04 0.  0.
        2    1    3    3  502    0  0.71137632788E+03  0.14968268210E+04  0.57786025041E+03  0.17551265712E+04  0.25500000920E-02 0. -1.
       -2    1    3    3    0  502 -0.71137632788E+03 -0.14968268210E+04  0.78873922428E+03  0.18353899792E+04  0.25500000920E-02 0.  1.
</event>
<event>
 5   0  0.6146388E-07  0.3394971E+04  0.7818609E-02  0.8139142E-01
       -1   -1    0    0    0  501  0.00000000000E+00  0.00000000000E+00  0.11950690212E+04  0.11950690212E+04  0.50400001928E-02 0.  1.
        1   -1    0    0  501    0  0.00000000000E+00  0.00000000000E+00 -0.24111218559E+04  0.24111218559E+04  0.50400001928E-02 0. -1.
    10030    2    1    2    0    0  0.00000000000E+00  0.00000000000E+00 -0.12160528347E+04  0.36061908771E+04  0.33949710080E+04 0.  0.
        4    1    3    3  502    0  0.15207971808E+04  0.72106386133E+03 -0.84243277691E+03  0.18821402056E+04  0.12699999809E+01 0. -1.
       -4    1    3    3    0  502 -0.15207971808E+04 -0.72106386133E+03 -0.37362005779E+03  0.17240506714E+04  0.12699999809E+01 0.  1.
</event>
<event>
 5   0  0.6218695E-07  0.3453286E+04  0.7818609E-02  0.8124951E-01
       -1   -1    0    0    0  501  0.00000000000E+00  0.00000000000E+00  0.21923448635E+04  0.21923448635E+04  0.50400001928E-02 0.  1.
        1   -1    0    0  501    0  0.00000000000E+00  0.00000000000E+00 -0.13598659848E+04  0.13598659848E+04  0.50400001928E-02 0. -1.
    10030    2    1    2    0    0  0.00000000000E+00  0.00000000000E+00  0.83247887874E+03  0.35522108484E+04  0.34532855120E+04 0.  0.
        2    1    3    3  502    0  0.13286755203E+04 -0.55881676821E+03  0.13940710357E+04  0.20052652871E+04  0.25500000920E-02 0.  1.
       -2    1    3    3    0  502 -0.13286755203E+04  0.55881676821E+03 -0.56159215700E+03  0.15469455613E+04  0.25500000920E-02 0. -1.
</event>
<event>
 5   0  0.1911477E-06  0.3108071E+04  0.7818609E-02  0.8213526E-01
       -2   -1    0    0    0  501  0.00000000000E+00  0.00000000000E+00  0.10942781419E+04  0.10942781419E+04  0.25500000920E-02 0. -1.
        2   -1    0    0  501    0  0.00000000000E+00  0.00000000000E+00 -0.22069584374E+04  0.22069584374E+04  0.25500000920E-02 0.  1.
    10030    2    1    2    0    0  0.00000000000E+00  0.00000000000E+00 -0.11126802955E+04  0.33012365793E+04  0.31080710276E+04 0.  0.
        5    1    3    3  502    0 -0.97981936450E+03  0.87211859877E+03 -0.14414157942E+04  0.19489326359E+04  0.46999998093E+01 0.  1.
       -5    1    3    3    0  502  0.97981936450E+03 -0.87211859877E+03  0.32873549867E+03  0.13523039434E+04  0.46999998093E+01 0. -1.
</event>
<event>
 5   0  0.1339844E-06  0.3385330E+04  0.7818609E-02  0.8141516E-01
       -2   -1    0    0    0  501  0.00000000000E+00  0.00000000000E+00  0.19510895378E+04  0.19510895378E+04  0.25500000920E-02 0.  1.
        2   -1    0    0  501    0  0.00000000000E+00  0.00000000000E+00 -0.14684693714E+04  0.14684693714E+04  0.25500000920E-02 0. -1.
    10030    2    1    2    0    0  0.00000000000E+00  0.00000000000E+00  0.48262016634E+03  0.34195589092E+04  0.33853302510E+04 0.  0.
        3    1    3    3  502    0  0.79729104310E+03 -0.29018748049E+03  0.17207806391E+04  0.19185848429E+04  0.10100000352E+00 0.  1.
       -3    1    3    3    0  502 -0.79729104310E+03  0.29018748049E+03 -0.12381604728E+04  0.15009740663E+04  0.10100000352E+00 0. -1.
</event>
<event>
 5   0  0.1948507E-06  0.3542308E+04  0.7818609E-02  0.8103836E-01
        2   -1    0    0  501    0  0.00000000000E+00  0.00000000000E+00  0.20119306013E+04  0.20119306013E+04  0.25500000920E-02 0.  1.
       -2   -1    0    0    0  501  0.00000000000E+00  0.00000000000E+00 -0.15591922521E+04  0.15591922521E+04  0.25500000920E-02 0. -1.
    10030    2    1    2    0    0  0.00000000000E+00  0.00000000000E+00  0.45273834926E+03  0.35711228534E+04  0.35423080641E+04 0.  0.
        1    1    3    3  502    0  0.12430532211E+04  0.22504014019E+03  0.14779031438E+04  0.19442278872E+04  0.50400001928E-02 0. -1.
       -1    1    3    3    0  502 -0.12430532211E+04 -0.22504014019E+03 -0.10251647945E+04  0.16268949662E+04  0.50400001928E-02 0.  1.
</event>
<event>
 5   0  0.1339844E-06  0.3415297E+04  0.7818609E-02  0.8134162E-01
        2   -1    0    0  501    0  0.00000000000E+00  0.00000000000E+00  0.23812559292E+04  0.23812559292E+04  0.25500000920E-02 0. -1.
       -2   -1    0    0    0  501  0.00000000000E+00  0.00000000000E+00 -0.12245903144E+04  0.12245903145E+04  0.25500000920E-02 0.  1.
    10030    2    1    2    0    0  0.00000000000E+00  0.00000000000E+00  0.11566656147E+04  0.36058462436E+04  0.34152967350E+04 0.  0.
        3    1    3    3  502    0  0.31012488914E+03 -0.82802086293E+03  0.21207545187E+04  0.22976935686E+04  0.10100000352E+00 0. -1.
       -3    1    3    3    0  502 -0.31012488914E+03  0.82802086293E+03 -0.96408890396E+03  0.13081526751E+04  0.10100000352E+00 0.  1.
</event>
<event>
 5   0  0.6146388E-07  0.3367040E+04  0.7818609E-02  0.8146044E-01
       -1   -1    0    0    0  501  0.00000000000E+00  0.00000000000E+00  0.16505619011E+04  0.16505619011E+04  0.50400001928E-02 0. -1.
        1   -1    0    0  501    0  0.00000000000E+00  0.00000000000E+00 -0.17171357288E+04  0.17171357288E+04  0.50400001928E-02 0.  1.
    10030    2    1    2    0    0  0.00000000000E+00  0.00000000000E+00 -0.66573827680E+02  0.33676976298E+04  0.33670395382E+04 0.  0.
        4    1    3    3  502    0 -0.26248219342E+03  0.55290649015E+03 -0.16019157042E+04  0.17148580189E+04  0.12699999809E+01 0.  1.
       -4    1    3    3    0  502  0.26248219342E+03 -0.55290649015E+03  0.15353418765E+04  0.16528396109E+04  0.12699999809E+01 0. -1.
</event>
<event>
 5   0  0.1797075E-06  0.3361309E+04  0.7818609E-02  0.8147468E-01
       -2   -1    0    0    0  501  0.00000000000E+00  0.00000000000E+00  0.13550835190E+04  0.13550835190E+04  0.25500000920E-02 0.  1.
        2   -1    0    0  501    0  0.00000000000E+00  0.00000000000E+00 -0.20844470544E+04  0.20844470544E+04  0.25500000920E-02 0. -1.
    10030    2    1    2    0    0  0.00000000000E+00  0.00000000000E+00 -0.72936353544E+03  0.34395305734E+04  0.33613091792E+04 0.  0.
        2    1    3    3  502    0  0.27830601391E+03  0.98936271953E+03 -0.17254042123E+04  0.20083108634E+04  0.25500000920E-02 0. -1.
       -2    1    3    3    0  502 -0.27830601391E+03 -0.98936271953E+03  0.99604067687E+03  0.14312197100E+04  0.25500000920E-02 0.  1.
</event>
<event>
 5   0  0.1797075E-06  0.3466136E+04  0.7818609E-02  0.8121863E-01
        2   -1    0    0  501    0  0.00000000000E+00  0.00000000000E+00  0.28591584130E+04  0.28591584130E+04  0.25500000920E-02 0.  1.
       -2   -1    0    0    0  501  0.00000000000E+00  0.00000000000E+00 -0.10504925015E+04  0.10504925015E+04  0.25500000920E-02 0. -1.
    10030    2    1    2    0    0  0.00000000000E+00  0.00000000000E+00  0.18086659115E+04  0.39096509145E+04  0.34661358735E+04 0.  0.
        2    1    3    3  502    0  0.10369329972E+04  0.22943344972E+03 -0.64045489891E+03  0.12401823358E+04  0.25500000920E-02 0. -1.
       -2    1    3    3    0  502 -0.10369329972E+04 -0.22943344972E+03  0.24491208104E+04  0.26694685787E+04  0.25500000920E-02 0.  1.
</event>
<event>
 5   0  0.6146388E-07  0.3395003E+04  0.7818609E-02  0.8139134E-01
        1   -1    0    0  501    0  0.00000000000E+00  0.00000000000E+00  0.22162432690E+04  0.22162432690E+04  0.50400001928E-02 0.  1.
       -1   -1    0    0    0  501  0.00000000000E+00  0.00000000000E+00 -0.13001785139E+04  0.13001785139E+04  0.50400001928E-02 0. -1.
    10030    2    1    2    0    0  0.00000000000E+00  0.00000000000E+00  0.91606475509E+03  0.35164217830E+04  0.33950033167E+04 0.  0.
        4    1    3    3  502    0 -0.16738108080E+04  0.11035156272E+03  0.18855420779E+03  0.16880090020E+04  0.12699999809E+01 0. -1.
       -4    1    3    3    0  502  0.16738108080E+04 -0.11035156272E+03  0.72751054731E+03  0.18284127810E+04  0.12699999809E+01 0.  1.
</event>
<event>
 5   0  0.6218695E-07  0.3432100E+04  0.7818609E-02  0.8130073E-01
       -1   -1    0    0    0  501  0.00000000000E+00  0.00000000000E+00  0.19712673668E+04  0.19712673668E+04  0.50400001928E-02 0. -1.
        1   -1    0    0  501    0  0.00000000000E+00  0.00000000000E+00 -0.14938750128E+04  0.14938750128E+04  0.50400001928E-02 0.  1.
    10030    2    1    2    0    0  0.00000000000E+00  0.00000000000E+00  0.47739235398E+03  0.34651423796E+04  0.34320996855E+04 0.  0.
        2    1    3    3  502    0 -0.11474399416E+03 -0.16410570444E+04 -0.25446596031E+03  0.16646282865E+04  0.25500000920E-02 0.  1.
       -2    1    3    3    0  502  0.11474399416E+03  0.16410570444E+04  0.73185831429E+03  0.18005140931E+04  0.25500000920E-02 0. -1.
</event>
<event>
 5   0  0.6134625E-07  0.3307920E+04  0.7818609E-02  0.8160883E-01
       -1   -1    0    0    0  501  0.00000000000E+00  0.00000000000E+00  0.14690980856E+04  0.14690980856E+04  0.50400001928E-02 0.  1.
        1   -1    0    0  501    0  0.00000000000E+00  0.00000000000E+00 -0.18620837834E+04  0.18620837835E+04  0.50400001928E-02 0. -1.
    10030    2    1    2    0    0  0.00000000000E+00  0.00000000000E+00 -0.39298569783E+03  0.33311818691E+04  0.33079200242E+04 0.  0.
        5    1    3    3  502    0 -0.82199837828E+03  0.13169985409E+04 -0.77093840592E+03  0.17333593414E+04  0.46999998093E+01 0. -1.
       -5    1    3    3    0  502  0.82199837828E+03 -0.13169985409E+04  0.37795270809E+03  0.15978225277E+04  0.46999998093E+01 0.  1.
</event>
<event>
 5   0  0.1880301E-06  0.3401393E+04  0.7818609E-02  0.8137565E-01
       -2   -1    0    0    0  501  0.00000000000E+00  0.00000000000E+00  0.12266143519E+04  0.12266143519E+04  0.25500000920E-02 0.  1.
        2   -1    0    0  501    0  0.00000000000E+00  0.00000000000E+00 -0.23580095755E+04  0.23580095755E+04  0.25500000920E-02 0. -1.
    10030    2    1    2    0    0  0.00000000000E+00  0.00000000000E+00 -0.11313952236E+04  0.35846239274E+04  0.34013928837E+04 0.  0.
        4    1    3    3  502    0 -0.73342688146E+03  0.46379951679E+03 -0.21071385474E+04  0.22788285265E+04  0.12699999809E+01 0. -1.
       -4    1    3    3    0  502  0.73342688146E+03 -0.46379951679E+03  0.97574332380E+03  0.13057954009E+04  0.12699999809E+01 0.  1.
</event>
<event>
 5   0  0.6134625E-07  0.3390847E+04  0.7818609E-02  0.8140156E-01
        1   -1    0    0  501    0  0.00000000000E+00  0.00000000000E+00  0.20979396489E+04  0.20979396489E+04  0.50400001928E-02 0. -1.
       -1   -1    0    0    0  501  0.00000000000E+00  0.00000000000E+00 -0.13701351109E+04  0.13701351109E+04  0.50400001928E-02 0.  1.
    10030    2    1    2    0    0  0.00000000000E+00  0.00000000000E+00  0.72780453800E+03  0.34680747598E+04  0.33908469582E+04 0.  0.
        3    1    3    3  502    0  0.11729580834E+04  0.61022168358E+03 -0.72152196532E+03  0.15062520125E+04  0.10100000352E+00 0.  1.
       -3    1    3    3    0  502 -0.11729580834E+04 -0.61022168358E+03  0.14493265033E+04  0.19618227473E+04  0.10100000352E+00 0. -1.
</event>
<event>
 5   0  0.1948507E-06  0.3362340E+04  0.7818609E-02  0.8147212E-01
       -2   -1    0    0    0  501  0.00000000000E+00  0.00000000000E+00  0.10311882212E+04  0.10311882212E+04  0.25500000920E-02 0. -1.
        2   -1    0    0  501    0  0.00000000000E+00  0.00000000000E+00 -0.27408511249E+04  0.27408511249E+04  0.25500000920E-02 0.  1.
    10030    2    1    2    0    0  0.00000000000E+00  0.00000000000E+00 -0.17096629037E+04  0.37720393460E+04  0.33623404920E+04 0.  0.
        1    1    3    3  502    0 -0.13472966212E+04 -0.95284095266E+03 -0.12152565623E+04  0.20493810233E+04  0.50400001928E-02 0.  1.
       -1    1    3    3    0  502  0.13472966212E+04  0.95284095266E+03 -0.49440634134E+03  0.17226583227E+04  0.50400001928E-02 0. -1.
</event>
<event>
 5   0  0.6134625E-07  0.3302579E+04  0.7818609E-02  0.8162239E-01
        1   -1    0    0  501    0  0.00000000000E+00  0.00000000000E+00  0.22456634803E+04  0.22456634803E+04  0.50400001928E-02 0.  1.
       -1   -1    0    0    0  501  0.00000000000E+00  0.00000000000E+00 -0.12142325690E+04  0.12142325690E+04  0.50400001928E-02 0. -1.
    10030    2    1    2    0    0  0.00000000000E+00  0.00000000000E+00  0.10314309113E+04  0.34598960493E+04  0.33025794384E+04 0.  0.
        5    1    3    3  502    0  0.37856832862E+02  0.11389320217E+04  0.17676874549E+04  0.21031738678E+04  0.46999998093E+01 0.  1.
       -5    1    3    3    0  502 -0.37856832862E+02 -0.11389320217E+04 -0.73625654362E+03  0.13567221815E+04  0.46999998093E+01 0. -1.
</event>
<event>
 5   0  0.6134625E-07  0.3405598E+04  0.7818609E-02  0.8136534E-01
        1   -1    0    0  501    0  0.00000000000E+00  0.00000000000E+00  0.12493113370E+04  0.12493113371E+04  0.50400001928E-02 0.  1.
       -1   -1    0    0    0  501  0.00000000000E+00  0.00000000000E+00 -0.23208983492E+04  0.23208983492E+04  0.50400001928E-02 0. -1.
    10030    2    1    2    0    0  0.00000000000E+00  0.00000000000E+00 -0.10715870121E+04  0.35702096863E+04  0.34055981089E+04 0.  0.
        1    1    3    3  502    0 -0.55673204950E+03  0.20159841179E+02 -0.22226588347E+04  0.22914120733E+04  0.50400001928E-02 0. -1.
       -1    1    3    3    0  502  0.55673204950E+03 -0.20159841179E+02  0.11510718226E+04  0.12787976129E+04  0.50400001928E-02 0.  1.
</event>
<event>
 5   0  0.6134625E-07  0.3447468E+04  0.7818609E-02  0.8126354E-01
       -1   -1    0    0    0  501  0.00000000000E+00  0.00000000000E+00  0.20940618590E+04  0.20940618590E+04  0.50400001928E-02 0. -1.
        1   -1    0    0  501    0  0.00000000000E+00  0.00000000000E+00 -0.14188970721E+04  0.14188970721E+04  0.50400001928E-02 0.  1.
    10030    2    1    2    0    0  0.00000000000E+00  0.00000000000E+00  0.67516478687E+03  0.35129589312E+04  0.34474676159E+04 0.  0.
        1    1    3    3  502    0  0.83843410027E+03 -0.68026130218E+03 -0.10316443068E+04  0.14933241964E+04  0.50400001928E-02 0.  1.
       -1    1    3    3    0  502 -0.83843410027E+03  0.68026130218E+03  0.17068090936E+04  0.20196347348E+04  0.50400001928E-02 0. -1.
</event>
<event>
 5   0  0.6134625E-07  0.3407718E+04  0.7818609E-02  0.8136015E-01
        1   -1    0    0  501    0  0.00000000000E+00  0.00000000000E+00  0.18790784321E+04  0.18790784321E+04  0.50400001928E-02 0.  1.
       -1   -1    0    0    0  501  0.00000000000E+00  0.00000000000E+00 -0.15449787516E+04  0.15449787516E+04  0.50400001928E-02 0. -1.
    10030    2    1    2    0    0  0.00000000000E+00  0.00000000000E+00  0.33409968045E+03  0.34240571837E+04  0.34077184450E+04 0.  0.
        5    1    3    3  502    0  0.13738277744E+03  0.14453710472E+03  0.18673063985E+04  0.18779297852E+04  0.46999998093E+01 0.  1.
       -5    1    3    3    0  502 -0.13738277744E+03 -0.14453710472E+03 -0.15332067180E+04  0.15461273985E+04  0.46999998093E+01 0. -1.
</event>
<event>
 5   0  0.1880301E-06  0.3423821E+04  0.7818609E-02  0.8132085E-01
        2   -1    0    0  501    0  0.00000000000E+00  0.00000000000E+00  0.23787349297E+04  0.23787349297E+04  0.25500000920E-02 0.  1.
       -2   -1    0    0    0  501  0.00000000000E+00  0.00000000000E+00 -0.12320148535E+04  0.12320148535E+04  0.25500000920E-02 0. -1.
    10030    2    1    2    0    0  0.00000000000E+00  0.00000000000E+00  0.11467200762E+04  0.36107497833E+04  0.34238205362E+04 0.  0.
        4    1    3    3  502    0  0.15919582104E+04  0.43916189617E+03  0.10490299521E+04  0.19564405353E+04  0.12699999809E+01 0.  1.
       -4    1    3    3    0  502 -0.15919582104E+04 -0.43916189617E+03  0.97690124117E+02  0.16543092480E+04  0.12699999809E+01 0. -1.
</event>
<event>
 5   0  0.1339844E-06  0.3413102E+04  0.7818609E-02  0.8134698E-01
       -2   -1    0    0    0  501  0.00000000000E+00  0.00000000000E+00  0.19988049426E+04  0.19988049426E+04  0.25500000920E-02 0. -1.
        2   -1    0    0  501    0  0.00000000000E+00  0.00000000000E+00 -0.14570287978E+04  0.14570287978E+04  0.25500000920E-02 0.  1.
    10030    2    1    2    0    0  0.00000000000E+00  0.00000000000E+00  0.54177614474E+03  0.34558337404E+04  0.34131020275E+04 0.  0.
        3    1    3    3  502    0  0.11237104028E+04  0.65474864434E+03 -0.84788708811E+03  0.15525248407E+04  0.10100000352E+00 0.  1.
       -3    1    3    3    0  502 -0.11237104028E+04 -0.65474864434E+03  0.13896632329E+04  0.19033088997E+04  0.10100000352E+00 0. -1.
</event>
<event>
 5   0  0.1797075E-06  0.3373071E+04  0.7818609E-02  0.8144547E-01
       -2   -1    0    0    0  501  0.00000000000E+00  0.00000000000E+00  0.14452247164E+04  0.14452247164E+04  0.25500000920E-02 0. -1.
        2   -1    0    0  501    0  0.00000000000E+00  0.00000000000E+00 -0.19681376601E+04  0.19681376602E+04  0.25500000920E-02 0.  1.
    10030    2    1    2    0    0  0.00000000000E+00  0.00000000000E+00 -0.52291294377E+03  0.34133623765E+04  0.33730705250E+04 0.  0.
        2    1    3    3  502    0  0.82384039076E+02  0.46533198114E+03  0.13768574856E+04  0.14556982923E+04  0.25500000920E-02 0. -1.
       -2    1    3    3    0  502 -0.82384039076E+02 -0.46533198114E+03 -0.18997704293E+04  0.19576640843E+04  0.25500000920E-02 0.  1.
</event>
<event>
 5   0  0.1948507E-06  0.3406425E+04  0.7818609E-02  0.8136331E-01
       -2   -1    0    0    0  501  0.00000000000E+00  0.00000000000E+00  0.18775773832E+04  0.18775773832E+04  0.25500000920E-02 0.  1.
        2   -1    0    0  501    0  0.00000000000E+00  0.00000000000E+00 -0.15450404365E+04  0.15450404365E+04  0.25500000920E-02 0. -1.
    10030    2    1    2    0    0  0.00000000000E+00  0.00000000000E+00  0.33253694671E+03  0.34226178197E+04  0.34064250937E+04 0.  0.
        1    1    3    3  502    0 -0.10956923046E+04 -0.82916947202E+03  0.11774666465E+04  0.18095555651E+04  0.50400001928E-02 0. -1.
       -1    1    3    3    0  502  0.10956923046E+04  0.82916947202E+03 -0.84492969975E+03  0.16130622546E+04  0.50400001928E-02 0.  1.
</event>
<event>
 5   0  0.1339844E-06  0.3395383E+04  0.7818609E-02  0.8139040E-01
       -2   -1    0    0    0  501  0.00000000000E+00  0.00000000000E+00  0.15745937254E+04  0.15745937254E+04  0.25500000920E-02 0. -1.
        2   -1    0    0  501    0  0.00000000000E+00  0.00000000000E+00 -0.18304123514E+04  0.18304123514E+04  0.25500000920E-02 0.  1.
    10030    2    1    2    0    0  0.00000000000E+00  0.00000000000E+00 -0.25581862598E+03  0.34050060769E+04  0.33953826315E+04 0.  0.
        3    1    3    3  502    0  0.53872003051E+03  0.24984759459E+03  0.14670426257E+04  0.15826740560E+04  0.10100000352E+00 0. -1.
       -3    1    3    3    0  502 -0.53872003051E+03 -0.24984759459E+03 -0.17228612516E+04  0.18223320209E+04  0.10100000352E+00 0.  1.
</event>
<event>
 5   0  0.1339844E-06  0.3417839E+04  0.7818609E-02  0.8133542E-01
       -2   -1    0    0    0  501  0.00000000000E+00  0.00000000000E+00  0.12177312343E+04  0.12177312343E+04  0.25500000920E-02 0.  1.
        2   -1    0    0  501    0  0.00000000000E+00  0.00000000000E+00 -0.23982352384E+04  0.23982352384E+04  0.25500000920E-02 0. -1.
    10030    2    1    2    0    0  0.00000000000E+00  0.00000000000E+00 -0.11805040041E+04  0.36159664727E+04  0.34178390582E+04 0.  0.
        3    1    3    3  502    0 -0.58908045692E+02  0.10749300527E+04  0.81388448113E+03  0.13495750201E+04  0.10100000352E+00 0.  1.
       -3    1    3    3    0  502  0.58908045692E+02 -0.10749300527E+04 -0.19943884852E+04  0.22663914526E+04  0.10100000352E+00 0. -1.
</event>
<event>
 5   0  0.6134625E-07  0.3304712E+04  0.7818609E-02  0.8161698E-01
       -1   -1    0    0    0  501  0.00000000000E+00  0.00000000000E+00  0.91670176056E+03  0.91670176057E+03  0.50400001928E-02 0. -1.
        1   -1    0    0  501    0  0.00000000000E+00  0.00000000000E+00 -0.29783728402E+04  0.29783728402E+04  0.50400001928E-02 0.  1.
    10030    2    1    2    0    0  0.00000000000E+00  0.00000000000E+00 -0.20616710797E+04  0.38950746008E+04  0.33047115616E+04 0.  0.
        1    1    3    3  502    0  0.16348947437E+04 -0.74011482505E+02 -0.76226759360E+03  0.18053837284E+04  0.50400001928E-02 0.  1.
       -1    1    3    3    0  502 -0.16348947437E+04  0.74011482505E+02 -0.12994034861E+04  0.20896908724E+04  0.50400001928E-02 0. -1.
</event>
<event>
 5   0  0.6134625E-07  0.3315570E+04  0.7818609E-02  0.8158945E-01
       -1   -1    0    0    0  501  0.00000000000E+00  0.00000000000E+00  0.99327975547E+03  0.99327975548E+03  0.50400001928E-02 0. -1.
        1   -1    0    0  501    0  0.00000000000E+00  0.00000000000E+00 -0.27668453133E+04  0.27668453133E+04  0.50400001928E-02 0.  1.
    10030    2    1    2    0    0  0.00000000000E+00  0.00000000000E+00 -0.17735655579E+04  0.37601250688E+04  0.33155701991E+04 0.  0.
        3    1    3    3  502    0 -0.12596413185E+04 -0.35046830227E+03 -0.20426150171E+04  0.24252423385E+04  0.10100000352E+00 0.  1.
       -3    1    3    3    0  502  0.12596413185E+04  0.35046830227E+03  0.26904945920E+03  0.13348827304E+04  0.10100000352E+00 0. -1.
</event>
<event>
 5   0  0.6134625E-07  0.3383864E+04  0.7818609E-02  0.8141878E-01
        1   -1    0    0  501    0  0.00000000000E+00  0.00000000000E+00  0.21320231530E+04  0.21320231530E+04  0.50400001928E-02 0.  1.
       -1   -1    0    0    0  501  0.00000000000E+00  0.00000000000E+00 -0.13426842489E+04  0.13426842489E+04  0.50400001928E-02 0. -1.
    10030    2    1    2    0    0  0.00000000000E+00  0.00000000000E+00  0.78933890410E+03  0.34747074019E+04  0.33838640078E+04 0.  0.
        3    1    3    3  502    0  0.16401417206E+04  0.30463444464E+02  0.82008745980E+03  0.18339946393E+04  0.10100000352E+00 0. -1.
       -3    1    3    3    0  502 -0.16401417206E+04 -0.30463444464E+02 -0.30748555699E+02  0.16407127625E+04  0.10100000352E+00 0.  1.
</event>
<event>
 5   0  0.6134625E-07  0.3400115E+04  0.7818609E-02  0.8137878E-01
       -1   -1    0    0    0  501  0.00000000000E+00  0.00000000000E+00  0.25863630084E+04  0.25863630084E+04  0.50400001928E-02 0. -1.
        1   -1    0    0  501    0  0.00000000000E+00  0.00000000000E+00 -0.11174749063E+04  0.11174749063E+04  0.50400001928E-02 0.  1.
    10030    2    1    2    0    0  0.00000000000E+00  0.00000000000E+00  0.14688881021E+04  0.37038379147E+04  0.34001151512E+04 0.  0.
        3    1    3    3  502    0 -0.28532594972E+03  0.23766571116E+03  0.25416440672E+04  0.25686281285E+04  0.10100000352E+00 0. -1.
       -3    1    3    3    0  502  0.28532594972E+03 -0.23766571116E+03 -0.10727559651E+04  0.11352097862E+04  0.10100000352E+00 0.  1.
</event>
<event>
 5   0  0.1797075E-06  0.3397161E+04  0.7818609E-02  0.8138604E-01
        2   -1    0    0  501    0  0.00000000000E+00  0.00000000000E+00  0.12618387160E+04  0.12618387160E+04  0.25500000920E-02 0. -1.
       -2   -1    0    0    0  501  0.00000000000E+00  0.00000000000E+00 -0.22864846776E+04  0.22864846776E+04  0.25500000920E-02 0.  1.
    10030    2    1    2    0    0  0.00000000000E+00  0.00000000000E+00 -0.10246459616E+04  0.35483233936E+04  0.33971605141E+04 0.  0.
        2    1    3    3  502    0  0.72082839297E+03  0.95945823724E+03  0.74325658067E+03  0.14115891845E+04  0.25500000920E-02 0. -1.
       -2    1    3    3    0  502 -0.72082839297E+03 -0.95945823724E+03 -0.17679025423E+04  0.21367342091E+04  0.25500000920E-02 0.  1.
</event>
<event>
 5   0  0.1339844E-06  0.3344818E+04  0.7818609E-02  0.8151584E-01
       -2   -1    0    0    0  501  0.00000000000E+00  0.00000000000E+00  0.28254650802E+04  0.28254650802E+04  0.25500000920E-02 0. -1.
        2   -1    0    0  501    0  0.00000000000E+00  0.00000000000E+00 -0.98990830576E+03  0.98990830577E+03  0.25500000920E-02 0.  1.
    10030    2    1    2    0    0  0.00000000000E+00  0.00000000000E+00  0.18355567744E+04  0.38153733860E+04  0.33448176934E+04 0.  0.
        3    1    3    3  502    0  0.61594701928E+03  0.15241443938E+04  0.56704050526E+03  0.17389484778E+04  0.10100000352E+00 0.  1.
       -3    1    3    3    0  502 -0.61594701928E+03 -0.15241443938E+04  0.12685162692E+04  0.20764249081E+04  0.10100000352E+00 0. -1.
</event>
<event>
 5   0  0.6134625E-07  0.3384284E+04  0.7818609E-02  0.8141774E-01
        1   -1    0    0  501    0  0.00000000000E+00  0.00000000000E+00  0.13824873670E+04  0.13824873670E+04  0.50400001928E-02 0. -1.
       -1   -1    0    0    0  501  0.00000000000E+00  0.00000000000E+00 -0.20711539775E+04  0.20711539775E+04  0.50400001928E-02 0.  1.
    10030    2    1    2    0    0  0.00000000000E+00  0.00000000000E+00 -0.68866661056E+03  0.34536413445E+04  0.33842837996E+04 0.  0.
        3    1    3    3  502    0 -0.10620635842E+04 -0.12649327810E+04  0.31050671114E+02  0.16519679632E+04  0.10100000352E+00 0. -1.
       -3    1    3    3    0  502  0.10620635842E+04  0.12649327810E+04 -0.71971728167E+03  0.18016733813E+04  0.10100000352E+00 0.  1.
</event>
<event>
 5   0  0.6218695E-07  0.3418923E+04  0.7818609E-02  0.8133277E-01
        1   -1    0    0  501    0  0.00000000000E+00  0.00000000000E+00  0.16533067549E+04  0.16533067549E+04  0.50400001928E-02 0.  1.
       -1   -1    0    0    0  501  0.00000000000E+00  0.00000000000E+00 -0.17675239107E+04  0.17675239108E+04  0.50400001928E-02 0. -1.
    10030    2    1    2    0    0  0.00000000000E+00  0.00000000000E+00 -0.11421715584E+03  0.34208306657E+04  0.34189233517E+04 0.  0.
        2    1    3    3  502    0  0.11244702608E+04  0.71980906274E+03 -0.11252718289E+04  0.17460799361E+04  0.25500000920E-02 0.  1.
       -2    1    3    3    0  502 -0.11244702608E+04 -0.71980906274E+03  0.10110546731E+04  0.16747507296E+04  0.25500000920E-02 0. -1.
</event>
<event>
 5   0  0.1797075E-06  0.3357100E+04  0.7818609E-02  0.8148516E-01
        2   -1    0    0  501    0  0.00000000000E+00  0.00000000000E+00  0.17696034379E+04  0.17696034379E+04  0.25500000920E-02 0.  1.
       -2   -1    0    0    0  501  0.00000000000E+00  0.00000000000E+00 -0.15921817256E+04  0.15921817256E+04  0.25500000920E-02 0. -1.
    10030    2    1    2    0    0  0.00000000000E+00  0.00000000000E+00  0.17742171228E+03  0.33617851635E+04  0.33571000911E+04 0.  0.
        2    1    3    3  502    0  0.13545207786E+04  0.66857028444E+03 -0.64430624946E+03  0.16422068408E+04  0.25500000920E-02 0. -1.
       -2    1    3    3    0  502 -0.13545207786E+04 -0.66857028444E+03  0.82172796174E+03  0.17195783227E+04  0.25500000920E-02 0.  1.
</event>
<event>
 5   0  0.6218695E-07  0.3460800E+04  0.7818609E-02  0.8123143E-01
        1   -1    0    0  501    0  0.00000000000E+00  0.00000000000E+00  0.20713282582E+04  0.20713282582E+04  0.50400001928E-02 0.  1.
       -1   -1    0    0    0  501  0.00000000000E+00  0.00000000000E+00 -0.14455863125E+04  0.14455863125E+04  0.50400001928E-02 0. -1.
    10030    2    1    2    0    0  0.00000000000E+00  0.00000000000E+00  0.62574194568E+03  0.35169145706E+04  0.34607997796E+04 0.  0.
        2    1    3    3  502    0 -0.47640772291E+03 -0.16228837658E+04  0.68426604584E+03  0.18245372173E+04  0.25500000920E-02 0.  1.
       -2    1    3    3    0  502  0.47640772291E+03  0.16228837658E+04 -0.58524100167E+02  0.16923773533E+04  0.25500000920E-02 0. -1.
</event>
<event>
 5   0  0.6134625E-07  0.3364607E+04  0.7818609E-02  0.8146648E-01
       -1   -1    0    0    0  501  0.00000000000E+00  0.00000000000E+00  0.15161763224E+04  0.15161763224E+04  0.50400001928E-02 0. -1.
        1   -1    0    0  501    0  0.00000000000E+00  0.00000000000E+00 -0.18666332160E+04  0.18666332160E+04  0.50400001928E-02 0.  1.
    10030    2    1    2    0    0  0.00000000000E+00  0.00000000000E+00 -0.35045689356E+03  0.33828095384E+04  0.33646070110E+04 0.  0.
        5    1    3    3  502    0 -0.13340329038E+04 -0.79632509141E+03  0.47351079248E+03  0.16241958010E+04  0.46999998093E+01 0. -1.
       -5    1    3    3    0  502  0.13340329038E+04  0.79632509141E+03 -0.82396768605E+03  0.17586137373E+04  0.46999998093E+01 0.  1.
</event>
<event>
 5   0  0.1948507E-06  0.3272423E+04  0.7818609E-02  0.8169948E-01
       -2   -1    0    0    0  501  0.00000000000E+00  0.00000000000E+00  0.14577269828E+04  0.14577269828E+04  0.25500000920E-02 0.  1.
        2   -1    0    0  501    0  0.00000000000E+00  0.00000000000E+00 -0.18365492092E+04  0.18365492092E+04  0.25500000920E-02 0. -1.
    10030    2    1    2    0    0  0.00000000000E+00  0.00000000000E+00 -0.37882222638E+03  0.32942761921E+04  0.32724225507E+04 0.  0.
        1    1    3    3  502    0 -0.59721845294E+03  0.55705371187E+03  0.12378755123E+04  0.14830085982E+04  0.50400001928E-02 0.  1.
       -1    1    3    3    0  502  0.59721845294E+03 -0.55705371187E+03 -0.16166977386E+04  0.18112675939E+04  0.50400001928E-02 0. -1.
</event>
<event>
 5   0  0.6218695E-07  0.3410719E+04  0.7818609E-02  0.8135281E-01
        1   -1    0    0  501    0  0.00000000000E+00  0.00000000000E+00  0.16340032539E+04  0.16340032539E+04  0.50400001928E-02 0. -1.
       -1   -1    0    0    0  501  0.00000000000E+00  0.00000000000E+00 -0.17798316176E+04  0.17798316176E+04  0.50400001928E-02 0.  1.
    10030    2    1    2    0    0  0.00000000000E+00  0.00000000000E+00 -0.14582836371E+03  0.34138348716E+04  0.34107187833E+04 0.  0.
        2    1    3    3  502    0  0.33764722929E+02  0.15149698969E+04 -0.85591836096E+03  0.17403649289E+04  0.25500000920E-02 0.  1.
       -2    1    3    3    0  502 -0.33764722929E+02 -0.15149698969E+04  0.71008999724E+03  0.16734699427E+04  0.25500000920E-02 0. -1.
</event>
<event>
 5   0  0.6134625E-07  0.3408250E+04  0.7818609E-02  0.8135885E-01
        1   -1    0    0  501    0  0.00000000000E+00  0.00000000000E+00  0.13408701265E+04  0.13408701265E+04  0.50400001928E-02 0. -1.
       -1   -1    0    0    0  501  0.00000000000E+00  0.00000000000E+00 -0.21657889773E+04  0.21657889773E+04  0.50400001928E-02 0.  1.
    10030    2    1    2    0    0  0.00000000000E+00  0.00000000000E+00 -0.82491885081E+03  0.35066591038E+04  0.34082498383E+04 0.  0.
        1    1    3    3  502    0 -0.28781981671E+03 -0.33825414358E+03  0.12802758963E+04  0.13551245269E+04  0.50400001928E-02 0. -1.
       -1    1    3    3    0  502  0.28781981671E+03  0.33825414358E+03 -0.21051947471E+04  0.21515345770E+04  0.50400001928E-02 0.  1.
</event>
<event>
 5   0  0.6218695E-07  0.3405666E+04  0.7818609E-02  0.8136517E-01
       -1   -1    0    0    0  501  0.00000000000E+00  0.00000000000E+00  0.14779930443E+04  0.14779930443E+04  0.50400001928E-02 0.  1.
        1   -1    0    0  501    0  0.00000000000E+00  0.00000000000E+00 -0.19618770896E+04  0.19618770896E+04  0.50400001928E-02 0. -1.
    10030    2    1    2    0    0  0.00000000000E+00  0.00000000000E+00 -0.48388404530E+03  0.34398701338E+04  0.34056662738E+04 0.  0.
        2    1    3    3  502    0  0.71375132353E+03  0.99626471426E+03 -0.14360405446E+04  0.18879080429E+04  0.25500000920E-02 0. -1.
       -2    1    3    3    0  502 -0.71375132353E+03 -0.99626471426E+03  0.95215649926E+03  0.15519620910E+04  0.25500000920E-02 0.  1.
</event>
<event>
 5   0  0.1948507E-06  0.2501060E+04  0.7818609E-02  0.8402608E-01
        2   -1    0    0  501    0  0.00000000000E+00  0.00000000000E+00  0.14905318229E+04  0.14905318229E+04  0.25500000920E-02 0. -1.
       -2   -1    0    0    0  501  0.00000000000E+00  0.00000000000E+00 -0.10491730070E+04  0.10491730070E+04  0.25500000920E-02 0.  1.
    10030    2    1    2    0    0  0.00000000000E+00  0.00000000000E+00  0.44135881588E+03  0.25397048299E+04  0.25010603788E+04 0.  0.
        1    1    3    3  502    0  0.13414361798E+03  0.11351274660E+03 -0.10365731015E+04  0.10513626628E+04  0.50400001928E-02 0.  1.
       -1    1    3    3    0  502 -0.13414361798E+03 -0.11351274660E+03  0.14779319174E+04  0.14883421671E+04  0.50400001928E-02 0. -1.
</event>
<event>
 5   0  0.1339844E-06  0.3048925E+04  0.7818609E-02  0.8229897E-01
        2   -1    0    0  501    0  0.00000000000E+00  0.00000000000E+00  0.23951162034E+04  0.23951162034E+04  0.25500000920E-02 0.  1.
       -2   -1    0    0    0  501  0.00000000000E+00  0.00000000000E+00 -0.97030174709E+03  0.97030174709E+03  0.25500000920E-02 0. -1.
    10030    2    1    2    0    0  0.00000000000E+00  0.00000000000E+00  0.14248144563E+04  0.33654179505E+04  0.30489246869E+04 0.  0.
        3    1    3    3  502    0 -0.63079485728E+03 -0.55536161742E+03  0.21163050396E+04  0.22770761315E+04  0.10100000352E+00 0.  1.
       -3    1    3    3    0  502  0.63079485728E+03  0.55536161742E+03 -0.69149058322E+03  0.10883418190E+04  0.10100000352E+00 0. -1.
</event>
<event>
 5   0  0.6134625E-07  0.3393149E+04  0.7818609E-02  0.8139590E-01
        1   -1    0    0  501    0  0.00000000000E+00  0.00000000000E+00  0.10774388854E+04  0.10774388854E+04  0.50400001928E-02 0. -1.
       -1   -1    0    0    0  501  0.00000000000E+00  0.00000000000E+00 -0.26714875691E+04  0.26714875691E+04  0.50400001928E-02 0.  1.
    10030    2    1    2    0    0  0.00000000000E+00  0.00000000000E+00 -0.15940486837E+04  0.37489264546E+04  0.33931487376E+04 0.  0.
        3    1    3    3  502    0  0.38583224752E+03  0.42855118178E+03 -0.25598921282E+04  0.26240370342E+04  0.10100000352E+00 0.  1.
       -3    1    3    3    0  502 -0.38583224752E+03 -0.42855118178E+03  0.96584344446E+03  0.11248894204E+04  0.10100000352E+00 0. -1.
</event>
<event>
 5   0  0.1880301E-06  0.3368723E+04  0.7818609E-02  0.8145626E-01
       -2   -1    0    0    0  501  0.00000000000E+00  0.00000000000E+00  0.12080082019E+04  0.12080082019E+04  0.25500000920E-02 0.  1.
        2   -1    0    0  501    0  0.00000000000E+00  0.00000000000E+00 -0.23485543570E+04  0.23485543570E+04  0.25500000920E-02 0. -1.
    10030    2    1    2    0    0  0.00000000000E+00  0.00000000000E+00 -0.11405461551E+04  0.35565625590E+04  0.33687225626E+04 0.  0.
        4    1    3    3  502    0 -0.10801738617E+04 -0.76442129308E+03  0.52992602699E+03  0.14254608700E+04  0.12699999809E+01 0.  1.
       -4    1    3    3    0  502  0.10801738617E+04  0.76442129308E+03 -0.16704721821E+04  0.21311016890E+04  0.12699999809E+01 0. -1.
</event>
<event>
 5   0  0.6146388E-07  0.3298516E+04  0.7818609E-02  0.8163273E-01
        1   -1    0    0  501    0  0.00000000000E+00  0.00000000000E+00  0.23546982087E+04  0.23546982087E+04  0.50400001928E-02 0.  1.
       -1   -1    0    0    0  501  0.00000000000E+00  0.00000000000E+00 -0.11551594253E+04  0.11551594254E+04  0.50400001928E-02 0. -1.
    10030    2    1    2    0    0  0.00000000000E+00  0.00000000000E+00  0.11995387833E+04  0.35098576340E+04  0.32985159267E+04 0.  0.
        4    1    3    3  502    0  0.15430535647E+04 -0.56603365956E+03  0.74505244164E+03  0.18045811594E+04  0.12699999809E+01 0.  1.
       -4    1    3    3    0  502 -0.15430535647E+04  0.56603365956E+03  0.45448634168E+03  0.17052764746E+04  0.12699999809E+01 0. -1.
</event>
<event>
 5   0  0.6134625E-07  0.3454222E+04  0.7818609E-02  0.8124725E-01
       -1   -1    0    0    0  501  0.00000000000E+00  0.00000000000E+00  0.19108677175E+04  0.19108677175E+04  0.50400001928E-02 0. -1.
        1   -1    0    0  501    0  0.00000000000E+00  0.00000000000E+00 -0.15610253477E+04  0.15610253477E+04  0.50400001928E-02 0.  1.
    10030    2    1    2    0    0  0.00000000000E+00  0.00000000000E+00  0.34984236982E+03  0.34718930652E+04  0.34542223108E+04 0.  0.
        5    1    3    3  502    0 -0.15837245758E+04  0.68482126906E+03  0.98856099415E+02  0.17282818985E+04  0.46999998093E+01 0. -1.
       -5    1    3    3    0  502  0.15837245758E+04 -0.68482126906E+03  0.25098627040E+03  0.17436111666E+04  0.46999998093E+01 0.  1.
</event>
<event>
 5   0  0.6218695E-07  0.3402327E+04  0.7818609E-02  0.8137336E-01
        1   -1    0    0  501    0  0.00000000000E+00  0.00000000000E+00  0.13923324361E+04  0.13923324361E+04  0.50400001928E-02 0.  1.
       -1   -1    0    0    0  501  0.00000000000E+00  0.00000000000E+00 -0.20784953762E+04  0.20784953763E+04  0.50400001928E-02 0. -1.
    10030    2    1    2    0    0  0.00000000000E+00  0.00000000000E+00 -0.68616294020E+03  0.34708278123E+04  0.34023265749E+04 0.  0.
        2    1    3    3  502    0 -0.10546412764E+04  0.47141977206E+03 -0.16170040534E+04  0.19872611635E+04  0.25500000920E-02 0. -1.
       -2    1    3    3    0  502  0.10546412764E+04 -0.47141977206E+03  0.93084111317E+03  0.14835666488E+04  0.25500000920E-02 0.  1.
</event>
<event>
 5   0  0.1911477E-06  0.3361968E+04  0.7818609E-02  0.8147304E-01
        2   -1    0    0  501    0  0.00000000000E+00  0.00000000000E+00  0.19051342530E+04  0.19051342530E+04  0.25500000920E-02 0. -1.
       -2   -1    0    0    0  501  0.00000000000E+00  0.00000000000E+00 -0.14832066565E+04  0.14832066565E+04  0.25500000920E-02 0.  1.
    10030    2    1    2    0    0  0.00000000000E+00  0.00000000000E+00  0.42192759641E+03  0.33883409095E+04  0.33619683554E+04 0.  0.
        5    1    3    3  502    0 -0.13638097688E+04  0.52942811704E+03 -0.62342818264E+03  0.15902691614E+04  0.46999998093E+01 0.  1.
       -5    1    3    3    0  502  0.13638097688E+04 -0.52942811704E+03  0.10453557791E+04  0.17980717481E+04  0.46999998093E+01 0. -1.
</event>
<event>
 5   0  0.6134625E-07  0.3398911E+04  0.7818609E-02  0.8138174E-01
        1   -1    0    0  501    0  0.00000000000E+00  0.00000000000E+00  0.23073929074E+04  0.23073929074E+04  0.50400001928E-02 0. -1.
       -1   -1    0    0    0  501  0.00000000000E+00  0.00000000000E+00 -0.12516937973E+04  0.12516937974E+04  0.50400001928E-02 0.  1.
    10030    2    1    2    0    0  0.00000000000E+00  0.00000000000E+00  0.10556991101E+04  0.35590867048E+04  0.33989112317E+04 0.  0.
        5    1    3    3  502    0 -0.84906090066E+03 -0.21387548704E+03  0.20530194824E+04  0.22319404611E+04  0.46999998093E+01 0. -1.
       -5    1    3    3    0  502  0.84906090066E+03  0.21387548704E+03 -0.99732037231E+03  0.13271462436E+04  0.46999998093E+01 0.  1.
</event>
<event>
 5   0  0.6134625E-07  0.3466828E+04  0.7818609E-02  0.8121697E-01
        1   -1    0    0  501    0  0.00000000000E+00  0.00000000000E+00  0.21689446603E+04  0.21689446603E+04  0.50400001928E-02 0. -1.
       -1   -1    0    0    0  501  0.00000000000E+00  0.00000000000E+00 -0.13853390209E+04  0.13853390209E+04  0.50400001928E-02 0.  1.
    10030    2    1    2    0    0  0.00000000000E+00  0.00000000000E+00  0.78360563935E+03  0.35542836812E+04  0.34668277558E+04 0.  0.
        5    1    3    3  502    0 -0.77521775288E+02 -0.65982087613E+03 -0.12496255851E+04  0.14152594840E+04  0.46999998093E+01 0.  1.
       -5    1    3    3    0  502  0.77521775288E+02  0.65982087613E+03  0.20332312244E+04  0.21390241972E+04  0.46999998093E+01 0. -1.
</event>
<event>
 5   0  0.6218695E-07  0.3431295E+04  0.7818609E-02  0.8130268E-01
        1   -1    0    0  501    0  0.00000000000E+00  0.00000000000E+00  0.98456875206E+03  0.98456875207E+03  0.50400001928E-02 0. -1.
       -1   -1    0    0    0  501  0.00000000000E+00  0.00000000000E+00 -0.29895801471E+04  0.29895801471E+04  0.50400001928E-02 0.  1.
    10030    2    1    2    0    0  0.00000000000E+00  0.00000000000E+00 -0.20050113950E+04  0.39741488992E+04  0.34312954957E+04 0.  0.
        2    1    3    3  502    0 -0.54328933390E+03 -0.11799665973E+04  0.29549339712E+03  0.13322165060E+04  0.25500000920E-02 0. -1.
       -2    1    3    3    0  502  0.54328933390E+03  0.11799665973E+04 -0.23005047921E+04  0.26419323931E+04  0.25500000920E-02 0.  1.
</event>
<event>
 5   0  0.1911477E-06  0.3387905E+04  0.7818609E-02  0.8140881E-01
        2   -1    0    0  501    0  0.00000000000E+00  0.00000000000E+00  0.25597639426E+04  0.25597639426E+04  0.25500000920E-02 0. -1.
       -2   -1    0    0    0  501  0.00000000000E+00  0.00000000000E+00 -0.11209920142E+04  0.11209920142E+04  0.25500000920E-02 0.  1.
    10030    2    1    2    0    0  0.00000000000E+00  0.00000000000E+00  0.14387719284E+04  0.36807559568E+04  0.33879049207E+04 0.  0.
        5    1    3    3  502    0  0.59978647037E+03  0.10308540862E+04  0.20263011741E+04  0.23512385024E+04  0.46999998093E+01 0. -1.
       -5    1    3    3    0  502 -0.59978647037E+03 -0.10308540862E+04 -0.58752924571E+03  0.13295174544E+04  0.46999998093E+01 0.  1.
</event>
<event>
 5   0  0.6134625E-07  0.3467990E+04  0.7818609E-02  0.8121418E-01
        3   -1    0    0  501    0  0.00000000000E+00  0.00000000000E+00  0.26188570817E+04  0.26188570837E+04  0.10100000352E+00 0. -1.
       -3   -1    0    0    0  501  0.00000000000E+00  0.00000000000E+00 -0.11481106861E+04  0.11481106906E+04  0.10100000352E+00 0.  1.
    10030    2    1    2    0    0  0.00000000000E+00  0.00000000000E+00  0.14707463956E+04  0.37669677743E+04  0.34679895116E+04 0.  0.
        1    1    3    3  502    0 -0.16927944386E+04  0.36832596978E+03  0.65466560059E+03  0.18519730235E+04  0.50400001928E-02 0. -1.
       -1    1    3    3    0  502  0.16927944386E+04 -0.36832596978E+03  0.81608079500E+03  0.19149947507E+04  0.50400001928E-02 0.  1.
</event>
<event>
 5   0  0.1911477E-06  0.2964286E+04  0.7818609E-02  0.8254003E-01
       -2   -1    0    0    0  501  0.00000000000E+00  0.00000000000E+00  0.97756323212E+03  0.97756323212E+03  0.25500000920E-02 0.  1.
        2   -1    0    0  501    0  0.00000000000E+00  0.00000000000E+00 -0.22471673964E+04  0.22471673964E+04  0.25500000920E-02 0. -1.
    10030    2    1    2    0    0  0.00000000000E+00  0.00000000000E+00 -0.12696041643E+04  0.32247306285E+04  0.29642862366E+04 0.  0.
        5    1    3    3  502    0 -0.12895894288E+04 -0.22634974196E+03  0.12081179461E+03  0.13148736367E+04  0.46999998093E+01 0.  1.
       -5    1    3    3    0  502  0.12895894288E+04  0.22634974196E+03 -0.13904159589E+04  0.19098569919E+04  0.46999998093E+01 0. -1.
</event>
<event>
 5   0  0.1948507E-06  0.3394731E+04  0.7818609E-02  0.8139201E-01
       -2   -1    0    0    0  501  0.00000000000E+00  0.00000000000E+00  0.16002828414E+04  0.16002828414E+04  0.25500000920E-02 0.  1.
        2   -1    0    0  501    0  0.00000000000E+00  0.00000000000E+00 -0.18003379629E+04  0.18003379629E+04  0.25500000920E-02 0. -1.
    10030    2    1    2    0    0  0.00000000000E+00  0.00000000000E+00 -0.20005512148E+03  0.34006208043E+04  0.33947311827E+04 0.  0.
        1    1    3    3  502    0  0.79475102110E+03  0.71169706405E+03 -0.14225104332E+04  0.17781107471E+04  0.50400001928E-02 0. -1.
       -1    1    3    3    0  502 -0.79475102110E+03 -0.71169706405E+03  0.12224553117E+04  0.16225100572E+04  0.50400001928E-02 0.  1.
</event>
<event>
 5   0  0.6134625E-07  0.3395818E+04  0.7818609E-02  0.8138933E-01
        1   -1    0    0  501    0  0.00000000000E+00  0.00000000000E+00  0.21250795491E+04  0.21250795491E+04  0.50400001928E-02 0.  1.
       -1   -1    0    0    0  501  0.00000000000E+00  0.00000000000E+00 -0.13566058228E+04  0.13566058228E+04  0.50400001928E-02 0. -1.
    10030    2    1    2    0    0  0.00000000000E+00  0.00000000000E+00  0.76847372625E+03  0.34816853719E+04  0.33958181872E+04 0.  0.
        5    1    3    3  502    0  0.10086653378E+04  0.31116128827E+03 -0.97929585050E+03  0.14398852606E+04  0.46999998093E+01 0. -1.
       -5    1    3    3    0  502 -0.10086653378E+04 -0.31116128827E+03  0.17477695767E+04  0.20418001113E+04  0.46999998093E+01 0.  1.
</event>
<event>
 5   0  0.6218695E-07  0.3320166E+04  0.7818609E-02  0.8157783E-01
        1   -1    0    0  501    0  0.00000000000E+00  0.00000000000E+00  0.23409985116E+04  0.23409985116E+04  0.50400001928E-02 0. -1.
       -1   -1    0    0    0  501  0.00000000000E+00  0.00000000000E+00 -0.11772222516E+04  0.11772222517E+04  0.50400001928E-02 0.  1.
    10030    2    1    2    0    0  0.00000000000E+00  0.00000000000E+00  0.11637762599E+04  0.35182207633E+04  0.33201659832E+04 0.  0.
        2    1    3    3  502    0  0.43329938898E+03 -0.85932570477E+03 -0.85145983735E+03  0.12849797205E+04  0.25500000920E-02 0.  1.
       -2    1    3    3    0  502 -0.43329938898E+03  0.85932570477E+03  0.20152360973E+04  0.22332410428E+04  0.25500000920E-02 0. -1.
</event>
<event>
 5   0  0.6146388E-07  0.3400962E+04  0.7818609E-02  0.8137670E-01
        1   -1    0    0  501    0  0.00000000000E+00  0.00000000000E+00  0.16200768507E+04  0.16200768507E+04  0.50400001928E-02 0.  1.
       -1   -1    0    0    0  501  0.00000000000E+00  0.00000000000E+00 -0.17848752259E+04  0.17848752259E+04  0.50400001928E-02 0. -1.
    10030    2    1    2    0    0  0.00000000000E+00  0.00000000000E+00 -0.16479837521E+03  0.34049520766E+04  0.34009616492E+04 0.  0.
        4    1    3    3  502    0  0.60823376219E+03 -0.15313653453E+04 -0.50313659380E+03  0.17228395675E+04  0.12699999809E+01 0. -1.
       -4    1    3    3    0  502 -0.60823376219E+03  0.15313653453E+04  0.33833821859E+03  0.16821125091E+04  0.12699999809E+01 0.  1.
</event>
<event>
 5   0  0.1911477E-06  0.3355936E+04  0.7818609E-02  0.8148806E-01
       -2   -1    0    0    0  501  0.00000000000E+00  0.00000000000E+00  0.21632691161E+04  0.21632691161E+04  0.25500000920E-02 0. -1.
        2   -1    0    0  501    0  0.00000000000E+00  0.00000000000E+00 -0.13015379844E+04  0.13015379844E+04  0.25500000920E-02 0.  1.
    10030    2    1    2    0    0  0.00000000000E+00  0.00000000000E+00  0.86173113172E+03  0.34648071005E+04  0.33559361884E+04 0.  0.
        5    1    3    3  502    0 -0.16713009133E+04  0.14911721485E+03  0.42209596960E+03  0.17302224666E+04  0.46999998093E+01 0.  1.
       -5    1    3    3    0  502  0.16713009133E+04 -0.14911721485E+03  0.43963516212E+03  0.17345846339E+04  0.46999998093E+01 0. -1.
</event>
<event>
 5   0  0.1339844E-06  0.3376158E+04  0.7818609E-02  0.8143783E-01
       -2   -1    0    0    0  501  0.00000000000E+00  0.00000000000E+00  0.27289389719E+04  0.27289389719E+04  0.25500000920E-02 0. -1.
        2   -1    0    0  501    0  0.00000000000E+00  0.00000000000E+00 -0.10442191500E+04  0.10442191500E+04  0.25500000920E-02 0.  1.
    10030    2    1    2    0    0  0.00000000000E+00  0.00000000000E+00  0.16847198219E+04  0.37731581219E+04  0.33761577769E+04 0.  0.
        3    1    3    3  502    0  0.16009311693E+04 -0.43910814212E+03  0.11846667128E+04  0.20394194762E+04  0.10100000352E+00 0. -1.
       -3    1    3    3    0  502 -0.16009311693E+04  0.43910814212E+03  0.50005310905E+03  0.17337386457E+04  0.10100000352E+00 0.  1.
</event>
<event>
 5   0  0.1880301E-06  0.3422509E+04  0.7818609E-02  0.8132404E-01
        2   -1    0    0  501    0  0.00000000000E+00  0.00000000000E+00  0.17342889634E+04  0.17342889634E+04  0.25500000920E-02 0.  1.
       -2   -1    0    0    0  501  0.00000000000E+00  0.00000000000E+00 -0.16885258351E+04  0.16885258351E+04  0.25500000920E-02 0. -1.
    10030    2    1    2    0    0  0.00000000000E+00  0.00000000000E+00  0.45763128313E+02  0.34228147984E+04  0.34225088576E+04 0.  0.
        4    1    3    3  502    0 -0.65550155622E+03  0.13040697837E+04 -0.87056821616E+03  0.16994619510E+04  0.12699999809E+01 0. -1.
       -4    1    3    3    0  502  0.65550155622E+03 -0.13040697837E+04  0.91633134447E+03  0.17233528474E+04  0.12699999809E+01 0.  1.
</event>
<event>
 5   0  0.6134625E-07  0.3431429E+04  0.7818609E-02  0.8130235E-01
        1   -1    0    0  501    0  0.00000000000E+00  0.00000000000E+00  0.14194271350E+04  0.14194271350E+04  0.50400001928E-02 0. -1.
       -1   -1    0    0    0  501  0.00000000000E+00  0.00000000000E+00 -0.20738483198E+04  0.20738483198E+04  0.50400001928E-02 0.  1.
    10030    2    1    2    0    0  0.00000000000E+00  0.00000000000E+00 -0.65442118479E+03  0.34932754548E+04  0.34314291944E+04 0.  0.
        5    1    3    3  502    0 -0.31606731470E+03  0.67763458463E+03  0.12448257561E+04  0.14521365056E+04  0.46999998093E+01 0. -1.
       -5    1    3    3    0  502  0.31606731470E+03 -0.67763458463E+03 -0.18992469409E+04  0.20411389493E+04  0.46999998093E+01 0.  1.
</event>
<event>
 5   0  0.1797075E-06  0.3391442E+04  0.7818609E-02  0.8140010E-01
       -2   -1    0    0    0  501  0.00000000000E+00  0.00000000000E+00  0.15947190723E+04  0.15947190723E+04  0.25500000920E-02 0. -1.
        2   -1    0    0  501    0  0.00000000000E+00  0.00000000000E+00 -0.18031203276E+04  0.18031203276E+04  0.25500000920E-02 0.  1.
    10030    2    1    2    0    0  0.00000000000E+00  0.00000000000E+00 -0.20840125538E+03  0.33978393999E+04  0.33914423929E+04 0.  0.
        2    1    3    3  502    0 -0.14246118469E+03  0.68204773636E+02  0.15873332521E+04  0.15951720702E+04  0.25500000920E-02 0. -1.
       -2    1    3    3    0  502  0.14246118469E+03 -0.68204773636E+02 -0.17957345075E+04  0.18026673297E+04  0.25500000920E-02 0.  1.
</event>
<event>
 5   0  0.6218695E-07  0.3391043E+04  0.7818609E-02  0.8140108E-01
       -1   -1    0    0    0  501  0.00000000000E+00  0.00000000000E+00  0.13670766647E+04  0.13670766647E+04  0.50400001928E-02 0.  1.
        1   -1    0    0  501    0  0.00000000000E+00  0.00000000000E+00 -0.21028759617E+04  0.21028759617E+04  0.50400001928E-02 0. -1.
    10030    2    1    2    0    0  0.00000000000E+00  0.00000000000E+00 -0.73579929699E+03  0.34699526263E+04  0.33910427045E+04 0.  0.
        2    1    3    3  502    0 -0.12204546290E+04  0.24440650618E+03 -0.15460158178E+04  0.19847944353E+04  0.25500000920E-02 0. -1.
       -2    1    3    3    0  502  0.12204546290E+04 -0.24440650618E+03  0.81021652077E+03  0.14851581910E+04  0.25500000920E-02 0.  1.
</event>
<event>
 5   0  0.1797075E-06  0.3428174E+04  0.7818609E-02  0.8131026E-01
        2   -1    0    0  501    0  0.00000000000E+00  0.00000000000E+00  0.16114371010E+04  0.16114371010E+04  0.25500000920E-02 0.  1.
       -2   -1    0    0    0  501  0.00000000000E+00  0.00000000000E+00 -0.18232755953E+04  0.18232755953E+04  0.25500000920E-02 0. -1.
    10030    2    1    2    0    0  0.00000000000E+00  0.00000000000E+00 -0.21183849429E+03  0.34347126964E+04  0.34281738227E+04 0.  0.
        2    1    3    3  502    0 -0.22136591266E+03  0.66509022907E+03 -0.16731106114E+04  0.18140140568E+04  0.25500000920E-02 0. -1.
       -2    1    3    3    0  502  0.22136591266E+03 -0.66509022907E+03  0.14612721171E+04  0.16206986396E+04  0.25500000920E-02 0.  1.
</event>
<event>
 5   0  0.6134625E-07  0.3428025E+04  0.7818609E-02  0.8131062E-01
        1   -1    0    0  501    0  0.00000000000E+00  0.00000000000E+00  0.29659892244E+04  0.29659892244E+04  0.50400001928E-02 0. -1.
       -1   -1    0    0    0  501  0.00000000000E+00  0.00000000000E+00 -0.99050922820E+03  0.99050922822E+03  0.50400001928E-02 0.  1.
    10030    2    1    2    0    0  0.00000000000E+00  0.00000000000E+00  0.19754799962E+04  0.39564984526E+04  0.34280254944E+04 0.  0.
        3    1    3    3  502    0  0.10204750673E+04  0.13546822623E+04  0.12735118725E+04  0.21209351462E+04  0.10100000352E+00 0.  1.
       -3    1    3    3    0  502 -0.10204750673E+04 -0.13546822623E+04  0.70196812365E+03  0.18355633064E+04  0.10100000352E+00 0. -1.
</event>
<event>
 5   0  0.1880301E-06  0.2603967E+04  0.7818609E-02  0.8366855E-01
       -2   -1    0    0    0  501  0.00000000000E+00  0.00000000000E+00  0.13385611128E+04  0.13385611128E+04  0.25500000920E-02 0.  1.
        2   -1    0    0  501    0  0.00000000000E+00  0.00000000000E+00 -0.12664054815E+04  0.12664054815E+04  0.25500000920E-02 0. -1.
    10030    2    1    2    0    0  0.00000000000E+00  0.00000000000E+00  0.72155631307E+02  0.26049665944E+04  0.26039670740E+04 0.  0.
        4    1    3    3  502    0  0.44129856817E+03  0.14825493571E+03  0.12524538941E+04  0.13361760071E+04  0.12699999809E+01 0.  1.
       -4    1    3    3    0  502 -0.44129856817E+03 -0.14825493571E+03 -0.11802982628E+04  0.12687905873E+04  0.12699999809E+01 0. -1.
</event>
<event>
 5   0  0.6146388E-07  0.3439229E+04  0.7818609E-02  0.8128345E-01
        1   -1    0    0  501    0  0.00000000000E+00  0.00000000000E+00  0.17061299355E+04  0.17061299355E+04  0.50400001928E-02 0.  1.
       -1   -1    0    0    0  501  0.00000000000E+00  0.00000000000E+00 -0.17332052988E+04  0.17332052988E+04  0.50400001928E-02 0. -1.
    10030    2    1    2    0    0  0.00000000000E+00  0.00000000000E+00 -0.27075363257E+02  0.34393352343E+04  0.34392286604E+04 0.  0.
        4    1    3    3  502    0 -0.69779159599E+03 -0.11127689962E+04 -0.11234837300E+04  0.17284054081E+04  0.12699999809E+01 0. -1.
       -4    1    3    3    0  502  0.69779159599E+03  0.11127689962E+04  0.10964083668E+04  0.17109298261E+04  0.12699999809E+01 0.  1.
</event>
<event>
 5   0  0.6134625E-07  0.3355037E+04  0.7818609E-02  0.8149031E-01
        1   -1    0    0  501    0  0.00000000000E+00  0.00000000000E+00  0.14457786536E+04  0.14457786536E+04  0.50400001928E-02 0.  1.
       -1   -1    0    0    0  501  0.00000000000E+00  0.00000000000E+00 -0.19464028846E+04  0.19464028846E+04  0.50400001928E-02 0. -1.
    10030    2    1    2    0    0  0.00000000000E+00  0.00000000000E+00 -0.50062423102E+03  0.33921815382E+04  0.33550366566E+04 0.  0.
        3    1    3    3  502    0 -0.73426976763E+03 -0.10346577439E+04 -0.13599135473E+04  0.18598477371E+04  0.10100000352E+00 0. -1.
       -3    1    3    3    0  502  0.73426976763E+03  0.10346577439E+04  0.85928931628E+03  0.15323338011E+04  0.10100000352E+00 0.  1.
</event>
<event>
 5   0  0.6146388E-07  0.3410890E+04  0.7818609E-02  0.8135239E-01
       -1   -1    0    0    0  501  0.00000000000E+00  0.00000000000E+00  0.10400034850E+04  0.10400034850E+04  0.50400001928E-02 0. -1.
        1   -1    0    0  501    0  0.00000000000E+00  0.00000000000E+00 -0.27966656289E+04  0.27966656289E+04  0.50400001928E-02 0.  1.
    10030    2    1    2    0    0  0.00000000000E+00  0.00000000000E+00 -0.17566621439E+04  0.38366691139E+04  0.34108896203E+04 0.  0.
        4    1    3    3  502    0 -0.24607470177E+03  0.32138529056E+03 -0.27418510471E+04  0.27715681556E+04  0.12699999809E+01 0.  1.
       -4    1    3    3    0  502  0.24607470177E+03 -0.32138529056E+03  0.98518890310E+03  0.10651009584E+04  0.12699999809E+01 0. -1.
</event>
<event>
 5   0  0.1797075E-06  0.3381037E+04  0.7818609E-02  0.8142576E-01
        2   -1    0    0  501    0  0.00000000000E+00  0.00000000000E+00  0.29141921278E+04  0.29141921278E+04  0.25500000920E-02 0.  1.
       -2   -1    0    0    0  501  0.00000000000E+00  0.00000000000E+00 -0.98066731984E+03  0.98066731984E+03  0.25500000920E-02 0. -1.
    10030    2    1    2    0    0  0.00000000000E+00  0.00000000000E+00  0.19335248080E+04  0.38948594477E+04  0.33810371092E+04 0.  0.
        2    1    3    3  502    0  0.51249292097E+02  0.16772288064E+04  0.73031328058E+03  0.18300493017E+04  0.25500000920E-02 0. -1.
       -2    1    3    3    0  502 -0.51249292097E+02 -0.16772288064E+04  0.12032115274E+04  0.20648101459E+04  0.25500000920E-02 0.  1.
</event>
<event>
 5   0  0.1948507E-06  0.3403714E+04  0.7818609E-02  0.8136995E-01
        2   -1    0    0  501    0  0.00000000000E+00  0.00000000000E+00  0.24371994950E+04  0.24371994950E+04  0.25500000920E-02 0. -1.
       -2   -1    0    0    0  501  0.00000000000E+00  0.00000000000E+00 -0.11883792088E+04  0.11883792088E+04  0.25500000920E-02 0.  1.
    10030    2    1    2    0    0  0.00000000000E+00  0.00000000000E+00  0.12488202862E+04  0.36255787038E+04  0.34037139760E+04 0.  0.
        1    1    3    3  502    0 -0.40317115431E+03  0.82201140453E+02  0.23834184863E+04  0.24186747793E+04  0.50400001928E-02 0. -1.
       -1    1    3    3    0  502  0.40317115431E+03 -0.82201140453E+02 -0.11345982001E+04  0.12069039245E+04  0.50400001928E-02 0.  1.
</event>
<event>
 5   0  0.6134625E-07  0.3407103E+04  0.7818609E-02  0.8136165E-01
       -1   -1    0    0    0  501  0.00000000000E+00  0.00000000000E+00  0.17929027396E+04  0.17929027396E+04  0.50400001928E-02 0.  1.
        1   -1    0    0  501    0  0.00000000000E+00  0.00000000000E+00 -0.16186528847E+04  0.16186528848E+04  0.50400001928E-02 0. -1.
    10030    2    1    2    0    0  0.00000000000E+00  0.00000000000E+00  0.17424985485E+03  0.34115556244E+04  0.34071026938E+04 0.  0.
        3    1    3    3  502    0  0.61460149375E+03  0.13391580410E+04  0.94323237654E+03  0.17495046674E+04  0.10100000352E+00 0.  1.
       -3    1    3    3    0  502 -0.61460149375E+03 -0.13391580410E+04 -0.76898252169E+03  0.16620509570E+04  0.10100000352E+00 0. -1.
</event>
<event>
 5   0  0.1911477E-06  0.3449961E+04  0.7818609E-02  0.8125752E-01
        2   -1    0    0  501    0  0.00000000000E+00  0.00000000000E+00  0.22456751673E+04  0.22456751673E+04  0.25500000920E-02 0.  1.
       -2   -1    0    0    0  501  0.00000000000E+00  0.00000000000E+00 -0.13250168843E+04  0.13250168844E+04  0.25500000920E-02 0. -1.
    10030    2    1    2    0    0  0.00000000000E+00  0.00000000000E+00  0.92065828292E+03  0.35706920516E+04  0.34499608771E+04 0.  0.
        5    1    3    3  502    0  0.14351444228E+03 -0.15992297735E+04 -0.19213084787E+03  0.16171173786E+04  0.46999998093E+01 0. -1.
       -5    1    3    3    0  502 -0.14351444228E+03  0.15992297735E+04  0.11127891308E+04  0.19535746730E+04  0.46999998093E+01 0.  1.
</event>
<event>
 5   0  0.1339844E-06  0.3429843E+04  0.7818609E-02  0.8130620E-01
       -2   -1    0    0    0  501  0.00000000000E+00  0.00000000000E+00  0.21411881707E+04  0.21411881707E+04  0.25500000920E-02 0. -1.
        2   -1    0    0  501    0  0.00000000000E+00  0.00000000000E+00 -0.13735159703E+04  0.13735159703E+04  0.25500000920E-02 0.  1.
    10030    2    1    2    0    0  0.00000000000E+00  0.00000000000E+00  0.76767220037E+03  0.35147041410E+04  0.34298432313E+04 0.  0.
        3    1    3    3  502    0  0.91578351870E+03  0.12388611188E+04  0.11558142656E+04  0.19259654596E+04  0.10100000352E+00 0. -1.
       -3    1    3    3    0  502 -0.91578351870E+03 -0.12388611188E+04 -0.38814206526E+03  0.15887386814E+04  0.10100000352E+00 0.  1.
</event>
<event>
 5   0  0.1911477E-06  0.3336036E+04  0.7818609E-02  0.8153786E-01
        2   -1    0    0  501    0  0.00000000000E+00  0.00000000000E+00  0.14544311605E+04  0.14544311605E+04  0.25500000920E-02 0.  1.
       -2   -1    0    0    0  501  0.00000000000E+00  0.00000000000E+00 -0.19129711655E+04  0.19129711655E+04  0.25500000920E-02 0. -1.
    10030    2    1    2    0    0  0.00000000000E+00  0.00000000000E+00 -0.45854000497E+03  0.33674023260E+04  0.33360364939E+04 0.  0.
        5    1    3    3  502    0  0.10560767334E+03 -0.77316348506E+02 -0.19077731018E+04  0.19122633439E+04  0.46999998093E+01 0. -1.
       -5    1    3    3    0  502 -0.10560767334E+03  0.77316348506E+02  0.14492330968E+04  0.14551389821E+04  0.46999998093E+01 0.  1.
</event>
<event>
 5   0  0.6146388E-07  0.3374118E+04  0.7818609E-02  0.8144288E-01
       -1   -1    0    0    0  501  0.00000000000E+00  0.00000000000E+00  0.16403530988E+04  0.16403530988E+04  0.50400001928E-02 0. -1.
        1   -1    0    0  501    0  0.00000000000E+00  0.00000000000E+00 -0.17350950866E+04  0.17350950866E+04  0.50400001928E-02 0.  1.
    10030    2    1    2    0    0  0.00000000000E+00  0.00000000000E+00 -0.94741987835E+02  0.33754481854E+04  0.33741183157E+04 0.  0.
        4    1    3    3  502    0 -0.85133871027E+03 -0.14025306518E+04  0.34559059854E+03  0.16766944574E+04  0.12699999809E+01 0.  1.
       -4    1    3    3    0  502  0.85133871027E+03  0.14025306518E+04 -0.44033258638E+03  0.16987537280E+04  0.12699999809E+01 0. -1.
</event>
<event>
 5   0  0.1880301E-06  0.3415850E+04  0.7818609E-02  0.8134027E-01
        2   -1    0    0  501    0  0.00000000000E+00  0.00000000000E+00  0.19203325681E+04  0.19203325681E+04  0.25500000920E-02 0. -1.
       -2   -1    0    0    0  501  0.00000000000E+00  0.00000000000E+00 -0.15190115213E+04  0.15190115213E+04  0.25500000920E-02 0.  1.
    10030    2    1    2    0    0  0.00000000000E+00  0.00000000000E+00  0.40132104674E+03  0.34393440894E+04  0.34158497014E+04 0.  0.
        4    1    3    3  502    0  0.53361907864E+03  0.81558891162E+03  0.16128302640E+04  0.18844515561E+04  0.12699999809E+01 0. -1.
       -4    1    3    3    0  502 -0.53361907864E+03 -0.81558891162E+03 -0.12115092172E+04  0.15548925333E+04  0.12699999809E+01 0.  1.
</event>
<event>
 5   0  0.6146388E-07  0.3235060E+04  0.7818609E-02  0.8179619E-01
        1   -1    0    0  501    0  0.00000000000E+00  0.00000000000E+00  0.18214434496E+04  0.18214434496E+04  0.50400001928E-02 0.  1.
       -1   -1    0    0    0  501  0.00000000000E+00  0.00000000000E+00 -0.14364453207E+04  0.14364453207E+04  0.50400001928E-02 0. -1.
    10030    2    1    2    0    0  0.00000000000E+00  0.00000000000E+00  0.38499812892E+03  0.32578887703E+04  0.32350603828E+04 0.  0.
        4    1    3    3  502    0  0.15004761015E+04 -0.44266052559E+03 -0.22152910725E+03  0.15800169715E+04  0.12699999809E+01 0. -1.
       -4    1    3    3    0  502 -0.15004761015E+04  0.44266052559E+03  0.60652723617E+03  0.16778717988E+04  0.12699999809E+01 0.  1.
</event>
<event>
 5   0  0.6134625E-07  0.3464539E+04  0.7818609E-02  0.8122246E-01
        1   -1    0    0  501    0  0.00000000000E+00  0.00000000000E+00  0.20020777572E+04  0.20020777572E+04  0.50400001928E-02 0.  1.
       -1   -1    0    0    0  501  0.00000000000E+00  0.00000000000E+00 -0.14988215005E+04  0.14988215005E+04  0.50400001928E-02 0. -1.
    10030    2    1    2    0    0  0.00000000000E+00  0.00000000000E+00  0.50325625671E+03  0.35008992577E+04  0.34645387503E+04 0.  0.
        5    1    3    3  502    0 -0.44065776122E+03 -0.48295325822E+03  0.18726184127E+04  0.19834679029E+04  0.46999998093E+01 0.  1.
       -5    1    3    3    0  502  0.44065776122E+03  0.48295325822E+03 -0.13693621560E+04  0.15174313548E+04  0.46999998093E+01 0. -1.
</event>
<event>
 5   0  0.6134625E-07  0.3422437E+04  0.7818609E-02  0.8132421E-01
        1   -1    0    0  501    0  0.00000000000E+00  0.00000000000E+00  0.13631104879E+04  0.13631104879E+04  0.50400001928E-02 0. -1.
       -1   -1    0    0    0  501  0.00000000000E+00  0.00000000000E+00 -0.21482256535E+04  0.21482256535E+04  0.50400001928E-02 0.  1.
    10030    2    1    2    0    0  0.00000000000E+00  0.00000000000E+00 -0.78511516559E+03  0.35113361415E+04  0.34224370959E+04 0.  0.
        1    1    3    3  502    0 -0.93707547092E+03 -0.11372598907E+04 -0.12850962517E+04  0.19552347361E+04  0.50400001928E-02 0.  1.
       -1    1    3    3    0  502  0.93707547092E+03  0.11372598907E+04  0.49998108611E+03  0.15561014053E+04  0.50400001928E-02 0. -1.
</event>
<event>
 5   0  0.6218695E-07  0.3398821E+04  0.7818609E-02  0.8138196E-01
        1   -1    0    0  501    0  0.00000000000E+00  0.00000000000E+00  0.14127408147E+04  0.14127408147E+04  0.50400001928E-02 0. -1.
       -1   -1    0    0    0  501  0.00000000000E+00  0.00000000000E+00 -0.20442499827E+04  0.20442499827E+04  0.50400001928E-02 0.  1.
    10030    2    1    2    0    0  0.00000000000E+00  0.00000000000E+00 -0.63150916806E+03  0.34569907974E+04  0.33988206107E+04 0.  0.
        2    1    3    3  502    0  0.28499096222E+03 -0.69447879935E+03 -0.18664710390E+04  0.20117740407E+04  0.25500000920E-02 0.  1.
       -2    1    3    3    0  502 -0.28499096222E+03  0.69447879935E+03  0.12349618709E+04  0.14452167567E+04  0.25500000920E-02 0. -1.
</event>
<event>
 5   0  0.1880301E-06  0.3402195E+04  0.7818609E-02  0.8137368E-01
        2   -1    0    0  501    0  0.00000000000E+00  0.00000000000E+00  0.20208681185E+04  0.20208681185E+04  0.25500000920E-02 0.  1.
       -2   -1    0    0    0  501  0.00000000000E+00  0.00000000000E+00 -0.14319253997E+04  0.14319253997E+04  0.25500000920E-02 0. -1.
    10030    2    1    2    0    0  0.00000000000E+00  0.00000000000E+00  0.58894271882E+03  0.34527935181E+04  0.34021948141E+04 0.  0.
        4    1    3    3  502    0  0.30284540645E+03  0.14947570226E+04  0.10591471356E+04  0.18568274461E+04  0.12699999809E+01 0.  1.
       -4    1    3    3    0  502 -0.30284540645E+03 -0.14947570226E+04 -0.47020441676E+03  0.15959660721E+04  0.12699999809E+01 0. -1.
</event>
<event>
 5   0  0.6218695E-07  0.3342189E+04  0.7818609E-02  0.8152243E-01
        1   -1    0    0  501    0  0.00000000000E+00  0.00000000000E+00  0.33141173694E+04  0.33141173694E+04  0.50400001928E-02 0.  1.
       -1   -1    0    0    0  501  0.00000000000E+00  0.00000000000E+00 -0.84262469384E+03  0.84262469385E+03  0.50400001928E-02 0. -1.
    10030    2    1    2    0    0  0.00000000000E+00  0.00000000000E+00  0.24714926755E+04  0.41567420632E+04  0.33421891830E+04 0.  0.
        2    1    3    3  502    0  0.25835627156E+03  0.14243659702E+04  0.19741597150E+03  0.14610063128E+04  0.25500000920E-02 0. -1.
       -2    1    3    3    0  502 -0.25835627156E+03 -0.14243659702E+04  0.22740767040E+04  0.26957357504E+04  0.25500000920E-02 0.  1.
</event>
<event>
 5   0  0.6134625E-07  0.3440769E+04  0.7818609E-02  0.8127972E-01
        1   -1    0    0  501    0  0.00000000000E+00  0.00000000000E+00  0.15430834635E+04  0.15430834635E+04  0.50400001928E-02 0. -1.
       -1   -1    0    0    0  501  0.00000000000E+00  0.00000000000E+00 -0.19180573592E+04  0.19180573592E+04  0.50400001928E-02 0.  1.
    10030    2    1    2    0    0  0.00000000000E+00  0.00000000000E+00 -0.37497389572E+03  0.34611408226E+04  0.34407688634E+04 0.  0.
        1    1    3    3  502    0  0.65318417446E+02  0.13749795808E+04  0.85055662474E+03  0.16181106004E+04  0.50400001928E-02 0. -1.
       -1    1    3    3    0  502 -0.65318417446E+02 -0.13749795808E+04 -0.12255305205E+04  0.18430302222E+04  0.50400001928E-02 0.  1.
</event>
<event>
 5   0  0.1948507E-06  0.3341115E+04  0.7818609E-02  0.8152512E-01
       -2   -1    0    0    0  501  0.00000000000E+00  0.00000000000E+00  0.11692023694E+04  0.11692023694E+04  0.25500000920E-02 0. -1.
        2   -1    0    0  501    0  0.00000000000E+00  0.00000000000E+00 -0.23868947377E+04  0.23868947377E+04  0.25500000920E-02 0.  1.
    10030    2    1    2    0    0  0.00000000000E+00  0.00000000000E+00 -0.12176923683E+04  0.35560971071E+04  0.33411153723E+04 0.  0.
        1    1    3    3  502    0  0.51712295994E+03  0.10241316282E+04  0.68357690959E+03  0.13354920962E+04  0.50400001928E-02 0. -1.
       -1    1    3    3    0  502 -0.51712295994E+03 -0.10241316282E+04 -0.19012692779E+04  0.22206050109E+04  0.50400001928E-02 0.  1.
</event>
<event>
 5   0  0.6134625E-07  0.3405942E+04  0.7818609E-02  0.8136449E-01
       -3   -1    0    0    0  501  0.00000000000E+00  0.00000000000E+00  0.14893055371E+04  0.14893055405E+04  0.10100000352E+00 0. -1.
        3   -1    0    0  501    0  0.00000000000E+00  0.00000000000E+00 -0.19472906779E+04  0.19472906805E+04  0.10100000352E+00 0.  1.
    10030    2    1    2    0    0  0.00000000000E+00  0.00000000000E+00 -0.45798514080E+03  0.34365962210E+04  0.34059423361E+04 0.  0.
        5    1    3    3  502    0  0.54911347544E+03  0.15798634286E+04  0.94194195294E+02  0.16752279542E+04  0.46999998093E+01 0. -1.
       -5    1    3    3    0  502 -0.54911347544E+03 -0.15798634286E+04 -0.55217933610E+03  0.17613682668E+04  0.46999998093E+01 0.  1.
</event>
<event>
 5   0  0.1911477E-06  0.3398206E+04  0.7818609E-02  0.8138347E-01
       -2   -1    0    0    0  501  0.00000000000E+00  0.00000000000E+00  0.35402752828E+04  0.35402752828E+04  0.25500000920E-02 0.  1.
        2   -1    0    0  501    0  0.00000000000E+00  0.00000000000E+00 -0.81545932998E+03  0.81545932999E+03  0.25500000920E-02 0. -1.
    10030    2    1    2    0    0  0.00000000000E+00  0.00000000000E+00  0.27248159529E+04  0.43557346128E+04  0.33982057090E+04 0.  0.
        5    1    3    3  502    0 -0.34153588275E+03 -0.74348353284E+03 -0.54632387646E+03  0.98382233701E+03  0.46999998093E+01 0. -1.
       -5    1    3    3    0  502  0.34153588275E+03  0.74348353284E+03  0.32711398293E+04  0.33719122758E+04  0.46999998093E+01 0.  1.
</event>
<event>
 5   0  0.6218695E-07  0.3394764E+04  0.7818609E-02  0.8139192E-01
        1   -1    0    0  501    0  0.00000000000E+00  0.00000000000E+00  0.22959792335E+04  0.22959792335E+04  0.50400001928E-02 0. -1.
       -1   -1    0    0    0  501  0.00000000000E+00  0.00000000000E+00 -0.12548486323E+04  0.12548486323E+04  0.50400001928E-02 0.  1.
    10030    2    1    2    0    0  0.00000000000E+00  0.00000000000E+00  0.10411306012E+04  0.35508278658E+04  0.33947644401E+04 0.  0.
        2    1    3    3  502    0  0.11250361086E+04  0.38092213217E+03  0.17888674542E+04  0.21472900794E+04  0.25500000920E-02 0. -1.
       -2    1    3    3    0  502 -0.11250361086E+04 -0.38092213217E+03 -0.74773685298E+03  0.14035377864E+04  0.25500000920E-02 0.  1.
</event>
<event>
 5   0  0.1880301E-06  0.3434458E+04  0.7818609E-02  0.8129501E-01
       -2   -1    0    0    0  501  0.00000000000E+00  0.00000000000E+00  0.14444698855E+04  0.14444698855E+04  0.25500000920E-02 0. -1.
        2   -1    0    0  501    0  0.00000000000E+00  0.00000000000E+00 -0.20414931747E+04  0.20414931747E+04  0.25500000920E-02 0.  1.
    10030    2    1    2    0    0  0.00000000000E+00  0.00000000000E+00 -0.59702328912E+03  0.34859630602E+04  0.34344579848E+04 0.  0.
        4    1    3    3  502    0  0.90762716106E+03  0.14042344346E+04  0.98781905734E+02  0.16749390701E+04  0.12699999809E+01 0.  1.
       -4    1    3    3    0  502 -0.90762716106E+03 -0.14042344346E+04 -0.69580519485E+03  0.18110239901E+04  0.12699999809E+01 0. -1.
</event>
<event>
 5   0  0.1797075E-06  0.3426830E+04  0.7818609E-02  0.8131353E-01
       -2   -1    0    0    0  501  0.00000000000E+00  0.00000000000E+00  0.13842553509E+04  0.13842553510E+04  0.25500000920E-02 0. -1.
        2   -1    0    0  501    0  0.00000000000E+00  0.00000000000E+00 -0.21208445557E+04  0.21208445557E+04  0.25500000920E-02 0.  1.
    10030    2    1    2    0    0  0.00000000000E+00  0.00000000000E+00 -0.73658920478E+03  0.35050999067E+04  0.34268296863E+04 0.  0.
        2    1    3    3  502    0  0.10795888168E+04 -0.12146321437E+04 -0.92378939923E+03  0.18692859898E+04  0.25500000920E-02 0.  1.
       -2    1    3    3    0  502 -0.10795888168E+04  0.12146321437E+04  0.18720019445E+03  0.16358139168E+04  0.25500000920E-02 0. -1.
</event>
<event>
 5   0  0.6134625E-07  0.2549186E+04  0.7818609E-02  0.8385669E-01
       -1   -1    0    0    0  501  0.00000000000E+00  0.00000000000E+00  0.82755409317E+03  0.82755409318E+03  0.50400001928E-02 0. -1.
        1   -1    0    0  501    0  0.00000000000E+00  0.00000000000E+00 -0.19631193619E+04  0.19631193619E+04  0.50400001928E-02 0.  1.
    10030    2    1    2    0    0  0.00000000000E+00  0.00000000000E+00 -0.11355652687E+04  0.27906734551E+04  0.25491861159E+04 0.  0.
        1    1    3    3  502    0 -0.68137165052E+03 -0.19942268465E+03  0.59105672774E+03  0.92378828133E+03  0.50400001928E-02 0. -1.
       -1    1    3    3    0  502  0.68137165052E+03  0.19942268465E+03 -0.17266219965E+04  0.18668851738E+04  0.50400001928E-02 0.  1.
</event>
<event>
 5   0  0.1797075E-06  0.3394319E+04  0.7818609E-02  0.8139302E-01
       -2   -1    0    0    0  501  0.00000000000E+00  0.00000000000E+00  0.12447889707E+04  0.12447889707E+04  0.25500000920E-02 0. -1.
        2   -1    0    0  501    0  0.00000000000E+00  0.00000000000E+00 -0.23139259874E+04  0.23139259874E+04  0.25500000920E-02 0.  1.
    10030    2    1    2    0    0  0.00000000000E+00  0.00000000000E+00 -0.10691370167E+04  0.35587149581E+04  0.33943185167E+04 0.  0.
        2    1    3    3  502    0 -0.88627350247E+03 -0.14302438588E+04 -0.76729067932E+03  0.18492736962E+04  0.25500000920E-02 0.  1.
       -2    1    3    3    0  502  0.88627350247E+03  0.14302438588E+04 -0.30184633739E+03  0.17094412620E+04  0.25500000920E-02 0. -1.
</event>
<event>
 5   0  0.6218695E-07  0.3383170E+04  0.7818609E-02  0.8142049E-01
        1   -1    0    0  501    0  0.00000000000E+00  0.00000000000E+00  0.26186823208E+04  0.26186823208E+04  0.50400001928E-02 0.  1.
       -1   -1    0    0    0  501  0.00000000000E+00  0.00000000000E+00 -0.10927100836E+04  0.10927100836E+04  0.50400001928E-02 0. -1.
    10030    2    1    2    0    0  0.00000000000E+00  0.00000000000E+00  0.15259722373E+04  0.37113924044E+04  0.33831704525E+04 0.  0.
        2    1    3    3  502    0 -0.13535645748E+04 -0.10132364573E+04  0.81972848645E+03  0.18790263351E+04  0.25500000920E-02 0. -1.
       -2    1    3    3    0  502  0.13535645748E+04  0.10132364573E+04  0.70624375081E+03  0.18323660693E+04  0.25500000920E-02 0.  1.
</event>
<event>
 5   0  0.6146388E-07  0.3378515E+04  0.7818609E-02  0.8143200E-01
        1   -1    0    0  501    0  0.00000000000E+00  0.00000000000E+00  0.14758178931E+04  0.14758178931E+04  0.50400001928E-02 0. -1.
       -1   -1    0    0    0  501  0.00000000000E+00  0.00000000000E+00 -0.19335651670E+04  0.19335651670E+04  0.50400001928E-02 0.  1.
    10030    2    1    2    0    0  0.00000000000E+00  0.00000000000E+00 -0.45774727390E+03  0.34093830602E+04  0.33785145085E+04 0.  0.
        4    1    3    3  502    0 -0.47746691416E+03 -0.39703873674E+03  0.13564586508E+04  0.14918431877E+04  0.12699999809E+01 0. -1.
       -4    1    3    3    0  502  0.47746691416E+03  0.39703873674E+03 -0.18142059247E+04  0.19175398725E+04  0.12699999809E+01 0.  1.
</event>
<event>
 5   0  0.1948507E-06  0.3317106E+04  0.7818609E-02  0.8158556E-01
        2   -1    0    0  501    0  0.00000000000E+00  0.00000000000E+00  0.13243008051E+04  0.13243008051E+04  0.25500000920E-02 0. -1.
       -2   -1    0    0    0  501  0.00000000000E+00  0.00000000000E+00 -0.20771698035E+04  0.20771698035E+04  0.25500000920E-02 0.  1.
    10030    2    1    2    0    0  0.00000000000E+00  0.00000000000E+00 -0.75286899846E+03  0.34014706086E+04  0.33171057524E+04 0.  0.
        1    1    3    3  502    0  0.12254108909E+04 -0.84301293532E+03  0.37605117394E+03  0.15341828920E+04  0.50400001928E-02 0. -1.
       -1    1    3    3    0  502 -0.12254108909E+04  0.84301293532E+03 -0.11289201724E+04  0.18672877166E+04  0.50400001928E-02 0.  1.
</event>
<event>
 5   0  0.1797075E-06  0.3364066E+04  0.7818609E-02  0.8146782E-01
       -2   -1    0    0    0  501  0.00000000000E+00  0.00000000000E+00  0.95371817271E+03  0.95371817272E+03  0.25500000920E-02 0. -1.
        2   -1    0    0  501    0  0.00000000000E+00  0.00000000000E+00 -0.29665323544E+04  0.29665323544E+04  0.25500000920E-02 0.  1.
    10030    2    1    2    0    0  0.00000000000E+00  0.00000000000E+00 -0.20128141817E+04  0.39202505271E+04  0.33640664776E+04 0.  0.
        2    1    3    3  502    0 -0.20993216233E+03  0.14294985776E+04 -0.28020321457E+01  0.14448340900E+04  0.25500000920E-02 0. -1.
       -2    1    3    3    0  502  0.20993216233E+03 -0.14294985776E+04 -0.20100121496E+04  0.24754164372E+04  0.25500000920E-02 0.  1.
</event>
<event>
 5   0  0.6134625E-07  0.3415298E+04  0.7818609E-02  0.8134162E-01
        1   -1    0    0  501    0  0.00000000000E+00  0.00000000000E+00  0.97948254117E+03  0.97948254118E+03  0.50400001928E-02 0. -1.
       -1   -1    0    0    0  501  0.00000000000E+00  0.00000000000E+00 -0.29771481638E+04  0.29771481638E+04  0.50400001928E-02 0.  1.
    10030    2    1    2    0    0  0.00000000000E+00  0.00000000000E+00 -0.19976656226E+04  0.39566307050E+04  0.34152977317E+04 0.  0.
        1    1    3    3  502    0 -0.16495054644E+04 -0.39726777802E+03 -0.12228006786E+04  0.20913946218E+04  0.50400001928E-02 0. -1.
       -1    1    3    3    0  502  0.16495054644E+04  0.39726777802E+03 -0.77486494409E+03  0.18652360832E+04  0.50400001928E-02 0.  1.
</event>
<event>
 5   0  0.6218695E-07  0.3457426E+04  0.7818609E-02  0.8123954E-01
       -1   -1    0    0    0  501  0.00000000000E+00  0.00000000000E+00  0.16073727830E+04  0.16073727830E+04  0.50400001928E-02 0.  1.
        1   -1    0    0  501    0  0.00000000000E+00  0.00000000000E+00 -0.18592133562E+04  0.18592133562E+04  0.50400001928E-02 0. -1.
    10030    2    1    2    0    0  0.00000000000E+00  0.00000000000E+00 -0.25184057323E+03  0.34665861392E+04  0.34574261795E+04 0.  0.
        2    1    3    3  502    0 -0.43806059249E+02 -0.14862305815E+04  0.75825991675E+03  0.16690591402E+04  0.25500000920E-02 0.  1.
       -2    1    3    3    0  502  0.43806059249E+02  0.14862305815E+04 -0.10101004900E+04  0.17975269990E+04  0.25500000920E-02 0. -1.
</event>
<event>
 5   0  0.1948507E-06  0.3380502E+04  0.7818609E-02  0.8142708E-01
        2   -1    0    0  501    0  0.00000000000E+00  0.00000000000E+00  0.20373507949E+04  0.20373507949E+04  0.25500000920E-02 0. -1.
       -2   -1    0    0    0  501  0.00000000000E+00  0.00000000000E+00 -0.14022858700E+04  0.14022858700E+04  0.25500000920E-02 0.  1.
    10030    2    1    2    0    0  0.00000000000E+00  0.00000000000E+00  0.63506492489E+03  0.34396366649E+04  0.33805018752E+04 0.  0.
        1    1    3    3  502    0  0.10676109838E+04  0.13331413082E+03  0.16439398793E+04  0.19647147877E+04  0.50400001928E-02 0. -1.
       -1    1    3    3    0  502 -0.10676109838E+04 -0.13331413082E+03 -0.10088749544E+04  0.14749218772E+04  0.50400001928E-02 0.  1.
</event>
<event>
 5   0  0.1911477E-06  0.2929782E+04  0.7818609E-02  0.8264071E-01
       -2   -1    0    0    0  501  0.00000000000E+00  0.00000000000E+00  0.18010791324E+04  0.18010791324E+04  0.25500000920E-02 0.  1.
        2   -1    0    0  501    0  0.00000000000E+00  0.00000000000E+00 -0.11914554944E+04  0.11914554944E+04  0.25500000920E-02 0. -1.
    10030    2    1    2    0    0  0.00000000000E+00  0.00000000000E+00  0.60962363802E+03  0.29925346268E+04  0.29297819906E+04 0.  0.
        5    1    3    3  502    0 -0.11019307128E+04 -0.73916476884E+03  0.93880585430E+03  0.16254212910E+04  0.46999998093E+01 0.  1.
       -5    1    3    3    0  502  0.11019307128E+04  0.73916476884E+03 -0.32918221628E+03  0.13671133357E+04  0.46999998093E+01 0. -1.
</event>
<event>
 5   0  0.6134625E-07  0.3403012E+04  0.7818609E-02  0.8137168E-01
        1   -1    0    0  501    0  0.00000000000E+00  0.00000000000E+00  0.14834024464E+04  0.14834024464E+04  0.50400001928E-02 0.  1.
       -1   -1    0    0    0  501  0.00000000000E+00  0.00000000000E+00 -0.19516766229E+04  0.19516766229E+04  0.50400001928E-02 0. -1.
    10030    2    1    2    0    0  0.00000000000E+00  0.00000000000E+00 -0.46827417652E+03  0.34350790693E+04  0.34030115350E+04 0.  0.
        1    1    3    3  502    0 -0.62460738105E+03 -0.15437730906E+04 -0.58635514831E+03  0.17655543310E+04  0.50400001928E-02 0.  1.
       -1    1    3    3    0  502  0.62460738105E+03  0.15437730906E+04  0.11808097179E+03  0.16695247383E+04  0.50400001928E-02 0. -1.
</event>
<event>
 5   0  0.6134625E-07  0.3255443E+04  0.7818609E-02  0.8174326E-01
       -3   -1    0    0    0  501  0.00000000000E+00  0.00000000000E+00  0.14818301647E+04  0.14818301681E+04  0.10100000352E+00 0.  1.
        3   -1    0    0  501    0  0.00000000000E+00  0.00000000000E+00 -0.17879766239E+04  0.17879766268E+04  0.10100000352E+00 0. -1.
    10030    2    1    2    0    0  0.00000000000E+00  0.00000000000E+00 -0.30614645922E+03  0.32698067949E+04  0.32554432604E+04 0.  0.
        3    1    3    3  502    0 -0.11592413193E+04 -0.21798393336E+03 -0.12796817730E+04  0.17403858428E+04  0.10100000352E+00 0. -1.
       -3    1    3    3    0  502  0.11592413193E+04  0.21798393336E+03  0.97353531374E+03  0.15294209521E+04  0.10100000352E+00 0.  1.
</event>
<event>
 5   0  0.1880301E-06  0.3447825E+04  0.7818609E-02  0.8126267E-01
       -2   -1    0    0    0  501  0.00000000000E+00  0.00000000000E+00  0.11470710225E+04  0.11470710225E+04  0.25500000920E-02 0.  1.
        2   -1    0    0  501    0  0.00000000000E+00  0.00000000000E+00 -0.25908368214E+04  0.25908368214E+04  0.25500000920E-02 0. -1.
    10030    2    1    2    0    0  0.00000000000E+00  0.00000000000E+00 -0.14437657988E+04  0.37379078439E+04  0.34478247298E+04 0.  0.
        4    1    3    3  502    0 -0.75281881915E+03  0.80873328965E+03  0.71273819397E+03  0.13148319491E+04  0.12699999809E+01 0.  1.
       -4    1    3    3    0  502  0.75281881915E+03 -0.80873328965E+03 -0.21565039928E+04  0.24230758948E+04  0.12699999809E+01 0. -1.
</event>
<event>
 5   0  0.1880301E-06  0.3414587E+04  0.7818609E-02  0.8134336E-01
        2   -1    0    0  501    0  0.00000000000E+00  0.00000000000E+00  0.24733560124E+04  0.24733560124E+04  0.25500000920E-02 0. -1.
       -2   -1    0    0    0  501  0.00000000000E+00  0.00000000000E+00 -0.11785002594E+04  0.11785002594E+04  0.25500000920E-02 0.  1.
    10030    2    1    2    0    0  0.00000000000E+00  0.00000000000E+00  0.12948557530E+04  0.36518562718E+04  0.34145867699E+04 0.  0.
        4    1    3    3  502    0  0.11921892341E+04 -0.21876410456E+03  0.19333392476E+04  0.22818797432E+04  0.12699999809E+01 0. -1.
       -4    1    3    3    0  502 -0.11921892341E+04  0.21876410456E+03 -0.63848349458E+03  0.13699765286E+04  0.12699999809E+01 0.  1.
</event>
<event>
 5   0  0.1880301E-06  0.3275845E+04  0.7818609E-02  0.8169069E-01
        2   -1    0    0  501    0  0.00000000000E+00  0.00000000000E+00  0.24364466907E+04  0.24364466907E+04  0.25500000920E-02 0.  1.
       -2   -1    0    0    0  501  0.00000000000E+00  0.00000000000E+00 -0.11011078208E+04  0.11011078208E+04  0.25500000920E-02 0. -1.
    10030    2    1    2    0    0  0.00000000000E+00  0.00000000000E+00  0.13353388699E+04  0.35375545115E+04  0.32758452382E+04 0.  0.
        4    1    3    3  502    0  0.62504115640E+02 -0.84594290889E+03  0.21807741170E+04  0.23399366512E+04  0.12699999809E+01 0.  1.
       -4    1    3    3    0  502 -0.62504115640E+02  0.84594290889E+03 -0.84543524703E+03  0.11976178603E+04  0.12699999809E+01 0. -1.
</event>
<event>
 5   0  0.1339844E-06  0.3321978E+04  0.7818609E-02  0.8157325E-01
       -2   -1    0    0    0  501  0.00000000000E+00  0.00000000000E+00  0.10315490954E+04  0.10315490954E+04  0.25500000920E-02 0. -1.
        2   -1    0    0  501    0  0.00000000000E+00  0.00000000000E+00 -0.26745066380E+04  0.26745066380E+04  0.25500000920E-02 0.  1.
    10030    2    1    2    0    0  0.00000000000E+00  0.00000000000E+00 -0.16429575426E+04  0.37060557334E+04  0.33219782679E+04 0.  0.
        3    1    3    3  502    0 -0.12334830307E+03  0.14497463468E+04  0.72342627483E+02  0.14567816377E+04  0.10100000352E+00 0. -1.
       -3    1    3    3    0  502  0.12334830307E+03 -0.14497463468E+04 -0.17153001700E+04  0.22492740957E+04  0.10100000352E+00 0.  1.
</event>
<event>
 5   0  0.6134625E-07  0.3412139E+04  0.7818609E-02  0.8134933E-01
       -1   -1    0    0    0  501  0.00000000000E+00  0.00000000000E+00  0.13131422282E+04  0.13131422282E+04  0.50400001928E-02 0.  1.
        1   -1    0    0  501    0  0.00000000000E+00  0.00000000000E+00 -0.22165715990E+04  0.22165715990E+04  0.50400001928E-02 0. -1.
    10030    2    1    2    0    0  0.00000000000E+00  0.00000000000E+00 -0.90342937079E+03  0.35297138272E+04  0.34121393691E+04 0.  0.
        1    1    3    3  502    0  0.13958410278E+03  0.93379035341E+03 -0.19216734730E+04  0.21410924974E+04  0.50400001928E-02 0. -1.
       -1    1    3    3    0  502 -0.13958410278E+03 -0.93379035341E+03  0.10182441022E+04  0.13886213298E+04  0.50400001928E-02 0.  1.
</event>
<event>
 5   0  0.1797075E-06  0.3395222E+04  0.7818609E-02  0.8139080E-01
        2   -1    0    0  501    0  0.00000000000E+00  0.00000000000E+00  0.18692303090E+04  0.18692303090E+04  0.25500000920E-02 0.  1.
       -2   -1    0    0    0  501  0.00000000000E+00  0.00000000000E+00 -0.15417481183E+04  0.15417481183E+04  0.25500000920E-02 0. -1.
    10030    2    1    2    0    0  0.00000000000E+00  0.00000000000E+00  0.32748219077E+03  0.34109784273E+04  0.33952215313E+04 0.  0.
        2    1    3    3  502    0 -0.24095035670E+03  0.13683333463E+04 -0.81622886451E+03  0.16114039779E+04  0.25500000920E-02 0. -1.
       -2    1    3    3    0  502  0.24095035670E+03 -0.13683333463E+04  0.11437110553E+04  0.17995744494E+04  0.25500000920E-02 0.  1.
</event>
<event>
 5   0  0.1948507E-06  0.3421312E+04  0.7818609E-02  0.8132695E-01
       -2   -1    0    0    0  501  0.00000000000E+00  0.00000000000E+00  0.17365073965E+04  0.17365073965E+04  0.25500000920E-02 0. -1.
        2   -1    0    0  501    0  0.00000000000E+00  0.00000000000E+00 -0.16851890306E+04  0.16851890306E+04  0.25500000920E-02 0.  1.
    10030    2    1    2    0    0  0.00000000000E+00  0.00000000000E+00  0.51318365942E+02  0.34216964271E+04  0.34213115708E+04 0.  0.
        1    1    3    3  502    0 -0.30486077170E+03 -0.21835698796E+03 -0.16435772016E+04  0.16858131219E+04  0.50400001928E-02 0.  1.
       -1    1    3    3    0  502  0.30486077170E+03  0.21835698796E+03  0.16948955675E+04  0.17358833052E+04  0.50400001928E-02 0. -1.
</event>
<event>
 5   0  0.6218695E-07  0.2859033E+04  0.7818609E-02  0.8285172E-01
       -1   -1    0    0    0  501  0.00000000000E+00  0.00000000000E+00  0.16396519981E+04  0.16396519981E+04  0.50400001928E-02 0. -1.
        1   -1    0    0  501    0  0.00000000000E+00  0.00000000000E+00 -0.12463120702E+04  0.12463120702E+04  0.50400001928E-02 0.  1.
    10030    2    1    2    0    0  0.00000000000E+00  0.00000000000E+00  0.39333992796E+03  0.28859640683E+04  0.28590334564E+04 0.  0.
        2    1    3    3  502    0 -0.10598290463E+04 -0.40808363626E+03 -0.67969464418E+03  0.13235386926E+04  0.25500000920E-02 0.  1.
       -2    1    3    3    0  502  0.10598290463E+04  0.40808363626E+03  0.10730345721E+04  0.15624253757E+04  0.25500000920E-02 0. -1.
</event>
<event>
 5   0  0.6218695E-07  0.3543505E+04  0.7818609E-02  0.8103556E-01
        1   -1    0    0  501    0  0.00000000000E+00  0.00000000000E+00  0.22146834075E+04  0.22146834075E+04  0.50400001928E-02 0. -1.
       -1   -1    0    0    0  501  0.00000000000E+00  0.00000000000E+00 -0.14174068944E+04  0.14174068944E+04  0.50400001928E-02 0.  1.
    10030    2    1    2    0    0  0.00000000000E+00  0.00000000000E+00  0.79727651305E+03  0.36320903019E+04  0.35435053440E+04 0.  0.
        2    1    3    3  502    0 -0.76085395778E+03 -0.11629522098E+04  0.15250890834E+04  0.20633112464E+04  0.25500000920E-02 0. -1.
       -2    1    3    3    0  502  0.76085395778E+03  0.11629522098E+04 -0.72781257031E+03  0.15687790555E+04  0.25500000920E-02 0.  1.
</event>
<event>
 5   0  0.1880301E-06  0.3287701E+04  0.7818609E-02  0.8166032E-01
        2   -1    0    0  501    0  0.00000000000E+00  0.00000000000E+00  0.25038339740E+04  0.25038339740E+04  0.25500000920E-02 0. -1.
       -2   -1    0    0    0  501  0.00000000000E+00  0.00000000000E+00 -0.10792429450E+04  0.10792429450E+04  0.25500000920E-02 0.  1.
    10030    2    1    2    0    0  0.00000000000E+00  0.00000000000E+00  0.14245910289E+04  0.35830769190E+04  0.32877014171E+04 0.  0.
        4    1    3    3  502    0 -0.15832172311E+04  0.42971377755E+03  0.59792533876E+03  0.17460661657E+04  0.12699999809E+01 0.  1.
       -4    1    3    3    0  502  0.15832172311E+04 -0.42971377755E+03  0.82666569019E+03  0.18370107533E+04  0.12699999809E+01 0. -1.
</event>
<event>
 5   0  0.1880301E-06  0.3386048E+04  0.7818609E-02  0.8141339E-01
       -2   -1    0    0    0  501  0.00000000000E+00  0.00000000000E+00  0.10700826407E+04  0.10700826407E+04  0.25500000920E-02 0.  1.
        2   -1    0    0  501    0  0.00000000000E+00  0.00000000000E+00 -0.26786067354E+04  0.26786067354E+04  0.25500000920E-02 0. -1.
    10030    2    1    2    0    0  0.00000000000E+00  0.00000000000E+00 -0.16085240947E+04  0.37486893761E+04  0.33860481797E+04 0.  0.
        4    1    3    3  502    0  0.46396627606E+03 -0.15724790716E+04 -0.33668640543E+03  0.16737127843E+04  0.12699999809E+01 0.  1.
       -4    1    3    3    0  502 -0.46396627606E+03  0.15724790716E+04 -0.12718376892E+04  0.20749765918E+04  0.12699999809E+01 0. -1.
</event>
<event>
 5   0  0.1880301E-06  0.3406821E+04  0.7818609E-02  0.8136234E-01
        2   -1    0    0  501    0  0.00000000000E+00  0.00000000000E+00  0.17189517850E+04  0.17189517850E+04  0.25500000920E-02 0. -1.
       -2   -1    0    0    0  501  0.00000000000E+00  0.00000000000E+00 -0.16880101131E+04  0.16880101131E+04  0.25500000920E-02 0.  1.
    10030    2    1    2    0    0  0.00000000000E+00  0.00000000000E+00  0.30941671914E+02  0.34069618981E+04  0.34068213907E+04 0.  0.
        4    1    3    3  502    0  0.32806271393E+03 -0.80715858239E+03  0.14792512124E+04  0.17167748495E+04  0.12699999809E+01 0. -1.
       -4    1    3    3    0  502 -0.32806271393E+03  0.80715858239E+03 -0.14483095405E+04  0.16901870486E+04  0.12699999809E+01 0.  1.
</event>
<event>
 5   0  0.6134625E-07  0.2557295E+04  0.7818609E-02  0.8382853E-01
       -1   -1    0    0    0  501  0.00000000000E+00  0.00000000000E+00  0.10352047487E+04  0.10352047487E+04  0.50400001928E-02 0.  1.
        1   -1    0    0  501    0  0.00000000000E+00  0.00000000000E+00 -0.15793395893E+04  0.15793395893E+04  0.50400001928E-02 0. -1.
    10030    2    1    2    0    0  0.00000000000E+00  0.00000000000E+00 -0.54413484061E+03  0.26145443381E+04  0.25572953234E+04 0.  0.
        3    1    3    3  502    0  0.57803210323E+03 -0.88863116074E+03 -0.10030225955E+04  0.14593974063E+04  0.10100000352E+00 0. -1.
       -3    1    3    3    0  502 -0.57803210323E+03  0.88863116074E+03  0.45888775491E+03  0.11551469318E+04  0.10100000352E+00 0.  1.
</event>
<event>
 5   0  0.6134625E-07  0.3366195E+04  0.7818609E-02  0.8146253E-01
        1   -1    0    0  501    0  0.00000000000E+00  0.00000000000E+00  0.20658970044E+04  0.20658970044E+04  0.50400001928E-02 0. -1.
       -1   -1    0    0    0  501  0.00000000000E+00  0.00000000000E+00 -0.13712287070E+04  0.13712287070E+04  0.50400001928E-02 0.  1.
    10030    2    1    2    0    0  0.00000000000E+00  0.00000000000E+00  0.69466829739E+03  0.34371257113E+04  0.33661950496E+04 0.  0.
        5    1    3    3  502    0 -0.32562953091E+03 -0.15289973016E+04 -0.28944767739E+03  0.15898645816E+04  0.46999998093E+01 0. -1.
       -5    1    3    3    0  502  0.32562953091E+03  0.15289973016E+04  0.98411597479E+03  0.18472611298E+04  0.46999998093E+01 0.  1.
</event>
<event>
 5   0  0.6134625E-07  0.3352789E+04  0.7818609E-02  0.8149592E-01
       -1   -1    0    0    0  501  0.00000000000E+00  0.00000000000E+00  0.16302621802E+04  0.16302621802E+04  0.50400001928E-02 0.  1.
        1   -1    0    0  501    0  0.00000000000E+00  0.00000000000E+00 -0.17238320242E+04  0.17238320242E+04  0.50400001928E-02 0. -1.
    10030    2    1    2    0    0  0.00000000000E+00  0.00000000000E+00 -0.93569843986E+02  0.33540942044E+04  0.33527887820E+04 0.  0.
        3    1    3    3  502    0 -0.12182107902E+03 -0.18624684708E+03 -0.17089883193E+04  0.17234179264E+04  0.10100000352E+00 0. -1.
       -3    1    3    3    0  502  0.12182107902E+03  0.18624684708E+03  0.16154184753E+04  0.16306762781E+04  0.10100000352E+00 0.  1.
</event>
<event>
 5   0  0.1797075E-06  0.3172395E+04  0.7818609E-02  0.8196146E-01
       -2   -1    0    0    0  501  0.00000000000E+00  0.00000000000E+00  0.15389885294E+04  0.15389885294E+04  0.25500000920E-02 0. -1.
        2   -1    0    0  501    0  0.00000000000E+00  0.00000000000E+00 -0.16348545655E+04  0.16348545655E+04  0.25500000920E-02 0.  1.
    10030    2    1    2    0    0  0.00000000000E+00  0.00000000000E+00 -0.95866036048E+02  0.31738430949E+04  0.31723949461E+04 0.  0.
        2    1    3    3  502    0  0.15514400319E+04  0.27569970717E+03  0.13393533859E+03  0.15814282077E+04  0.25500000920E-02 0.  1.
       -2    1    3    3    0  502 -0.15514400319E+04 -0.27569970717E+03 -0.22980137464E+03  0.15924148872E+04  0.25500000920E-02 0. -1.
</event>
<event>
 5   0  0.1911477E-06  0.3333424E+04  0.7818609E-02  0.8154442E-01
        2   -1    0    0  501    0  0.00000000000E+00  0.00000000000E+00  0.17403996476E+04  0.17403996476E+04  0.25500000920E-02 0. -1.
       -2   -1    0    0    0  501  0.00000000000E+00  0.00000000000E+00 -0.15961443396E+04  0.15961443396E+04  0.25500000920E-02 0.  1.
    10030    2    1    2    0    0  0.00000000000E+00  0.00000000000E+00  0.14425530795E+03  0.33365439872E+04  0.33334240931E+04 0.  0.
        5    1    3    3  502    0 -0.13956414831E+04 -0.39002016859E+03 -0.75203602053E+03  0.16326393195E+04  0.46999998093E+01 0. -1.
       -5    1    3    3    0  502  0.13956414831E+04  0.39002016859E+03  0.89629132848E+03  0.17039046677E+04  0.46999998093E+01 0.  1.
</event>
<event>
 5   0  0.6218695E-07  0.3387262E+04  0.7818609E-02  0.8141040E-01
       -1   -1    0    0    0  501  0.00000000000E+00  0.00000000000E+00  0.23259771114E+04  0.23259771114E+04  0.50400001928E-02 0. -1.
        1   -1    0    0  501    0  0.00000000000E+00  0.00000000000E+00 -0.12331958725E+04  0.12331958725E+04  0.50400001928E-02 0.  1.
    10030    2    1    2    0    0  0.00000000000E+00  0.00000000000E+00  0.10927812388E+04  0.35591729839E+04  0.33872616511E+04 0.  0.
        2    1    3    3  502    0 -0.55034894645E+03  0.40174229519E+03 -0.10828192230E+04  0.12793663683E+04  0.25500000920E-02 0.  1.
       -2    1    3    3    0  502  0.55034894645E+03 -0.40174229519E+03  0.21756004619E+04  0.22798066156E+04  0.25500000920E-02 0. -1.
</event>
<event>
 5   0  0.6146388E-07  0.3180468E+04  0.7818609E-02  0.8193995E-01
       -1   -1    0    0    0  501  0.00000000000E+00  0.00000000000E+00  0.12631583680E+04  0.12631583680E+04  0.50400001928E-02 0.  1.
        1   -1    0    0  501    0  0.00000000000E+00  0.00000000000E+00 -0.20020004151E+04  0.20020004151E+04  0.50400001928E-02 0. -1.
    10030    2    1    2    0    0  0.00000000000E+00  0.00000000000E+00 -0.73884204711E+03  0.32651587831E+04  0.31804676242E+04 0.  0.
        4    1    3    3  502    0  0.62991480148E+03  0.13986419188E+04  0.61090344814E+02  0.15351630263E+04  0.12699999809E+01 0. -1.
       -4    1    3    3    0  502 -0.62991480148E+03 -0.13986419188E+04 -0.79993239193E+03  0.17299957568E+04  0.12699999809E+01 0.  1.
</event>
<event>
 5   0  0.1797075E-06  0.3402000E+04  0.7818609E-02  0.8137416E-01
        2   -1    0    0  501    0  0.00000000000E+00  0.00000000000E+00  0.22306011685E+04  0.22306011685E+04  0.25500000920E-02 0.  1.
       -2   -1    0    0    0  501  0.00000000000E+00  0.00000000000E+00 -0.12971395529E+04  0.12971395529E+04  0.25500000920E-02 0. -1.
    10030    2    1    2    0    0  0.00000000000E+00  0.00000000000E+00  0.93346161564E+03  0.35277407214E+04  0.34020000014E+04 0.  0.
        2    1    3    3  502    0 -0.67734323444E+03  0.61270420491E+03 -0.10212991942E+04  0.13701285867E+04  0.25500000920E-02 0. -1.
       -2    1    3    3    0  502  0.67734323444E+03 -0.61270420491E+03  0.19547608099E+04  0.21576121347E+04  0.25500000920E-02 0.  1.
</event>
<event>
 5   0  0.1880301E-06  0.3384567E+04  0.7818609E-02  0.8141704E-01
        2   -1    0    0  501    0  0.00000000000E+00  0.00000000000E+00  0.10026237880E+04  0.10026237880E+04  0.25500000920E-02 0.  1.
       -2   -1    0    0    0  501  0.00000000000E+00  0.00000000000E+00 -0.28563298791E+04  0.28563298791E+04  0.25500000920E-02 0. -1.
    10030    2    1    2    0    0  0.00000000000E+00  0.00000000000E+00 -0.18537060911E+04  0.38589536671E+04  0.33845674956E+04 0.  0.
        4    1    3    3  502    0 -0.15803444400E+04 -0.45202736121E+03 -0.46793925224E+03  0.17090307315E+04  0.12699999809E+01 0.  1.
       -4    1    3    3    0  502  0.15803444400E+04  0.45202736121E+03 -0.13857668389E+04  0.21499229356E+04  0.12699999809E+01 0. -1.
</event>
<event>
 5   0  0.6134625E-07  0.3165670E+04  0.7818609E-02  0.8197943E-01
       -1   -1    0    0    0  501  0.00000000000E+00  0.00000000000E+00  0.14258816475E+04  0.14258816476E+04  0.50400001928E-02 0. -1.
        1   -1    0    0  501    0  0.00000000000E+00  0.00000000000E+00 -0.17570651823E+04  0.17570651823E+04  0.50400001928E-02 0.  1.
    10030    2    1    2    0    0  0.00000000000E+00  0.00000000000E+00 -0.33118353478E+03  0.31829468299E+04  0.31656702273E+04 0.  0.
        1    1    3    3  502    0 -0.12415415151E+04  0.71842065281E+03  0.50724895541E+03  0.15214647780E+04  0.50400001928E-02 0. -1.
       -1    1    3    3    0  502  0.12415415151E+04 -0.71842065281E+03 -0.83843249019E+03  0.16614820519E+04  0.50400001928E-02 0.  1.
</event>
<event>
 5   0  0.1948507E-06  0.3406934E+04  0.7818609E-02  0.8136206E-01
        2   -1    0    0  501    0  0.00000000000E+00  0.00000000000E+00  0.19951357944E+04  0.19951357944E+04  0.25500000920E-02 0.  1.
       -2   -1    0    0    0  501  0.00000000000E+00  0.00000000000E+00 -0.14544376189E+04  0.14544376189E+04  0.25500000920E-02 0. -1.
    10030    2    1    2    0    0  0.00000000000E+00  0.00000000000E+00  0.54069817551E+03  0.34495734134E+04  0.34069344310E+04 0.  0.
        1    1    3    3  502    0 -0.10935435550E+04 -0.10069620162E+04  0.11126197953E+04  0.18568071568E+04  0.50400001928E-02 0.  1.
       -1    1    3    3    0  502  0.10935435550E+04  0.10069620162E+04 -0.57192161977E+03  0.15927662565E+04  0.50400001928E-02 0. -1.
</event>
<event>
 5   0  0.6218695E-07  0.3329029E+04  0.7818609E-02  0.8155548E-01
       -1   -1    0    0    0  501  0.00000000000E+00  0.00000000000E+00  0.95439082500E+03  0.95439082502E+03  0.50400001928E-02 0. -1.
        1   -1    0    0  501    0  0.00000000000E+00  0.00000000000E+00 -0.29030117581E+04  0.29030117581E+04  0.50400001928E-02 0.  1.
    10030    2    1    2    0    0  0.00000000000E+00  0.00000000000E+00 -0.19486209331E+04  0.38574025831E+04  0.33290285591E+04 0.  0.
        2    1    3    3  502    0 -0.21759112919E+03  0.65448667851E+03  0.78102524209E+03  0.10419688770E+04  0.25500000920E-02 0. -1.
       -2    1    3    3    0  502  0.21759112919E+03 -0.65448667851E+03 -0.27296461752E+04  0.28154337061E+04  0.25500000920E-02 0.  1.
</event>
<event>
 5   0  0.6146388E-07  0.3067774E+04  0.7818609E-02  0.8224638E-01
        1   -1    0    0  501    0  0.00000000000E+00  0.00000000000E+00  0.22346789244E+04  0.22346789244E+04  0.50400001928E-02 0.  1.
       -1   -1    0    0    0  501  0.00000000000E+00  0.00000000000E+00 -0.10528626782E+04  0.10528626783E+04  0.50400001928E-02 0. -1.
    10030    2    1    2    0    0  0.00000000000E+00  0.00000000000E+00  0.11818162462E+04  0.32875416027E+04  0.30677744620E+04 0.  0.
        4    1    3    3  502    0 -0.66783192908E+03 -0.23320107612E+03  0.20494479305E+04  0.21680914787E+04  0.12699999809E+01 0.  1.
       -4    1    3    3    0  502  0.66783192908E+03  0.23320107612E+03 -0.86763168434E+03  0.11194501239E+04  0.12699999809E+01 0. -1.
</event>
<event>
 5   0  0.6134625E-07  0.3425661E+04  0.7818609E-02  0.8131637E-01
       -1   -1    0    0    0  501  0.00000000000E+00  0.00000000000E+00  0.24189802403E+04  0.24189802403E+04  0.50400001928E-02 0.  1.
        1   -1    0    0  501    0  0.00000000000E+00  0.00000000000E+00 -0.12128202973E+04  0.12128202973E+04  0.50400001928E-02 0. -1.
    10030    2    1    2    0    0  0.00000000000E+00  0.00000000000E+00  0.12061599430E+04  0.36318005377E+04  0.34256610074E+04 0.  0.
        1    1    3    3  502    0 -0.16044310760E+04  0.20721277505E+03  0.64998120054E+01  0.16177695941E+04  0.50400001928E-02 0. -1.
       -1    1    3    3    0  502  0.16044310760E+04 -0.20721277505E+03  0.11996601310E+04  0.20140309436E+04  0.50400001928E-02 0.  1.
</event>
<event>
 5   0  0.6134625E-07  0.3367763E+04  0.7818609E-02  0.8145864E-01
       -1   -1    0    0    0  501  0.00000000000E+00  0.00000000000E+00  0.13658088764E+04  0.13658088764E+04  0.50400001928E-02 0. -1.
        1   -1    0    0  501    0  0.00000000000E+00  0.00000000000E+00 -0.20760280516E+04  0.20760280516E+04  0.50400001928E-02 0.  1.
    10030    2    1    2    0    0  0.00000000000E+00  0.00000000000E+00 -0.71021917518E+03  0.34418369280E+04  0.33677633769E+04 0.  0.
        1    1    3    3  502    0 -0.21894576001E+03  0.14328959441E+04  0.52066877305E+03  0.15402025853E+04  0.50400001928E-02 0. -1.
       -1    1    3    3    0  502  0.21894576001E+03 -0.14328959441E+04 -0.12308879482E+04  0.19016343428E+04  0.50400001928E-02 0.  1.
</event>
<event>
 5   0  0.6134625E-07  0.3321474E+04  0.7818609E-02  0.8157453E-01
       -1   -1    0    0    0  501  0.00000000000E+00  0.00000000000E+00  0.12181870746E+04  0.12181870746E+04  0.50400001928E-02 0.  1.
        1   -1    0    0  501    0  0.00000000000E+00  0.00000000000E+00 -0.22640594764E+04  0.22640594764E+04  0.50400001928E-02 0. -1.
    10030    2    1    2    0    0  0.00000000000E+00  0.00000000000E+00 -0.10458724018E+04  0.34822465510E+04  0.33214743656E+04 0.  0.
        1    1    3    3  502    0  0.20551640196E+03 -0.16448928416E+04 -0.41737209185E+03  0.17094177122E+04  0.50400001928E-02 0.  1.
       -1    1    3    3    0  502 -0.20551640196E+03  0.16448928416E+04 -0.62850030997E+03  0.17728288388E+04  0.50400001928E-02 0. -1.
</event>
<event>
 5   0  0.6134625E-07  0.3217988E+04  0.7818609E-02  0.8184083E-01
        3   -1    0    0  501    0  0.00000000000E+00  0.00000000000E+00  0.13208232532E+04  0.13208232570E+04  0.10100000352E+00 0.  1.
       -3   -1    0    0    0  501  0.00000000000E+00  0.00000000000E+00 -0.19600369078E+04  0.19600369104E+04  0.10100000352E+00 0. -1.
    10030    2    1    2    0    0  0.00000000000E+00  0.00000000000E+00 -0.63921365467E+03  0.32808601675E+04  0.32179883999E+04 0.  0.
        1    1    3    3  502    0  0.23952530327E+03  0.78857386754E+03 -0.17285034785E+04  0.19149269935E+04  0.50400001928E-02 0. -1.
       -1    1    3    3    0  502 -0.23952530327E+03 -0.78857386754E+03  0.10892898238E+04  0.13659331739E+04  0.50400001928E-02 0.  1.
</event>
<event>
 5   0  0.6218695E-07  0.3378722E+04  0.7818609E-02  0.8143148E-01
       -1   -1    0    0    0  501  0.00000000000E+00  0.00000000000E+00  0.13343705312E+04  0.13343705312E+04  0.50400001928E-02 0.  1.
        1   -1    0    0  501    0  0.00000000000E+00  0.00000000000E+00 -0.21387922872E+04  0.21387922872E+04  0.50400001928E-02 0. -1.
    10030    2    1    2    0    0  0.00000000000E+00  0.00000000000E+00 -0.80442175601E+03  0.34731628183E+04  0.33787224806E+04 0.  0.
        2    1    3    3  502    0  0.15952114856E+04 -0.46351462222E+03 -0.71803784784E+03  0.18097303224E+04  0.25500000920E-02 0. -1.
       -2    1    3    3    0  502 -0.15952114856E+04  0.46351462222E+03 -0.86383908170E+02  0.16634324959E+04  0.25500000920E-02 0.  1.
</event>
<event>
 5   0  0.6146388E-07  0.3342138E+04  0.7818609E-02  0.8152255E-01
        1   -1    0    0  501    0  0.00000000000E+00  0.00000000000E+00  0.16939478511E+04  0.16939478511E+04  0.50400001928E-02 0.  1.
       -1   -1    0    0    0  501  0.00000000000E+00  0.00000000000E+00 -0.16484988201E+04  0.16484988201E+04  0.50400001928E-02 0. -1.
    10030    2    1    2    0    0  0.00000000000E+00  0.00000000000E+00  0.45449030982E+02  0.33424466712E+04  0.33421376596E+04 0.  0.
        4    1    3    3  502    0  0.10320363943E+04 -0.11142071693E+04 -0.67441431155E+03  0.16617439670E+04  0.12699999809E+01 0. -1.
       -4    1    3    3    0  502 -0.10320363943E+04  0.11142071693E+04  0.71986334254E+03  0.16807027043E+04  0.12699999809E+01 0.  1.
</event>
<event>
 5   0  0.1797075E-06  0.3369122E+04  0.7818609E-02  0.8145527E-01
        2   -1    0    0  501    0  0.00000000000E+00  0.00000000000E+00  0.23939861789E+04  0.23939861789E+04  0.25500000920E-02 0. -1.
       -2   -1    0    0    0  501  0.00000000000E+00  0.00000000000E+00 -0.11853642537E+04  0.11853642537E+04  0.25500000920E-02 0.  1.
    10030    2    1    2    0    0  0.00000000000E+00  0.00000000000E+00  0.12086219252E+04  0.35793504326E+04  0.33691219273E+04 0.  0.
        2    1    3    3  502    0  0.10238469201E+04  0.53810828809E+03  0.19054446315E+04  0.22290227207E+04  0.25500000920E-02 0. -1.
       -2    1    3    3    0  502 -0.10238469201E+04 -0.53810828809E+03 -0.69682270633E+03  0.13503277119E+04  0.25500000920E-02 0.  1.
</event>
<event>
 5   0  0.1911477E-06  0.3403741E+04  0.7818609E-02  0.8136989E-01
        2   -1    0    0  501    0  0.00000000000E+00  0.00000000000E+00  0.17480862507E+04  0.17480862507E+04  0.25500000920E-02 0.  1.
       -2   -1    0    0    0  501  0.00000000000E+00  0.00000000000E+00 -0.16568767192E+04  0.16568767192E+04  0.25500000920E-02 0. -1.
    10030    2    1    2    0    0  0.00000000000E+00  0.00000000000E+00  0.91209531494E+02  0.34049629699E+04  0.34037411253E+04 0.  0.
        5    1    3    3  502    0 -0.18057047771E+03 -0.62991989277E+03  0.16168170330E+04  0.17445699118E+04  0.46999998093E+01 0.  1.
       -5    1    3    3    0  502  0.18057047771E+03  0.62991989277E+03 -0.15256075016E+04  0.16603930581E+04  0.46999998093E+01 0. -1.
</event>
<event>
 5   0  0.6134625E-07  0.3320791E+04  0.7818609E-02  0.8157625E-01
       -1   -1    0    0    0  501  0.00000000000E+00  0.00000000000E+00  0.10644988546E+04  0.10644988546E+04  0.50400001928E-02 0. -1.
        1   -1    0    0  501    0  0.00000000000E+00  0.00000000000E+00 -0.25898702860E+04  0.25898702861E+04  0.50400001928E-02 0.  1.
    10030    2    1    2    0    0  0.00000000000E+00  0.00000000000E+00 -0.15253714315E+04  0.36543691406E+04  0.33207914436E+04 0.  0.
        3    1    3    3  502    0 -0.13079145883E+04  0.77569495190E+03 -0.14964240994E+04  0.21334545517E+04  0.10100000352E+00 0.  1.
       -3    1    3    3    0  502  0.13079145883E+04 -0.77569495190E+03 -0.28947332125E+02  0.15209145890E+04  0.10100000352E+00 0. -1.
</event>
<event>
 5   0  0.1948507E-06  0.3372479E+04  0.7818609E-02  0.8144694E-01
        2   -1    0    0  501    0  0.00000000000E+00  0.00000000000E+00  0.18137967236E+04  0.18137967236E+04  0.25500000920E-02 0.  1.
       -2   -1    0    0    0  501  0.00000000000E+00  0.00000000000E+00 -0.15676525278E+04  0.15676525278E+04  0.25500000920E-02 0. -1.
    10030    2    1    2    0    0  0.00000000000E+00  0.00000000000E+00  0.24614419587E+03  0.33814492514E+04  0.33724786248E+04 0.  0.
        1    1    3    3  502    0  0.11359304599E+04  0.35470212363E+03  0.13209261572E+04  0.17779194355E+04  0.50400001928E-02 0.  1.
       -1    1    3    3    0  502 -0.11359304599E+04 -0.35470212363E+03 -0.10747819613E+04  0.16035298159E+04  0.50400001928E-02 0. -1.
</event>
<event>
 5   0  0.1948507E-06  0.3327788E+04  0.7818609E-02  0.8155860E-01
        2   -1    0    0  501    0  0.00000000000E+00  0.00000000000E+00  0.24987219985E+04  0.24987219985E+04  0.25500000920E-02 0.  1.
       -2   -1    0    0    0  501  0.00000000000E+00  0.00000000000E+00 -0.11079840016E+04  0.11079840016E+04  0.25500000920E-02 0. -1.
    10030    2    1    2    0    0  0.00000000000E+00  0.00000000000E+00  0.13907379970E+04  0.36067060001E+04  0.33277884540E+04 0.  0.
        1    1    3    3  502    0 -0.30628571576E+03 -0.16534027535E+03  0.24588243055E+04  0.24833375348E+04  0.50400001928E-02 0.  1.
       -1    1    3    3    0  502  0.30628571576E+03  0.16534027535E+03 -0.10680863085E+04  0.11233684653E+04  0.50400001928E-02 0. -1.
</event>
<event>
 5   0  0.1797075E-06  0.3334240E+04  0.7818609E-02  0.8154237E-01
        2   -1    0    0  501    0  0.00000000000E+00  0.00000000000E+00  0.33618434082E+04  0.33618434082E+04  0.25500000920E-02 0. -1.
       -2   -1    0    0    0  501  0.00000000000E+00  0.00000000000E+00 -0.82671600646E+03  0.82671600646E+03  0.25500000920E-02 0.  1.
    10030    2    1    2    0    0  0.00000000000E+00  0.00000000000E+00  0.25351274018E+04  0.41885594147E+04  0.33342403973E+04 0.  0.
        2    1    3    3  502    0  0.16037046588E+04  0.93648431536E+02  0.70766010919E+03  0.17553978157E+04  0.25500000920E-02 0.  1.
       -2    1    3    3    0  502 -0.16037046588E+04 -0.93648431536E+02  0.18274672926E+04  0.24331615990E+04  0.25500000920E-02 0. -1.
</event>
<event>
 5   0  0.1911477E-06  0.3439191E+04  0.7818609E-02  0.8128354E-01
       -2   -1    0    0    0  501  0.00000000000E+00  0.00000000000E+00  0.10001331954E+04  0.10001331954E+04  0.25500000920E-02 0.  1.
        2   -1    0    0  501    0  0.00000000000E+00  0.00000000000E+00 -0.29566144128E+04  0.29566144128E+04  0.25500000920E-02 0. -1.
    10030    2    1    2    0    0  0.00000000000E+00  0.00000000000E+00 -0.19564812174E+04  0.39567476082E+04  0.34391907306E+04 0.  0.
        5    1    3    3  502    0  0.35428578357E+03  0.69568345401E+03 -0.27409640101E+04  0.28499823998E+04  0.46999998093E+01 0. -1.
       -5    1    3    3    0  502 -0.35428578357E+03 -0.69568345401E+03  0.78448279268E+03  0.11067652084E+04  0.46999998093E+01 0.  1.
</event>
<event>
 5   0  0.6218695E-07  0.3486096E+04  0.7818609E-02  0.8117093E-01
       -1   -1    0    0    0  501  0.00000000000E+00  0.00000000000E+00  0.10828318551E+04  0.10828318551E+04  0.50400001928E-02 0. -1.
        1   -1    0    0  501    0  0.00000000000E+00  0.00000000000E+00 -0.28058059178E+04  0.28058059179E+04  0.50400001928E-02 0.  1.
    10030    2    1    2    0    0  0.00000000000E+00  0.00000000000E+00 -0.17229740627E+04  0.38886377730E+04  0.34860958261E+04 0.  0.
        2    1    3    3  502    0 -0.22436026112E+03 -0.74846196470E+03 -0.25995046512E+04  0.27143981416E+04  0.25500000920E-02 0.  1.
       -2    1    3    3    0  502  0.22436026112E+03  0.74846196470E+03  0.87653058850E+03  0.11742396314E+04  0.25500000920E-02 0. -1.
</event>
<event>
 5   0  0.1948507E-06  0.3366207E+04  0.7818609E-02  0.8146250E-01
       -2   -1    0    0    0  501  0.00000000000E+00  0.00000000000E+00  0.14469859666E+04  0.14469859666E+04  0.25500000920E-02 0. -1.
        2   -1    0    0  501    0  0.00000000000E+00  0.00000000000E+00 -0.19577500740E+04  0.19577500740E+04  0.25500000920E-02 0.  1.
    10030    2    1    2    0    0  0.00000000000E+00  0.00000000000E+00 -0.51076410739E+03  0.34047360407E+04  0.33662066979E+04 0.  0.
        1    1    3    3  502    0  0.34659380026E+03  0.75056410998E+03  0.12274691236E+04  0.14799169554E+04  0.50400001928E-02 0. -1.
       -1    1    3    3    0  502 -0.34659380026E+03 -0.75056410998E+03 -0.17382332310E+04  0.19248190852E+04  0.50400001928E-02 0.  1.
</event>
<event>
 5   0  0.6146388E-07  0.3290461E+04  0.7818609E-02  0.8165327E-01
        1   -1    0    0  501    0  0.00000000000E+00  0.00000000000E+00  0.15146303459E+04  0.15146303459E+04  0.50400001928E-02 0.  1.
       -1   -1    0    0    0  501  0.00000000000E+00  0.00000000000E+00 -0.17870913126E+04  0.17870913126E+04  0.50400001928E-02 0. -1.
    10030    2    1    2    0    0  0.00000000000E+00  0.00000000000E+00 -0.27246096672E+03  0.33017216585E+04  0.32904605957E+04 0.  0.
        4    1    3    3  502    0 -0.80204603568E+03 -0.95526404670E+03  0.94027562338E+03  0.15620266013E+04  0.12699999809E+01 0.  1.
       -4    1    3    3    0  502  0.80204603568E+03  0.95526404670E+03 -0.12127365901E+04  0.17396950572E+04  0.12699999809E+01 0. -1.
</event>
<event>
 5   0  0.1911477E-06  0.3388776E+04  0.7818609E-02  0.8140667E-01
        2   -1    0    0  501    0  0.00000000000E+00  0.00000000000E+00  0.14492792491E+04  0.14492792491E+04  0.25500000920E-02 0. -1.
       -2   -1    0    0    0  501  0.00000000000E+00  0.00000000000E+00 -0.19809501074E+04  0.19809501074E+04  0.25500000920E-02 0.  1.
    10030    2    1    2    0    0  0.00000000000E+00  0.00000000000E+00 -0.53167085836E+03  0.34302293565E+04  0.33887755217E+04 0.  0.
        5    1    3    3  502    0 -0.75852881227E+03 -0.15129836031E+04 -0.34708217075E+03  0.17277075752E+04  0.46999998093E+01 0.  1.
       -5    1    3    3    0  502  0.75852881227E+03  0.15129836031E+04 -0.18458868761E+03  0.17025217813E+04  0.46999998093E+01 0. -1.
</event>
<event>
 5   0  0.6134625E-07  0.2929006E+04  0.7818609E-02  0.8264299E-01
       -1   -1    0    0    0  501  0.00000000000E+00  0.00000000000E+00  0.85128561497E+03  0.85128561498E+03  0.50400001928E-02 0.  1.
        1   -1    0    0  501    0  0.00000000000E+00  0.00000000000E+00 -0.25194470142E+04  0.25194470142E+04  0.50400001928E-02 0. -1.
    10030    2    1    2    0    0  0.00000000000E+00  0.00000000000E+00 -0.16681613993E+04  0.33707326292E+04  0.29290059754E+04 0.  0.
        1    1    3    3  502    0  0.99753735497E+03 -0.87992963049E+03 -0.12896860475E+03  0.13364093049E+04  0.50400001928E-02 0.  1.
       -1    1    3    3    0  502 -0.99753735497E+03  0.87992963049E+03 -0.15391927945E+04  0.20343233243E+04  0.50400001928E-02 0. -1.
</event>
<event>
 5   0  0.6134625E-07  0.3271939E+04  0.7818609E-02  0.8170072E-01
       -1   -1    0    0    0  501  0.00000000000E+00  0.00000000000E+00  0.16130517593E+04  0.16130517593E+04  0.50400001928E-02 0. -1.
        1   -1    0    0  501    0  0.00000000000E+00  0.00000000000E+00 -0.16592129286E+04  0.16592129286E+04  0.50400001928E-02 0.  1.
    10030    2    1    2    0    0  0.00000000000E+00  0.00000000000E+00 -0.46161169313E+02  0.32722646878E+04  0.32719390786E+04 0.  0.
        3    1    3    3  502    0 -0.33247595090E+01 -0.52873233286E+02 -0.16583548262E+04  0.16592008235E+04  0.10100000352E+00 0.  1.
       -3    1    3    3    0  502  0.33247595090E+01  0.52873233286E+02  0.16121936569E+04  0.16130638643E+04  0.10100000352E+00 0. -1.
</event>
<event>
 5   0  0.1911477E-06  0.3369043E+04  0.7818609E-02  0.8145546E-01
       -2   -1    0    0    0  501  0.00000000000E+00  0.00000000000E+00  0.18856286614E+04  0.18856286614E+04  0.25500000920E-02 0.  1.
        2   -1    0    0  501    0  0.00000000000E+00  0.00000000000E+00 -0.15048629440E+04  0.15048629440E+04  0.25500000920E-02 0. -1.
    10030    2    1    2    0    0  0.00000000000E+00  0.00000000000E+00  0.38076571748E+03  0.33904916054E+04  0.33690430087E+04 0.  0.
        5    1    3    3  502    0  0.47466794237E+01  0.10926797538E+04  0.14805818535E+04  0.18401402909E+04  0.46999998093E+01 0.  1.
       -5    1    3    3    0  502 -0.47466794237E+01 -0.10926797538E+04 -0.10998161360E+04  0.15503513145E+04  0.46999998093E+01 0. -1.
</event>
<event>
 5   0  0.1948507E-06  0.3439671E+04  0.7818609E-02  0.8128238E-01
        2   -1    0    0  501    0  0.00000000000E+00  0.00000000000E+00  0.19027123301E+04  0.19027123301E+04  0.25500000920E-02 0. -1.
       -2   -1    0    0    0  501  0.00000000000E+00  0.00000000000E+00 -0.15545359817E+04  0.15545359817E+04  0.25500000920E-02 0.  1.
    10030    2    1    2    0    0  0.00000000000E+00  0.00000000000E+00  0.34817634838E+03  0.34572483119E+04  0.34396713681E+04 0.  0.
        1    1    3    3  502    0 -0.90169615918E+03  0.17412521429E+03  0.16356368351E+04  0.18758153988E+04  0.50400001928E-02 0. -1.
       -1    1    3    3    0  502  0.90169615918E+03 -0.17412521429E+03 -0.12874604868E+04  0.15814329131E+04  0.50400001928E-02 0.  1.
</event>
<event>
 5   0  0.1339844E-06  0.3393762E+04  0.7818609E-02  0.8139439E-01
       -2   -1    0    0    0  501  0.00000000000E+00  0.00000000000E+00  0.12554155554E+04  0.12554155554E+04  0.25500000920E-02 0. -1.
        2   -1    0    0  501    0  0.00000000000E+00  0.00000000000E+00 -0.22935869332E+04  0.22935869332E+04  0.25500000920E-02 0.  1.
    10030    2    1    2    0    0  0.00000000000E+00  0.00000000000E+00 -0.10381713778E+04  0.35490024886E+04  0.33937617557E+04 0.  0.
        3    1    3    3  502    0  0.79816472475E+03  0.25345872092E+03  0.10242610421E+04  0.13230339919E+04  0.10100000352E+00 0. -1.
       -3    1    3    3    0  502 -0.79816472475E+03 -0.25345872092E+03 -0.20624324200E+04  0.22259684967E+04  0.10100000352E+00 0.  1.
</event>
<event>
 5   0  0.6134625E-07  0.3387988E+04  0.7818609E-02  0.8140861E-01
        1   -1    0    0  501    0  0.00000000000E+00  0.00000000000E+00  0.26394209343E+04  0.26394209343E+04  0.50400001928E-02 0. -1.
       -1   -1    0    0    0  501  0.00000000000E+00  0.00000000000E+00 -0.10872143536E+04  0.10872143536E+04  0.50400001928E-02 0.  1.
    10030    2    1    2    0    0  0.00000000000E+00  0.00000000000E+00  0.15522065807E+04  0.37266352880E+04  0.33879883855E+04 0.  0.
        1    1    3    3  502    0 -0.27393407681E+03 -0.14383398092E+04  0.17131689212E+04  0.22536213164E+04  0.50400001928E-02 0. -1.
       -1    1    3    3    0  502  0.27393407681E+03  0.14383398092E+04 -0.16096234047E+03  0.14730139715E+04  0.50400001928E-02 0.  1.
</event>
<event>
 5   0  0.6218695E-07  0.3401103E+04  0.7818609E-02  0.8137636E-01
       -1   -1    0    0    0  501  0.00000000000E+00  0.00000000000E+00  0.13397206125E+04  0.13397206125E+04  0.50400001928E-02 0. -1.
        1   -1    0    0  501    0  0.00000000000E+00  0.00000000000E+00 -0.21585654018E+04  0.21585654018E+04  0.50400001928E-02 0.  1.
    10030    2    1    2    0    0  0.00000000000E+00  0.00000000000E+00 -0.81884478931E+03  0.34982860142E+04  0.34011025048E+04 0.  0.
        2    1    3    3  502    0  0.12987828861E+04 -0.50712605045E+03  0.59197823834E+03  0.15147448799E+04  0.25500000920E-02 0. -1.
       -2    1    3    3    0  502 -0.12987828861E+04  0.50712605045E+03 -0.14108230277E+04  0.19835411344E+04  0.25500000920E-02 0.  1.
</event>
<event>
 5   0  0.6134625E-07  0.3337899E+04  0.7818609E-02  0.8153318E-01
       -1   -1    0    0    0  501  0.00000000000E+00  0.00000000000E+00  0.15445693668E+04  0.15445693668E+04  0.50400001928E-02 0.  1.
        1   -1    0    0  501    0  0.00000000000E+00  0.00000000000E+00 -0.18033458060E+04  0.18033458060E+04  0.50400001928E-02 0. -1.
    10030    2    1    2    0    0  0.00000000000E+00  0.00000000000E+00 -0.25877643916E+03  0.33479151728E+04  0.33378991535E+04 0.  0.
        5    1    3    3  502    0  0.12536966688E+04 -0.10968531380E+04 -0.26472058747E+02  0.16660027022E+04  0.46999998093E+01 0.  1.
       -5    1    3    3    0  502 -0.12536966688E+04  0.10968531380E+04 -0.23230438042E+03  0.16819124706E+04  0.46999998093E+01 0. -1.
</event>
<event>
 5   0  0.6146388E-07  0.3399198E+04  0.7818609E-02  0.8138103E-01
       -1   -1    0    0    0  501  0.00000000000E+00  0.00000000000E+00  0.19803931514E+04  0.19803931514E+04  0.50400001928E-02 0. -1.
        1   -1    0    0  501    0  0.00000000000E+00  0.00000000000E+00 -0.14586175058E+04  0.14586175058E+04  0.50400001928E-02 0.  1.
    10030    2    1    2    0    0  0.00000000000E+00  0.00000000000E+00  0.52177564558E+03  0.34390106572E+04  0.33991976224E+04 0.  0.
        4    1    3    3  502    0  0.22150627647E+03 -0.13444814035E+04 -0.76685432889E+03  0.15635736150E+04  0.12699999809E+01 0.  1.
       -4    1    3    3    0  502 -0.22150627647E+03  0.13444814035E+04  0.12886299745E+04  0.18754370421E+04  0.12699999809E+01 0. -1.
</event>
<event>
 5   0  0.6218695E-07  0.3387229E+04  0.7818609E-02  0.8141048E-01
       -1   -1    0    0    0  501  0.00000000000E+00  0.00000000000E+00  0.16269235933E+04  0.16269235933E+04  0.50400001928E-02 0.  1.
        1   -1    0    0  501    0  0.00000000000E+00  0.00000000000E+00 -0.17630387720E+04  0.17630387720E+04  0.50400001928E-02 0. -1.
    10030    2    1    2    0    0  0.00000000000E+00  0.00000000000E+00 -0.13611517866E+03  0.33899623653E+04  0.33872285864E+04 0.  0.
        2    1    3    3  502    0 -0.15626597370E+04 -0.23718807089E+03  0.54084592556E+03  0.16705322355E+04  0.25500000920E-02 0. -1.
       -2    1    3    3    0  502  0.15626597370E+04  0.23718807089E+03 -0.67696110422E+03  0.17194301298E+04  0.25500000920E-02 0.  1.
</event>
<event>
 5   0  0.6134625E-07  0.3257103E+04  0.7818609E-02  0.8173897E-01
        1   -1    0    0  501    0  0.00000000000E+00  0.00000000000E+00  0.23383428941E+04  0.23383428941E+04  0.50400001928E-02 0. -1.
       -1   -1    0    0    0  501  0.00000000000E+00  0.00000000000E+00 -0.11342131249E+04  0.11342131249E+04  0.50400001928E-02 0.  1.
    10030    2    1    2    0    0  0.00000000000E+00  0.00000000000E+00  0.12041297692E+04  0.34725560190E+04  0.32571025167E+04 0.  0.
        3    1    3    3  502    0 -0.13516352347E+04  0.33456233332E+03  0.15025217278E+04  0.20485168574E+04  0.10100000352E+00 0. -1.
       -3    1    3    3    0  502  0.13516352347E+04 -0.33456233332E+03 -0.29839195855E+03  0.14240391616E+04  0.10100000352E+00 0.  1.
</event>
<event>
 5   0  0.1948507E-06  0.3384639E+04  0.7818609E-02  0.8141687E-01
        2   -1    0    0  501    0  0.00000000000E+00  0.00000000000E+00  0.14414242907E+04  0.14414242907E+04  0.25500000920E-02 0.  1.
       -2   -1    0    0    0  501  0.00000000000E+00  0.00000000000E+00 -0.19868853215E+04  0.19868853215E+04  0.25500000920E-02 0. -1.
    10030    2    1    2    0    0  0.00000000000E+00  0.00000000000E+00 -0.54546103078E+03  0.34283096122E+04  0.33846386899E+04 0.  0.
        1    1    3    3  502    0  0.38088223352E+02  0.76284029570E+02  0.14392472645E+04  0.14417706663E+04  0.50400001928E-02 0.  1.
       -1    1    3    3    0  502 -0.38088223352E+02 -0.76284029570E+02 -0.19847082953E+04  0.19865389458E+04  0.50400001928E-02 0. -1.
</event>
<event>
 5   0  0.6134625E-07  0.3237184E+04  0.7818609E-02  0.8179065E-01
       -1   -1    0    0    0  501  0.00000000000E+00  0.00000000000E+00  0.16657131073E+04  0.16657131073E+04  0.50400001928E-02 0. -1.
        1   -1    0    0  501    0  0.00000000000E+00  0.00000000000E+00 -0.15728042872E+04  0.15728042872E+04  0.50400001928E-02 0.  1.
    10030    2    1    2    0    0  0.00000000000E+00  0.00000000000E+00  0.92908820100E+02  0.32385173944E+04  0.32371844040E+04 0.  0.
        5    1    3    3  502    0 -0.14809774943E+04 -0.58952954979E+03  0.32760251023E+03  0.16273244678E+04  0.46999998093E+01 0. -1.
       -5    1    3    3    0  502  0.14809774943E+04  0.58952954979E+03 -0.23469369013E+03  0.16111929267E+04  0.46999998093E+01 0.  1.
</event>
<event>
 5   0  0.1797075E-06  0.3020945E+04  0.7818609E-02  0.8237775E-01
        2   -1    0    0  501    0  0.00000000000E+00  0.00000000000E+00  0.15227638453E+04  0.15227638453E+04  0.25500000920E-02 0. -1.
       -2   -1    0    0    0  501  0.00000000000E+00  0.00000000000E+00 -0.14982800599E+04  0.14982800599E+04  0.25500000920E-02 0.  1.
    10030    2    1    2    0    0  0.00000000000E+00  0.00000000000E+00  0.24483785345E+02  0.30210439052E+04  0.30209446902E+04 0.  0.
        2    1    3    3  502    0 -0.75798900998E+03  0.37158046005E+03 -0.12403595534E+04  0.15003703540E+04  0.25500000920E-02 0.  1.
       -2    1    3    3    0  502  0.75798900998E+03 -0.37158046005E+03  0.12648433388E+04  0.15206735511E+04  0.25500000920E-02 0. -1.
</event>
<event>
 5   0  0.6218695E-07  0.3402107E+04  0.7818609E-02  0.8137389E-01
       -1   -1    0    0    0  501  0.00000000000E+00  0.00000000000E+00  0.23526613125E+04  0.23526613125E+04  0.50400001928E-02 0.  1.
        1   -1    0    0  501    0  0.00000000000E+00  0.00000000000E+00 -0.12299192539E+04  0.12299192539E+04  0.50400001928E-02 0. -1.
    10030    2    1    2    0    0  0.00000000000E+00  0.00000000000E+00  0.11227420586E+04  0.35825805664E+04  0.34021072565E+04 0.  0.
        2    1    3    3  502    0  0.46699868455E+03 -0.24133235373E+03  0.22649839737E+04  0.23251841814E+04  0.25500000920E-02 0.  1.
       -2    1    3    3    0  502 -0.46699868455E+03  0.24133235373E+03 -0.11422419151E+04  0.12573963850E+04  0.25500000920E-02 0. -1.
</event>
<event>
 5   0  0.1339844E-06  0.3322372E+04  0.7818609E-02  0.8157226E-01
        2   -1    0    0  501    0  0.00000000000E+00  0.00000000000E+00  0.24235614819E+04  0.24235614819E+04  0.25500000920E-02 0.  1.
       -2   -1    0    0    0  501  0.00000000000E+00  0.00000000000E+00 -0.11386297453E+04  0.11386297453E+04  0.25500000920E-02 0. -1.
    10030    2    1    2    0    0  0.00000000000E+00  0.00000000000E+00  0.12849317366E+04  0.35621912272E+04  0.33223721603E+04 0.  0.
        3    1    3    3  502    0  0.70029384544E+03  0.14052520858E+04  0.60719553906E+02  0.15712516568E+04  0.10100000352E+00 0. -1.
       -3    1    3    3    0  502 -0.70029384544E+03 -0.14052520858E+04  0.12242121827E+04  0.19909395704E+04  0.10100000352E+00 0.  1.
</event>
<event>
 5   0  0.6146388E-07  0.3621273E+04  0.7818609E-02  0.8085636E-01
       -1   -1    0    0    0  501  0.00000000000E+00  0.00000000000E+00  0.15520576960E+04  0.15520576960E+04  0.50400001928E-02 0.  1.
        1   -1    0    0  501    0  0.00000000000E+00  0.00000000000E+00 -0.21122956677E+04  0.21122956678E+04  0.50400001928E-02 0. -1.
    10030    2    1    2    0    0  0.00000000000E+00  0.00000000000E+00 -0.56023797179E+03  0.36643533637E+04  0.36212731172E+04 0.  0.
        4    1    3    3  502    0  0.23715046695E+03  0.17944553671E+04 -0.23382844455E+03  0.18250993843E+04  0.12699999809E+01 0. -1.
       -4    1    3    3    0  502 -0.23715046695E+03 -0.17944553671E+04 -0.32640952725E+03  0.18392539794E+04  0.12699999809E+01 0.  1.
</event>
<event>
 5   0  0.1339844E-06  0.3385917E+04  0.7818609E-02  0.8141371E-01
       -2   -1    0    0    0  501  0.00000000000E+00  0.00000000000E+00  0.33455880199E+04  0.33455880199E+04  0.25500000920E-02 0. -1.
        2   -1    0    0  501    0  0.00000000000E+00  0.00000000000E+00 -0.85668314489E+03  0.85668314489E+03  0.25500000920E-02 0.  1.
    10030    2    1    2    0    0  0.00000000000E+00  0.00000000000E+00  0.24889048750E+04  0.42022711648E+04  0.33859172266E+04 0.  0.
        3    1    3    3  502    0  0.26687508788E+03 -0.15604849662E+04  0.19888794938E+04  0.25420419534E+04  0.10100000352E+00 0. -1.
       -3    1    3    3    0  502 -0.26687508788E+03  0.15604849662E+04  0.50002538128E+03  0.16602292114E+04  0.10100000352E+00 0.  1.
</event>
<event>
 5   0  0.6134625E-07  0.3248372E+04  0.7818609E-02  0.8176158E-01
        1   -1    0    0  501    0  0.00000000000E+00  0.00000000000E+00  0.19279976019E+04  0.19279976019E+04  0.50400001928E-02 0. -1.
       -1   -1    0    0    0  501  0.00000000000E+00  0.00000000000E+00 -0.13682486380E+04  0.13682486380E+04  0.50400001928E-02 0.  1.
    10030    2    1    2    0    0  0.00000000000E+00  0.00000000000E+00  0.55974896385E+03  0.32962462399E+04  0.32483719571E+04 0.  0.
        3    1    3    3  502    0  0.22559041336E+02  0.15522523095E+04  0.76438813786E+03  0.17304003520E+04  0.10100000352E+00 0. -1.
       -3    1    3    3    0  502 -0.22559041336E+02 -0.15522523095E+04 -0.20463917401E+03  0.15658458879E+04  0.10100000352E+00 0.  1.
</event>
<event>
 5   0  0.6134625E-07  0.3016399E+04  0.7818609E-02  0.8239063E-01
       -1   -1    0    0    0  501  0.00000000000E+00  0.00000000000E+00  0.11980066813E+04  0.11980066813E+04  0.50400001928E-02 0.  1.
        1   -1    0    0  501    0  0.00000000000E+00  0.00000000000E+00 -0.18987092819E+04  0.18987092819E+04  0.50400001928E-02 0. -1.
    10030    2    1    2    0    0  0.00000000000E+00  0.00000000000E+00 -0.70070260067E+03  0.30967159632E+04  0.30163994467E+04 0.  0.
        3    1    3    3  502    0  0.91321197851E+03  0.94330736285E+03 -0.11123278627E+04  0.17207725541E+04  0.10100000352E+00 0. -1.
       -3    1    3    3    0  502 -0.91321197851E+03 -0.94330736285E+03  0.41162526207E+03  0.13759434091E+04  0.10100000352E+00 0.  1.
</event>
<event>
 5   0  0.6134625E-07  0.2969222E+04  0.7818609E-02  0.8252575E-01
       -1   -1    0    0    0  501  0.00000000000E+00  0.00000000000E+00  0.65861687030E+03  0.65861687032E+03  0.50400001928E-02 0. -1.
        1   -1    0    0  501    0  0.00000000000E+00  0.00000000000E+00 -0.33465137721E+04  0.33465137721E+04  0.50400001928E-02 0.  1.
    10030    2    1    2    0    0  0.00000000000E+00  0.00000000000E+00 -0.26878969018E+04  0.40051306424E+04  0.29692224080E+04 0.  0.
        1    1    3    3  502    0  0.65669192076E+03 -0.18389660154E+02 -0.31397800348E+04  0.32077719877E+04  0.50400001928E-02 0.  1.
       -1    1    3    3    0  502 -0.65669192076E+03  0.18389660154E+02  0.45188313295E+03  0.79735865472E+03  0.50400001928E-02 0. -1.
</event>
<event>
 5   0  0.1339844E-06  0.3401656E+04  0.7818609E-02  0.8137500E-01
       -2   -1    0    0    0  501  0.00000000000E+00  0.00000000000E+00  0.10548026506E+04  0.10548026506E+04  0.25500000920E-02 0. -1.
        2   -1    0    0  501    0  0.00000000000E+00  0.00000000000E+00 -0.27425188893E+04  0.27425188893E+04  0.25500000920E-02 0.  1.
    10030    2    1    2    0    0  0.00000000000E+00  0.00000000000E+00 -0.16877162387E+04  0.37973215399E+04  0.34016561812E+04 0.  0.
        3    1    3    3  502    0  0.14983165010E+04 -0.75392089093E+03 -0.52916971542E+03  0.17587977839E+04  0.10100000352E+00 0. -1.
       -3    1    3    3    0  502 -0.14983165010E+04  0.75392089093E+03 -0.11585465233E+04  0.20385237560E+04  0.10100000352E+00 0.  1.
</event>
<event>
 5   0  0.1948507E-06  0.3374014E+04  0.7818609E-02  0.8144314E-01
        2   -1    0    0  501    0  0.00000000000E+00  0.00000000000E+00  0.11207871965E+04  0.11207871965E+04  0.25500000920E-02 0.  1.
       -2   -1    0    0    0  501  0.00000000000E+00  0.00000000000E+00 -0.25392796622E+04  0.25392796622E+04  0.25500000920E-02 0. -1.
    10030    2    1    2    0    0  0.00000000000E+00  0.00000000000E+00 -0.14184924657E+04  0.36600668587E+04  0.33740137129E+04 0.  0.
        1    1    3    3  502    0 -0.77641015069E+03  0.56655517943E+03  0.79472959546E+03  0.12471538090E+04  0.50400001928E-02 0.  1.
       -1    1    3    3    0  502  0.77641015069E+03 -0.56655517943E+03 -0.22132220612E+04  0.24129130497E+04  0.50400001928E-02 0. -1.
</event>
<event>
 5   0  0.1948507E-06  0.3444789E+04  0.7818609E-02  0.8127000E-01
        2   -1    0    0  501    0  0.00000000000E+00  0.00000000000E+00  0.19198503610E+04  0.19198503610E+04  0.25500000920E-02 0. -1.
       -2   -1    0    0    0  501  0.00000000000E+00  0.00000000000E+00 -0.15452468681E+04  0.15452468681E+04  0.25500000920E-02 0.  1.
    10030    2    1    2    0    0  0.00000000000E+00  0.00000000000E+00  0.37460349292E+03  0.34650972290E+04  0.34447889674E+04 0.  0.
        1    1    3    3  502    0 -0.44160299789E+03  0.68398301270E+03 -0.13394727186E+04  0.15674926263E+04  0.50400001928E-02 0.  1.
       -1    1    3    3    0  502  0.44160299789E+03 -0.68398301270E+03  0.17140762115E+04  0.18976046028E+04  0.50400001928E-02 0. -1.
</event>
<event>
 5   0  0.6134625E-07  0.3350797E+04  0.7818609E-02  0.8150089E-01
       -4   -1    0    0    0  501  0.00000000000E+00  0.00000000000E+00  0.18360610763E+04  0.18360615155E+04  0.12699999809E+01 0.  1.
        4   -1    0    0  501    0  0.00000000000E+00  0.00000000000E+00 -0.15287932180E+04  0.15287937455E+04  0.12699999809E+01 0. -1.
    10030    2    1    2    0    0  0.00000000000E+00  0.00000000000E+00  0.30726785830E+03  0.33648552611E+04  0.33507965309E+04 0.  0.
        5    1    3    3  502    0 -0.77132849636E+03  0.19999584851E+03  0.16335850374E+04  0.18175720490E+04  0.46999998093E+01 0.  1.
       -5    1    3    3    0  502  0.77132849636E+03 -0.19999584851E+03 -0.13263171791E+04  0.15472832121E+04  0.46999998093E+01 0. -1.
</event>
<event>
 5   0  0.1911477E-06  0.3322263E+04  0.7818609E-02  0.8157254E-01
       -2   -1    0    0    0  501  0.00000000000E+00  0.00000000000E+00  0.11853718497E+04  0.11853718497E+04  0.25500000920E-02 0.  1.
        2   -1    0    0  501    0  0.00000000000E+00  0.00000000000E+00 -0.23278416610E+04  0.23278416610E+04  0.25500000920E-02 0. -1.
    10030    2    1    2    0    0  0.00000000000E+00  0.00000000000E+00 -0.11424698113E+04  0.35132135107E+04  0.33222630693E+04 0.  0.
        5    1    3    3  502    0  0.99201191529E+03  0.20936547382E+03 -0.19626958827E+04  0.22090990833E+04  0.46999998093E+01 0. -1.
       -5    1    3    3    0  502 -0.99201191529E+03 -0.20936547382E+03  0.82022607136E+03  0.13041144274E+04  0.46999998093E+01 0.  1.
</event>
<event>
 5   0  0.1797075E-06  0.3461145E+04  0.7818609E-02  0.8123060E-01
       -2   -1    0    0    0  501  0.00000000000E+00  0.00000000000E+00  0.14869482776E+04  0.14869482776E+04  0.25500000920E-02 0. -1.
        2   -1    0    0  501    0  0.00000000000E+00  0.00000000000E+00 -0.20141121798E+04  0.20141121798E+04  0.25500000920E-02 0.  1.
    10030    2    1    2    0    0  0.00000000000E+00  0.00000000000E+00 -0.52716390221E+03  0.35010604575E+04  0.34611446874E+04 0.  0.
        2    1    3    3  502    0  0.12611731271E+04  0.10820148688E+04  0.22527907464E+03  0.16769211354E+04  0.25500000920E-02 0. -1.
       -2    1    3    3    0  502 -0.12611731271E+04 -0.10820148688E+04 -0.75244297684E+03  0.18241393221E+04  0.25500000920E-02 0.  1.
</event>
<event>
 5   0  0.6134625E-07  0.3399980E+04  0.7818609E-02  0.8137911E-01
       -1   -1    0    0    0  501  0.00000000000E+00  0.00000000000E+00  0.17236410829E+04  0.17236410829E+04  0.50400001928E-02 0. -1.
        1   -1    0    0  501    0  0.00000000000E+00  0.00000000000E+00 -0.16766636663E+04  0.16766636663E+04  0.50400001928E-02 0.  1.
    10030    2    1    2    0    0  0.00000000000E+00  0.00000000000E+00  0.46977416568E+02  0.34003047493E+04  0.33999802220E+04 0.  0.
        5    1    3    3  502    0  0.54775918163E+02  0.65905448043E+03 -0.15427358283E+04  0.16785139663E+04  0.46999998093E+01 0.  1.
       -5    1    3    3    0  502 -0.54775918163E+02 -0.65905448043E+03  0.15897132448E+04  0.17217907829E+04  0.46999998093E+01 0. -1.
</event>
<event>
 5   0  0.6146388E-07  0.3403462E+04  0.7818609E-02  0.8137057E-01
        1   -1    0    0  501    0  0.00000000000E+00  0.00000000000E+00  0.94088707798E+03  0.94088707800E+03  0.50400001928E-02 0.  1.
       -1   -1    0    0    0  501  0.00000000000E+00  0.00000000000E+00 -0.30778283603E+04  0.30778283603E+04  0.50400001928E-02 0. -1.
    10030    2    1    2    0    0  0.00000000000E+00  0.00000000000E+00 -0.21369412823E+04  0.40187154383E+04  0.34034623150E+04 0.  0.
        4    1    3    3  502    0  0.24846997373E+03  0.90831503248E+03  0.60519452270E+03  0.11193907045E+04  0.12699999809E+01 0.  1.
       -4    1    3    3    0  502 -0.24846997373E+03 -0.90831503248E+03 -0.27421358050E+04  0.28993247338E+04  0.12699999809E+01 0. -1.
</event>
<event>
 5   0  0.6134625E-07  0.3733526E+04  0.7818609E-02  0.8060572E-01
        1   -1    0    0  501    0  0.00000000000E+00  0.00000000000E+00  0.19462589658E+04  0.19462589658E+04  0.50400001928E-02 0.  1.
       -1   -1    0    0    0  501  0.00000000000E+00  0.00000000000E+00 -0.17905139576E+04  0.17905139577E+04  0.50400001928E-02 0. -1.
    10030    2    1    2    0    0  0.00000000000E+00  0.00000000000E+00  0.15574500817E+03  0.37367729235E+04  0.37335258636E+04 0.  0.
        3    1    3    3  502    0 -0.11405758136E+04 -0.79921866981E+03  0.13219902479E+04  0.19202400617E+04  0.10100000352E+00 0.  1.
       -3    1    3    3    0  502  0.11405758136E+04  0.79921866981E+03 -0.11662452397E+04  0.18165328618E+04  0.10100000352E+00 0. -1.
</event>
<event>
 5   0  0.6134625E-07  0.3236484E+04  0.7818609E-02  0.8179248E-01
        1   -1    0    0  501    0  0.00000000000E+00  0.00000000000E+00  0.16299316514E+04  0.16299316514E+04  0.50400001928E-02 0.  1.
       -1   -1    0    0    0  501  0.00000000000E+00  0.00000000000E+00 -0.16066363470E+04  0.16066363470E+04  0.50400001928E-02 0. -1.
    10030    2    1    2    0    0  0.00000000000E+00  0.00000000000E+00  0.23295304336E+02  0.32365679984E+04  0.32364841629E+04 0.  0.
        3    1    3    3  502    0  0.12061885857E+04 -0.41782285021E+03 -0.98298385517E+03  0.16111251063E+04  0.10100000352E+00 0. -1.
       -3    1    3    3    0  502 -0.12061885857E+04  0.41782285021E+03  0.10062791595E+04  0.16254428921E+04  0.10100000352E+00 0.  1.
</event>
<event>
 5   0  0.1797075E-06  0.3408889E+04  0.7818609E-02  0.8135728E-01
        2   -1    0    0  501    0  0.00000000000E+00  0.00000000000E+00  0.24112991288E+04  0.24112991288E+04  0.25500000920E-02 0.  1.
       -2   -1    0    0    0  501  0.00000000000E+00  0.00000000000E+00 -0.12047990887E+04  0.12047990887E+04  0.25500000920E-02 0. -1.
    10030    2    1    2    0    0  0.00000000000E+00  0.00000000000E+00  0.12065000401E+04  0.36160982174E+04  0.34088889644E+04 0.  0.
        2    1    3    3  502    0  0.94580276688E+03  0.13522899193E+04  0.10556721324E+04  0.19589983540E+04  0.25500000920E-02 0.  1.
       -2    1    3    3    0  502 -0.94580276688E+03 -0.13522899193E+04  0.15082790773E+03  0.16570998635E+04  0.25500000920E-02 0. -1.
</event>
<event>
 5   0  0.1797075E-06  0.3239224E+04  0.7818609E-02  0.8178534E-01
       -2   -1    0    0    0  501  0.00000000000E+00  0.00000000000E+00  0.14484816168E+04  0.14484816168E+04  0.25500000920E-02 0.  1.
        2   -1    0    0  501    0  0.00000000000E+00  0.00000000000E+00 -0.18109601220E+04  0.18109601220E+04  0.25500000920E-02 0. -1.
    10030    2    1    2    0    0  0.00000000000E+00  0.00000000000E+00 -0.36247850520E+03  0.32594417387E+04  0.32392236387E+04 0.  0.
        2    1    3    3  502    0  0.72272078933E+03  0.48099670079E+03  0.11945765532E+04  0.14767180865E+04  0.25500000920E-02 0.  1.
       -2    1    3    3    0  502 -0.72272078933E+03 -0.48099670079E+03 -0.15570550584E+04  0.17827236522E+04  0.25500000920E-02 0. -1.
</event>
<event>
 5   0  0.6146388E-07  0.3409911E+04  0.7818609E-02  0.8135478E-01
        1   -1    0    0  501    0  0.00000000000E+00  0.00000000000E+00  0.16432350322E+04  0.16432350322E+04  0.50400001928E-02 0. -1.
       -1   -1    0    0    0  501  0.00000000000E+00  0.00000000000E+00 -0.17689945782E+04  0.17689945782E+04  0.50400001928E-02 0.  1.
    10030    2    1    2    0    0  0.00000000000E+00  0.00000000000E+00 -0.12575954599E+03  0.34122296103E+04  0.34099113552E+04 0.  0.
        4    1    3    3  502    0  0.12325462868E+04  0.11778369578E+04 -0.82943380398E+02  0.17068542601E+04  0.12699999809E+01 0. -1.
       -4    1    3    3    0  502 -0.12325462868E+04 -0.11778369578E+04 -0.42816165592E+02  0.17053753502E+04  0.12699999809E+01 0.  1.
</event>
<event>
 5   0  0.6134625E-07  0.3304712E+04  0.7818609E-02  0.8161698E-01
        1   -1    0    0  501    0  0.00000000000E+00  0.00000000000E+00  0.17786019227E+04  0.17786019227E+04  0.50400001928E-02 0.  1.
       -1   -1    0    0    0  501  0.00000000000E+00  0.00000000000E+00 -0.15350707536E+04  0.15350707536E+04  0.50400001928E-02 0. -1.
    10030    2    1    2    0    0  0.00000000000E+00  0.00000000000E+00  0.24353116903E+03  0.33136726763E+04  0.33047116630E+04 0.  0.
        1    1    3    3  502    0 -0.15478002986E+03  0.61603545159E+03  0.16512946410E+04  0.17692457508E+04  0.50400001928E-02 0.  1.
       -1    1    3    3    0  502  0.15478002986E+03 -0.61603545159E+03 -0.14077634720E+04  0.15444269255E+04  0.50400001928E-02 0. -1.
</event>
<event>
 5   0  0.6146388E-07  0.2756701E+04  0.7818609E-02  0.8316838E-01
        1   -1    0    0  501    0  0.00000000000E+00  0.00000000000E+00  0.25978971808E+04  0.25978971808E+04  0.50400001928E-02 0.  1.
       -1   -1    0    0    0  501  0.00000000000E+00  0.00000000000E+00 -0.73130315186E+03  0.73130315187E+03  0.50400001928E-02 0. -1.
    10030    2    1    2    0    0  0.00000000000E+00  0.00000000000E+00  0.18665940289E+04  0.33292003327E+04  0.27567012145E+04 0.  0.
        4    1    3    3  502    0  0.70599177625E+02 -0.11657471673E+04  0.49217488687E+02  0.11689203036E+04  0.12699999809E+01 0. -1.
       -4    1    3    3    0  502 -0.70599177625E+02  0.11657471673E+04  0.18173765403E+04  0.21602800291E+04  0.12699999809E+01 0.  1.
</event>
<event>
 5   0  0.6134625E-07  0.3353932E+04  0.7818609E-02  0.8149306E-01
       -3   -1    0    0    0  501  0.00000000000E+00  0.00000000000E+00  0.14568992097E+04  0.14568992132E+04  0.10100000352E+00 0.  1.
        3   -1    0    0  501    0  0.00000000000E+00  0.00000000000E+00 -0.19302737863E+04  0.19302737890E+04  0.10100000352E+00 0. -1.
    10030    2    1    2    0    0  0.00000000000E+00  0.00000000000E+00 -0.47337457665E+03  0.33871730021E+04  0.33539316416E+04 0.  0.
        2    1    3    3  502    0  0.12109085814E+04  0.14536723184E+03 -0.13990872004E+04  0.18560377741E+04  0.25500000920E-02 0. -1.
       -2    1    3    3    0  502 -0.12109085814E+04 -0.14536723184E+03  0.92571262377E+03  0.15311352280E+04  0.25500000920E-02 0.  1.
</event>
<event>
 5   0  0.6134625E-07  0.3596004E+04  0.7818609E-02  0.8091408E-01
        1   -1    0    0  501    0  0.00000000000E+00  0.00000000000E+00  0.14202628850E+04  0.14202628850E+04  0.50400001928E-02 0.  1.
       -1   -1    0    0    0  501  0.00000000000E+00  0.00000000000E+00 -0.22762065788E+04  0.22762065788E+04  0.50400001928E-02 0. -1.
    10030    2    1    2    0    0  0.00000000000E+00  0.00000000000E+00 -0.85594369372E+03  0.36964694638E+04  0.35960042951E+04 0.  0.
        5    1    3    3  502    0 -0.62354585101E+03 -0.44008734398E+03  0.12454857505E+04  0.14607337688E+04  0.46999998093E+01 0.  1.
       -5    1    3    3    0  502  0.62354585101E+03  0.44008734398E+03 -0.21014294442E+04  0.22357356950E+04  0.46999998093E+01 0. -1.
</event>
<event>
 5   0  0.6134625E-07  0.3387775E+04  0.7818609E-02  0.8140913E-01
        1   -1    0    0  501    0  0.00000000000E+00  0.00000000000E+00  0.17858088006E+04  0.17858088006E+04  0.50400001928E-02 0. -1.
       -1   -1    0    0    0  501  0.00000000000E+00  0.00000000000E+00 -0.16066976020E+04  0.16066976020E+04  0.50400001928E-02 0.  1.
    10030    2    1    2    0    0  0.00000000000E+00  0.00000000000E+00  0.17911119867E+03  0.33925064026E+04  0.33877749143E+04 0.  0.
        3    1    3    3  502    0 -0.11777660970E+04  0.79808500857E+03 -0.83106621176E+03  0.16476479353E+04  0.10100000352E+00 0.  1.
       -3    1    3    3    0  502  0.11777660970E+04 -0.79808500857E+03  0.10101774104E+04  0.17448584673E+04  0.10100000352E+00 0. -1.
</event>
<event>
 5   0  0.1880301E-06  0.3440633E+04  0.7818609E-02  0.8128005E-01
       -2   -1    0    0    0  501  0.00000000000E+00  0.00000000000E+00  0.10317904710E+04  0.10317904710E+04  0.25500000920E-02 0.  1.
        2   -1    0    0  501    0  0.00000000000E+00  0.00000000000E+00 -0.28683039401E+04  0.28683039401E+04  0.25500000920E-02 0. -1.
    10030    2    1    2    0    0  0.00000000000E+00  0.00000000000E+00 -0.18365134691E+04  0.39000944111E+04  0.34406328913E+04 0.  0.
        4    1    3    3  502    0  0.57445284079E+03 -0.15862047588E+04 -0.13000518241E+04  0.21298305006E+04  0.12699999809E+01 0.  1.
       -4    1    3    3    0  502 -0.57445284079E+03  0.15862047588E+04 -0.53646164504E+03  0.17702639104E+04  0.12699999809E+01 0. -1.
</event>
<event>
 5   0  0.1339844E-06  0.2580594E+04  0.7818609E-02  0.8374823E-01
       -2   -1    0    0    0  501  0.00000000000E+00  0.00000000000E+00  0.28268834591E+04  0.28268834591E+04  0.25500000920E-02 0.  1.
        2   -1    0    0  501    0  0.00000000000E+00  0.00000000000E+00 -0.58894067349E+03  0.58894067349E+03  0.25500000920E-02 0. -1.
    10030    2    1    2    0    0  0.00000000000E+00  0.00000000000E+00  0.22379427856E+04  0.34158241326E+04  0.25805942326E+04 0.  0.
        3    1    3    3  502    0 -0.10113355622E+02 -0.10300213790E+04  0.21475314168E+04  0.23817929208E+04  0.10100000352E+00 0.  1.
       -3    1    3    3    0  502  0.10113355622E+02  0.10300213790E+04  0.90411368824E+02  0.10340312118E+04  0.10100000352E+00 0. -1.
</event>
<event>
 5   0  0.1948507E-06  0.2883929E+04  0.7818609E-02  0.8277675E-01
       -2   -1    0    0    0  501  0.00000000000E+00  0.00000000000E+00  0.11169903743E+04  0.11169903743E+04  0.25500000920E-02 0. -1.
        2   -1    0    0  501    0  0.00000000000E+00  0.00000000000E+00 -0.18614854348E+04  0.18614854348E+04  0.25500000920E-02 0.  1.
    10030    2    1    2    0    0  0.00000000000E+00  0.00000000000E+00 -0.74449506050E+03  0.29784758091E+04  0.28839287873E+04 0.  0.
        1    1    3    3  502    0  0.40641195606E+03 -0.39338831416E+03  0.99763703644E+03  0.11468237442E+04  0.50400001928E-02 0. -1.
       -1    1    3    3    0  502 -0.40641195606E+03  0.39338831416E+03 -0.17421320969E+04  0.18316520649E+04  0.50400001928E-02 0.  1.
</event>
<event>
 5   0  0.6134625E-07  0.3419367E+04  0.7818609E-02  0.8133169E-01
       -1   -1    0    0    0  501  0.00000000000E+00  0.00000000000E+00  0.18070737837E+04  0.18070737837E+04  0.50400001928E-02 0.  1.
        1   -1    0    0  501    0  0.00000000000E+00  0.00000000000E+00 -0.16175423217E+04  0.16175423217E+04  0.50400001928E-02 0. -1.
    10030    2    1    2    0    0  0.00000000000E+00  0.00000000000E+00  0.18953146204E+03  0.34246161054E+04  0.34193673821E+04 0.  0.
        5    1    3    3  502    0 -0.24808710561E+03  0.16811877793E+04 -0.92755944060E+02  0.17019298800E+04  0.46999998093E+01 0. -1.
       -5    1    3    3    0  502  0.24808710561E+03 -0.16811877793E+04  0.28228740610E+03  0.17226862253E+04  0.46999998093E+01 0.  1.
</event>
<event>
 5   0  0.1339844E-06  0.3388306E+04  0.7818609E-02  0.8140782E-01
       -2   -1    0    0    0  501  0.00000000000E+00  0.00000000000E+00  0.16507609862E+04  0.16507609862E+04  0.25500000920E-02 0. -1.
        2   -1    0    0  501    0  0.00000000000E+00  0.00000000000E+00 -0.17386852536E+04  0.17386852536E+04  0.25500000920E-02 0.  1.
    10030    2    1    2    0    0  0.00000000000E+00  0.00000000000E+00 -0.87924267378E+02  0.33894462398E+04  0.33883056438E+04 0.  0.
        3    1    3    3  502    0  0.25904753532E+03 -0.15640668008E+03 -0.17114321059E+04  0.17379782906E+04  0.10100000352E+00 0.  1.
       -3    1    3    3    0  502 -0.25904753532E+03  0.15640668008E+03  0.16235078386E+04  0.16514679492E+04  0.10100000352E+00 0. -1.
</event>
<event>
 5   0  0.1339844E-06  0.3434445E+04  0.7818609E-02  0.8129504E-01
        2   -1    0    0  501    0  0.00000000000E+00  0.00000000000E+00  0.17597085971E+04  0.17597085971E+04  0.25500000920E-02 0.  1.
       -2   -1    0    0    0  501  0.00000000000E+00  0.00000000000E+00 -0.16757623135E+04  0.16757623135E+04  0.25500000920E-02 0. -1.
    10030    2    1    2    0    0  0.00000000000E+00  0.00000000000E+00  0.83946283665E+02  0.34354709106E+04  0.34344451370E+04 0.  0.
        3    1    3    3  502    0  0.10586865409E+04 -0.28873079232E+03  0.13632274711E+04  0.17500205171E+04  0.10100000352E+00 0.  1.
       -3    1    3    3    0  502 -0.10586865409E+04  0.28873079232E+03 -0.12792811874E+04  0.16854503935E+04  0.10100000352E+00 0. -1.
</event>
<event>
 5   0  0.1911477E-06  0.3034461E+04  0.7818609E-02  0.8233958E-01
        2   -1    0    0  501    0  0.00000000000E+00  0.00000000000E+00  0.31190617734E+04  0.31190617734E+04  0.25500000920E-02 0.  1.
       -2   -1    0    0    0  501  0.00000000000E+00  0.00000000000E+00 -0.73803878380E+03  0.73803878380E+03  0.25500000920E-02 0. -1.
    10030    2    1    2    0    0  0.00000000000E+00  0.00000000000E+00  0.23810229896E+04  0.38571005572E+04  0.30344611105E+04 0.  0.
        5    1    3    3  502    0 -0.60037016598E+03 -0.10444784532E+04  0.18211593620E+02  0.12048789680E+04  0.46999998093E+01 0. -1.
       -5    1    3    3    0  502  0.60037016598E+03  0.10444784532E+04  0.23628113960E+04  0.26522215892E+04  0.46999998093E+01 0.  1.
</event>
<event>
 5   0  0.6134625E-07  0.3410122E+04  0.7818609E-02  0.8135427E-01
       -1   -1    0    0    0  501  0.00000000000E+00  0.00000000000E+00  0.11358951549E+04  0.11358951549E+04  0.50400001928E-02 0.  1.
        1   -1    0    0  501    0  0.00000000000E+00  0.00000000000E+00 -0.25594195006E+04  0.25594195006E+04  0.50400001928E-02 0. -1.
    10030    2    1    2    0    0  0.00000000000E+00  0.00000000000E+00 -0.14235243457E+04  0.36953146555E+04  0.34101215287E+04 0.  0.
        1    1    3    3  502    0 -0.13744276173E+04 -0.97845373171E+03 -0.97898054827E+03  0.19505962920E+04  0.50400001928E-02 0. -1.
       -1    1    3    3    0  502  0.13744276173E+04  0.97845373171E+03 -0.44454379739E+03  0.17447183636E+04  0.50400001928E-02 0.  1.
</event>
<event>
 5   0  0.1880301E-06  0.3501586E+04  0.7818609E-02  0.8113414E-01
        2   -1    0    0  501    0  0.00000000000E+00  0.00000000000E+00  0.10291504970E+04  0.10291504970E+04  0.25500000920E-02 0.  1.
       -2   -1    0    0    0  501  0.00000000000E+00  0.00000000000E+00 -0.29784525500E+04  0.29784525500E+04  0.25500000920E-02 0. -1.
    10030    2    1    2    0    0  0.00000000000E+00  0.00000000000E+00 -0.19493020530E+04  0.40076030470E+04  0.35015858819E+04 0.  0.
        4    1    3    3  502    0  0.95256087637E+03 -0.82640383393E+03 -0.23646352105E+04  0.26798911940E+04  0.12699999809E+01 0. -1.
       -4    1    3    3    0  502 -0.95256087637E+03  0.82640383393E+03  0.41533315754E+03  0.13277118530E+04  0.12699999809E+01 0.  1.
</event>
<event>
 5   0  0.6134625E-07  0.3453438E+04  0.7818609E-02  0.8124914E-01
        1   -1    0    0  501    0  0.00000000000E+00  0.00000000000E+00  0.25653629829E+04  0.25653629829E+04  0.50400001928E-02 0.  1.
       -1   -1    0    0    0  501  0.00000000000E+00  0.00000000000E+00 -0.11622363330E+04  0.11622363331E+04  0.50400001928E-02 0. -1.
    10030    2    1    2    0    0  0.00000000000E+00  0.00000000000E+00  0.14031266499E+04  0.37275993160E+04  0.34534377459E+04 0.  0.
        3    1    3    3  502    0  0.14557671749E+04  0.36943701738E+03 -0.21801969619E+03  0.15176542345E+04  0.10100000352E+00 0. -1.
       -3    1    3    3    0  502 -0.14557671749E+04 -0.36943701738E+03  0.16211463461E+04  0.22099450814E+04  0.10100000352E+00 0.  1.
</event>
<event>
 5   0  0.6218695E-07  0.2955747E+04  0.7818609E-02  0.8256482E-01
       -1   -1    0    0    0  501  0.00000000000E+00  0.00000000000E+00  0.13960531244E+04  0.13960531245E+04  0.50400001928E-02 0.  1.
        1   -1    0    0  501    0  0.00000000000E+00  0.00000000000E+00 -0.15644895989E+04  0.15644895989E+04  0.50400001928E-02 0. -1.
    10030    2    1    2    0    0  0.00000000000E+00  0.00000000000E+00 -0.16843647442E+03  0.29605427233E+04  0.29557473456E+04 0.  0.
        2    1    3    3  502    0 -0.63515980726E+03  0.85103452513E+01  0.12523417369E+04  0.14042294089E+04  0.25500000920E-02 0.  1.
       -2    1    3    3    0  502  0.63515980726E+03 -0.85103452513E+01 -0.14207782114E+04  0.15563133144E+04  0.25500000920E-02 0. -1.
</event>
<event>
 5   0  0.6146388E-07  0.3405861E+04  0.7818609E-02  0.8136469E-01
        1   -1    0    0  501    0  0.00000000000E+00  0.00000000000E+00  0.24868899854E+04  0.24868899854E+04  0.50400001928E-02 0. -1.
       -1   -1    0    0    0  501  0.00000000000E+00  0.00000000000E+00 -0.11661039792E+04  0.11661039792E+04  0.50400001928E-02 0.  1.
    10030    2    1    2    0    0  0.00000000000E+00  0.00000000000E+00  0.13207860063E+04  0.36529939646E+04  0.34058610117E+04 0.  0.
        4    1    3    3  502    0 -0.78238449938E+03  0.13553809252E+04 -0.59732315628E+02  0.15661265976E+04  0.12699999809E+01 0.  1.
       -4    1    3    3    0  502  0.78238449938E+03 -0.13553809252E+04  0.13805183219E+04  0.20868673670E+04  0.12699999809E+01 0. -1.
</event>
<event>
 5   0  0.1880301E-06  0.3423582E+04  0.7818609E-02  0.8132143E-01
       -2   -1    0    0    0  501  0.00000000000E+00  0.00000000000E+00  0.17254961894E+04  0.17254961894E+04  0.25500000920E-02 0. -1.
        2   -1    0    0  501    0  0.00000000000E+00  0.00000000000E+00 -0.16981951138E+04  0.16981951138E+04  0.25500000920E-02 0.  1.
    10030    2    1    2    0    0  0.00000000000E+00  0.00000000000E+00  0.27301075594E+02  0.34236913031E+04  0.34235824498E+04 0.  0.
        4    1    3    3  502    0 -0.41627786556E+03  0.68653180147E+02  0.16726870299E+04  0.17250750805E+04  0.12699999809E+01 0. -1.
       -4    1    3    3    0  502  0.41627786556E+03 -0.68653180147E+02 -0.16453859543E+04  0.16986162227E+04  0.12699999809E+01 0.  1.
</event>
<event>
 5   0  0.6134625E-07  0.2855147E+04  0.7818609E-02  0.8286349E-01
        1   -1    0    0  501    0  0.00000000000E+00  0.00000000000E+00  0.18415181864E+04  0.18415181864E+04  0.50400001928E-02 0.  1.
       -1   -1    0    0    0  501  0.00000000000E+00  0.00000000000E+00 -0.11066773161E+04  0.11066773161E+04  0.50400001928E-02 0. -1.
    10030    2    1    2    0    0  0.00000000000E+00  0.00000000000E+00  0.73484087034E+03  0.29481955025E+04  0.28551472144E+04 0.  0.
        5    1    3    3  502    0  0.10120734753E+03  0.10126254679E+04 -0.66635140854E+03  0.12164290177E+04  0.46999998093E+01 0. -1.
       -5    1    3    3    0  502 -0.10120734753E+03 -0.10126254679E+04  0.14011922789E+04  0.17317664848E+04  0.46999998093E+01 0.  1.
</event>
<event>
 5   0  0.6134625E-07  0.3367772E+04  0.7818609E-02  0.8145862E-01
        1   -1    0    0  501    0  0.00000000000E+00  0.00000000000E+00  0.17607368407E+04  0.17607368407E+04  0.50400001928E-02 0. -1.
       -1   -1    0    0    0  501  0.00000000000E+00  0.00000000000E+00 -0.16103892308E+04  0.16103892308E+04  0.50400001928E-02 0.  1.
    10030    2    1    2    0    0  0.00000000000E+00  0.00000000000E+00  0.15034760984E+03  0.33711260715E+04  0.33677717539E+04 0.  0.
        3    1    3    3  502    0  0.68957696170E+03 -0.12994176593E+04 -0.74507447210E+03  0.16489810850E+04  0.10100000352E+00 0.  1.
       -3    1    3    3    0  502 -0.68957696170E+03  0.12994176593E+04  0.89542208193E+03  0.17221449865E+04  0.10100000352E+00 0. -1.
</event>
<event>
 5   0  0.6134625E-07  0.3429638E+04  0.7818609E-02  0.8130670E-01
       -1   -1    0    0    0  501  0.00000000000E+00  0.00000000000E+00  0.11812194504E+04  0.11812194504E+04  0.50400001928E-02 0. -1.
        1   -1    0    0  501    0  0.00000000000E+00  0.00000000000E+00 -0.24894651347E+04  0.24894651348E+04  0.50400001928E-02 0.  1.
    10030    2    1    2    0    0  0.00000000000E+00  0.00000000000E+00 -0.13082456844E+04  0.36706845851E+04  0.34296382539E+04 0.  0.
        5    1    3    3  502    0  0.12758085210E+04  0.10275329988E+04 -0.11967798093E+04  0.20287472607E+04  0.46999998093E+01 0.  1.
       -5    1    3    3    0  502 -0.12758085210E+04 -0.10275329988E+04 -0.11146587510E+03  0.16419373244E+04  0.46999998093E+01 0. -1.
</event>
<event>
 5   0  0.1339844E-06  0.3459561E+04  0.7818609E-02  0.8123441E-01
       -2   -1    0    0    0  501  0.00000000000E+00  0.00000000000E+00  0.28535679471E+04  0.28535679471E+04  0.25500000920E-02 0. -1.
        2   -1    0    0  501    0  0.00000000000E+00  0.00000000000E+00 -0.10485613117E+04  0.10485613117E+04  0.25500000920E-02 0.  1.
    10030    2    1    2    0    0  0.00000000000E+00  0.00000000000E+00  0.18050066354E+04  0.39021292588E+04  0.34595612148E+04 0.  0.
        3    1    3    3  502    0  0.62262955087E+03  0.90417881101E+03  0.24102726138E+04  0.26485129720E+04  0.10100000352E+00 0. -1.
       -3    1    3    3    0  502 -0.62262955087E+03 -0.90417881101E+03 -0.60526597833E+03  0.12536162868E+04  0.10100000352E+00 0.  1.
</event>
<event>
 5   0  0.1948507E-06  0.3387225E+04  0.7818609E-02  0.8141049E-01
       -2   -1    0    0    0  501  0.00000000000E+00  0.00000000000E+00  0.16671326167E+04  0.16671326167E+04  0.25500000920E-02 0. -1.
        2   -1    0    0  501    0  0.00000000000E+00  0.00000000000E+00 -0.17205125819E+04  0.17205125819E+04  0.25500000920E-02 0.  1.
    10030    2    1    2    0    0  0.00000000000E+00  0.00000000000E+00 -0.53379965277E+02  0.33876451986E+04  0.33872246118E+04 0.  0.
        1    1    3    3  502    0 -0.93669435878E+03 -0.13605615084E+04 -0.40063305592E+03  0.16997149130E+04  0.50400001928E-02 0.  1.
       -1    1    3    3    0  502  0.93669435878E+03  0.13605615084E+04  0.34725309064E+03  0.16879302856E+04  0.50400001928E-02 0. -1.
</event>
<event>
 5   0  0.1911477E-06  0.3390692E+04  0.7818609E-02  0.8140195E-01
       -2   -1    0    0    0  501  0.00000000000E+00  0.00000000000E+00  0.16394736291E+04  0.16394736291E+04  0.25500000920E-02 0.  1.
        2   -1    0    0  501    0  0.00000000000E+00  0.00000000000E+00 -0.17531228145E+04  0.17531228145E+04  0.25500000920E-02 0. -1.
    10030    2    1    2    0    0  0.00000000000E+00  0.00000000000E+00 -0.11364918541E+03  0.33925964435E+04  0.33906923322E+04 0.  0.
        5    1    3    3  502    0 -0.95548107191E+03 -0.26508772316E+02 -0.14578000768E+04  0.17432297461E+04  0.46999998093E+01 0. -1.
       -5    1    3    3    0  502  0.95548107191E+03  0.26508772316E+02  0.13441508914E+04  0.16493666974E+04  0.46999998093E+01 0.  1.
</event>
<event>
 5   0  0.1911477E-06  0.3336775E+04  0.7818609E-02  0.8153601E-01
       -2   -1    0    0    0  501  0.00000000000E+00  0.00000000000E+00  0.19130144553E+04  0.19130144553E+04  0.25500000920E-02 0. -1.
        2   -1    0    0  501    0  0.00000000000E+00  0.00000000000E+00 -0.14550420842E+04  0.14550420842E+04  0.25500000920E-02 0.  1.
    10030    2    1    2    0    0  0.00000000000E+00  0.00000000000E+00  0.45797237115E+03  0.33680565395E+04  0.33367748141E+04 0.  0.
        5    1    3    3  502    0 -0.22624539076E+03 -0.16289766252E+04 -0.54255667291E+02  0.16455143845E+04  0.46999998093E+01 0.  1.
       -5    1    3    3    0  502  0.22624539076E+03  0.16289766252E+04  0.51222803845E+03  0.17225421550E+04  0.46999998093E+01 0. -1.
</event>
<event>
 5   0  0.1948507E-06  0.2577815E+04  0.7818609E-02  0.8375776E-01
        2   -1    0    0  501    0  0.00000000000E+00  0.00000000000E+00  0.13996826670E+04  0.13996826670E+04  0.25500000920E-02 0.  1.
       -2   -1    0    0    0  501  0.00000000000E+00  0.00000000000E+00 -0.11868993158E+04  0.11868993158E+04  0.25500000920E-02 0. -1.
    10030    2    1    2    0    0  0.00000000000E+00  0.00000000000E+00  0.21278335125E+03  0.25865819828E+04  0.25778148885E+04 0.  0.
        1    1    3    3  502    0  0.12944346652E+02 -0.98779545304E+03  0.93708103154E+03  0.13616270682E+04  0.50400001928E-02 0.  1.
       -1    1    3    3    0  502 -0.12944346652E+02  0.98779545304E+03 -0.72429768029E+03  0.12249549146E+04  0.50400001928E-02 0. -1.
</event>
<event>
 5   0  0.6134625E-07  0.3243957E+04  0.7818609E-02  0.8177304E-01
       -1   -1    0    0    0  501  0.00000000000E+00  0.00000000000E+00  0.14144772726E+04  0.14144772726E+04  0.50400001928E-02 0.  1.
        1   -1    0    0  501    0  0.00000000000E+00  0.00000000000E+00 -0.18599198137E+04  0.18599198137E+04  0.50400001928E-02 0. -1.
    10030    2    1    2    0    0  0.00000000000E+00  0.00000000000E+00 -0.44544254110E+03  0.32743970863E+04  0.32439570314E+04 0.  0.
        5    1    3    3  502    0 -0.56849925515E+03 -0.94369762173E+03  0.97884197256E+03  0.14737402422E+04  0.46999998093E+01 0.  1.
       -5    1    3    3    0  502  0.56849925515E+03  0.94369762173E+03 -0.14242845137E+04  0.18006568441E+04  0.46999998093E+01 0. -1.
</event>
<event>
 5   0  0.1948507E-06  0.3468333E+04  0.7818609E-02  0.8121336E-01
       -2   -1    0    0    0  501  0.00000000000E+00  0.00000000000E+00  0.14421076896E+04  0.14421076896E+04  0.25500000920E-02 0. -1.
        2   -1    0    0  501    0  0.00000000000E+00  0.00000000000E+00 -0.20853735873E+04  0.20853735873E+04  0.25500000920E-02 0.  1.
    10030    2    1    2    0    0  0.00000000000E+00  0.00000000000E+00 -0.64326589775E+03  0.35274812769E+04  0.34683329056E+04 0.  0.
        1    1    3    3  502    0 -0.91859261296E+03 -0.12499638081E+04  0.46690284951E+03  0.16199444994E+04  0.50400001928E-02 0. -1.
       -1    1    3    3    0  502  0.91859261296E+03  0.12499638081E+04 -0.11101687473E+04  0.19075367775E+04  0.50400001928E-02 0.  1.
</event>
<event>
 5   0  0.1339844E-06  0.3383860E+04  0.7818609E-02  0.8141879E-01
       -2   -1    0    0    0  501  0.00000000000E+00  0.00000000000E+00  0.11973418515E+04  0.11973418516E+04  0.25500000920E-02 0.  1.
        2   -1    0    0  501    0  0.00000000000E+00  0.00000000000E+00 -0.23908179027E+04  0.23908179027E+04  0.25500000920E-02 0. -1.
    10030    2    1    2    0    0  0.00000000000E+00  0.00000000000E+00 -0.11934760512E+04  0.35881597543E+04  0.33838595328E+04 0.  0.
        3    1    3    3  502    0  0.12927092462E+04 -0.32548284576E+03 -0.17015601696E+04  0.21615603852E+04  0.10100000352E+00 0. -1.
       -3    1    3    3    0  502 -0.12927092462E+04  0.32548284576E+03  0.50808411845E+03  0.14265993690E+04  0.10100000352E+00 0.  1.
</event>
<event>
 5   0  0.6146388E-07  0.3555391E+04  0.7818609E-02  0.8100787E-01
        1   -1    0    0  501    0  0.00000000000E+00  0.00000000000E+00  0.25171130454E+04  0.25171130454E+04  0.50400001928E-02 0. -1.
       -1   -1    0    0    0  501  0.00000000000E+00  0.00000000000E+00 -0.12554864984E+04  0.12554864984E+04  0.50400001928E-02 0.  1.
    10030    2    1    2    0    0  0.00000000000E+00  0.00000000000E+00  0.12616265469E+04  0.37725995438E+04  0.35553910859E+04 0.  0.
        4    1    3    3  502    0  0.86549699586E+03  0.50154330695E+03 -0.92851258268E+03  0.13648325786E+04  0.12699999809E+01 0. -1.
       -4    1    3    3    0  502 -0.86549699586E+03 -0.50154330695E+03  0.21901391296E+04  0.24077669652E+04  0.12699999809E+01 0.  1.
</event>
<event>
 5   0  0.6218695E-07  0.3385931E+04  0.7818609E-02  0.8141368E-01
        1   -1    0    0  501    0  0.00000000000E+00  0.00000000000E+00  0.19920331377E+04  0.19920331377E+04  0.50400001928E-02 0.  1.
       -1   -1    0    0    0  501  0.00000000000E+00  0.00000000000E+00 -0.14387971062E+04  0.14387971062E+04  0.50400001928E-02 0. -1.
    10030    2    1    2    0    0  0.00000000000E+00  0.00000000000E+00  0.55323603144E+03  0.34308302439E+04  0.33859306042E+04 0.  0.
        2    1    3    3  502    0  0.13436095568E+04  0.42520581386E+03 -0.67392897107E+03  0.15621353601E+04  0.25500000920E-02 0. -1.
       -2    1    3    3    0  502 -0.13436095568E+04 -0.42520581386E+03  0.12271650025E+04  0.18686948838E+04  0.25500000920E-02 0.  1.
</event>
<event>
 5   0  0.6134625E-07  0.2440312E+04  0.7818609E-02  0.8424564E-01
        1   -1    0    0  501    0  0.00000000000E+00  0.00000000000E+00  0.22558587568E+04  0.22558587569E+04  0.50400001928E-02 0. -1.
       -1   -1    0    0    0  501  0.00000000000E+00  0.00000000000E+00 -0.65996181798E+03  0.65996181800E+03  0.50400001928E-02 0.  1.
    10030    2    1    2    0    0  0.00000000000E+00  0.00000000000E+00  0.15958969389E+04  0.29158205749E+04  0.24403119852E+04 0.  0.
        1    1    3    3  502    0 -0.40627898427E+02  0.14244119909E+03  0.22450762913E+04  0.22499572608E+04  0.50400001928E-02 0. -1.
       -1    1    3    3    0  502  0.40627898427E+02 -0.14244119909E+03 -0.64917935248E+03  0.66586331408E+03  0.50400001928E-02 0.  1.
</event>
<event>
 5   0  0.1339844E-06  0.3303153E+04  0.7818609E-02  0.8162093E-01
        2   -1    0    0  501    0  0.00000000000E+00  0.00000000000E+00  0.17308225271E+04  0.17308225271E+04  0.25500000920E-02 0. -1.
       -2   -1    0    0    0  501  0.00000000000E+00  0.00000000000E+00 -0.15759590786E+04  0.15759590786E+04  0.25500000920E-02 0.  1.
    10030    2    1    2    0    0  0.00000000000E+00  0.00000000000E+00  0.15486344846E+03  0.33067816056E+04  0.33031533267E+04 0.  0.
        3    1    3    3  502    0 -0.25759579919E+02 -0.15920766927E+04  0.51647212704E+03  0.16739519765E+04  0.10100000352E+00 0. -1.
       -3    1    3    3    0  502  0.25759579919E+02  0.15920766927E+04 -0.36160867859E+03  0.16328296292E+04  0.10100000352E+00 0.  1.
</event>
<event>
 5   0  0.6134625E-07  0.3336797E+04  0.7818609E-02  0.8153595E-01
       -1   -1    0    0    0  501  0.00000000000E+00  0.00000000000E+00  0.11433240419E+04  0.11433240419E+04  0.50400001928E-02 0. -1.
        1   -1    0    0  501    0  0.00000000000E+00  0.00000000000E+00 -0.24346145892E+04  0.24346145892E+04  0.50400001928E-02 0.  1.
    10030    2    1    2    0    0  0.00000000000E+00  0.00000000000E+00 -0.12912905473E+04  0.35779386311E+04  0.33367969028E+04 0.  0.
        1    1    3    3  502    0  0.33258773306E+02 -0.92481863289E+03  0.84289896334E+03  0.12517485020E+04  0.50400001928E-02 0. -1.
       -1    1    3    3    0  502 -0.33258773306E+02  0.92481863289E+03 -0.21341895106E+04  0.23261901292E+04  0.50400001928E-02 0.  1.
</event>
<event>
 5   0  0.6134625E-07  0.3185076E+04  0.7818609E-02  0.8192770E-01
       -1   -1    0    0    0  501  0.00000000000E+00  0.00000000000E+00  0.15905053872E+04  0.15905053872E+04  0.50400001928E-02 0. -1.
        1   -1    0    0  501    0  0.00000000000E+00  0.00000000000E+00 -0.15945730216E+04  0.15945730216E+04  0.50400001928E-02 0.  1.
    10030    2    1    2    0    0  0.00000000000E+00  0.00000000000E+00 -0.40676344099E+01  0.31850784089E+04  0.31850758115E+04 0.  0.
        5    1    3    3  502    0  0.12748841155E+04 -0.10282088924E+03  0.94678371860E+03  0.15913274783E+04  0.46999998093E+01 0. -1.
       -5    1    3    3    0  502 -0.12748841155E+04  0.10282088924E+03 -0.95085135301E+03  0.15937509306E+04  0.46999998093E+01 0.  1.
</event>
<event>
 5   0  0.1911477E-06  0.3457805E+04  0.7818609E-02  0.8123863E-01
        2   -1    0    0  501    0  0.00000000000E+00  0.00000000000E+00  0.20435392685E+04  0.20435392685E+04  0.25500000920E-02 0. -1.
       -2   -1    0    0    0  501  0.00000000000E+00  0.00000000000E+00 -0.14627091018E+04  0.14627091018E+04  0.25500000920E-02 0.  1.
    10030    2    1    2    0    0  0.00000000000E+00  0.00000000000E+00  0.58083016668E+03  0.35062483703E+04  0.34578047879E+04 0.  0.
        5    1    3    3  502    0 -0.85623565377E+03 -0.13453514953E+04 -0.38675168962E+03  0.16409476226E+04  0.46999998093E+01 0.  1.
       -5    1    3    3    0  502  0.85623565377E+03  0.13453514953E+04  0.96758185630E+03  0.18653007477E+04  0.46999998093E+01 0. -1.
</event>
<event>
 5   0  0.1948507E-06  0.3365726E+04  0.7818609E-02  0.8146370E-01
       -2   -1    0    0    0  501  0.00000000000E+00  0.00000000000E+00  0.94656338732E+03  0.94656338733E+03  0.25500000920E-02 0.  1.
        2   -1    0    0  501    0  0.00000000000E+00  0.00000000000E+00 -0.29919046276E+04  0.29919046276E+04  0.25500000920E-02 0. -1.
    10030    2    1    2    0    0  0.00000000000E+00  0.00000000000E+00 -0.20453412403E+04  0.39384680149E+04  0.33657257041E+04 0.  0.
        1    1    3    3  502    0 -0.81634591004E+03 -0.52356028557E+03  0.58668041779E+03  0.11334592759E+04  0.50400001928E-02 0.  1.
       -1    1    3    3    0  502  0.81634591004E+03  0.52356028557E+03 -0.26320216581E+04  0.28050087390E+04  0.50400001928E-02 0. -1.
</event>
<event>
 5   0  0.1880301E-06  0.3414867E+04  0.7818609E-02  0.8134267E-01
       -2   -1    0    0    0  501  0.00000000000E+00  0.00000000000E+00  0.18363512329E+04  0.18363512329E+04  0.25500000920E-02 0. -1.
        2   -1    0    0  501    0  0.00000000000E+00  0.00000000000E+00 -0.15875664875E+04  0.15875664875E+04  0.25500000920E-02 0.  1.
    10030    2    1    2    0    0  0.00000000000E+00  0.00000000000E+00  0.24878474543E+03  0.34239177204E+04  0.34148673044E+04 0.  0.
        4    1    3    3  502    0  0.12862658361E+04  0.11917015099E+03  0.12438848761E+04  0.17933021284E+04  0.12699999809E+01 0. -1.
       -4    1    3    3    0  502 -0.12862658361E+04 -0.11917015099E+03 -0.99510013065E+03  0.16306155920E+04  0.12699999809E+01 0.  1.
</event>
<event>
 5   0  0.1911477E-06  0.3437099E+04  0.7818609E-02  0.8128861E-01
       -2   -1    0    0    0  501  0.00000000000E+00  0.00000000000E+00  0.15567449913E+04  0.15567449913E+04  0.25500000920E-02 0.  1.
        2   -1    0    0  501    0  0.00000000000E+00  0.00000000000E+00 -0.18971712682E+04  0.18971712682E+04  0.25500000920E-02 0. -1.
    10030    2    1    2    0    0  0.00000000000E+00  0.00000000000E+00 -0.34042627683E+03  0.34539162595E+04  0.34370987006E+04 0.  0.
        5    1    3    3  502    0 -0.14617898779E+04  0.73469267837E+03 -0.69889265959E+03  0.17790660523E+04  0.46999998093E+01 0.  1.
       -5    1    3    3    0  502  0.14617898779E+04 -0.73469267837E+03  0.35846638277E+03  0.16748502072E+04  0.46999998093E+01 0. -1.
</event>
<event>
 5   0  0.6146388E-07  0.3378980E+04  0.7818609E-02  0.8143085E-01
        1   -1    0    0  501    0  0.00000000000E+00  0.00000000000E+00  0.21696919637E+04  0.21696919637E+04  0.50400001928E-02 0. -1.
       -1   -1    0    0    0  501  0.00000000000E+00  0.00000000000E+00 -0.13155676011E+04  0.13155676011E+04  0.50400001928E-02 0.  1.
    10030    2    1    2    0    0  0.00000000000E+00  0.00000000000E+00  0.85412436253E+03  0.34852595648E+04  0.33789799951E+04 0.  0.
        4    1    3    3  502    0 -0.25698223680E+03 -0.21495199448E+03  0.21350846342E+04  0.21612108269E+04  0.12699999809E+01 0. -1.
       -4    1    3    3    0  502  0.25698223680E+03  0.21495199448E+03 -0.12809602717E+04  0.13240487380E+04  0.12699999809E+01 0.  1.
</event>
<event>
 5   0  0.1948507E-06  0.3388177E+04  0.7818609E-02  0.8140814E-01
       -2   -1    0    0    0  501  0.00000000000E+00  0.00000000000E+00  0.14460161365E+04  0.14460161365E+04  0.25500000920E-02 0. -1.
        2   -1    0    0  501    0  0.00000000000E+00  0.00000000000E+00 -0.19847190296E+04  0.19847190296E+04  0.25500000920E-02 0.  1.
    10030    2    1    2    0    0  0.00000000000E+00  0.00000000000E+00 -0.53870289313E+03  0.34307351661E+04  0.33881769394E+04 0.  0.
        1    1    3    3  502    0 -0.12143836227E+04 -0.64074089819E+03  0.73541262475E+03  0.15575969345E+04  0.50400001928E-02 0. -1.
       -1    1    3    3    0  502  0.12143836227E+04  0.64074089819E+03 -0.12741155179E+04  0.18731382316E+04  0.50400001928E-02 0.  1.
</event>
<event>
 5   0  0.6146388E-07  0.3386524E+04  0.7818609E-02  0.8141222E-01
       -1   -1    0    0    0  501  0.00000000000E+00  0.00000000000E+00  0.18395034198E+04  0.18395034198E+04  0.50400001928E-02 0.  1.
        1   -1    0    0  501    0  0.00000000000E+00  0.00000000000E+00 -0.15586470193E+04  0.15586470193E+04  0.50400001928E-02 0. -1.
    10030    2    1    2    0    0  0.00000000000E+00  0.00000000000E+00  0.28085640052E+03  0.33981504391E+04  0.33865241899E+04 0.  0.
        4    1    3    3  502    0  0.39558399754E+03 -0.11497429457E+04  0.13229217846E+04  0.17968080591E+04  0.12699999809E+01 0.  1.
       -4    1    3    3    0  502 -0.39558399754E+03  0.11497429457E+04 -0.10420653841E+04  0.16013423800E+04  0.12699999809E+01 0. -1.
</event>
<event>
 5   0  0.6218695E-07  0.3355611E+04  0.7818609E-02  0.8148887E-01
        1   -1    0    0  501    0  0.00000000000E+00  0.00000000000E+00  0.22614405754E+04  0.22614405754E+04  0.50400001928E-02 0.  1.
       -1   -1    0    0    0  501  0.00000000000E+00  0.00000000000E+00 -0.12447959600E+04  0.12447959600E+04  0.50400001928E-02 0. -1.
    10030    2    1    2    0    0  0.00000000000E+00  0.00000000000E+00  0.10166446155E+04  0.35062365354E+04  0.33556114745E+04 0.  0.
        2    1    3    3  502    0  0.10251770446E+04  0.10256742365E+04  0.13900219453E+04  0.20087699272E+04  0.25500000920E-02 0.  1.
       -2    1    3    3    0  502 -0.10251770446E+04 -0.10256742365E+04 -0.37337732978E+03  0.14974666082E+04  0.25500000920E-02 0. -1.
</event>
<event>
 5   0  0.1911477E-06  0.3399311E+04  0.7818609E-02  0.8138075E-01
       -2   -1    0    0    0  501  0.00000000000E+00  0.00000000000E+00  0.13916831312E+04  0.13916831312E+04  0.25500000920E-02 0.  1.
        2   -1    0    0  501    0  0.00000000000E+00  0.00000000000E+00 -0.20757807349E+04  0.20757807349E+04  0.25500000920E-02 0. -1.
    10030    2    1    2    0    0  0.00000000000E+00  0.00000000000E+00 -0.68409760373E+03  0.34674638661E+04  0.33993111260E+04 0.  0.
        5    1    3    3  502    0  0.11528918111E+04  0.46960298529E+03 -0.15224532833E+04  0.19666144975E+04  0.46999998093E+01 0. -1.
       -5    1    3    3    0  502 -0.11528918111E+04 -0.46960298529E+03  0.83835567959E+03  0.15008493686E+04  0.46999998093E+01 0.  1.
</event>
<event>
 5   0  0.6146388E-07  0.3416963E+04  0.7818609E-02  0.8133755E-01
        1   -1    0    0  501    0  0.00000000000E+00  0.00000000000E+00  0.11393569506E+04  0.11393569507E+04  0.50400001928E-02 0. -1.
       -1   -1    0    0    0  501  0.00000000000E+00  0.00000000000E+00 -0.25618921935E+04  0.25618921935E+04  0.50400001928E-02 0.  1.
    10030    2    1    2    0    0  0.00000000000E+00  0.00000000000E+00 -0.14225352428E+04  0.37012491441E+04  0.34169633756E+04 0.  0.
        4    1    3    3  502    0 -0.15734606922E+04 -0.65402403061E+03 -0.84561078032E+03  0.19022579182E+04  0.12699999809E+01 0.  1.
       -4    1    3    3    0  502  0.15734606922E+04  0.65402403061E+03 -0.57692446251E+03  0.17989912259E+04  0.12699999809E+01 0. -1.
</event>
<event>
 5   0  0.6146388E-07  0.3326576E+04  0.7818609E-02  0.8156166E-01
        1   -1    0    0  501    0  0.00000000000E+00  0.00000000000E+00  0.18005527661E+04  0.18005527661E+04  0.50400001928E-02 0. -1.
       -1   -1    0    0    0  501  0.00000000000E+00  0.00000000000E+00 -0.15364871243E+04  0.15364871243E+04  0.50400001928E-02 0.  1.
    10030    2    1    2    0    0  0.00000000000E+00  0.00000000000E+00  0.26406564178E+03  0.33370398903E+04  0.33265755014E+04 0.  0.
        4    1    3    3  502    0  0.26527182887E+03 -0.16403045683E+04  0.57257685934E+02  0.16626028616E+04  0.12699999809E+01 0. -1.
       -4    1    3    3    0  502 -0.26527182887E+03  0.16403045683E+04  0.20680795585E+03  0.16744370288E+04  0.12699999809E+01 0.  1.
</event>
<event>
 5   0  0.1880301E-06  0.3329542E+04  0.7818609E-02  0.8155419E-01
        2   -1    0    0  501    0  0.00000000000E+00  0.00000000000E+00  0.21847706096E+04  0.21847706096E+04  0.25500000920E-02 0.  1.
       -2   -1    0    0    0  501  0.00000000000E+00  0.00000000000E+00 -0.12685369563E+04  0.12685369563E+04  0.25500000920E-02 0. -1.
    10030    2    1    2    0    0  0.00000000000E+00  0.00000000000E+00  0.91623365332E+03  0.34533075659E+04  0.33295418659E+04 0.  0.
        4    1    3    3  502    0 -0.11488202839E+04  0.95344751010E+03 -0.30588580690E+03  0.15239481418E+04  0.12699999809E+01 0. -1.
       -4    1    3    3    0  502  0.11488202839E+04 -0.95344751010E+03  0.12221194602E+04  0.19293594240E+04  0.12699999809E+01 0.  1.
</event>
<event>
 5   0  0.1797075E-06  0.3362980E+04  0.7818609E-02  0.8147053E-01
        2   -1    0    0  501    0  0.00000000000E+00  0.00000000000E+00  0.24172985663E+04  0.24172985663E+04  0.25500000920E-02 0. -1.
       -2   -1    0    0    0  501  0.00000000000E+00  0.00000000000E+00 -0.11696561860E+04  0.11696561860E+04  0.25500000920E-02 0.  1.
    10030    2    1    2    0    0  0.00000000000E+00  0.00000000000E+00  0.12476423804E+04  0.35869547523E+04  0.33629797630E+04 0.  0.
        2    1    3    3  502    0 -0.87103423714E+03 -0.88615070666E+03 -0.58452170186E+03  0.13731821937E+04  0.25500000920E-02 0.  1.
       -2    1    3    3    0  502  0.87103423714E+03  0.88615070666E+03  0.18321640822E+04  0.22137725586E+04  0.25500000920E-02 0. -1.
</event>
<event>
 5   0  0.6134625E-07  0.3446832E+04  0.7818609E-02  0.8126507E-01
       -1   -1    0    0    0  501  0.00000000000E+00  0.00000000000E+00  0.15840164921E+04  0.15840164921E+04  0.50400001928E-02 0. -1.
        1   -1    0    0  501    0  0.00000000000E+00  0.00000000000E+00 -0.18750834575E+04  0.18750834575E+04  0.50400001928E-02 0.  1.
    10030    2    1    2    0    0  0.00000000000E+00  0.00000000000E+00 -0.29106696537E+03  0.34590999496E+04  0.34468322389E+04 0.  0.
        3    1    3    3  502    0 -0.39851633942E+03 -0.11394603144E+04 -0.13799430397E+04  0.18334197239E+04  0.10100000352E+00 0.  1.
       -3    1    3    3    0  502  0.39851633942E+03  0.11394603144E+04  0.10888760743E+04  0.16256802257E+04  0.10100000352E+00 0. -1.
</event>
<event>
 5   0  0.1797075E-06  0.3315048E+04  0.7818609E-02  0.8159077E-01
        2   -1    0    0  501    0  0.00000000000E+00  0.00000000000E+00  0.27082795490E+04  0.27082795490E+04  0.25500000920E-02 0. -1.
       -2   -1    0    0    0  501  0.00000000000E+00  0.00000000000E+00 -0.10144397407E+04  0.10144397407E+04  0.25500000920E-02 0.  1.
    10030    2    1    2    0    0  0.00000000000E+00  0.00000000000E+00  0.16938398083E+04  0.37227192898E+04  0.33150483577E+04 0.  0.
        2    1    3    3  502    0  0.10808387811E+04  0.12093923055E+04  0.12302877855E+04  0.20357922916E+04  0.25500000920E-02 0. -1.
       -2    1    3    3    0  502 -0.10808387811E+04 -0.12093923055E+04  0.46355202283E+03  0.16869269982E+04  0.25500000920E-02 0.  1.
</event>
<event>
 5   0  0.6134625E-07  0.3416036E+04  0.7818609E-02  0.8133982E-01
        1   -1    0    0  501    0  0.00000000000E+00  0.00000000000E+00  0.20989162616E+04  0.20989162616E+04  0.50400001928E-02 0.  1.
       -1   -1    0    0    0  501  0.00000000000E+00  0.00000000000E+00 -0.13899201526E+04  0.13899201526E+04  0.50400001928E-02 0. -1.
    10030    2    1    2    0    0  0.00000000000E+00  0.00000000000E+00  0.70899610902E+03  0.34888364143E+04  0.34160363059E+04 0.  0.
        5    1    3    3  502    0 -0.12235135415E+04 -0.11350121724E+04 -0.16655378075E+02  0.16689929626E+04  0.46999998093E+01 0.  1.
       -5    1    3    3    0  502  0.12235135415E+04  0.11350121724E+04  0.72565148709E+03  0.18198434516E+04  0.46999998093E+01 0. -1.
</event>
<event>
 5   0  0.1948507E-06  0.3124808E+04  0.7818609E-02  0.8208962E-01
       -2   -1    0    0    0  501  0.00000000000E+00  0.00000000000E+00  0.10595220004E+04  0.10595220004E+04  0.25500000920E-02 0.  1.
        2   -1    0    0  501    0  0.00000000000E+00  0.00000000000E+00 -0.23039690377E+04  0.23039690377E+04  0.25500000920E-02 0. -1.
    10030    2    1    2    0    0  0.00000000000E+00  0.00000000000E+00 -0.12444470373E+04  0.33634910382E+04  0.31248077597E+04 0.  0.
        1    1    3    3  502    0 -0.24878821083E+03 -0.37370292284E+03  0.98860005207E+03  0.10857621799E+04  0.50400001928E-02 0.  1.
       -1    1    3    3    0  502  0.24878821083E+03  0.37370292284E+03 -0.22330470893E+04  0.22777288582E+04  0.50400001928E-02 0. -1.
</event>
<event>
 5   0  0.1880301E-06  0.3396214E+04  0.7818609E-02  0.8138836E-01
       -2   -1    0    0    0  501  0.00000000000E+00  0.00000000000E+00  0.15450509733E+04  0.15450509733E+04  0.25500000920E-02 0. -1.
        2   -1    0    0  501    0  0.00000000000E+00  0.00000000000E+00 -0.18663249039E+04  0.18663249039E+04  0.25500000920E-02 0.  1.
    10030    2    1    2    0    0  0.00000000000E+00  0.00000000000E+00 -0.32127393057E+03  0.34113758771E+04  0.33962138385E+04 0.  0.
        4    1    3    3  502    0 -0.14499689280E+03  0.66519130641E+03  0.14019629130E+04  0.15585266104E+04  0.12699999809E+01 0. -1.
       -4    1    3    3    0  502  0.14499689280E+03 -0.66519130641E+03 -0.17232368436E+04  0.18528492667E+04  0.12699999809E+01 0.  1.
</event>
<event>
 5   0  0.6134625E-07  0.3403805E+04  0.7818609E-02  0.8136973E-01
       -1   -1    0    0    0  501  0.00000000000E+00  0.00000000000E+00  0.13432473045E+04  0.13432473045E+04  0.50400001928E-02 0. -1.
        1   -1    0    0  501    0  0.00000000000E+00  0.00000000000E+00 -0.21563211808E+04  0.21563211808E+04  0.50400001928E-02 0.  1.
    10030    2    1    2    0    0  0.00000000000E+00  0.00000000000E+00 -0.81307387625E+03  0.34995684853E+04  0.34038052904E+04 0.  0.
        3    1    3    3  502    0 -0.16134968409E+04 -0.11679438250E+03  0.13697529079E+03  0.16235070754E+04  0.10100000352E+00 0. -1.
       -3    1    3    3    0  502  0.16134968409E+04  0.11679438250E+03 -0.95004916705E+03  0.18760614098E+04  0.10100000352E+00 0.  1.
</event>
<event>
 5   0  0.1880301E-06  0.3431610E+04  0.7818609E-02  0.8130191E-01
        2   -1    0    0  501    0  0.00000000000E+00  0.00000000000E+00  0.26070364418E+04  0.26070364418E+04  0.25500000920E-02 0.  1.
       -2   -1    0    0    0  501  0.00000000000E+00  0.00000000000E+00 -0.11292465588E+04  0.11292465588E+04  0.25500000920E-02 0. -1.
    10030    2    1    2    0    0  0.00000000000E+00  0.00000000000E+00  0.14777898830E+04  0.37362830006E+04  0.34316100772E+04 0.  0.
        4    1    3    3  502    0 -0.14015314716E+04 -0.94571042666E+03  0.42085317771E+03  0.17423483254E+04  0.12699999809E+01 0.  1.
       -4    1    3    3    0  502  0.14015314716E+04  0.94571042666E+03  0.10569367053E+04  0.19939346752E+04  0.12699999809E+01 0. -1.
</event>
<event>
 5   0  0.1911477E-06  0.3402125E+04  0.7818609E-02  0.8137385E-01
       -2   -1    0    0    0  501  0.00000000000E+00  0.00000000000E+00  0.12637932780E+04  0.12637932780E+04  0.25500000920E-02 0.  1.
        2   -1    0    0  501    0  0.00000000000E+00  0.00000000000E+00 -0.22896258444E+04  0.22896258444E+04  0.25500000920E-02 0. -1.
    10030    2    1    2    0    0  0.00000000000E+00  0.00000000000E+00 -0.10258325664E+04  0.35534191225E+04  0.34021250720E+04 0.  0.
        5    1    3    3  502    0 -0.92334338398E+03 -0.14097446040E+04 -0.75483874841E+03  0.18465498854E+04  0.46999998093E+01 0. -1.
       -5    1    3    3    0  502  0.92334338398E+03  0.14097446040E+04 -0.27099381802E+03  0.17068692371E+04  0.46999998093E+01 0.  1.
</event>
<event>
 5   0  0.1948507E-06  0.3399463E+04  0.7818609E-02  0.8138038E-01
        2   -1    0    0  501    0  0.00000000000E+00  0.00000000000E+00  0.18917124359E+04  0.18917124359E+04  0.25500000920E-02 0.  1.
       -2   -1    0    0    0  501  0.00000000000E+00  0.00000000000E+00 -0.15272338242E+04  0.15272338242E+04  0.25500000920E-02 0. -1.
    10030    2    1    2    0    0  0.00000000000E+00  0.00000000000E+00  0.36447861172E+03  0.34189462601E+04  0.33994630269E+04 0.  0.
        1    1    3    3  502    0  0.14253202157E+04  0.81201076080E+03 -0.26549529417E+03  0.16617421413E+04  0.50400001928E-02 0. -1.
       -1    1    3    3    0  502 -0.14253202157E+04 -0.81201076080E+03  0.62997390590E+03  0.17572041188E+04  0.50400001928E-02 0.  1.
</event>
<event>
 5   0  0.6146388E-07  0.3389125E+04  0.7818609E-02  0.8140581E-01
       -1   -1    0    0    0  501  0.00000000000E+00  0.00000000000E+00  0.13496152510E+04  0.13496152510E+04  0.50400001928E-02 0. -1.
        1   -1    0    0  501    0  0.00000000000E+00  0.00000000000E+00 -0.21276745465E+04  0.21276745465E+04  0.50400001928E-02 0.  1.
    10030    2    1    2    0    0  0.00000000000E+00  0.00000000000E+00 -0.77805929547E+03  0.34772897975E+04  0.33891249709E+04 0.  0.
        4    1    3    3  502    0 -0.14900173347E+04 -0.80272987828E+03 -0.47495481101E+03  0.17578710420E+04  0.12699999809E+01 0. -1.
       -4    1    3    3    0  502  0.14900173347E+04  0.80272987828E+03 -0.30310448446E+03  0.17194187554E+04  0.12699999809E+01 0.  1.
</event>
<event>
 5   0  0.1948507E-06  0.3491610E+04  0.7818609E-02  0.8115781E-01
       -2   -1    0    0    0  501  0.00000000000E+00  0.00000000000E+00  0.14249119866E+04  0.14249119866E+04  0.25500000920E-02 0.  1.
        2   -1    0    0  501    0  0.00000000000E+00  0.00000000000E+00 -0.21389642070E+04  0.21389642070E+04  0.25500000920E-02 0. -1.
    10030    2    1    2    0    0  0.00000000000E+00  0.00000000000E+00 -0.71405222036E+03  0.35638761936E+04  0.34916103662E+04 0.  0.
        1    1    3    3  502    0 -0.15390415818E+04 -0.67111725446E+03  0.13119191951E+03  0.16841195562E+04  0.50400001928E-02 0.  1.
       -1    1    3    3    0  502  0.15390415818E+04  0.67111725446E+03 -0.84524413987E+03  0.18797566374E+04  0.50400001928E-02 0. -1.
</event>
<event>
 5   0  0.6218695E-07  0.3376760E+04  0.7818609E-02  0.8143634E-01
        1   -1    0    0  501    0  0.00000000000E+00  0.00000000000E+00  0.19436018638E+04  0.19436018638E+04  0.50400001928E-02 0. -1.
       -1   -1    0    0    0  501  0.00000000000E+00  0.00000000000E+00 -0.14666719094E+04  0.14666719094E+04  0.50400001928E-02 0.  1.
    10030    2    1    2    0    0  0.00000000000E+00  0.00000000000E+00  0.47692995441E+03  0.34102737732E+04  0.33767595453E+04 0.  0.
        2    1    3    3  502    0 -0.82916698639E+03 -0.12071689826E+04 -0.61002311766E+03  0.15864750385E+04  0.25500000920E-02 0.  1.
       -2    1    3    3    0  502  0.82916698639E+03  0.12071689826E+04  0.10869530721E+04  0.18237987347E+04  0.25500000920E-02 0. -1.
</event>
<event>
 5   0  0.1339844E-06  0.3692796E+04  0.7818609E-02  0.8069560E-01
        2   -1    0    0  501    0  0.00000000000E+00  0.00000000000E+00  0.26049569905E+04  0.26049569905E+04  0.25500000920E-02 0. -1.
       -2   -1    0    0    0  501  0.00000000000E+00  0.00000000000E+00 -0.13087302112E+04  0.13087302112E+04  0.25500000920E-02 0.  1.
    10030    2    1    2    0    0  0.00000000000E+00  0.00000000000E+00  0.12962267793E+04  0.39136872017E+04  0.36927961830E+04 0.  0.
        3    1    3    3  502    0  0.89406056279E+03  0.11578102809E+04 -0.54591819858E+03  0.15613761963E+04  0.10100000352E+00 0.  1.
       -3    1    3    3    0  502 -0.89406056279E+03 -0.11578102809E+04  0.18421449778E+04  0.23523110054E+04  0.10100000352E+00 0. -1.
</event>
<event>
 5   0  0.6146388E-07  0.3386761E+04  0.7818609E-02  0.8141163E-01
        1   -1    0    0  501    0  0.00000000000E+00  0.00000000000E+00  0.19767680070E+04  0.19767680070E+04  0.50400001928E-02 0. -1.
       -1   -1    0    0    0  501  0.00000000000E+00  0.00000000000E+00 -0.14506191551E+04  0.14506191551E+04  0.50400001928E-02 0.  1.
    10030    2    1    2    0    0  0.00000000000E+00  0.00000000000E+00  0.52614885188E+03  0.34273871621E+04  0.33867610108E+04 0.  0.
        4    1    3    3  502    0  0.29682794526E+03  0.84783551896E+03 -0.11896254062E+04  0.14906851164E+04  0.12699999809E+01 0.  1.
       -4    1    3    3    0  502 -0.29682794526E+03 -0.84783551896E+03  0.17157742580E+04  0.19367020457E+04  0.12699999809E+01 0. -1.
</event>
<event>
 5   0  0.6146388E-07  0.3347099E+04  0.7818609E-02  0.8151014E-01
       -1   -1    0    0    0  501  0.00000000000E+00  0.00000000000E+00  0.10410861942E+04  0.10410861942E+04  0.50400001928E-02 0.  1.
        1   -1    0    0  501    0  0.00000000000E+00  0.00000000000E+00 -0.26902356024E+04  0.26902356024E+04  0.50400001928E-02 0. -1.
    10030    2    1    2    0    0  0.00000000000E+00  0.00000000000E+00 -0.16491494081E+04  0.37313217966E+04  0.33470985315E+04 0.  0.
        4    1    3    3  502    0 -0.37359174475E+03 -0.10986917338E+04 -0.21688463745E+04  0.24597948140E+04  0.12699999809E+01 0. -1.
       -4    1    3    3    0  502  0.37359174475E+03  0.10986917338E+04  0.51969696639E+03  0.12715269826E+04  0.12699999809E+01 0.  1.
</event>
<event>
 5   0  0.1948507E-06  0.3401871E+04  0.7818609E-02  0.8137447E-01
       -2   -1    0    0    0  501  0.00000000000E+00  0.00000000000E+00  0.17810233152E+04  0.17810233152E+04  0.25500000920E-02 0.  1.
        2   -1    0    0  501    0  0.00000000000E+00  0.00000000000E+00 -0.16244485858E+04  0.16244485858E+04  0.25500000920E-02 0. -1.
    10030    2    1    2    0    0  0.00000000000E+00  0.00000000000E+00  0.15657472948E+03  0.34054719010E+04  0.34018705476E+04 0.  0.
        1    1    3    3  502    0  0.57175216959E+03  0.14372920301E+04 -0.62990193302E+03  0.16701752509E+04  0.50400001928E-02 0. -1.
       -1    1    3    3    0  502 -0.57175216959E+03 -0.14372920301E+04  0.78647666249E+03  0.17352966501E+04  0.50400001928E-02 0.  1.
</event>
<event>
 5   0  0.1880301E-06  0.3409326E+04  0.7818609E-02  0.8135621E-01
       -2   -1    0    0    0  501  0.00000000000E+00  0.00000000000E+00  0.10717167323E+04  0.10717167323E+04  0.25500000920E-02 0. -1.
        2   -1    0    0  501    0  0.00000000000E+00  0.00000000000E+00 -0.27114220466E+04  0.27114220466E+04  0.25500000920E-02 0.  1.
    10030    2    1    2    0    0  0.00000000000E+00  0.00000000000E+00 -0.16397053142E+04  0.37831387789E+04  0.34093262535E+04 0.  0.
        4    1    3    3  502    0 -0.84581946362E+03  0.14758439029E+04 -0.94316288879E+03  0.19450150741E+04  0.12699999809E+01 0. -1.
       -4    1    3    3    0  502  0.84581946362E+03 -0.14758439029E+04 -0.69654242542E+03  0.18381237048E+04  0.12699999809E+01 0.  1.
</event>
<event>
 5   0  0.6134625E-07  0.3377267E+04  0.7818609E-02  0.8143508E-01
        1   -1    0    0  501    0  0.00000000000E+00  0.00000000000E+00  0.26484407893E+04  0.26484407893E+04  0.50400001928E-02 0.  1.
       -1   -1    0    0    0  501  0.00000000000E+00  0.00000000000E+00 -0.10766647500E+04  0.10766647500E+04  0.50400001928E-02 0. -1.
    10030    2    1    2    0    0  0.00000000000E+00  0.00000000000E+00  0.15717760393E+04  0.37251055393E+04  0.33772668478E+04 0.  0.
        5    1    3    3  502    0  0.98853660658E+03  0.67508415891E+03 -0.52779490421E+03  0.13082556306E+04  0.46999998093E+01 0. -1.
       -5    1    3    3    0  502 -0.98853660658E+03 -0.67508415891E+03  0.20995709435E+04  0.24168499086E+04  0.46999998093E+01 0.  1.
</event>
<event>
 5   0  0.1948507E-06  0.3396739E+04  0.7818609E-02  0.8138707E-01
       -2   -1    0    0    0  501  0.00000000000E+00  0.00000000000E+00  0.14786248733E+04  0.14786248733E+04  0.25500000920E-02 0. -1.
        2   -1    0    0  501    0  0.00000000000E+00  0.00000000000E+00 -0.19507707674E+04  0.19507707674E+04  0.25500000920E-02 0.  1.
    10030    2    1    2    0    0  0.00000000000E+00  0.00000000000E+00 -0.47214589410E+03  0.34293956408E+04  0.33967385410E+04 0.  0.
        1    1    3    3  502    0  0.15913840814E+04 -0.48818974959E+03 -0.57639780225E+03  0.17615524268E+04  0.50400001928E-02 0. -1.
       -1    1    3    3    0  502 -0.15913840814E+04  0.48818974959E+03  0.10425190815E+03  0.16678432140E+04  0.50400001928E-02 0.  1.
</event>
<event>
 5   0  0.1339844E-06  0.3370230E+04  0.7818609E-02  0.8145252E-01
       -2   -1    0    0    0  501  0.00000000000E+00  0.00000000000E+00  0.16366131170E+04  0.16366131170E+04  0.25500000920E-02 0.  1.
        2   -1    0    0  501    0  0.00000000000E+00  0.00000000000E+00 -0.17350547404E+04  0.17350547404E+04  0.25500000920E-02 0. -1.
    10030    2    1    2    0    0  0.00000000000E+00  0.00000000000E+00 -0.98441623362E+02  0.33716678574E+04  0.33702304651E+04 0.  0.
        3    1    3    3  502    0 -0.14699483231E+04  0.82393279557E+03 -0.49108788823E+02  0.16858306580E+04  0.10100000352E+00 0. -1.
       -3    1    3    3    0  502  0.14699483231E+04 -0.82393279557E+03 -0.49332834539E+02  0.16858371994E+04  0.10100000352E+00 0.  1.
</event>
<event>
 5   0  0.6146388E-07  0.3366054E+04  0.7818609E-02  0.8146288E-01
       -1   -1    0    0    0  501  0.00000000000E+00  0.00000000000E+00  0.12232858068E+04  0.12232858068E+04  0.50400001928E-02 0. -1.
        1   -1    0    0  501    0  0.00000000000E+00  0.00000000000E+00 -0.23155502230E+04  0.23155502230E+04  0.50400001928E-02 0.  1.
    10030    2    1    2    0    0  0.00000000000E+00  0.00000000000E+00 -0.10922644162E+04  0.35388360298E+04  0.33660539050E+04 0.  0.
        4    1    3    3  502    0  0.12113738327E+04  0.11276679825E+03  0.67650499314E+03  0.13920501183E+04  0.12699999809E+01 0. -1.
       -4    1    3    3    0  502 -0.12113738327E+04 -0.11276679825E+03 -0.17687694094E+04  0.21467859115E+04  0.12699999809E+01 0.  1.
</event>
<event>
 5   0  0.6146388E-07  0.3339153E+04  0.7818609E-02  0.8153004E-01
        1   -1    0    0  501    0  0.00000000000E+00  0.00000000000E+00  0.18970230407E+04  0.18970230407E+04  0.50400001928E-02 0.  1.
       -1   -1    0    0    0  501  0.00000000000E+00  0.00000000000E+00 -0.14694000815E+04  0.14694000815E+04  0.50400001928E-02 0. -1.
    10030    2    1    2    0    0  0.00000000000E+00  0.00000000000E+00  0.42762295924E+03  0.33664231222E+04  0.33391530726E+04 0.  0.
        4    1    3    3  502    0 -0.13527169404E+04 -0.85561558225E+03 -0.26500198444E+03  0.16223898453E+04  0.12699999809E+01 0.  1.
       -4    1    3    3    0  502  0.13527169404E+04  0.85561558225E+03  0.69262494368E+03  0.17440332769E+04  0.12699999809E+01 0. -1.
</event>
<event>
 5   0  0.6134625E-07  0.3514104E+04  0.7818609E-02  0.8110456E-01
       -1   -1    0    0    0  501  0.00000000000E+00  0.00000000000E+00  0.11712728346E+04  0.11712728346E+04  0.50400001928E-02 0.  1.
        1   -1    0    0  501    0  0.00000000000E+00  0.00000000000E+00 -0.26357922075E+04  0.26357922075E+04  0.50400001928E-02 0. -1.
    10030    2    1    2    0    0  0.00000000000E+00  0.00000000000E+00 -0.14645193730E+04  0.38070650421E+04  0.35141040453E+04 0.  0.
        1    1    3    3  502    0 -0.14526420798E+04 -0.96385827502E+03 -0.96971248236E+03  0.19948769598E+04  0.50400001928E-02 0. -1.
       -1    1    3    3    0  502  0.14526420798E+04  0.96385827502E+03 -0.49480689060E+03  0.18121880822E+04  0.50400001928E-02 0.  1.
</event>
<event>
 5   0  0.6134625E-07  0.3363550E+04  0.7818609E-02  0.8146911E-01
       -1   -1    0    0    0  501  0.00000000000E+00  0.00000000000E+00  0.15833339581E+04  0.15833339581E+04  0.50400001928E-02 0.  1.
        1   -1    0    0  501    0  0.00000000000E+00  0.00000000000E+00 -0.17863367264E+04  0.17863367264E+04  0.50400001928E-02 0. -1.
    10030    2    1    2    0    0  0.00000000000E+00  0.00000000000E+00 -0.20300276826E+03  0.33696706845E+04  0.33635502669E+04 0.  0.
        3    1    3    3  502    0 -0.65277646432E+03 -0.79856615733E+03  0.12292765995E+04  0.16046638240E+04  0.10100000352E+00 0.  1.
       -3    1    3    3    0  502  0.65277646432E+03  0.79856615733E+03 -0.14322793677E+04  0.17650068604E+04  0.10100000352E+00 0. -1.
</event>
<event>
 5   0  0.6134625E-07  0.3328671E+04  0.7818609E-02  0.8155638E-01
       -3   -1    0    0    0  501  0.00000000000E+00  0.00000000000E+00  0.13884108096E+04  0.13884108133E+04  0.10100000352E+00 0. -1.
        3   -1    0    0  501    0  0.00000000000E+00  0.00000000000E+00 -0.19950954255E+04  0.19950954280E+04  0.10100000352E+00 0.  1.
    10030    2    1    2    0    0  0.00000000000E+00  0.00000000000E+00 -0.60668461584E+03  0.33835062413E+04  0.33286706449E+04 0.  0.
        3    1    3    3  502    0 -0.35097799217E+03  0.51088361999E+02 -0.19562350018E+04  0.19881275020E+04  0.10100000352E+00 0.  1.
       -3    1    3    3    0  502  0.35097799217E+03 -0.51088361999E+02  0.13495503860E+04  0.13953787393E+04  0.10100000352E+00 0. -1.
</event>
<event>
 5   0  0.6134625E-07  0.3446025E+04  0.7818609E-02  0.8126702E-01
        1   -1    0    0  501    0  0.00000000000E+00  0.00000000000E+00  0.14622069418E+04  0.14622069418E+04  0.50400001928E-02 0. -1.
       -1   -1    0    0    0  501  0.00000000000E+00  0.00000000000E+00 -0.20303368965E+04  0.20303368965E+04  0.50400001928E-02 0.  1.
    10030    2    1    2    0    0  0.00000000000E+00  0.00000000000E+00 -0.56812995468E+03  0.34925438383E+04  0.34460253652E+04 0.  0.
        5    1    3    3  502    0 -0.15350833648E+03  0.14709048706E+04 -0.11800949236E+04  0.18920285585E+04  0.46999998093E+01 0.  1.
       -5    1    3    3    0  502  0.15350833648E+03 -0.14709048706E+04  0.61196496892E+03  0.16005152798E+04  0.46999998093E+01 0. -1.
</event>
<event>
 5   0  0.6134625E-07  0.3409586E+04  0.7818609E-02  0.8135558E-01
       -1   -1    0    0    0  501  0.00000000000E+00  0.00000000000E+00  0.11876515207E+04  0.11876515207E+04  0.50400001928E-02 0. -1.
        1   -1    0    0  501    0  0.00000000000E+00  0.00000000000E+00 -0.24471144127E+04  0.24471144127E+04  0.50400001928E-02 0.  1.
    10030    2    1    2    0    0  0.00000000000E+00  0.00000000000E+00 -0.12594628920E+04  0.36347659334E+04  0.34095859887E+04 0.  0.
        3    1    3    3  502    0 -0.14513005965E+04  0.80235763502E+03 -0.10511462183E+04  0.19634050978E+04  0.10100000352E+00 0. -1.
       -3    1    3    3    0  502  0.14513005965E+04 -0.80235763502E+03 -0.20831667376E+03  0.16713608355E+04  0.10100000352E+00 0.  1.
</event>
<event>
 5   0  0.1880301E-06  0.3358447E+04  0.7818609E-02  0.8148181E-01
        2   -1    0    0  501    0  0.00000000000E+00  0.00000000000E+00  0.17144254818E+04  0.17144254818E+04  0.25500000920E-02 0. -1.
       -2   -1    0    0    0  501  0.00000000000E+00  0.00000000000E+00 -0.16447443342E+04  0.16447443342E+04  0.25500000920E-02 0.  1.
    10030    2    1    2    0    0  0.00000000000E+00  0.00000000000E+00  0.69681147592E+02  0.33591698161E+04  0.33584470207E+04 0.  0.
        4    1    3    3  502    0 -0.75557331009E+02  0.59206074512E+03  0.16047468312E+04  0.17121503559E+04  0.12699999809E+01 0. -1.
       -4    1    3    3    0  502  0.75557331009E+02 -0.59206074512E+03 -0.15350656836E+04  0.16470194601E+04  0.12699999809E+01 0.  1.
</event>
<event>
 5   0  0.1948507E-06  0.3398005E+04  0.7818609E-02  0.8138396E-01
       -2   -1    0    0    0  501  0.00000000000E+00  0.00000000000E+00  0.20815513864E+04  0.20815513864E+04  0.25500000920E-02 0.  1.
        2   -1    0    0  501    0  0.00000000000E+00  0.00000000000E+00 -0.13867588132E+04  0.13867588132E+04  0.25500000920E-02 0. -1.
    10030    2    1    2    0    0  0.00000000000E+00  0.00000000000E+00  0.69479257320E+03  0.34683101996E+04  0.33980051384E+04 0.  0.
        1    1    3    3  502    0  0.11400640851E+04 -0.27768365885E+03  0.16015396875E+04  0.19853925816E+04  0.50400001928E-02 0.  1.
       -1    1    3    3    0  502 -0.11400640851E+04  0.27768365885E+03 -0.90674711426E+03  0.14829176180E+04  0.50400001928E-02 0. -1.
</event>
<event>
 5   0  0.6218695E-07  0.3504298E+04  0.7818609E-02  0.8112772E-01
        1   -1    0    0  501    0  0.00000000000E+00  0.00000000000E+00  0.22726821637E+04  0.22726821637E+04  0.50400001928E-02 0. -1.
       -1   -1    0    0    0  501  0.00000000000E+00  0.00000000000E+00 -0.13508384832E+04  0.13508384832E+04  0.50400001928E-02 0.  1.
    10030    2    1    2    0    0  0.00000000000E+00  0.00000000000E+00  0.92184368053E+03  0.36235206469E+04  0.35042982332E+04 0.  0.
        2    1    3    3  502    0 -0.62624105083E+03 -0.92566026409E+03  0.18562773192E+04  0.21667464697E+04  0.25500000920E-02 0. -1.
       -2    1    3    3    0  502  0.62624105083E+03  0.92566026409E+03 -0.93443363865E+03  0.14567741772E+04  0.25500000920E-02 0.  1.
</event>
<event>
 5   0  0.1339844E-06  0.3340904E+04  0.7818609E-02  0.8152565E-01
        2   -1    0    0  501    0  0.00000000000E+00  0.00000000000E+00  0.22215916356E+04  0.22215916356E+04  0.25500000920E-02 0. -1.
       -2   -1    0    0    0  501  0.00000000000E+00  0.00000000000E+00 -0.12560410026E+04  0.12560410026E+04  0.25500000920E-02 0.  1.
    10030    2    1    2    0    0  0.00000000000E+00  0.00000000000E+00  0.96555063300E+03  0.34776326382E+04  0.33409041803E+04 0.  0.
        3    1    3    3  502    0 -0.47737640180E+03  0.58055246545E+03 -0.10700821954E+04  0.13076717131E+04  0.10100000352E+00 0.  1.
       -3    1    3    3    0  502  0.47737640180E+03 -0.58055246545E+03  0.20356328284E+04  0.21699609251E+04  0.10100000352E+00 0. -1.
</event>
<event>
 5   0  0.6134625E-07  0.3516697E+04  0.7818609E-02  0.8109844E-01
       -3   -1    0    0    0  501  0.00000000000E+00  0.00000000000E+00  0.12793487248E+04  0.12793487288E+04  0.10100000352E+00 0.  1.
        3   -1    0    0  501    0  0.00000000000E+00  0.00000000000E+00 -0.24166894548E+04  0.24166894569E+04  0.10100000352E+00 0. -1.
    10030    2    1    2    0    0  0.00000000000E+00  0.00000000000E+00 -0.11373407299E+04  0.36960381857E+04  0.35166965087E+04 0.  0.
        4    1    3    3  502    0 -0.12447355011E+04  0.78095843241E+03 -0.15835900318E+04  0.21603290357E+04  0.12699999809E+01 0. -1.
       -4    1    3    3    0  502  0.12447355011E+04 -0.78095843241E+03  0.44624930189E+03  0.15357091499E+04  0.12699999809E+01 0.  1.
</event>
<event>
 5   0  0.6134625E-07  0.3416052E+04  0.7818609E-02  0.8133978E-01
        3   -1    0    0  501    0  0.00000000000E+00  0.00000000000E+00  0.19148032718E+04  0.19148032744E+04  0.10100000352E+00 0. -1.
       -3   -1    0    0    0  501  0.00000000000E+00  0.00000000000E+00 -0.15235786558E+04  0.15235786591E+04  0.10100000352E+00 0.  1.
    10030    2    1    2    0    0  0.00000000000E+00  0.00000000000E+00  0.39122461597E+03  0.34383819335E+04  0.34160523446E+04 0.  0.
        4    1    3    3  502    0  0.53377879482E+03 -0.15811414332E+04 -0.17066714313E+03  0.16775151028E+04  0.12699999809E+01 0.  1.
       -4    1    3    3    0  502 -0.53377879482E+03  0.15811414332E+04  0.56189175909E+03  0.17608668307E+04  0.12699999809E+01 0. -1.
</event>
<event>
 5   0  0.6218695E-07  0.3403153E+04  0.7818609E-02  0.8137133E-01
       -1   -1    0    0    0  501  0.00000000000E+00  0.00000000000E+00  0.13752759868E+04  0.13752759868E+04  0.50400001928E-02 0. -1.
        1   -1    0    0  501    0  0.00000000000E+00  0.00000000000E+00 -0.21052959208E+04  0.21052959208E+04  0.50400001928E-02 0.  1.
    10030    2    1    2    0    0  0.00000000000E+00  0.00000000000E+00 -0.73001993405E+03  0.34805719076E+04  0.34031531996E+04 0.  0.
        2    1    3    3  502    0  0.15451125370E+04 -0.69390893399E+03 -0.19857953997E+03  0.17053786073E+04  0.25500000920E-02 0.  1.
       -2    1    3    3    0  502 -0.15451125370E+04  0.69390893399E+03 -0.53144039407E+03  0.17751933002E+04  0.25500000920E-02 0. -1.
</event>
<event>
 5   0  0.1797075E-06  0.3362245E+04  0.7818609E-02  0.8147235E-01
        2   -1    0    0  501    0  0.00000000000E+00  0.00000000000E+00  0.21017686535E+04  0.21017686536E+04  0.25500000920E-02 0.  1.
       -2   -1    0    0    0  501  0.00000000000E+00  0.00000000000E+00 -0.13446640950E+04  0.13446640950E+04  0.25500000920E-02 0. -1.
    10030    2    1    2    0    0  0.00000000000E+00  0.00000000000E+00  0.75710455854E+03  0.34464327486E+04  0.33622449907E+04 0.  0.
        2    1    3    3  502    0  0.56741568348E+03 -0.27034764538E+03  0.19767998300E+04  0.20743157848E+04  0.25500000920E-02 0.  1.
       -2    1    3    3    0  502 -0.56741568348E+03  0.27034764538E+03 -0.12196952714E+04  0.13721169638E+04  0.25500000920E-02 0. -1.
</event>
<event>
 5   0  0.1339844E-06  0.3372331E+04  0.7818609E-02  0.8144731E-01
        2   -1    0    0  501    0  0.00000000000E+00  0.00000000000E+00  0.25967367070E+04  0.25967367070E+04  0.25500000920E-02 0. -1.
       -2   -1    0    0    0  501  0.00000000000E+00  0.00000000000E+00 -0.10948949819E+04  0.10948949819E+04  0.25500000920E-02 0.  1.
    10030    2    1    2    0    0  0.00000000000E+00  0.00000000000E+00  0.15018417251E+04  0.36916316889E+04  0.33723309385E+04 0.  0.
        3    1    3    3  502    0 -0.89105840214E+03 -0.14314194969E+04  0.73516627491E+03  0.18394065113E+04  0.10100000352E+00 0. -1.
       -3    1    3    3    0  502  0.89105840214E+03  0.14314194969E+04  0.76667545022E+03  0.18522251775E+04  0.10100000352E+00 0.  1.
</event>
<event>
 5   0  0.6134625E-07  0.3380483E+04  0.7818609E-02  0.8142713E-01
        1   -1    0    0  501    0  0.00000000000E+00  0.00000000000E+00  0.17508828264E+04  0.17508828264E+04  0.50400001928E-02 0.  1.
       -1   -1    0    0    0  501  0.00000000000E+00  0.00000000000E+00 -0.16317002500E+04  0.16317002500E+04  0.50400001928E-02 0. -1.
    10030    2    1    2    0    0  0.00000000000E+00  0.00000000000E+00  0.11918257647E+03  0.33825830764E+04  0.33804827736E+04 0.  0.
        5    1    3    3  502    0 -0.12367056509E+04  0.10526039651E+03  0.12076372272E+04  0.17317420075E+04  0.46999998093E+01 0.  1.
       -5    1    3    3    0  502  0.12367056509E+04 -0.10526039651E+03 -0.10884546507E+04  0.16508410689E+04  0.46999998093E+01 0. -1.
</event>
<event>
 5   0  0.1948507E-06  0.3299872E+04  0.7818609E-02  0.8162928E-01
        2   -1    0    0  501    0  0.00000000000E+00  0.00000000000E+00  0.18163280105E+04  0.18163280105E+04  0.25500000920E-02 0. -1.
       -2   -1    0    0    0  501  0.00000000000E+00  0.00000000000E+00 -0.14987874277E+04  0.14987874277E+04  0.25500000920E-02 0.  1.
    10030    2    1    2    0    0  0.00000000000E+00  0.00000000000E+00  0.31754058284E+03  0.33151154381E+04  0.32998724743E+04 0.  0.
        1    1    3    3  502    0  0.63669859031E+03 -0.15221065165E+04  0.16862600990E+03  0.16585017558E+04  0.50400001928E-02 0. -1.
       -1    1    3    3    0  502 -0.63669859031E+03  0.15221065165E+04  0.14891457295E+03  0.16566136824E+04  0.50400001928E-02 0.  1.
</event>
<event>
 5   0  0.1880301E-06  0.3386902E+04  0.7818609E-02  0.8141129E-01
        2   -1    0    0  501    0  0.00000000000E+00  0.00000000000E+00  0.19034193788E+04  0.19034193788E+04  0.25500000920E-02 0. -1.
       -2   -1    0    0    0  501  0.00000000000E+00  0.00000000000E+00 -0.15066443811E+04  0.15066443811E+04  0.25500000920E-02 0.  1.
    10030    2    1    2    0    0  0.00000000000E+00  0.00000000000E+00  0.39677499771E+03  0.34100637599E+04  0.33869018952E+04 0.  0.
        4    1    3    3  502    0 -0.14878294997E+04  0.50806775395E+03  0.83198030389E+03  0.17787530188E+04  0.12699999809E+01 0. -1.
       -4    1    3    3    0  502  0.14878294997E+04 -0.50806775395E+03 -0.43520530618E+03  0.16313107412E+04  0.12699999809E+01 0.  1.
</event>
<event>
 5   0  0.6134625E-07  0.3334411E+04  0.7818609E-02  0.8154194E-01
        1   -1    0    0  501    0  0.00000000000E+00  0.00000000000E+00  0.17109740925E+04  0.17109740925E+04  0.50400001928E-02 0.  1.
       -1   -1    0    0    0  501  0.00000000000E+00  0.00000000000E+00 -0.16245562251E+04  0.16245562251E+04  0.50400001928E-02 0. -1.
    10030    2    1    2    0    0  0.00000000000E+00  0.00000000000E+00  0.86417867399E+02  0.33355303175E+04  0.33344106603E+04 0.  0.
        3    1    3    3  502    0  0.15490523800E+04 -0.56601141885E+03  0.28750682742E+03  0.16740944980E+04  0.10100000352E+00 0.  1.
       -3    1    3    3    0  502 -0.15490523800E+04  0.56601141885E+03 -0.20108896003E+03  0.16614358195E+04  0.10100000352E+00 0. -1.
</event>
<event>
 5   0  0.6218695E-07  0.3068458E+04  0.7818609E-02  0.8224448E-01
        1   -1    0    0  501    0  0.00000000000E+00  0.00000000000E+00  0.17839411857E+04  0.17839411857E+04  0.50400001928E-02 0. -1.
       -1   -1    0    0    0  501  0.00000000000E+00  0.00000000000E+00 -0.13194706593E+04  0.13194706593E+04  0.50400001928E-02 0.  1.
    10030    2    1    2    0    0  0.00000000000E+00  0.00000000000E+00  0.46447052642E+03  0.31034118450E+04  0.30684576272E+04 0.  0.
        2    1    3    3  502    0 -0.13979677401E+03  0.93943387915E+02  0.17745623275E+04  0.17825375037E+04  0.25500000920E-02 0. -1.
       -2    1    3    3    0  502  0.13979677401E+03 -0.93943387915E+02 -0.13100918011E+04  0.13208743412E+04  0.25500000920E-02 0.  1.
</event>
<event>
 5   0  0.6134625E-07  0.3380313E+04  0.7818609E-02  0.8142755E-01
       -1   -1    0    0    0  501  0.00000000000E+00  0.00000000000E+00  0.29679079437E+04  0.29679079437E+04  0.50400001928E-02 0. -1.
        1   -1    0    0  501    0  0.00000000000E+00  0.00000000000E+00 -0.96250601786E+03  0.96250601787E+03  0.50400001928E-02 0.  1.
    10030    2    1    2    0    0  0.00000000000E+00  0.00000000000E+00  0.20054019258E+04  0.39304139616E+04  0.33803131549E+04 0.  0.
        5    1    3    3  502    0  0.63649582672E+03 -0.15656506007E+04  0.10198853003E+04  0.19739748876E+04  0.46999998093E+01 0.  1.
       -5    1    3    3    0  502 -0.63649582672E+03  0.15656506007E+04  0.98551662556E+03  0.19564390740E+04  0.46999998093E+01 0. -1.
</event>
<event>
 5   0  0.1339844E-06  0.2450983E+04  0.7818609E-02  0.8420659E-01
        2   -1    0    0  501    0  0.00000000000E+00  0.00000000000E+00  0.13672986066E+04  0.13672986066E+04  0.25500000920E-02 0.  1.
       -2   -1    0    0    0  501  0.00000000000E+00  0.00000000000E+00 -0.10983918426E+04  0.10983918426E+04  0.25500000920E-02 0. -1.
    10030    2    1    2    0    0  0.00000000000E+00  0.00000000000E+00  0.26890676401E+03  0.24656904492E+04  0.24509831789E+04 0.  0.
        3    1    3    3  502    0 -0.30512627596E+03 -0.10339177536E+04  0.72082457260E+03  0.12967945250E+04  0.10100000352E+00 0.  1.
       -3    1    3    3    0  502  0.30512627596E+03  0.10339177536E+04 -0.45191780859E+03  0.11688959241E+04  0.10100000352E+00 0. -1.
</event>
<event>
 5   0  0.1797075E-06  0.3467760E+04  0.7818609E-02  0.8121473E-01
       -2   -1    0    0    0  501  0.00000000000E+00  0.00000000000E+00  0.14372074277E+04  0.14372074277E+04  0.25500000920E-02 0. -1.
        2   -1    0    0  501    0  0.00000000000E+00  0.00000000000E+00 -0.20917931339E+04  0.20917931339E+04  0.25500000920E-02 0.  1.
    10030    2    1    2    0    0  0.00000000000E+00  0.00000000000E+00 -0.65458570616E+03  0.35290005616E+04  0.34677604469E+04 0.  0.
        2    1    3    3  502    0 -0.13962584709E+03  0.12895657857E+04 -0.14982056278E+04  0.19816900353E+04  0.25500000920E-02 0.  1.
       -2    1    3    3    0  502  0.13962584709E+03 -0.12895657857E+04  0.84361992163E+03  0.15473105263E+04  0.25500000920E-02 0. -1.
</event>
<event>
 5   0  0.1911477E-06  0.3401877E+04  0.7818609E-02  0.8137446E-01
       -2   -1    0    0    0  501  0.00000000000E+00  0.00000000000E+00  0.15474158536E+04  0.15474158536E+04  0.25500000920E-02 0.  1.
        2   -1    0    0  501    0  0.00000000000E+00  0.00000000000E+00 -0.18696919278E+04  0.18696919278E+04  0.25500000920E-02 0. -1.
    10030    2    1    2    0    0  0.00000000000E+00  0.00000000000E+00 -0.32227607421E+03  0.34171077815E+04  0.34018765001E+04 0.  0.
        5    1    3    3  502    0 -0.56956323647E+03  0.15917670482E+04 -0.34917722259E+03  0.17262883417E+04  0.46999998093E+01 0.  1.
       -5    1    3    3    0  502  0.56956323647E+03 -0.15917670482E+04  0.26901148381E+02  0.16908194397E+04  0.46999998093E+01 0. -1.
</event>
<event>
 5   0  0.6146388E-07  0.2611640E+04  0.7818609E-02  0.8364258E-01
       -1   -1    0    0    0  501  0.00000000000E+00  0.00000000000E+00  0.12471212446E+04  0.12471212446E+04  0.50400001928E-02 0.  1.
        1   -1    0    0  501    0  0.00000000000E+00  0.00000000000E+00 -0.13672812456E+04  0.13672812456E+04  0.50400001928E-02 0. -1.
    10030    2    1    2    0    0  0.00000000000E+00  0.00000000000E+00 -0.12016000099E+03  0.26144024902E+04  0.26116397062E+04 0.  0.
        4    1    3    3  502    0  0.20449944982E+03  0.12310371238E+04  0.32489339739E+03  0.12895075640E+04  0.12699999809E+01 0. -1.
       -4    1    3    3    0  502 -0.20449944982E+03 -0.12310371238E+04 -0.44505339839E+03  0.13248949262E+04  0.12699999809E+01 0.  1.
</event>
<event>
 5   0  0.6134625E-07  0.3410963E+04  0.7818609E-02  0.8135221E-01
        1   -1    0    0  501    0  0.00000000000E+00  0.00000000000E+00  0.21450422437E+04  0.21450422437E+04  0.50400001928E-02 0. -1.
       -1   -1    0    0    0  501  0.00000000000E+00  0.00000000000E+00 -0.13559950185E+04  0.13559950185E+04  0.50400001928E-02 0.  1.
    10030    2    1    2    0    0  0.00000000000E+00  0.00000000000E+00  0.78904722517E+03  0.35010372623E+04  0.34109626776E+04 0.  0.
        1    1    3    3  502    0  0.14541686092E+04  0.22222813022E+03 -0.49121000173E+03  0.15508961769E+04  0.50400001928E-02 0.  1.
       -1    1    3    3    0  502 -0.14541686092E+04 -0.22222813022E+03  0.12802572269E+04  0.19501410854E+04  0.50400001928E-02 0. -1.
</event>
<event>
 5   0  0.1797075E-06  0.3404248E+04  0.7818609E-02  0.8136865E-01
        2   -1    0    0  501    0  0.00000000000E+00  0.00000000000E+00  0.91516453457E+03  0.91516453457E+03  0.25500000920E-02 0. -1.
       -2   -1    0    0    0  501  0.00000000000E+00  0.00000000000E+00 -0.31657973083E+04  0.31657973083E+04  0.25500000920E-02 0.  1.
    10030    2    1    2    0    0  0.00000000000E+00  0.00000000000E+00 -0.22506327737E+04  0.40809618428E+04  0.34042475939E+04 0.  0.
        2    1    3    3  502    0 -0.73698829762E+03 -0.46649586531E+03 -0.28775350347E+04  0.30068219134E+04  0.25500000920E-02 0.  1.
       -2    1    3    3    0  502  0.73698829762E+03  0.46649586531E+03  0.62690226097E+03  0.10741399294E+04  0.25500000920E-02 0. -1.
</event>
<event>
 5   0  0.6134625E-07  0.3353415E+04  0.7818609E-02  0.8149435E-01
       -1   -1    0    0    0  501  0.00000000000E+00  0.00000000000E+00  0.20191747713E+04  0.20191747713E+04  0.50400001928E-02 0. -1.
        1   -1    0    0  501    0  0.00000000000E+00  0.00000000000E+00 -0.13923255305E+04  0.13923255305E+04  0.50400001928E-02 0.  1.
    10030    2    1    2    0    0  0.00000000000E+00  0.00000000000E+00  0.62684924080E+03  0.34115003019E+04  0.33534153246E+04 0.  0.
        5    1    3    3  502    0 -0.51052960964E+03 -0.10171652433E+04 -0.93918686688E+03  0.14755879084E+04  0.46999998093E+01 0.  1.
       -5    1    3    3    0  502  0.51052960964E+03  0.10171652433E+04  0.15660361077E+04  0.19359123935E+04  0.46999998093E+01 0. -1.
</event>
<event>
 5   0  0.6146388E-07  0.3402515E+04  0.7818609E-02  0.8137289E-01
       -1   -1    0    0    0  501  0.00000000000E+00  0.00000000000E+00  0.13265326440E+04  0.13265326440E+04  0.50400001928E-02 0. -1.
        1   -1    0    0  501    0  0.00000000000E+00  0.00000000000E+00 -0.21818361130E+04  0.21818361130E+04  0.50400001928E-02 0.  1.
    10030    2    1    2    0    0  0.00000000000E+00  0.00000000000E+00 -0.85530346899E+03  0.35083687570E+04  0.34025148510E+04 0.  0.
        4    1    3    3  502    0  0.70059870693E+03 -0.15075571445E+04 -0.54868395506E+02  0.16633037143E+04  0.12699999809E+01 0. -1.
       -4    1    3    3    0  502 -0.70059870693E+03  0.15075571445E+04 -0.80043507349E+03  0.18450650427E+04  0.12699999809E+01 0.  1.
</event>
<event>
 5   0  0.1880301E-06  0.3364037E+04  0.7818609E-02  0.8146790E-01
       -2   -1    0    0    0  501  0.00000000000E+00  0.00000000000E+00  0.10148673203E+04  0.10148673203E+04  0.25500000920E-02 0.  1.
        2   -1    0    0  501    0  0.00000000000E+00  0.00000000000E+00 -0.27877397555E+04  0.27877397555E+04  0.25500000920E-02 0. -1.
    10030    2    1    2    0    0  0.00000000000E+00  0.00000000000E+00 -0.17728724352E+04  0.38026070757E+04  0.33640368460E+04 0.  0.
        4    1    3    3  502    0 -0.16102612210E+04  0.47084929024E+03 -0.10227576874E+04  0.19648600851E+04  0.12699999809E+01 0. -1.
       -4    1    3    3    0  502  0.16102612210E+04 -0.47084929024E+03 -0.75011474778E+03  0.18377469906E+04  0.12699999809E+01 0.  1.
</event>
<event>
 5   0  0.6134625E-07  0.2574810E+04  0.7818609E-02  0.8376808E-01
        1   -1    0    0  501    0  0.00000000000E+00  0.00000000000E+00  0.17815405728E+04  0.17815405728E+04  0.50400001928E-02 0. -1.
       -1   -1    0    0    0  501  0.00000000000E+00  0.00000000000E+00 -0.93032504972E+03  0.93032504974E+03  0.50400001928E-02 0.  1.
    10030    2    1    2    0    0  0.00000000000E+00  0.00000000000E+00  0.85121552307E+03  0.27118656225E+04  0.25748101460E+04 0.  0.
        5    1    3    3  502    0 -0.80348209190E+03  0.60225370194E+02  0.14831356105E+04  0.16878755571E+04  0.46999998093E+01 0. -1.
       -5    1    3    3    0  502  0.80348209190E+03 -0.60225370194E+02 -0.63192008741E+03  0.10239900654E+04  0.46999998093E+01 0.  1.
</event>
<event>
 5   0  0.1339844E-06  0.3372616E+04  0.7818609E-02  0.8144660E-01
        2   -1    0    0  501    0  0.00000000000E+00  0.00000000000E+00  0.10860076621E+04  0.10860076621E+04  0.25500000920E-02 0. -1.
       -2   -1    0    0    0  501  0.00000000000E+00  0.00000000000E+00 -0.26184297236E+04  0.26184297236E+04  0.25500000920E-02 0.  1.
    10030    2    1    2    0    0  0.00000000000E+00  0.00000000000E+00 -0.15324220616E+04  0.37044373857E+04  0.33726160425E+04 0.  0.
        3    1    3    3  502    0 -0.25512412890E+03 -0.15398035746E+04 -0.65003564114E+02  0.15621487903E+04  0.10100000352E+00 0. -1.
       -3    1    3    3    0  502  0.25512412890E+03  0.15398035746E+04 -0.14674184974E+04  0.21422885954E+04  0.10100000352E+00 0.  1.
</event>
<event>
 5   0  0.1948507E-06  0.3401096E+04  0.7818609E-02  0.8137637E-01
        2   -1    0    0  501    0  0.00000000000E+00  0.00000000000E+00  0.21580627511E+04  0.21580627511E+04  0.25500000920E-02 0.  1.
       -2   -1    0    0    0  501  0.00000000000E+00  0.00000000000E+00 -0.13400274050E+04  0.13400274050E+04  0.25500000920E-02 0. -1.
    10030    2    1    2    0    0  0.00000000000E+00  0.00000000000E+00  0.81803534613E+03  0.34980901562E+04  0.34010958400E+04 0.  0.
        1    1    3    3  502    0 -0.33034488910E+03  0.15770007356E+04  0.96840711949E+03  0.18798594136E+04  0.50400001928E-02 0.  1.
       -1    1    3    3    0  502  0.33034488910E+03 -0.15770007356E+04 -0.15037177336E+03  0.16182307425E+04  0.50400001928E-02 0. -1.
</event>
<event>
 5   0  0.6134625E-07  0.2748853E+04  0.7818609E-02  0.8319326E-01
       -1   -1    0    0    0  501  0.00000000000E+00  0.00000000000E+00  0.72047268787E+03  0.72047268788E+03  0.50400001928E-02 0. -1.
        1   -1    0    0  501    0  0.00000000000E+00  0.00000000000E+00 -0.26219574795E+04  0.26219574795E+04  0.50400001928E-02 0.  1.
    10030    2    1    2    0    0  0.00000000000E+00  0.00000000000E+00 -0.19014847916E+04  0.33424301674E+04  0.27488533993E+04 0.  0.
        1    1    3    3  502    0  0.56430482644E+02  0.61339009410E+03  0.54323540633E+03  0.82130171900E+03  0.50400001928E-02 0. -1.
       -1    1    3    3    0  502 -0.56430482644E+02 -0.61339009410E+03 -0.24447201980E+04  0.25211284484E+04  0.50400001928E-02 0.  1.
</event>
<event>
 5   0  0.6134625E-07  0.3384003E+04  0.7818609E-02  0.8141844E-01
        1   -1    0    0  501    0  0.00000000000E+00  0.00000000000E+00  0.14079827382E+04  0.14079827382E+04  0.50400001928E-02 0.  1.
       -1   -1    0    0    0  501  0.00000000000E+00  0.00000000000E+00 -0.20333125578E+04  0.20333125578E+04  0.50400001928E-02 0. -1.
    10030    2    1    2    0    0  0.00000000000E+00  0.00000000000E+00 -0.62532981964E+03  0.34412952960E+04  0.33840029449E+04 0.  0.
        5    1    3    3  502    0 -0.12558340313E+04  0.79744877709E+02 -0.14629064318E+04  0.19296620631E+04  0.46999998093E+01 0. -1.
       -5    1    3    3    0  502  0.12558340313E+04 -0.79744877709E+02  0.83757661214E+03  0.15116332329E+04  0.46999998093E+01 0.  1.
</event>
<event>
 5   0  0.6218695E-07  0.3348466E+04  0.7818609E-02  0.8150672E-01
        1   -1    0    0  501    0  0.00000000000E+00  0.00000000000E+00  0.23188834864E+04  0.23188834864E+04  0.50400001928E-02 0.  1.
       -1   -1    0    0    0  501  0.00000000000E+00  0.00000000000E+00 -0.12087956354E+04  0.12087956354E+04  0.50400001928E-02 0. -1.
    10030    2    1    2    0    0  0.00000000000E+00  0.00000000000E+00  0.11100878510E+04  0.35276791219E+04  0.33484660593E+04 0.  0.
        2    1    3    3  502    0  0.29411754773E+03 -0.15841476838E+04  0.10343985265E+04  0.19146825658E+04  0.25500000920E-02 0. -1.
       -2    1    3    3    0  502 -0.29411754773E+03  0.15841476838E+04  0.75689324501E+02  0.16129965561E+04  0.25500000920E-02 0.  1.
</event>
<event>
 5   0  0.6146388E-07  0.3414647E+04  0.7818609E-02  0.8134321E-01
        1   -1    0    0  501    0  0.00000000000E+00  0.00000000000E+00  0.13960147813E+04  0.13960147813E+04  0.50400001928E-02 0.  1.
       -1   -1    0    0    0  501  0.00000000000E+00  0.00000000000E+00 -0.20880534840E+04  0.20880534840E+04  0.50400001928E-02 0. -1.
    10030    2    1    2    0    0  0.00000000000E+00  0.00000000000E+00 -0.69203870262E+03  0.34840682653E+04  0.34146469966E+04 0.  0.
        4    1    3    3  502    0  0.16311681761E+04  0.46024169557E+03 -0.13587121155E+03  0.17002925148E+04  0.12699999809E+01 0. -1.
       -4    1    3    3    0  502 -0.16311681761E+04 -0.46024169557E+03 -0.55616749106E+03  0.17837757505E+04  0.12699999809E+01 0.  1.
</event>
<event>
 5   0  0.6218695E-07  0.3344987E+04  0.7818609E-02  0.8151542E-01
       -1   -1    0    0    0  501  0.00000000000E+00  0.00000000000E+00  0.14461238172E+04  0.14461238172E+04  0.50400001928E-02 0.  1.
        1   -1    0    0  501    0  0.00000000000E+00  0.00000000000E+00 -0.19342985258E+04  0.19342985258E+04  0.50400001928E-02 0. -1.
    10030    2    1    2    0    0  0.00000000000E+00  0.00000000000E+00 -0.48817470865E+03  0.33804223430E+04  0.33449873947E+04 0.  0.
        2    1    3    3  502    0  0.27008654857E+02  0.10866453251E+04  0.10404829171E+04  0.15047033697E+04  0.25500000920E-02 0.  1.
       -2    1    3    3    0  502 -0.27008654857E+02 -0.10866453251E+04 -0.15286576257E+04  0.18757189733E+04  0.25500000920E-02 0. -1.
</event>
<event>
 5   0  0.6134625E-07  0.3425304E+04  0.7818609E-02  0.8131724E-01
        1   -1    0    0  501    0  0.00000000000E+00  0.00000000000E+00  0.18537919948E+04  0.18537919948E+04  0.50400001928E-02 0. -1.
       -1   -1    0    0    0  501  0.00000000000E+00  0.00000000000E+00 -0.15822579903E+04  0.15822579903E+04  0.50400001928E-02 0.  1.
    10030    2    1    2    0    0  0.00000000000E+00  0.00000000000E+00  0.27153400450E+03  0.34360499851E+04  0.34253041886E+04 0.  0.
        1    1    3    3  502    0 -0.44334521109E+03  0.12365678312E+04  0.12380875239E+04  0.18051359213E+04  0.50400001928E-02 0. -1.
       -1    1    3    3    0  502  0.44334521109E+03 -0.12365678312E+04 -0.96655351942E+03  0.16309140638E+04  0.50400001928E-02 0.  1.
</event>
<event>
 5   0  0.1339844E-06  0.3354969E+04  0.7818609E-02  0.8149048E-01
       -2   -1    0    0    0  501  0.00000000000E+00  0.00000000000E+00  0.14080428700E+04  0.14080428700E+04  0.25500000920E-02 0.  1.
        2   -1    0    0  501    0  0.00000000000E+00  0.00000000000E+00 -0.19984860532E+04  0.19984860532E+04  0.25500000920E-02 0. -1.
    10030    2    1    2    0    0  0.00000000000E+00  0.00000000000E+00 -0.59044318319E+03  0.34065289232E+04  0.33549688749E+04 0.  0.
        3    1    3    3  502    0 -0.10005356286E+03 -0.92733982595E+03 -0.17109173997E+04  0.19486426627E+04  0.10100000352E+00 0. -1.
       -3    1    3    3    0  502  0.10005356286E+03  0.92733982595E+03  0.11204742165E+04  0.14578862604E+04  0.10100000352E+00 0.  1.
</event>
<event>
 5   0  0.1797075E-06  0.3532493E+04  0.7818609E-02  0.8106132E-01
       -2   -1    0    0    0  501  0.00000000000E+00  0.00000000000E+00  0.15575070721E+04  0.15575070721E+04  0.25500000920E-02 0. -1.
        2   -1    0    0  501    0  0.00000000000E+00  0.00000000000E+00 -0.20029614572E+04  0.20029614572E+04  0.25500000920E-02 0.  1.
    10030    2    1    2    0    0  0.00000000000E+00  0.00000000000E+00 -0.44545438508E+03  0.35604685293E+04  0.35324929638E+04 0.  0.
        2    1    3    3  502    0  0.94099902069E+02  0.74077719108E+03  0.13905804392E+04  0.15783914585E+04  0.25500000920E-02 0. -1.
       -2    1    3    3    0  502 -0.94099902069E+02 -0.74077719108E+03 -0.18360348243E+04  0.19820770708E+04  0.25500000920E-02 0.  1.
</event>
<event>
 5   0  0.6218695E-07  0.3401561E+04  0.7818609E-02  0.8137523E-01
        1   -1    0    0  501    0  0.00000000000E+00  0.00000000000E+00  0.19498637899E+04  0.19498637899E+04  0.50400001928E-02 0. -1.
       -1   -1    0    0    0  501  0.00000000000E+00  0.00000000000E+00 -0.14835162010E+04  0.14835162010E+04  0.50400001928E-02 0.  1.
    10030    2    1    2    0    0  0.00000000000E+00  0.00000000000E+00  0.46634758889E+03  0.34333799909E+04  0.34015611252E+04 0.  0.
        2    1    3    3  502    0 -0.35601789748E+03  0.10751457004E+04 -0.10475401763E+04  0.15427337558E+04  0.25500000920E-02 0.  1.
       -2    1    3    3    0  502  0.35601789748E+03 -0.10751457004E+04  0.15138877652E+04  0.18906462350E+04  0.25500000920E-02 0. -1.
</event>
<event>
 5   0  0.6146388E-07  0.3474085E+04  0.7818609E-02  0.8119959E-01
       -1   -1    0    0    0  501  0.00000000000E+00  0.00000000000E+00  0.12771618789E+04  0.12771618789E+04  0.50400001928E-02 0.  1.
        1   -1    0    0  501    0  0.00000000000E+00  0.00000000000E+00 -0.23625169577E+04  0.23625169577E+04  0.50400001928E-02 0. -1.
    10030    2    1    2    0    0  0.00000000000E+00  0.00000000000E+00 -0.10853550788E+04  0.36396788366E+04  0.34740849711E+04 0.  0.
        4    1    3    3  502    0  0.86731586348E+03 -0.14904673776E+04 -0.32395576844E+03  0.17546164149E+04  0.12699999809E+01 0. -1.
       -4    1    3    3    0  502 -0.86731586348E+03  0.14904673776E+04 -0.76139931039E+03  0.18850624216E+04  0.12699999809E+01 0.  1.
</event>
<event>
 5   0  0.6134625E-07  0.2490235E+04  0.7818609E-02  0.8406473E-01
       -1   -1    0    0    0  501  0.00000000000E+00  0.00000000000E+00  0.24651314601E+04  0.24651314601E+04  0.50400001928E-02 0. -1.
        1   -1    0    0  501    0  0.00000000000E+00  0.00000000000E+00 -0.62889838171E+03  0.62889838173E+03  0.50400001928E-02 0.  1.
    10030    2    1    2    0    0  0.00000000000E+00  0.00000000000E+00  0.18362330784E+04  0.30940298419E+04  0.24902346765E+04 0.  0.
        1    1    3    3  502    0 -0.52116093709E+03  0.11153065139E+04  0.68633818829E+03  0.14094599856E+04  0.50400001928E-02 0.  1.
       -1    1    3    3    0  502  0.52116093709E+03 -0.11153065139E+04  0.11498948901E+04  0.16845698563E+04  0.50400001928E-02 0. -1.
</event>
<event>
 5   0  0.6134625E-07  0.3450492E+04  0.7818609E-02  0.8125624E-01
       -1   -1    0    0    0  501  0.00000000000E+00  0.00000000000E+00  0.15940088485E+04  0.15940088485E+04  0.50400001928E-02 0.  1.
        1   -1    0    0  501    0  0.00000000000E+00  0.00000000000E+00 -0.18672876292E+04  0.18672876292E+04  0.50400001928E-02 0. -1.
    10030    2    1    2    0    0  0.00000000000E+00  0.00000000000E+00 -0.27327878071E+03  0.34612964777E+04  0.34504915613E+04 0.  0.
        1    1    3    3  502    0  0.59078133026E+03  0.90076805295E+03 -0.14884747584E+04  0.18373793217E+04  0.50400001928E-02 0. -1.
       -1    1    3    3    0  502 -0.59078133026E+03 -0.90076805295E+03  0.12151959777E+04  0.16239171560E+04  0.50400001928E-02 0.  1.
</event>
<event>
 5   0  0.6134625E-07  0.3403994E+04  0.7818609E-02  0.8136927E-01
       -3   -1    0    0    0  501  0.00000000000E+00  0.00000000000E+00  0.13185318979E+04  0.13185319018E+04  0.10100000352E+00 0. -1.
        3   -1    0    0  501    0  0.00000000000E+00  0.00000000000E+00 -0.21969840167E+04  0.21969840190E+04  0.10100000352E+00 0.  1.
    10030    2    1    2    0    0  0.00000000000E+00  0.00000000000E+00 -0.87845211883E+03  0.35155159208E+04  0.34039938402E+04 0.  0.
        3    1    3    3  502    0 -0.13996975342E+04 -0.49670836540E+03 -0.12976751348E+04  0.19722659945E+04  0.10100000352E+00 0.  1.
       -3    1    3    3    0  502  0.13996975342E+04  0.49670836540E+03  0.41922301593E+03  0.15432499263E+04  0.10100000352E+00 0. -1.
</event>
<event>
 5   0  0.6218695E-07  0.3353179E+04  0.7818609E-02  0.8149494E-01
       -1   -1    0    0    0  501  0.00000000000E+00  0.00000000000E+00  0.14755296739E+04  0.14755296739E+04  0.50400001928E-02 0. -1.
        1   -1    0    0  501    0  0.00000000000E+00  0.00000000000E+00 -0.19050464683E+04  0.19050464683E+04  0.50400001928E-02 0.  1.
    10030    2    1    2    0    0  0.00000000000E+00  0.00000000000E+00 -0.42951679439E+03  0.33805761422E+04  0.33531791447E+04 0.  0.
        2    1    3    3  502    0 -0.13801778837E+04  0.81075980076E+03  0.28804497407E+03  0.16264047320E+04  0.25500000920E-02 0.  1.
       -2    1    3    3    0  502  0.13801778837E+04 -0.81075980076E+03 -0.71756176846E+03  0.17541714103E+04  0.25500000920E-02 0. -1.
</event>
<event>
 5   0  0.6146388E-07  0.3370136E+04  0.7818609E-02  0.8145275E-01
        1   -1    0    0  501    0  0.00000000000E+00  0.00000000000E+00  0.10082280543E+04  0.10082280543E+04  0.50400001928E-02 0. -1.
       -1   -1    0    0    0  501  0.00000000000E+00  0.00000000000E+00 -0.28162823877E+04  0.28162823877E+04  0.50400001928E-02 0.  1.
    10030    2    1    2    0    0  0.00000000000E+00  0.00000000000E+00 -0.18080543334E+04  0.38245104419E+04  0.33701364435E+04 0.  0.
        4    1    3    3  502    0  0.17800918520E+02  0.14514629115E+04 -0.18752080300E+04  0.23713852966E+04  0.12699999809E+01 0.  1.
       -4    1    3    3    0  502 -0.17800918520E+02 -0.14514629115E+04  0.67153696629E+02  0.14531251453E+04  0.12699999809E+01 0. -1.
</event>
<event>
 5   0  0.6134625E-07  0.3404027E+04  0.7818609E-02  0.8136919E-01
        1   -1    0    0  501    0  0.00000000000E+00  0.00000000000E+00  0.15559696987E+04  0.15559696987E+04  0.50400001928E-02 0. -1.
       -1   -1    0    0    0  501  0.00000000000E+00  0.00000000000E+00 -0.18617653982E+04  0.18617653982E+04  0.50400001928E-02 0.  1.
    10030    2    1    2    0    0  0.00000000000E+00  0.00000000000E+00 -0.30579569947E+03  0.34177350969E+04  0.34040273475E+04 0.  0.
        3    1    3    3  502    0 -0.74874185398E+03 -0.15021807328E+04  0.13053170780E+03  0.16835081986E+04  0.10100000352E+00 0.  1.
       -3    1    3    3    0  502  0.74874185398E+03  0.15021807328E+04 -0.43632740727E+03  0.17342268982E+04  0.10100000352E+00 0. -1.
</event>
<event>
 5   0  0.1797075E-06  0.2742554E+04  0.7818609E-02  0.8321328E-01
       -2   -1    0    0    0  501  0.00000000000E+00  0.00000000000E+00  0.14490343949E+04  0.14490343949E+04  0.25500000920E-02 0. -1.
        2   -1    0    0  501    0  0.00000000000E+00  0.00000000000E+00 -0.12976919307E+04  0.12976919307E+04  0.25500000920E-02 0.  1.
    10030    2    1    2    0    0  0.00000000000E+00  0.00000000000E+00  0.15134246413E+03  0.27467263256E+04  0.27425537308E+04 0.  0.
        2    1    3    3  502    0  0.13275000488E+04  0.32831524149E+03  0.17757555323E+03  0.13789780109E+04  0.25500000920E-02 0.  1.
       -2    1    3    3    0  502 -0.13275000488E+04 -0.32831524149E+03 -0.26233089103E+02  0.13677483147E+04  0.25500000920E-02 0. -1.
</event>
<event>
 5   0  0.6134625E-07  0.3400537E+04  0.7818609E-02  0.8137774E-01
       -1   -1    0    0    0  501  0.00000000000E+00  0.00000000000E+00  0.14048891281E+04  0.14048891281E+04  0.50400001928E-02 0.  1.
        1   -1    0    0  501    0  0.00000000000E+00  0.00000000000E+00 -0.20577520727E+04  0.20577520727E+04  0.50400001928E-02 0. -1.
    10030    2    1    2    0    0  0.00000000000E+00  0.00000000000E+00 -0.65286294459E+03  0.34626412007E+04  0.34005373194E+04 0.  0.
        5    1    3    3  502    0 -0.77821065770E+03  0.86807600834E+03 -0.15866624610E+04  0.19689305826E+04  0.46999998093E+01 0. -1.
       -5    1    3    3    0  502  0.77821065770E+03 -0.86807600834E+03  0.93379951636E+03  0.14937106181E+04  0.46999998093E+01 0.  1.
</event>
<event>
 5   0  0.1948507E-06  0.3267750E+04  0.7818609E-02  0.8171150E-01
        2   -1    0    0  501    0  0.00000000000E+00  0.00000000000E+00  0.22774658978E+04  0.22774658978E+04  0.25500000920E-02 0.  1.
       -2   -1    0    0    0  501  0.00000000000E+00  0.00000000000E+00 -0.11721572350E+04  0.11721572350E+04  0.25500000920E-02 0. -1.
    10030    2    1    2    0    0  0.00000000000E+00  0.00000000000E+00  0.11053086627E+04  0.34496231328E+04  0.32677503758E+04 0.  0.
        1    1    3    3  502    0  0.14479405190E+03  0.16262448864E+04  0.48664089431E+03  0.17036599156E+04  0.50400001928E-02 0. -1.
       -1    1    3    3    0  502 -0.14479405190E+03 -0.16262448864E+04  0.61866776843E+03  0.17459632172E+04  0.50400001928E-02 0.  1.
</event>
<event>
 5   0  0.6134625E-07  0.3440691E+04  0.7818609E-02  0.8127991E-01
        1   -1    0    0  501    0  0.00000000000E+00  0.00000000000E+00  0.21719661392E+04  0.21719661392E+04  0.50400001928E-02 0.  1.
       -1   -1    0    0    0  501  0.00000000000E+00  0.00000000000E+00 -0.13626312463E+04  0.13626312463E+04  0.50400001928E-02 0. -1.
    10030    2    1    2    0    0  0.00000000000E+00  0.00000000000E+00  0.80933489283E+03  0.35345973855E+04  0.34406911673E+04 0.  0.
        1    1    3    3  502    0  0.36110774908E+03  0.16311149956E+04 -0.17216084237E+02  0.16706978568E+04  0.50400001928E-02 0. -1.
       -1    1    3    3    0  502 -0.36110774908E+03 -0.16311149956E+04  0.82655097706E+03  0.18638995287E+04  0.50400001928E-02 0.  1.
</event>
<event>
 5   0  0.1948507E-06  0.3367194E+04  0.7818609E-02  0.8146005E-01
       -2   -1    0    0    0  501  0.00000000000E+00  0.00000000000E+00  0.11755642158E+04  0.11755642158E+04  0.25500000920E-02 0. -1.
        2   -1    0    0  501    0  0.00000000000E+00  0.00000000000E+00 -0.24111821671E+04  0.24111821671E+04  0.25500000920E-02 0.  1.
    10030    2    1    2    0    0  0.00000000000E+00  0.00000000000E+00 -0.12356179512E+04  0.35867463829E+04  0.33671943653E+04 0.  0.
        1    1    3    3  502    0 -0.65614044580E+03 -0.24503601938E+03  0.10130086911E+04  0.12315638609E+04  0.50400001928E-02 0. -1.
       -1    1    3    3    0  502  0.65614044580E+03  0.24503601938E+03 -0.22486266423E+04  0.23551825220E+04  0.50400001928E-02 0.  1.
</event>
<event>
 5   0  0.6134625E-07  0.3401844E+04  0.7818609E-02  0.8137454E-01
       -1   -1    0    0    0  501  0.00000000000E+00  0.00000000000E+00  0.13437562171E+04  0.13437562171E+04  0.50400001928E-02 0. -1.
        1   -1    0    0  501    0  0.00000000000E+00  0.00000000000E+00 -0.21530214206E+04  0.21530214206E+04  0.50400001928E-02 0.  1.
    10030    2    1    2    0    0  0.00000000000E+00  0.00000000000E+00 -0.80926520345E+03  0.34967776377E+04  0.34018441584E+04 0.  0.
        1    1    3    3  502    0 -0.15161913607E+04  0.76801007728E+03 -0.33598415833E+03  0.17325013927E+04  0.50400001928E-02 0. -1.
       -1    1    3    3    0  502  0.15161913607E+04 -0.76801007728E+03 -0.47328104512E+03  0.17642762450E+04  0.50400001928E-02 0.  1.
</event>
<event>
 5   0  0.1911477E-06  0.2887401E+04  0.7818609E-02  0.8276636E-01
       -2   -1    0    0    0  501  0.00000000000E+00  0.00000000000E+00  0.17071315904E+04  0.17071315904E+04  0.25500000920E-02 0.  1.
        2   -1    0    0  501    0  0.00000000000E+00  0.00000000000E+00 -0.12209201711E+04  0.12209201711E+04  0.25500000920E-02 0. -1.
    10030    2    1    2    0    0  0.00000000000E+00  0.00000000000E+00  0.48621141932E+03  0.29280517615E+04  0.28874011800E+04 0.  0.
        5    1    3    3  502    0  0.15965408008E+03 -0.12763313338E+04  0.90787906272E+03  0.15744134087E+04  0.46999998093E+01 0.  1.
       -5    1    3    3    0  502 -0.15965408008E+03  0.12763313338E+04 -0.42166764341E+03  0.13536383529E+04  0.46999998093E+01 0. -1.
</event>
<event>
 5   0  0.1911477E-06  0.3439746E+04  0.7818609E-02  0.8128220E-01
        2   -1    0    0  501    0  0.00000000000E+00  0.00000000000E+00  0.31127379377E+04  0.31127379377E+04  0.25500000920E-02 0.  1.
       -2   -1    0    0    0  501  0.00000000000E+00  0.00000000000E+00 -0.95027721494E+03  0.95027721494E+03  0.25500000920E-02 0. -1.
    10030    2    1    2    0    0  0.00000000000E+00  0.00000000000E+00  0.21624607228E+04  0.40630151527E+04  0.34397464664E+04 0.  0.
        5    1    3    3  502    0  0.13576170852E+04  0.88327359202E+03  0.17645351709E+04  0.23951832597E+04  0.46999998093E+01 0.  1.
       -5    1    3    3    0  502 -0.13576170852E+04 -0.88327359202E+03  0.39792555190E+03  0.16678318930E+04  0.46999998093E+01 0. -1.
</event>
<event>
 5   0  0.1339844E-06  0.3356804E+04  0.7818609E-02  0.8148590E-01
        2   -1    0    0  501    0  0.00000000000E+00  0.00000000000E+00  0.26183533540E+04  0.26183533540E+04  0.25500000920E-02 0.  1.
       -2   -1    0    0    0  501  0.00000000000E+00  0.00000000000E+00 -0.10758798307E+04  0.10758798307E+04  0.25500000920E-02 0. -1.
    10030    2    1    2    0    0  0.00000000000E+00  0.00000000000E+00  0.15424735232E+04  0.36942331847E+04  0.33568041726E+04 0.  0.
        3    1    3    3  502    0  0.31374908853E+03 -0.15361652894E+04  0.14304398453E+04  0.21223572856E+04  0.10100000352E+00 0.  1.
       -3    1    3    3    0  502 -0.31374908853E+03  0.15361652894E+04  0.11203367796E+03  0.15718758991E+04  0.10100000352E+00 0. -1.
</event>
<event>
 5   0  0.1797075E-06  0.3439980E+04  0.7818609E-02  0.8128163E-01
        2   -1    0    0  501    0  0.00000000000E+00  0.00000000000E+00  0.97272436432E+03  0.97272436432E+03  0.25500000920E-02 0. -1.
       -2   -1    0    0    0  501  0.00000000000E+00  0.00000000000E+00 -0.30413196532E+04  0.30413196532E+04  0.25500000920E-02 0.  1.
    10030    2    1    2    0    0  0.00000000000E+00  0.00000000000E+00 -0.20685952889E+04  0.40140440176E+04  0.34399800734E+04 0.  0.
        2    1    3    3  502    0  0.14186847121E+03  0.73304578854E+03 -0.28423528892E+04  0.29387842279E+04  0.25500000920E-02 0.  1.
       -2    1    3    3    0  502 -0.14186847121E+03 -0.73304578854E+03  0.77375760031E+03  0.10752597897E+04  0.25500000920E-02 0. -1.
</event>
<event>
 5   0  0.1911477E-06  0.3412988E+04  0.7818609E-02  0.8134726E-01
        2   -1    0    0  501    0  0.00000000000E+00  0.00000000000E+00  0.22905956678E+04  0.22905956678E+04  0.25500000920E-02 0.  1.
       -2   -1    0    0    0  501  0.00000000000E+00  0.00000000000E+00 -0.12713379719E+04  0.12713379719E+04  0.25500000920E-02 0. -1.
    10030    2    1    2    0    0  0.00000000000E+00  0.00000000000E+00  0.10192576958E+04  0.35619336397E+04  0.34129876945E+04 0.  0.
        5    1    3    3  502    0  0.10617838595E+03  0.57694803965E+03 -0.11627894620E+04  0.13023994445E+04  0.46999998093E+01 0. -1.
       -5    1    3    3    0  502 -0.10617838595E+03 -0.57694803965E+03  0.21820471579E+04  0.22595341952E+04  0.46999998093E+01 0.  1.
</event>
<event>
 5   0  0.1911477E-06  0.3450350E+04  0.7818609E-02  0.8125658E-01
        2   -1    0    0  501    0  0.00000000000E+00  0.00000000000E+00  0.33478837887E+04  0.33478837887E+04  0.25500000920E-02 0.  1.
       -2   -1    0    0    0  501  0.00000000000E+00  0.00000000000E+00 -0.88898800209E+03  0.88898800209E+03  0.25500000920E-02 0. -1.
    10030    2    1    2    0    0  0.00000000000E+00  0.00000000000E+00  0.24588957866E+04  0.42368717908E+04  0.34503498492E+04 0.  0.
        5    1    3    3  502    0  0.15384058833E+04 -0.64679737582E+03  0.17663419112E+04  0.24300257909E+04  0.46999998093E+01 0.  1.
       -5    1    3    3    0  502 -0.15384058833E+04  0.64679737582E+03  0.69255387538E+03  0.18068459999E+04  0.46999998093E+01 0. -1.
</event>
<event>
 5   0  0.1339844E-06  0.3381342E+04  0.7818609E-02  0.8142501E-01
        2   -1    0    0  501    0  0.00000000000E+00  0.00000000000E+00  0.24985060437E+04  0.24985060437E+04  0.25500000920E-02 0. -1.
       -2   -1    0    0    0  501  0.00000000000E+00  0.00000000000E+00 -0.11440311849E+04  0.11440311849E+04  0.25500000920E-02 0.  1.
    10030    2    1    2    0    0  0.00000000000E+00  0.00000000000E+00  0.13544748588E+04  0.36425372286E+04  0.33813422362E+04 0.  0.
        3    1    3    3  502    0  0.17759492308E+02 -0.16588835359E+04  0.32624888639E+03  0.16907537760E+04  0.10100000352E+00 0. -1.
       -3    1    3    3    0  502 -0.17759492308E+02  0.16588835359E+04  0.10282259724E+04  0.19517834526E+04  0.10100000352E+00 0.  1.
</event>
<event>
 5   0  0.1339844E-06  0.3347204E+04  0.7818609E-02  0.8150987E-01
       -2   -1    0    0    0  501  0.00000000000E+00  0.00000000000E+00  0.12435304773E+04  0.12435304773E+04  0.25500000920E-02 0. -1.
        2   -1    0    0  501    0  0.00000000000E+00  0.00000000000E+00 -0.22524125144E+04  0.22524125144E+04  0.25500000920E-02 0.  1.
    10030    2    1    2    0    0  0.00000000000E+00  0.00000000000E+00 -0.10088820371E+04  0.34959429917E+04  0.33472039730E+04 0.  0.
        3    1    3    3  502    0  0.12220148601E+04 -0.11109817917E+04 -0.22158805924E+03  0.16663439435E+04  0.10100000352E+00 0. -1.
       -3    1    3    3    0  502 -0.12220148601E+04  0.11109817917E+04 -0.78729397784E+03  0.18295990483E+04  0.10100000352E+00 0.  1.
</event>
<event>
 5   0  0.1948507E-06  0.3413101E+04  0.7818609E-02  0.8134698E-01
        2   -1    0    0  501    0  0.00000000000E+00  0.00000000000E+00  0.10633384301E+04  0.10633384301E+04  0.25500000920E-02 0.  1.
       -2   -1    0    0    0  501  0.00000000000E+00  0.00000000000E+00 -0.27388414851E+04  0.27388414851E+04  0.25500000920E-02 0. -1.
    10030    2    1    2    0    0  0.00000000000E+00  0.00000000000E+00 -0.16755030550E+04  0.38021799152E+04  0.34131014664E+04 0.  0.
        1    1    3    3  502    0 -0.15139344939E+04  0.10556645630E+03 -0.17072202364E+04  0.22842379176E+04  0.50400001928E-02 0. -1.
       -1    1    3    3    0  502  0.15139344939E+04 -0.10556645630E+03  0.31717181390E+02  0.15179419976E+04  0.50400001928E-02 0.  1.
</event>
<event>
 5   0  0.6134625E-07  0.2790494E+04  0.7818609E-02  0.8306226E-01
        1   -1    0    0  501    0  0.00000000000E+00  0.00000000000E+00  0.16549338164E+04  0.16549338164E+04  0.50400001928E-02 0.  1.
       -1   -1    0    0    0  501  0.00000000000E+00  0.00000000000E+00 -0.11763094243E+04  0.11763094243E+04  0.50400001928E-02 0. -1.
    10030    2    1    2    0    0  0.00000000000E+00  0.00000000000E+00  0.47862439206E+03  0.28312432407E+04  0.27904940386E+04 0.  0.
        3    1    3    3  502    0 -0.41827818605E+03 -0.49528465386E+03 -0.10142257221E+04  0.12037098300E+04  0.10100000352E+00 0. -1.
       -3    1    3    3    0  502  0.41827818605E+03  0.49528465386E+03  0.14928501142E+04  0.16275334107E+04  0.10100000352E+00 0.  1.
</event>
<event>
 5   0  0.6134625E-07  0.3433510E+04  0.7818609E-02  0.8129730E-01
        1   -1    0    0  501    0  0.00000000000E+00  0.00000000000E+00  0.16413229306E+04  0.16413229306E+04  0.50400001928E-02 0. -1.
       -1   -1    0    0    0  501  0.00000000000E+00  0.00000000000E+00 -0.17956539779E+04  0.17956539779E+04  0.50400001928E-02 0.  1.
    10030    2    1    2    0    0  0.00000000000E+00  0.00000000000E+00 -0.15433104728E+03  0.34369769085E+04  0.34335101860E+04 0.  0.
        1    1    3    3  502    0  0.54915219535E+03 -0.64826828762E+03 -0.15704586365E+04  0.17855420005E+04  0.50400001928E-02 0.  1.
       -1    1    3    3    0  502 -0.54915219535E+03  0.64826828762E+03  0.14161275892E+04  0.16514349080E+04  0.50400001928E-02 0. -1.
</event>
<event>
 5   0  0.6134625E-07  0.3452480E+04  0.7818609E-02  0.8125145E-01
       -1   -1    0    0    0  501  0.00000000000E+00  0.00000000000E+00  0.17037158209E+04  0.17037158209E+04  0.50400001928E-02 0.  1.
        1   -1    0    0  501    0  0.00000000000E+00  0.00000000000E+00 -0.17490622875E+04  0.17490622875E+04  0.50400001928E-02 0. -1.
    10030    2    1    2    0    0  0.00000000000E+00  0.00000000000E+00 -0.45346466666E+02  0.34527781084E+04  0.34524803206E+04 0.  0.
        5    1    3    3  502    0  0.22748491794E+03 -0.16114786074E+04  0.55293727705E+03  0.17188293727E+04  0.46999998093E+01 0.  1.
       -5    1    3    3    0  502 -0.22748491794E+03  0.16114786074E+04 -0.59828374372E+03  0.17339487357E+04  0.46999998093E+01 0. -1.
</event>
<event>
 5   0  0.1797075E-06  0.3405086E+04  0.7818609E-02  0.8136659E-01
       -2   -1    0    0    0  501  0.00000000000E+00  0.00000000000E+00  0.13679248039E+04  0.13679248039E+04  0.25500000920E-02 0.  1.
        2   -1    0    0  501    0  0.00000000000E+00  0.00000000000E+00 -0.21190144250E+04  0.21190144250E+04  0.25500000920E-02 0. -1.
    10030    2    1    2    0    0  0.00000000000E+00  0.00000000000E+00 -0.75108962109E+03  0.34869392288E+04  0.34050858384E+04 0.  0.
        2    1    3    3  502    0 -0.19815689169E+03  0.49446298909E+03  0.12803900205E+04  0.13867798693E+04  0.25500000920E-02 0.  1.
       -2    1    3    3    0  502  0.19815689169E+03 -0.49446298909E+03 -0.20314796416E+04  0.21001593595E+04  0.25500000920E-02 0. -1.
</event>
<event>
 5   0  0.1911477E-06  0.3463583E+04  0.7818609E-02  0.8122475E-01
       -2   -1    0    0    0  501  0.00000000000E+00  0.00000000000E+00  0.25602078716E+04  0.25602078716E+04  0.25500000920E-02 0.  1.
        2   -1    0    0  501    0  0.00000000000E+00  0.00000000000E+00 -0.11714287264E+04  0.11714287264E+04  0.25500000920E-02 0. -1.
    10030    2    1    2    0    0  0.00000000000E+00  0.00000000000E+00  0.13887791453E+04  0.37316365980E+04  0.34635825651E+04 0.  0.
        5    1    3    3  502    0 -0.71037462183E+03 -0.15703025923E+04  0.51219679261E+03  0.17980127861E+04  0.46999998093E+01 0. -1.
       -5    1    3    3    0  502  0.71037462183E+03  0.15703025923E+04  0.87658235267E+03  0.19336238119E+04  0.46999998093E+01 0.  1.
</event>
<event>
 5   0  0.1948507E-06  0.3402722E+04  0.7818609E-02  0.8137239E-01
       -2   -1    0    0    0  501  0.00000000000E+00  0.00000000000E+00  0.13614992038E+04  0.13614992038E+04  0.25500000920E-02 0. -1.
        2   -1    0    0  501    0  0.00000000000E+00  0.00000000000E+00 -0.21260602765E+04  0.21260602765E+04  0.25500000920E-02 0.  1.
    10030    2    1    2    0    0  0.00000000000E+00  0.00000000000E+00 -0.76456107269E+03  0.34875594804E+04  0.34027220714E+04 0.  0.
        1    1    3    3  502    0 -0.14184361334E+04 -0.93296217665E+03 -0.26884185487E+03  0.17189111177E+04  0.50400001928E-02 0.  1.
       -1    1    3    3    0  502  0.14184361334E+04  0.93296217665E+03 -0.49571921782E+03  0.17686483626E+04  0.50400001928E-02 0. -1.
</event>
<event>
 5   0  0.1911477E-06  0.3292033E+04  0.7818609E-02  0.8164926E-01
       -2   -1    0    0    0  501  0.00000000000E+00  0.00000000000E+00  0.11157624291E+04  0.11157624291E+04  0.25500000920E-02 0.  1.
        2   -1    0    0  501    0  0.00000000000E+00  0.00000000000E+00 -0.24282677316E+04  0.24282677316E+04  0.25500000920E-02 0. -1.
    10030    2    1    2    0    0  0.00000000000E+00  0.00000000000E+00 -0.13125053024E+04  0.35440301607E+04  0.32920327476E+04 0.  0.
        5    1    3    3  502    0 -0.39575373001E+03  0.54874731247E+03  0.95914404244E+03  0.11737648878E+04  0.46999998093E+01 0.  1.
       -5    1    3    3    0  502  0.39575373001E+03 -0.54874731247E+03 -0.22716493449E+04  0.23702652729E+04  0.46999998093E+01 0. -1.
</event>
<event>
 5   0  0.6134625E-07  0.3326965E+04  0.7818609E-02  0.8156068E-01
       -1   -1    0    0    0  501  0.00000000000E+00  0.00000000000E+00  0.16409500236E+04  0.16409500236E+04  0.50400001928E-02 0. -1.
        1   -1    0    0  501    0  0.00000000000E+00  0.00000000000E+00 -0.16863244086E+04  0.16863244086E+04  0.50400001928E-02 0.  1.
    10030    2    1    2    0    0  0.00000000000E+00  0.00000000000E+00 -0.45374385015E+02  0.33272744322E+04  0.33269650302E+04 0.  0.
        5    1    3    3  502    0  0.16274423674E+04 -0.32736914246E+03 -0.12952771028E+03  0.16650942113E+04  0.46999998093E+01 0. -1.
       -5    1    3    3    0  502 -0.16274423674E+04  0.32736914246E+03  0.84153325261E+02  0.16621802209E+04  0.46999998093E+01 0.  1.
</event>
<event>
 5   0  0.6134625E-07  0.3506553E+04  0.7818609E-02  0.8112239E-01
       -1   -1    0    0    0  501  0.00000000000E+00  0.00000000000E+00  0.21199122326E+04  0.21199122326E+04  0.50400001928E-02 0.  1.
        1   -1    0    0  501    0  0.00000000000E+00  0.00000000000E+00 -0.14500499016E+04  0.14500499016E+04  0.50400001928E-02 0. -1.
    10030    2    1    2    0    0  0.00000000000E+00  0.00000000000E+00  0.66986233101E+03  0.35699621342E+04  0.35065530222E+04 0.  0.
        3    1    3    3  502    0  0.15185967460E+04  0.70119098095E+02 -0.55431978061E+03  0.16181233557E+04  0.10100000352E+00 0.  1.
       -3    1    3    3    0  502 -0.15185967460E+04 -0.70119098095E+02  0.12241821116E+04  0.19518387786E+04  0.10100000352E+00 0. -1.
</event>
<event>
 5   0  0.6134625E-07  0.3431624E+04  0.7818609E-02  0.8130188E-01
        1   -1    0    0  501    0  0.00000000000E+00  0.00000000000E+00  0.19625331402E+04  0.19625331402E+04  0.50400001928E-02 0.  1.
       -1   -1    0    0    0  501  0.00000000000E+00  0.00000000000E+00 -0.15001077522E+04  0.15001077522E+04  0.50400001928E-02 0. -1.
    10030    2    1    2    0    0  0.00000000000E+00  0.00000000000E+00  0.46242538804E+03  0.34626408924E+04  0.34316242088E+04 0.  0.
        3    1    3    3  502    0 -0.19719051672E+03 -0.17013012021E+04  0.33559472432E+03  0.17452603558E+04  0.10100000352E+00 0.  1.
       -3    1    3    3    0  502  0.19719051672E+03  0.17013012021E+04  0.12683066372E+03  0.17173805367E+04  0.10100000352E+00 0. -1.
</event>
<event>
 5   0  0.1948507E-06  0.2557301E+04  0.7818609E-02  0.8382852E-01
        2   -1    0    0  501    0  0.00000000000E+00  0.00000000000E+00  0.12967182358E+04  0.12967182358E+04  0.25500000920E-02 0. -1.
       -2   -1    0    0    0  501  0.00000000000E+00  0.00000000000E+00 -0.12608341413E+04  0.12608341413E+04  0.25500000920E-02 0.  1.
    10030    2    1    2    0    0  0.00000000000E+00  0.00000000000E+00  0.35884094493E+02  0.25575523771E+04  0.25573006263E+04 0.  0.
        1    1    3    3  502    0 -0.84816286342E+03  0.52677449564E+03 -0.78093256534E+03  0.12675674672E+04  0.50400001928E-02 0.  1.
       -1    1    3    3    0  502  0.84816286342E+03 -0.52677449564E+03  0.81681665984E+03  0.12899849100E+04  0.50400001928E-02 0. -1.
</event>
<event>
 5   0  0.1880301E-06  0.3420828E+04  0.7818609E-02  0.8132813E-01
        2   -1    0    0  501    0  0.00000000000E+00  0.00000000000E+00  0.23896939871E+04  0.23896939871E+04  0.25500000920E-02 0.  1.
       -2   -1    0    0    0  501  0.00000000000E+00  0.00000000000E+00 -0.12242223153E+04  0.12242223153E+04  0.25500000920E-02 0. -1.
    10030    2    1    2    0    0  0.00000000000E+00  0.00000000000E+00  0.11654716718E+04  0.36139163023E+04  0.34208283825E+04 0.  0.
        4    1    3    3  502    0 -0.12217097019E+04  0.71099957717E+03  0.16001201909E+04  0.21350600069E+04  0.12699999809E+01 0. -1.
       -4    1    3    3    0  502  0.12217097019E+04 -0.71099957717E+03 -0.43464851915E+03  0.14788562955E+04  0.12699999809E+01 0.  1.
</event>
<event>
 5   0  0.1911477E-06  0.3401123E+04  0.7818609E-02  0.8137631E-01
       -2   -1    0    0    0  501  0.00000000000E+00  0.00000000000E+00  0.13816178781E+04  0.13816178781E+04  0.25500000920E-02 0. -1.
        2   -1    0    0  501    0  0.00000000000E+00  0.00000000000E+00 -0.20931321592E+04  0.20931321592E+04  0.25500000920E-02 0.  1.
    10030    2    1    2    0    0  0.00000000000E+00  0.00000000000E+00 -0.71151428115E+03  0.34747500373E+04  0.34011226455E+04 0.  0.
        5    1    3    3  502    0 -0.81397072341E+03  0.14354222526E+04  0.64115738873E+02  0.16513988918E+04  0.46999998093E+01 0. -1.
       -5    1    3    3    0  502  0.81397072341E+03 -0.14354222526E+04 -0.77563002002E+03  0.18233511455E+04  0.46999998093E+01 0.  1.
</event>
<event>
 5   0  0.6218695E-07  0.3050389E+04  0.7818609E-02  0.8229487E-01
       -1   -1    0    0    0  501  0.00000000000E+00  0.00000000000E+00  0.14261261849E+04  0.14261261849E+04  0.50400001928E-02 0. -1.
        1   -1    0    0  501    0  0.00000000000E+00  0.00000000000E+00 -0.16311449733E+04  0.16311449734E+04  0.50400001928E-02 0.  1.
    10030    2    1    2    0    0  0.00000000000E+00  0.00000000000E+00 -0.20501878844E+03  0.30572711583E+04  0.30503891935E+04 0.  0.
        2    1    3    3  502    0 -0.68828133073E+03 -0.13459309283E+04  0.10032630161E+03  0.15150335378E+04  0.25500000920E-02 0. -1.
       -2    1    3    3    0  502  0.68828133073E+03  0.13459309283E+04 -0.30534509004E+03  0.15422376204E+04  0.25500000920E-02 0.  1.
</event>
<event>
 5   0  0.1339844E-06  0.3403339E+04  0.7818609E-02  0.8137087E-01
       -2   -1    0    0    0  501  0.00000000000E+00  0.00000000000E+00  0.97881576965E+03  0.97881576965E+03  0.25500000920E-02 0.  1.
        2   -1    0    0  501    0  0.00000000000E+00  0.00000000000E+00 -0.29583494931E+04  0.29583494931E+04  0.25500000920E-02 0. -1.
    10030    2    1    2    0    0  0.00000000000E+00  0.00000000000E+00 -0.19795337234E+04  0.39371652628E+04  0.34033390287E+04 0.  0.
        3    1    3    3  502    0  0.15049603166E+04  0.62592331486E+03 -0.15553175609E+04  0.22529310411E+04  0.10100000352E+00 0.  1.
       -3    1    3    3    0  502 -0.15049603166E+04 -0.62592331486E+03 -0.42421616255E+03  0.16842342216E+04  0.10100000352E+00 0. -1.
</event>
<event>
 5   0  0.6146388E-07  0.3413399E+04  0.7818609E-02  0.8134626E-01
        1   -1    0    0  501    0  0.00000000000E+00  0.00000000000E+00  0.19520378969E+04  0.19520378969E+04  0.50400001928E-02 0.  1.
       -1   -1    0    0    0  501  0.00000000000E+00  0.00000000000E+00 -0.14921958198E+04  0.14921958198E+04  0.50400001928E-02 0. -1.
    10030    2    1    2    0    0  0.00000000000E+00  0.00000000000E+00  0.45984207717E+03  0.34442337167E+04  0.34133987695E+04 0.  0.
        4    1    3    3  502    0 -0.39394168388E+03  0.10558801096E+04 -0.10633546161E+04  0.15494507119E+04  0.12699999809E+01 0. -1.
       -4    1    3    3    0  502  0.39394168388E+03 -0.10558801096E+04  0.15231966932E+04  0.18947830048E+04  0.12699999809E+01 0.  1.
</event>
<event>
 5   0  0.1339844E-06  0.3410339E+04  0.7818609E-02  0.8135373E-01
       -2   -1    0    0    0  501  0.00000000000E+00  0.00000000000E+00  0.12709534255E+04  0.12709534255E+04  0.25500000920E-02 0. -1.
        2   -1    0    0  501    0  0.00000000000E+00  0.00000000000E+00 -0.22877342604E+04  0.22877342604E+04  0.25500000920E-02 0.  1.
    10030    2    1    2    0    0  0.00000000000E+00  0.00000000000E+00 -0.10167808349E+04  0.35586876859E+04  0.34103393936E+04 0.  0.
        3    1    3    3  502    0  0.74374677195E+03  0.61481114329E+03  0.95862735320E+03  0.13601905805E+04  0.10100000352E+00 0. -1.
       -3    1    3    3    0  502 -0.74374677195E+03 -0.61481114329E+03 -0.19754081881E+04  0.21984971054E+04  0.10100000352E+00 0.  1.
</event>
<event>
 5   0  0.6218695E-07  0.3332254E+04  0.7818609E-02  0.8154737E-01
       -1   -1    0    0    0  501  0.00000000000E+00  0.00000000000E+00  0.16203035513E+04  0.16203035513E+04  0.50400001928E-02 0.  1.
        1   -1    0    0  501    0  0.00000000000E+00  0.00000000000E+00 -0.17132460445E+04  0.17132460445E+04  0.50400001928E-02 0. -1.
    10030    2    1    2    0    0  0.00000000000E+00  0.00000000000E+00 -0.92942493227E+02  0.33335495959E+04  0.33322536820E+04 0.  0.
        2    1    3    3  502    0  0.46803742700E+03 -0.13987343323E+03  0.15470559665E+04  0.16223457628E+04  0.25500000920E-02 0.  1.
       -2    1    3    3    0  502 -0.46803742700E+03  0.13987343323E+03 -0.16399984598E+04  0.17112038331E+04  0.25500000920E-02 0. -1.
</event>
<event>
 5   0  0.1948507E-06  0.3375115E+04  0.7818609E-02  0.8144041E-01
        2   -1    0    0  501    0  0.00000000000E+00  0.00000000000E+00  0.19709930307E+04  0.19709930307E+04  0.25500000920E-02 0.  1.
       -2   -1    0    0    0  501  0.00000000000E+00  0.00000000000E+00 -0.14448812783E+04  0.14448812783E+04  0.25500000920E-02 0. -1.
    10030    2    1    2    0    0  0.00000000000E+00  0.00000000000E+00  0.52611175241E+03  0.34158743091E+04  0.33751153639E+04 0.  0.
        1    1    3    3  502    0 -0.69126072164E+03  0.49181471173E+03 -0.12133715905E+04  0.14805383185E+04  0.50400001928E-02 0. -1.
       -1    1    3    3    0  502  0.69126072164E+03 -0.49181471173E+03  0.17394833429E+04  0.19353359905E+04  0.50400001928E-02 0.  1.
</event>
<event>
 5   0  0.1797075E-06  0.3416601E+04  0.7818609E-02  0.8133844E-01
        2   -1    0    0  501    0  0.00000000000E+00  0.00000000000E+00  0.19579366978E+04  0.19579366978E+04  0.25500000920E-02 0.  1.
       -2   -1    0    0    0  501  0.00000000000E+00  0.00000000000E+00 -0.14904931717E+04  0.14904931717E+04  0.25500000920E-02 0. -1.
    10030    2    1    2    0    0  0.00000000000E+00  0.00000000000E+00  0.46744352604E+03  0.34484298695E+04  0.34166013983E+04 0.  0.
        2    1    3    3  502    0 -0.19267004272E+02 -0.95722643975E+03  0.16616941504E+04  0.19177802596E+04  0.25500000920E-02 0.  1.
       -2    1    3    3    0  502  0.19267004272E+02  0.95722643975E+03 -0.11942506244E+04  0.15306496099E+04  0.25500000920E-02 0. -1.
</event>
<event>
 5   0  0.6134625E-07  0.3370554E+04  0.7818609E-02  0.8145171E-01
        1   -1    0    0  501    0  0.00000000000E+00  0.00000000000E+00  0.26817538770E+04  0.26817538770E+04  0.50400001928E-02 0. -1.
       -1   -1    0    0    0  501  0.00000000000E+00  0.00000000000E+00 -0.10590677372E+04  0.10590677372E+04  0.50400001928E-02 0.  1.
    10030    2    1    2    0    0  0.00000000000E+00  0.00000000000E+00  0.16226861398E+04  0.37408216142E+04  0.33705542632E+04 0.  0.
        5    1    3    3  502    0 -0.34625877859E+03 -0.14453354037E+04 -0.70447518728E+02  0.14879094441E+04  0.46999998093E+01 0.  1.
       -5    1    3    3    0  502  0.34625877859E+03  0.14453354037E+04  0.16931336586E+04  0.22529121702E+04  0.46999998093E+01 0. -1.
</event>
<event>
 5   0  0.6146388E-07  0.3460127E+04  0.7818609E-02  0.8123305E-01
        1   -1    0    0  501    0  0.00000000000E+00  0.00000000000E+00  0.17898004505E+04  0.17898004505E+04  0.50400001928E-02 0.  1.
       -1   -1    0    0    0  501  0.00000000000E+00  0.00000000000E+00 -0.16723201855E+04  0.16723201855E+04  0.50400001928E-02 0. -1.
    10030    2    1    2    0    0  0.00000000000E+00  0.00000000000E+00  0.11748026504E+03  0.34621206360E+04  0.34601268309E+04 0.  0.
        4    1    3    3  502    0 -0.15285088727E+04  0.66658642258E+03  0.51991891918E+03  0.17467095145E+04  0.12699999809E+01 0.  1.
       -4    1    3    3    0  502  0.15285088727E+04 -0.66658642258E+03 -0.40243865414E+03  0.17154111215E+04  0.12699999809E+01 0. -1.
</event>
<event>
 5   0  0.6134625E-07  0.3390258E+04  0.7818609E-02  0.8140301E-01
        1   -1    0    0  501    0  0.00000000000E+00  0.00000000000E+00  0.28174774961E+04  0.28174774961E+04  0.50400001928E-02 0. -1.
       -1   -1    0    0    0  501  0.00000000000E+00  0.00000000000E+00 -0.10198706050E+04  0.10198706050E+04  0.50400001928E-02 0.  1.
    10030    2    1    2    0    0  0.00000000000E+00  0.00000000000E+00  0.17976068911E+04  0.38373481010E+04  0.33902580895E+04 0.  0.
        5    1    3    3  502    0 -0.94397522984E+02  0.15317645615E+04  0.83989635553E+02  0.15369742721E+04  0.46999998093E+01 0.  1.
       -5    1    3    3    0  502  0.94397522984E+02 -0.15317645615E+04  0.17136172555E+04  0.23003738289E+04  0.46999998093E+01 0. -1.
</event>
<event>
 5   0  0.1880301E-06  0.3409599E+04  0.7818609E-02  0.8135554E-01
       -2   -1    0    0    0  501  0.00000000000E+00  0.00000000000E+00  0.12749433149E+04  0.12749433149E+04  0.25500000920E-02 0.  1.
        2   -1    0    0  501    0  0.00000000000E+00  0.00000000000E+00 -0.22795849698E+04  0.22795849698E+04  0.25500000920E-02 0. -1.
    10030    2    1    2    0    0  0.00000000000E+00  0.00000000000E+00 -0.10046416549E+04  0.35545282846E+04  0.34095991658E+04 0.  0.
        4    1    3    3  502    0 -0.14606417847E+03  0.10088086818E+04 -0.19269009990E+04  0.21799033862E+04  0.12699999809E+01 0. -1.
       -4    1    3    3    0  502  0.14606417847E+03 -0.10088086818E+04  0.92225934410E+03  0.13746248984E+04  0.12699999809E+01 0.  1.
</event>
<event>
 5   0  0.1911477E-06  0.2729098E+04  0.7818609E-02  0.8325625E-01
       -2   -1    0    0    0  501  0.00000000000E+00  0.00000000000E+00  0.15545344904E+04  0.15545344904E+04  0.25500000920E-02 0. -1.
        2   -1    0    0  501    0  0.00000000000E+00  0.00000000000E+00 -0.11977820953E+04  0.11977820953E+04  0.25500000920E-02 0.  1.
    10030    2    1    2    0    0  0.00000000000E+00  0.00000000000E+00  0.35675239508E+03  0.27523165857E+04  0.27290977111E+04 0.  0.
        5    1    3    3  502    0  0.13203642582E+04 -0.24111341876E+03  0.42638310256E+03  0.14083046883E+04  0.46999998093E+01 0. -1.
       -5    1    3    3    0  502 -0.13203642582E+04  0.24111341876E+03 -0.69630707480E+02  0.13440118974E+04  0.46999998093E+01 0.  1.
</event>
<event>
 5   0  0.6146388E-07  0.3388110E+04  0.7818609E-02  0.8140831E-01
       -1   -1    0    0    0  501  0.00000000000E+00  0.00000000000E+00  0.15519408370E+04  0.15519408370E+04  0.50400001928E-02 0.  1.
        1   -1    0    0  501    0  0.00000000000E+00  0.00000000000E+00 -0.18491829446E+04  0.18491829446E+04  0.50400001928E-02 0. -1.
    10030    2    1    2    0    0  0.00000000000E+00  0.00000000000E+00 -0.29724210758E+03  0.34011237816E+04  0.33881101085E+04 0.  0.
        4    1    3    3  502    0  0.16036415004E+04 -0.71239050870E+02 -0.69206893829E+03  0.17480566616E+04  0.12699999809E+01 0. -1.
       -4    1    3    3    0  502 -0.16036415004E+04  0.71239050870E+02  0.39482683071E+03  0.16530671200E+04  0.12699999809E+01 0.  1.
</event>
<event>
 5   0  0.1880301E-06  0.3392078E+04  0.7818609E-02  0.8139853E-01
       -2   -1    0    0    0  501  0.00000000000E+00  0.00000000000E+00  0.12331711924E+04  0.12331711925E+04  0.25500000920E-02 0.  1.
        2   -1    0    0  501    0  0.00000000000E+00  0.00000000000E+00 -0.23326430814E+04  0.23326430814E+04  0.25500000920E-02 0. -1.
    10030    2    1    2    0    0  0.00000000000E+00  0.00000000000E+00 -0.10994718890E+04  0.35658142739E+04  0.33920779769E+04 0.  0.
        4    1    3    3  502    0 -0.12543775254E+04 -0.65372699479E+03 -0.15334676886E+04  0.20862278698E+04  0.12699999809E+01 0.  1.
       -4    1    3    3    0  502  0.12543775254E+04  0.65372699479E+03  0.43399579963E+03  0.14795864040E+04  0.12699999809E+01 0. -1.
</event>
<event>
 5   0  0.6134625E-07  0.3366927E+04  0.7818609E-02  0.8146072E-01
        1   -1    0    0  501    0  0.00000000000E+00  0.00000000000E+00  0.21015583420E+04  0.21015583420E+04  0.50400001928E-02 0. -1.
       -1   -1    0    0    0  501  0.00000000000E+00  0.00000000000E+00 -0.13485465877E+04  0.13485465877E+04  0.50400001928E-02 0.  1.
    10030    2    1    2    0    0  0.00000000000E+00  0.00000000000E+00  0.75301175428E+03  0.34501049297E+04  0.33669269853E+04 0.  0.
        5    1    3    3  502    0 -0.14136153292E+04 -0.80317847317E+03 -0.70884436380E+02  0.16274061116E+04  0.46999998093E+01 0. -1.
       -5    1    3    3    0  502  0.14136153292E+04  0.80317847317E+03  0.82389619066E+03  0.18226988182E+04  0.46999998093E+01 0.  1.
</event>
<event>
 5   0  0.6134625E-07  0.3374971E+04  0.7818609E-02  0.8144077E-01
       -1   -1    0    0    0  501  0.00000000000E+00  0.00000000000E+00  0.21024822521E+04  0.21024822521E+04  0.50400001928E-02 0.  1.
        1   -1    0    0  501    0  0.00000000000E+00  0.00000000000E+00 -0.13544028274E+04  0.13544028274E+04  0.50400001928E-02 0. -1.
    10030    2    1    2    0    0  0.00000000000E+00  0.00000000000E+00  0.74807942469E+03  0.34568850795E+04  0.33749713521E+04 0.  0.
        3    1    3    3  502    0 -0.16864816071E+04 -0.55777296094E+02  0.39107401595E+03  0.17321288098E+04  0.10100000352E+00 0. -1.
       -3    1    3    3    0  502  0.16864816071E+04  0.55777296094E+02  0.35700540874E+03  0.17247562697E+04  0.10100000352E+00 0.  1.
</event>
<event>
 5   0  0.6218695E-07  0.3444394E+04  0.7818609E-02  0.8127096E-01
        1   -1    0    0  501    0  0.00000000000E+00  0.00000000000E+00  0.27712117277E+04  0.27712117277E+04  0.50400001928E-02 0. -1.
       -1   -1    0    0    0  501  0.00000000000E+00  0.00000000000E+00 -0.10702765341E+04  0.10702765341E+04  0.50400001928E-02 0.  1.
    10030    2    1    2    0    0  0.00000000000E+00  0.00000000000E+00  0.17009351936E+04  0.38414882617E+04  0.34443942185E+04 0.  0.
        2    1    3    3  502    0  0.15242314172E+04 -0.63306036470E+03  0.13990211031E+04  0.21636327982E+04  0.25500000920E-02 0.  1.
       -2    1    3    3    0  502 -0.15242314172E+04  0.63306036470E+03  0.30191409055E+03  0.16778554636E+04  0.25500000920E-02 0. -1.
</event>
<event>
 5   0  0.6218695E-07  0.3442076E+04  0.7818609E-02  0.8127656E-01
       -1   -1    0    0    0  501  0.00000000000E+00  0.00000000000E+00  0.15832135336E+04  0.15832135336E+04  0.50400001928E-02 0. -1.
        1   -1    0    0  501    0  0.00000000000E+00  0.00000000000E+00 -0.18708610570E+04  0.18708610571E+04  0.50400001928E-02 0.  1.
    10030    2    1    2    0    0  0.00000000000E+00  0.00000000000E+00 -0.28764752345E+03  0.34540745907E+04  0.34420764344E+04 0.  0.
        2    1    3    3  502    0  0.12173670384E+04 -0.61395520614E+03 -0.11977461085E+04  0.18148055658E+04  0.25500000920E-02 0.  1.
       -2    1    3    3    0  502 -0.12173670384E+04  0.61395520614E+03  0.91009858503E+03  0.16392690248E+04  0.25500000920E-02 0. -1.
</event>
<event>
 5   0  0.6134625E-07  0.3387306E+04  0.7818609E-02  0.8141029E-01
        1   -1    0    0  501    0  0.00000000000E+00  0.00000000000E+00  0.25548197440E+04  0.25548197440E+04  0.50400001928E-02 0.  1.
       -1   -1    0    0    0  501  0.00000000000E+00  0.00000000000E+00 -0.11227642597E+04  0.11227642597E+04  0.50400001928E-02 0. -1.
    10030    2    1    2    0    0  0.00000000000E+00  0.00000000000E+00  0.14320554843E+04  0.36775840038E+04  0.33873058903E+04 0.  0.
        1    1    3    3  502    0  0.23758756248E+03 -0.14412155193E+04 -0.21470575456E+03  0.14763632968E+04  0.50400001928E-02 0. -1.
       -1    1    3    3    0  502 -0.23758756248E+03  0.14412155193E+04  0.16467612388E+04  0.22012207070E+04  0.50400001928E-02 0.  1.
</event>
<event>
 5   0  0.6134625E-07  0.3417345E+04  0.7818609E-02  0.8133662E-01
       -1   -1    0    0    0  501  0.00000000000E+00  0.00000000000E+00  0.11612605753E+04  0.11612605753E+04  0.50400001928E-02 0. -1.
        1   -1    0    0  501    0  0.00000000000E+00  0.00000000000E+00 -0.25141308161E+04  0.25141308161E+04  0.50400001928E-02 0.  1.
    10030    2    1    2    0    0  0.00000000000E+00  0.00000000000E+00 -0.13528702408E+04  0.36753913913E+04  0.34173445819E+04 0.  0.
        5    1    3    3  502    0  0.12687595083E+04  0.19557156724E+03  0.53633875009E+03  0.13912872718E+04  0.46999998093E+01 0. -1.
       -5    1    3    3    0  502 -0.12687595083E+04 -0.19557156724E+03 -0.18892089909E+04  0.22841041196E+04  0.46999998093E+01 0.  1.
</event>
<event>
 5   0  0.6218695E-07  0.3418127E+04  0.7818609E-02  0.8133472E-01
        1   -1    0    0  501    0  0.00000000000E+00  0.00000000000E+00  0.18986316844E+04  0.18986316844E+04  0.50400001928E-02 0.  1.
       -1   -1    0    0    0  501  0.00000000000E+00  0.00000000000E+00 -0.15384226063E+04  0.15384226063E+04  0.50400001928E-02 0. -1.
    10030    2    1    2    0    0  0.00000000000E+00  0.00000000000E+00  0.36020907810E+03  0.34370542906E+04  0.34181269164E+04 0.  0.
        2    1    3    3  502    0 -0.59211949540E+03 -0.10416363945E+03 -0.14285799831E+04  0.15499342982E+04  0.25500000920E-02 0. -1.
       -2    1    3    3    0  502  0.59211949540E+03  0.10416363945E+03  0.17887890612E+04  0.18871199925E+04  0.25500000920E-02 0.  1.
</event>
<event>
 5   0  0.1797075E-06  0.3379006E+04  0.7818609E-02  0.8143078E-01
       -2   -1    0    0    0  501  0.00000000000E+00  0.00000000000E+00  0.16575509854E+04  0.16575509854E+04  0.25500000920E-02 0.  1.
        2   -1    0    0  501    0  0.00000000000E+00  0.00000000000E+00 -0.17220706363E+04  0.17220706363E+04  0.25500000920E-02 0. -1.
    10030    2    1    2    0    0  0.00000000000E+00  0.00000000000E+00 -0.64519650928E+02  0.33796216217E+04  0.33790057000E+04 0.  0.
        2    1    3    3  502    0  0.10562336094E+04  0.11249038287E+04  0.65589307133E+03  0.16766734275E+04  0.25500000920E-02 0.  1.
       -2    1    3    3    0  502 -0.10562336094E+04 -0.11249038287E+04 -0.72041272226E+03  0.17029481942E+04  0.25500000920E-02 0. -1.
</event>
<event>
 5   0  0.1880301E-06  0.3464085E+04  0.7818609E-02  0.8122354E-01
       -2   -1    0    0    0  501  0.00000000000E+00  0.00000000000E+00  0.15632505335E+04  0.15632505335E+04  0.25500000920E-02 0. -1.
        2   -1    0    0  501    0  0.00000000000E+00  0.00000000000E+00 -0.19190596148E+04  0.19190596148E+04  0.25500000920E-02 0.  1.
    10030    2    1    2    0    0  0.00000000000E+00  0.00000000000E+00 -0.35580908132E+03  0.34823101483E+04  0.34640848526E+04 0.  0.
        4    1    3    3  502    0 -0.41053987265E+03  0.16075194787E+04  0.32201206613E+03  0.16900755146E+04  0.12699999809E+01 0. -1.
       -4    1    3    3    0  502  0.41053987265E+03 -0.16075194787E+04 -0.67782114745E+03  0.17922346337E+04  0.12699999809E+01 0.  1.
</event>
<event>
 5   0  0.1880301E-06  0.2890644E+04  0.7818609E-02  0.8275667E-01
        2   -1    0    0  501    0  0.00000000000E+00  0.00000000000E+00  0.21555567040E+04  0.21555567040E+04  0.25500000920E-02 0.  1.
       -2   -1    0    0    0  501  0.00000000000E+00  0.00000000000E+00 -0.96910264276E+03  0.96910264276E+03  0.25500000920E-02 0. -1.
    10030    2    1    2    0    0  0.00000000000E+00  0.00000000000E+00  0.11864540612E+04  0.31246593467E+04  0.28906440102E+04 0.  0.
        4    1    3    3  502    0 -0.11789314008E+04 -0.80600834430E+03  0.35291079948E+03  0.14710799924E+04  0.12699999809E+01 0. -1.
       -4    1    3    3    0  502  0.11789314008E+04  0.80600834430E+03  0.83354326173E+03  0.16535793543E+04  0.12699999809E+01 0.  1.
</event>
<event>
 5   0  0.6218695E-07  0.3413914E+04  0.7818609E-02  0.8134500E-01
       -1   -1    0    0    0  501  0.00000000000E+00  0.00000000000E+00  0.13315243336E+04  0.13315243336E+04  0.50400001928E-02 0.  1.
        1   -1    0    0  501    0  0.00000000000E+00  0.00000000000E+00 -0.21882452839E+04  0.21882452839E+04  0.50400001928E-02 0. -1.
    10030    2    1    2    0    0  0.00000000000E+00  0.00000000000E+00 -0.85672095026E+03  0.35197696175E+04  0.34139137912E+04 0.  0.
        2    1    3    3  502    0  0.16966013278E+04  0.11689038760E+03 -0.57982527254E+03  0.17967517288E+04  0.25500000920E-02 0. -1.
       -2    1    3    3    0  502 -0.16966013278E+04 -0.11689038760E+03 -0.27689567772E+03  0.17230178887E+04  0.25500000920E-02 0.  1.
</event>
<event>
 5   0  0.6218695E-07  0.3356784E+04  0.7818609E-02  0.8148595E-01
       -1   -1    0    0    0  501  0.00000000000E+00  0.00000000000E+00  0.15357591897E+04  0.15357591897E+04  0.50400001928E-02 0.  1.
        1   -1    0    0  501    0  0.00000000000E+00  0.00000000000E+00 -0.18342722596E+04  0.18342722596E+04  0.50400001928E-02 0. -1.
    10030    2    1    2    0    0  0.00000000000E+00  0.00000000000E+00 -0.29851306985E+03  0.33700314493E+04  0.33567844608E+04 0.  0.
        2    1    3    3  502    0  0.14933483639E+04 -0.20986721778E+03 -0.88895918814E+03  0.17505376383E+04  0.25500000920E-02 0. -1.
       -2    1    3    3    0  502 -0.14933483639E+04  0.20986721778E+03  0.59044611829E+03  0.16194938109E+04  0.25500000920E-02 0.  1.
</event>
<event>
 5   0  0.1339844E-06  0.3414315E+04  0.7818609E-02  0.8134402E-01
        2   -1    0    0  501    0  0.00000000000E+00  0.00000000000E+00  0.18327339787E+04  0.18327339787E+04  0.25500000920E-02 0.  1.
       -2   -1    0    0    0  501  0.00000000000E+00  0.00000000000E+00 -0.15901849242E+04  0.15901849242E+04  0.25500000920E-02 0. -1.
    10030    2    1    2    0    0  0.00000000000E+00  0.00000000000E+00  0.24254905444E+03  0.34229189029E+04  0.34143145391E+04 0.  0.
        3    1    3    3  502    0  0.24376646056E+03  0.69714997884E+02 -0.15712049479E+04  0.15915298510E+04  0.10100000352E+00 0. -1.
       -3    1    3    3    0  502 -0.24376646056E+03 -0.69714997884E+02  0.18137540023E+04  0.18313890519E+04  0.10100000352E+00 0.  1.
</event>
<event>
 5   0  0.6134625E-07  0.3405580E+04  0.7818609E-02  0.8136538E-01
        1   -1    0    0  501    0  0.00000000000E+00  0.00000000000E+00  0.17051265387E+04  0.17051265387E+04  0.50400001928E-02 0. -1.
       -1   -1    0    0    0  501  0.00000000000E+00  0.00000000000E+00 -0.17004570143E+04  0.17004570143E+04  0.50400001928E-02 0.  1.
    10030    2    1    2    0    0  0.00000000000E+00  0.00000000000E+00  0.46695243757E+01  0.34055835530E+04  0.34055803517E+04 0.  0.
        5    1    3    3  502    0  0.91858950031E+03 -0.57849015755E+03  0.13142105170E+04  0.17045905390E+04  0.46999998093E+01 0. -1.
       -5    1    3    3    0  502 -0.91858950031E+03  0.57849015755E+03 -0.13095409926E+04  0.17009930141E+04  0.46999998093E+01 0.  1.
</event>
<event>
 5   0  0.6134625E-07  0.3389857E+04  0.7818609E-02  0.8140400E-01
       -1   -1    0    0    0  501  0.00000000000E+00  0.00000000000E+00  0.34062837625E+04  0.34062837625E+04  0.50400001928E-02 0. -1.
        1   -1    0    0  501    0  0.00000000000E+00  0.00000000000E+00 -0.84337714344E+03  0.84337714345E+03  0.50400001928E-02 0.  1.
    10030    2    1    2    0    0  0.00000000000E+00  0.00000000000E+00  0.25629066190E+04  0.42496609059E+04  0.33898565571E+04 0.  0.
        5    1    3    3  502    0  0.30268286828E+03 -0.94419484733E+03  0.30047592005E+04  0.31641303342E+04  0.46999998093E+01 0. -1.
       -5    1    3    3    0  502 -0.30268286828E+03  0.94419484733E+03 -0.44185258149E+03  0.10855305718E+04  0.46999998093E+01 0.  1.
</event>
<event>
 5   0  0.1797075E-06  0.3440769E+04  0.7818609E-02  0.8127972E-01
        2   -1    0    0  501    0  0.00000000000E+00  0.00000000000E+00  0.20766409121E+04  0.20766409121E+04  0.25500000920E-02 0.  1.
       -2   -1    0    0    0  501  0.00000000000E+00  0.00000000000E+00 -0.14252449777E+04  0.14252449777E+04  0.25500000920E-02 0. -1.
    10030    2    1    2    0    0  0.00000000000E+00  0.00000000000E+00  0.65139593433E+03  0.35018858898E+04  0.34407685365E+04 0.  0.
        2    1    3    3  502    0  0.17084259142E+04  0.15800507792E+03  0.19680997700E+03  0.17269681166E+04  0.25500000920E-02 0.  1.
       -2    1    3    3    0  502 -0.17084259142E+04 -0.15800507792E+03  0.45458595734E+03  0.17749177732E+04  0.25500000920E-02 0. -1.
</event>
<event>
 5   0  0.6134625E-07  0.3415070E+04  0.7818609E-02  0.8134218E-01
        1   -1    0    0  501    0  0.00000000000E+00  0.00000000000E+00  0.19864631308E+04  0.19864631308E+04  0.50400001928E-02 0.  1.
       -1   -1    0    0    0  501  0.00000000000E+00  0.00000000000E+00 -0.14677723799E+04  0.14677723799E+04  0.50400001928E-02 0. -1.
    10030    2    1    2    0    0  0.00000000000E+00  0.00000000000E+00  0.51869075086E+03  0.34542355107E+04  0.34150699654E+04 0.  0.
        3    1    3    3  502    0  0.68565435287E+03 -0.15511903905E+04  0.58670984958E+02  0.16969843293E+04  0.10100000352E+00 0. -1.
       -3    1    3    3    0  502 -0.68565435287E+03  0.15511903905E+04  0.46001976590E+03  0.17572511814E+04  0.10100000352E+00 0.  1.
</event>
<event>
 5   0  0.1339844E-06  0.3440843E+04  0.7818609E-02  0.8127954E-01
        2   -1    0    0  501    0  0.00000000000E+00  0.00000000000E+00  0.25647586695E+04  0.25647586695E+04  0.25500000920E-02 0.  1.
       -2   -1    0    0    0  501  0.00000000000E+00  0.00000000000E+00 -0.11540459255E+04  0.11540459255E+04  0.25500000920E-02 0. -1.
    10030    2    1    2    0    0  0.00000000000E+00  0.00000000000E+00  0.14107127439E+04  0.37188045950E+04  0.34408425088E+04 0.  0.
        3    1    3    3  502    0  0.31962500323E+03  0.14428127731E+04  0.16574155662E+04  0.22205619132E+04  0.10100000352E+00 0.  1.
       -3    1    3    3    0  502 -0.31962500323E+03 -0.14428127731E+04 -0.24670282226E+03  0.14982426818E+04  0.10100000352E+00 0. -1.
</event>
<event>
 5   0  0.6134625E-07  0.3424833E+04  0.7818609E-02  0.8131838E-01
       -1   -1    0    0    0  501  0.00000000000E+00  0.00000000000E+00  0.15920198281E+04  0.15920198281E+04  0.50400001928E-02 0.  1.
        1   -1    0    0  501    0  0.00000000000E+00  0.00000000000E+00 -0.18419184453E+04  0.18419184453E+04  0.50400001928E-02 0. -1.
    10030    2    1    2    0    0  0.00000000000E+00  0.00000000000E+00 -0.24989861725E+03  0.34339382734E+04  0.34248332436E+04 0.  0.
        5    1    3    3  502    0  0.87298790333E+03 -0.12836631994E+04  0.59977898398E+03  0.16642283523E+04  0.46999998093E+01 0.  1.
       -5    1    3    3    0  502 -0.87298790333E+03  0.12836631994E+04 -0.84967760123E+03  0.17697099211E+04  0.46999998093E+01 0. -1.
</event>
<event>
 5   0  0.1880301E-06  0.3356527E+04  0.7818609E-02  0.8148659E-01
       -2   -1    0    0    0  501  0.00000000000E+00  0.00000000000E+00  0.17520702357E+04  0.17520702357E+04  0.25500000920E-02 0.  1.
        2   -1    0    0  501    0  0.00000000000E+00  0.00000000000E+00 -0.16075660447E+04  0.16075660447E+04  0.25500000920E-02 0. -1.
    10030    2    1    2    0    0  0.00000000000E+00  0.00000000000E+00  0.14450419100E+03  0.33596362805E+04  0.33565271451E+04 0.  0.
        4    1    3    3  502    0  0.34245231597E+03 -0.12248006808E+04  0.11683265844E+04  0.17269623380E+04  0.12699999809E+01 0.  1.
       -4    1    3    3    0  502 -0.34245231597E+03  0.12248006808E+04 -0.10238223934E+04  0.16326739425E+04  0.12699999809E+01 0. -1.
</event>
<event>
 5   0  0.1880301E-06  0.3319307E+04  0.7818609E-02  0.8158000E-01
       -2   -1    0    0    0  501  0.00000000000E+00  0.00000000000E+00  0.17850355149E+04  0.17850355149E+04  0.25500000920E-02 0. -1.
        2   -1    0    0  501    0  0.00000000000E+00  0.00000000000E+00 -0.15430780203E+04  0.15430780203E+04  0.25500000920E-02 0.  1.
    10030    2    1    2    0    0  0.00000000000E+00  0.00000000000E+00  0.24195749459E+03  0.33281135352E+04  0.33193065954E+04 0.  0.
        4    1    3    3  502    0  0.14215587189E+04 -0.46114917091E+03  0.84466918057E+03  0.17166698537E+04  0.12699999809E+01 0. -1.
       -4    1    3    3    0  502 -0.14215587189E+04  0.46114917091E+03 -0.60271168598E+03  0.16114436815E+04  0.12699999809E+01 0.  1.
</event>
<event>
 5   0  0.6218695E-07  0.3407428E+04  0.7818609E-02  0.8136086E-01
        1   -1    0    0  501    0  0.00000000000E+00  0.00000000000E+00  0.15735259269E+04  0.15735259269E+04  0.50400001928E-02 0. -1.
       -1   -1    0    0    0  501  0.00000000000E+00  0.00000000000E+00 -0.18446729568E+04  0.18446729568E+04  0.50400001928E-02 0.  1.
    10030    2    1    2    0    0  0.00000000000E+00  0.00000000000E+00 -0.27114702986E+03  0.34181988837E+04  0.34074276070E+04 0.  0.
        2    1    3    3  502    0  0.10681151021E+04 -0.54012799725E+03 -0.13518552169E+04  0.18055804198E+04  0.25500000920E-02 0.  1.
       -2    1    3    3    0  502 -0.10681151021E+04  0.54012799725E+03  0.10807081870E+04  0.16126184640E+04  0.25500000920E-02 0. -1.
</event>
<event>
 5   0  0.1948507E-06  0.3421057E+04  0.7818609E-02  0.8132758E-01
       -2   -1    0    0    0  501  0.00000000000E+00  0.00000000000E+00  0.10262608860E+04  0.10262608860E+04  0.25500000920E-02 0. -1.
        2   -1    0    0  501    0  0.00000000000E+00  0.00000000000E+00 -0.28510361933E+04  0.28510361933E+04  0.25500000920E-02 0.  1.
    10030    2    1    2    0    0  0.00000000000E+00  0.00000000000E+00 -0.18247753074E+04  0.38772970793E+04  0.34210565209E+04 0.  0.
        1    1    3    3  502    0  0.16613076314E+04 -0.38023607018E+03 -0.10781239048E+04  0.20166491190E+04  0.50400001928E-02 0. -1.
       -1    1    3    3    0  502 -0.16613076314E+04  0.38023607018E+03 -0.74665140254E+03  0.18606479603E+04  0.50400001928E-02 0.  1.
</event>
<event>
 5   0  0.6134625E-07  0.3377230E+04  0.7818609E-02  0.8143518E-01
       -1   -1    0    0    0  501  0.00000000000E+00  0.00000000000E+00  0.18047482665E+04  0.18047482665E+04  0.50400001928E-02 0. -1.
        1   -1    0    0  501    0  0.00000000000E+00  0.00000000000E+00 -0.15799548419E+04  0.15799548419E+04  0.50400001928E-02 0.  1.
    10030    2    1    2    0    0  0.00000000000E+00  0.00000000000E+00  0.22479342465E+03  0.33847031084E+04  0.33772300852E+04 0.  0.
        1    1    3    3  502    0  0.10705714694E+03 -0.10662552804E+04  0.14202975080E+04  0.17792151548E+04  0.50400001928E-02 0. -1.
       -1    1    3    3    0  502 -0.10705714694E+03  0.10662552804E+04 -0.11955040834E+04  0.16054879536E+04  0.50400001928E-02 0.  1.
</event>
<event>
 5   0  0.6134625E-07  0.3307335E+04  0.7818609E-02  0.8161032E-01
       -1   -1    0    0    0  501  0.00000000000E+00  0.00000000000E+00  0.16222515598E+04  0.16222515598E+04  0.50400001928E-02 0. -1.
        1   -1    0    0  501    0  0.00000000000E+00  0.00000000000E+00 -0.16856914745E+04  0.16856914745E+04  0.50400001928E-02 0.  1.
    10030    2    1    2    0    0  0.00000000000E+00  0.00000000000E+00 -0.63439914647E+02  0.33079430343E+04  0.33073346512E+04 0.  0.
        5    1    3    3  502    0  0.72977536012E+03 -0.97294270425E+03 -0.11523741665E+04  0.16754634856E+04  0.46999998093E+01 0.  1.
       -5    1    3    3    0  502 -0.72977536012E+03  0.97294270425E+03  0.10889342519E+04  0.16324795487E+04  0.46999998093E+01 0. -1.
</event>
<event>
 5   0  0.1880301E-06  0.3347039E+04  0.7818609E-02  0.8151029E-01
       -2   -1    0    0    0  501  0.00000000000E+00  0.00000000000E+00  0.16507986145E+04  0.16507986145E+04  0.25500000920E-02 0. -1.
        2   -1    0    0  501    0  0.00000000000E+00  0.00000000000E+00 -0.16965526127E+04  0.16965526127E+04  0.25500000920E-02 0.  1.
    10030    2    1    2    0    0  0.00000000000E+00  0.00000000000E+00 -0.45753998230E+02  0.33473512272E+04  0.33470385133E+04 0.  0.
        4    1    3    3  502    0 -0.82272760839E+03  0.14358103315E+04  0.22661186479E+03  0.16702654208E+04  0.12699999809E+01 0.  1.
       -4    1    3    3    0  502  0.82272760839E+03 -0.14358103315E+04 -0.27236586302E+03  0.16770858064E+04  0.12699999809E+01 0. -1.
</event>
<event>
 5   0  0.6134625E-07  0.3351176E+04  0.7818609E-02  0.8149994E-01
       -1   -1    0    0    0  501  0.00000000000E+00  0.00000000000E+00  0.19345956057E+04  0.19345956057E+04  0.50400001928E-02 0. -1.
        1   -1    0    0  501    0  0.00000000000E+00  0.00000000000E+00 -0.14512565607E+04  0.14512565607E+04  0.50400001928E-02 0.  1.
    10030    2    1    2    0    0  0.00000000000E+00  0.00000000000E+00  0.48333904492E+03  0.33858521664E+04  0.33511756535E+04 0.  0.
        3    1    3    3  502    0  0.11639101013E+04 -0.79150232106E+02 -0.97354092745E+03  0.15194516876E+04  0.10100000352E+00 0.  1.
       -3    1    3    3    0  502 -0.11639101013E+04  0.79150232106E+02  0.14568799724E+04  0.18664004788E+04  0.10100000352E+00 0. -1.
</event>
<event>
 5   0  0.6134625E-07  0.3383689E+04  0.7818609E-02  0.8141921E-01
        1   -1    0    0  501    0  0.00000000000E+00  0.00000000000E+00  0.17153017805E+04  0.17153017805E+04  0.50400001928E-02 0. -1.
       -1   -1    0    0    0  501  0.00000000000E+00  0.00000000000E+00 -0.16687077832E+04  0.16687077832E+04  0.50400001928E-02 0.  1.
    10030    2    1    2    0    0  0.00000000000E+00  0.00000000000E+00  0.46593997332E+02  0.33840095637E+04  0.33836887751E+04 0.  0.
        3    1    3    3  502    0  0.67260423119E+03 -0.82309462400E+03 -0.12930558089E+04  0.16738800874E+04  0.10100000352E+00 0.  1.
       -3    1    3    3    0  502 -0.67260423119E+03  0.82309462400E+03  0.13396498063E+04  0.17101294762E+04  0.10100000352E+00 0. -1.
</event>
<event>
 5   0  0.6146388E-07  0.3391107E+04  0.7818609E-02  0.8140092E-01
       -1   -1    0    0    0  501  0.00000000000E+00  0.00000000000E+00  0.16409223377E+04  0.16409223378E+04  0.50400001928E-02 0.  1.
        1   -1    0    0  501    0  0.00000000000E+00  0.00000000000E+00 -0.17520037378E+04  0.17520037379E+04  0.50400001928E-02 0. -1.
    10030    2    1    2    0    0  0.00000000000E+00  0.00000000000E+00 -0.11108140010E+03  0.33929260756E+04  0.33911072347E+04 0.  0.
        4    1    3    3  502    0 -0.16332041283E+04  0.28208223360E+03  0.30238619414E+03  0.16847448277E+04  0.12699999809E+01 0.  1.
       -4    1    3    3    0  502  0.16332041283E+04 -0.28208223360E+03 -0.41346759424E+03  0.17081812479E+04  0.12699999809E+01 0. -1.
</event>
<event>
 5   0  0.1339844E-06  0.3293378E+04  0.7818609E-02  0.8164582E-01
       -2   -1    0    0    0  501  0.00000000000E+00  0.00000000000E+00  0.11491035642E+04  0.11491035642E+04  0.25500000920E-02 0.  1.
        2   -1    0    0  501    0  0.00000000000E+00  0.00000000000E+00 -0.23597388916E+04  0.23597388916E+04  0.25500000920E-02 0. -1.
    10030    2    1    2    0    0  0.00000000000E+00  0.00000000000E+00 -0.12106353273E+04  0.35088424558E+04  0.32933778228E+04 0.  0.
        3    1    3    3  502    0  0.54409200482E+03  0.47160411093E+03  0.97249440615E+03  0.12100379859E+04  0.10100000352E+00 0.  1.
       -3    1    3    3    0  502 -0.54409200482E+03 -0.47160411093E+03 -0.21831297335E+04  0.22988044699E+04  0.10100000352E+00 0. -1.
</event>
<event>
 5   0  0.1948507E-06  0.3414414E+04  0.7818609E-02  0.8134378E-01
       -2   -1    0    0    0  501  0.00000000000E+00  0.00000000000E+00  0.18070551342E+04  0.18070551342E+04  0.25500000920E-02 0.  1.
        2   -1    0    0  501    0  0.00000000000E+00  0.00000000000E+00 -0.16128759923E+04  0.16128759923E+04  0.25500000920E-02 0. -1.
    10030    2    1    2    0    0  0.00000000000E+00  0.00000000000E+00  0.19417914187E+03  0.34199311266E+04  0.34144140597E+04 0.  0.
        1    1    3    3  502    0 -0.44027796509E+03  0.14095057967E+04 -0.76103542874E+03  0.16612423669E+04  0.50400001928E-02 0. -1.
       -1    1    3    3    0  502  0.44027796509E+03 -0.14095057967E+04  0.95521457061E+03  0.17586887597E+04  0.50400001928E-02 0.  1.
</event>
<event>
 5   0  0.6218695E-07  0.3352377E+04  0.7818609E-02  0.8149695E-01
       -1   -1    0    0    0  501  0.00000000000E+00  0.00000000000E+00  0.25765587462E+04  0.25765587462E+04  0.50400001928E-02 0. -1.
        1   -1    0    0  501    0  0.00000000000E+00  0.00000000000E+00 -0.10904496509E+04  0.10904496510E+04  0.50400001928E-02 0.  1.
    10030    2    1    2    0    0  0.00000000000E+00  0.00000000000E+00  0.14861090953E+04  0.36670083972E+04  0.33523768198E+04 0.  0.
        2    1    3    3  502    0  0.11136632366E+03 -0.14881307912E+04  0.15780249930E+04  0.21718882541E+04  0.25500000920E-02 0. -1.
       -2    1    3    3    0  502 -0.11136632366E+03  0.14881307912E+04 -0.91915897706E+02  0.14951201431E+04  0.25500000920E-02 0.  1.
</event>
<event>
 5   0  0.6134625E-07  0.3406005E+04  0.7818609E-02  0.8136434E-01
        1   -1    0    0  501    0  0.00000000000E+00  0.00000000000E+00  0.16915401802E+04  0.16915401802E+04  0.50400001928E-02 0. -1.
       -1   -1    0    0    0  501  0.00000000000E+00  0.00000000000E+00 -0.17145427586E+04  0.17145427586E+04  0.50400001928E-02 0.  1.
    10030    2    1    2    0    0  0.00000000000E+00  0.00000000000E+00 -0.23002578362E+02  0.34060829388E+04  0.34060052653E+04 0.  0.
        3    1    3    3  502    0 -0.63014363676E+03  0.17692405267E+03  0.15607415592E+04  0.16924235132E+04  0.10100000352E+00 0. -1.
       -3    1    3    3    0  502  0.63014363676E+03 -0.17692405267E+03 -0.15837441375E+04  0.17136594255E+04  0.10100000352E+00 0.  1.
</event>
<event>
 5   0  0.1339844E-06  0.3447742E+04  0.7818609E-02  0.8126287E-01
        2   -1    0    0  501    0  0.00000000000E+00  0.00000000000E+00  0.16896854404E+04  0.16896854404E+04  0.25500000920E-02 0.  1.
       -2   -1    0    0    0  501  0.00000000000E+00  0.00000000000E+00 -0.17587479564E+04  0.17587479564E+04  0.25500000920E-02 0. -1.
    10030    2    1    2    0    0  0.00000000000E+00  0.00000000000E+00 -0.69062516012E+02  0.34484333968E+04  0.34477417625E+04 0.  0.
        3    1    3    3  502    0  0.15862322628E+04 -0.58460636169E+03 -0.37199101984E+03  0.17309750775E+04  0.10100000352E+00 0.  1.
       -3    1    3    3    0  502 -0.15862322628E+04  0.58460636169E+03  0.30292850383E+03  0.17174583193E+04  0.10100000352E+00 0. -1.
</event>
<event>
 5   0  0.1948507E-06  0.3360258E+04  0.7818609E-02  0.8147730E-01
        2   -1    0    0  501    0  0.00000000000E+00  0.00000000000E+00  0.19878473357E+04  0.19878473357E+04  0.25500000920E-02 0.  1.
       -2   -1    0    0    0  501  0.00000000000E+00  0.00000000000E+00 -0.14200455675E+04  0.14200455675E+04  0.25500000920E-02 0. -1.
    10030    2    1    2    0    0  0.00000000000E+00  0.00000000000E+00  0.56780176821E+03  0.34078929031E+04  0.33602582031E+04 0.  0.
        1    1    3    3  502    0  0.13061157282E+04  0.35813278662E+03 -0.72449621686E+03  0.15359336433E+04  0.50400001928E-02 0. -1.
       -1    1    3    3    0  502 -0.13061157282E+04 -0.35813278662E+03  0.12922979851E+04  0.18719592599E+04  0.50400001928E-02 0.  1.
</event>
<event>
 5   0  0.6134625E-07  0.3406992E+04  0.7818609E-02  0.8136192E-01
       -1   -1    0    0    0  501  0.00000000000E+00  0.00000000000E+00  0.13447512645E+04  0.13447512645E+04  0.50400001928E-02 0.  1.
        1   -1    0    0  501    0  0.00000000000E+00  0.00000000000E+00 -0.21579449185E+04  0.21579449185E+04  0.50400001928E-02 0. -1.
    10030    2    1    2    0    0  0.00000000000E+00  0.00000000000E+00 -0.81319365396E+03  0.35026961830E+04  0.34069923145E+04 0.  0.
        5    1    3    3  502    0  0.75735677416E+03  0.11055133403E+04 -0.14878664840E+04  0.20023780345E+04  0.46999998093E+01 0. -1.
       -5    1    3    3    0  502 -0.75735677416E+03 -0.11055133403E+04  0.67467283003E+03  0.15003181484E+04  0.46999998093E+01 0.  1.
</event>
<event>
 5   0  0.6134625E-07  0.3351305E+04  0.7818609E-02  0.8149962E-01
       -1   -1    0    0    0  501  0.00000000000E+00  0.00000000000E+00  0.11803823652E+04  0.11803823653E+04  0.50400001928E-02 0. -1.
        1   -1    0    0  501    0  0.00000000000E+00  0.00000000000E+00 -0.23787301032E+04  0.23787301032E+04  0.50400001928E-02 0.  1.
    10030    2    1    2    0    0  0.00000000000E+00  0.00000000000E+00 -0.11983477380E+04  0.35591124685E+04  0.33513048596E+04 0.  0.
        5    1    3    3  502    0  0.13262274733E+04 -0.95705256008E+03 -0.98642115238E+03  0.19099418037E+04  0.46999998093E+01 0.  1.
       -5    1    3    3    0  502 -0.13262274733E+04  0.95705256008E+03 -0.21192658562E+03  0.16491706648E+04  0.46999998093E+01 0. -1.
</event>
<event>
 5   0  0.6218695E-07  0.2647598E+04  0.7818609E-02  0.8352211E-01
        1   -1    0    0  501    0  0.00000000000E+00  0.00000000000E+00  0.14683359563E+04  0.14683359563E+04  0.50400001928E-02 0.  1.
       -1   -1    0    0    0  501  0.00000000000E+00  0.00000000000E+00 -0.11934894430E+04  0.11934894430E+04  0.50400001928E-02 0. -1.
    10030    2    1    2    0    0  0.00000000000E+00  0.00000000000E+00  0.27484651328E+03  0.26618253993E+04  0.26475977509E+04 0.  0.
        2    1    3    3  502    0  0.12672608943E+04 -0.12330891777E+03 -0.22686100383E+03  0.12932985651E+04  0.25500000920E-02 0. -1.
       -2    1    3    3    0  502 -0.12672608943E+04  0.12330891777E+03  0.50170751712E+03  0.13685268343E+04  0.25500000920E-02 0.  1.
</event>
<event>
 5   0  0.6134625E-07  0.3335349E+04  0.7818609E-02  0.8153959E-01
       -1   -1    0    0    0  501  0.00000000000E+00  0.00000000000E+00  0.13564709791E+04  0.13564709791E+04  0.50400001928E-02 0.  1.
        1   -1    0    0  501    0  0.00000000000E+00  0.00000000000E+00 -0.20502751251E+04  0.20502751251E+04  0.50400001928E-02 0. -1.
    10030    2    1    2    0    0  0.00000000000E+00  0.00000000000E+00 -0.69380414606E+03  0.34067461042E+04  0.33353492809E+04 0.  0.
        3    1    3    3  502    0 -0.26624401857E+03 -0.99144615443E+03  0.99549421552E+03  0.14299860481E+04  0.10100000352E+00 0.  1.
       -3    1    3    3    0  502  0.26624401857E+03  0.99144615443E+03 -0.16892983616E+04  0.19767600560E+04  0.10100000352E+00 0. -1.
</event>
<event>
 5   0  0.6218695E-07  0.3421045E+04  0.7818609E-02  0.8132761E-01
        1   -1    0    0  501    0  0.00000000000E+00  0.00000000000E+00  0.12655896197E+04  0.12655896197E+04  0.50400001928E-02 0.  1.
       -1   -1    0    0    0  501  0.00000000000E+00  0.00000000000E+00 -0.23118761272E+04  0.23118761272E+04  0.50400001928E-02 0. -1.
    10030    2    1    2    0    0  0.00000000000E+00  0.00000000000E+00 -0.10462865075E+04  0.35774657469E+04  0.34210445356E+04 0.  0.
        2    1    3    3  502    0 -0.47220183365E+03 -0.90808886021E+03  0.91002662655E+03  0.13695796475E+04  0.25500000920E-02 0.  1.
       -2    1    3    3    0  502  0.47220183365E+03  0.90808886021E+03 -0.19563131341E+04  0.22078860995E+04  0.25500000920E-02 0. -1.
</event>
<event>
 5   0  0.6134625E-07  0.3414068E+04  0.7818609E-02  0.8134462E-01
       -1   -1    0    0    0  501  0.00000000000E+00  0.00000000000E+00  0.12797332945E+04  0.12797332945E+04  0.50400001928E-02 0.  1.
        1   -1    0    0  501    0  0.00000000000E+00  0.00000000000E+00 -0.22770092203E+04  0.22770092204E+04  0.50400001928E-02 0. -1.
    10030    2    1    2    0    0  0.00000000000E+00  0.00000000000E+00 -0.99727592583E+03  0.35567425149E+04  0.34140676685E+04 0.  0.
        5    1    3    3  502    0  0.85576101959E+03  0.47024890059E+03 -0.19573234846E+04  0.21873724567E+04  0.46999998093E+01 0. -1.
       -5    1    3    3    0  502 -0.85576101959E+03 -0.47024890059E+03  0.96004755874E+03  0.13693700582E+04  0.46999998093E+01 0.  1.
</event>
<event>
 5   0  0.1911477E-06  0.3531695E+04  0.7818609E-02  0.8106319E-01
       -2   -1    0    0    0  501  0.00000000000E+00  0.00000000000E+00  0.14747485440E+04  0.14747485440E+04  0.25500000920E-02 0.  1.
        2   -1    0    0  501    0  0.00000000000E+00  0.00000000000E+00 -0.21144065565E+04  0.21144065565E+04  0.25500000920E-02 0. -1.
    10030    2    1    2    0    0  0.00000000000E+00  0.00000000000E+00 -0.63965801252E+03  0.35891551005E+04  0.35316953382E+04 0.  0.
        5    1    3    3  502    0  0.33685670975E+03 -0.74933275431E+03 -0.19083414689E+04  0.20776817060E+04  0.46999998093E+01 0. -1.
       -5    1    3    3    0  502 -0.33685670975E+03  0.74933275431E+03  0.12686834564E+04  0.15114733944E+04  0.46999998093E+01 0.  1.
</event>
<event>
 5   0  0.1339844E-06  0.3386485E+04  0.7818609E-02  0.8141231E-01
       -2   -1    0    0    0  501  0.00000000000E+00  0.00000000000E+00  0.14966189979E+04  0.14966189979E+04  0.25500000920E-02 0. -1.
        2   -1    0    0  501    0  0.00000000000E+00  0.00000000000E+00 -0.19156986297E+04  0.19156986297E+04  0.25500000920E-02 0.  1.
    10030    2    1    2    0    0  0.00000000000E+00  0.00000000000E+00 -0.41907963177E+03  0.34123176276E+04  0.33864854723E+04 0.  0.
        3    1    3    3  502    0  0.13902794433E+04 -0.17952873363E+03 -0.11665018407E+04  0.18236869389E+04  0.10100000352E+00 0.  1.
       -3    1    3    3    0  502 -0.13902794433E+04  0.17952873363E+03  0.74742220889E+03  0.15886306887E+04  0.10100000352E+00 0. -1.
</event>
<event>
 5   0  0.1797075E-06  0.3402827E+04  0.7818609E-02  0.8137213E-01
        2   -1    0    0  501    0  0.00000000000E+00  0.00000000000E+00  0.17754964516E+04  0.17754964516E+04  0.25500000920E-02 0.  1.
       -2   -1    0    0    0  501  0.00000000000E+00  0.00000000000E+00 -0.16304213246E+04  0.16304213246E+04  0.25500000920E-02 0. -1.
    10030    2    1    2    0    0  0.00000000000E+00  0.00000000000E+00  0.14507512694E+03  0.34059177762E+04  0.34028266347E+04 0.  0.
        2    1    3    3  502    0  0.56732583987E+02  0.14452445968E+04  0.96937425140E+03  0.17411596624E+04  0.25500000920E-02 0.  1.
       -2    1    3    3    0  502 -0.56732583987E+02 -0.14452445968E+04 -0.82429912446E+03  0.16647581138E+04  0.25500000920E-02 0. -1.
</event>
<event>
 5   0  0.1948507E-06  0.3417916E+04  0.7818609E-02  0.8133523E-01
       -2   -1    0    0    0  501  0.00000000000E+00  0.00000000000E+00  0.13847959158E+04  0.13847959158E+04  0.25500000920E-02 0.  1.
        2   -1    0    0  501    0  0.00000000000E+00  0.00000000000E+00 -0.21090024081E+04  0.21090024081E+04  0.25500000920E-02 0. -1.
    10030    2    1    2    0    0  0.00000000000E+00  0.00000000000E+00 -0.72420649221E+03  0.34937983239E+04  0.34179162782E+04 0.  0.
        1    1    3    3  502    0 -0.14073937411E+04  0.56500143165E+03  0.44313845496E+03  0.15799859020E+04  0.50400001928E-02 0.  1.
       -1    1    3    3    0  502  0.14073937411E+04 -0.56500143165E+03 -0.11673449472E+04  0.19138124219E+04  0.50400001928E-02 0. -1.
</event>
<event>
 5   0  0.6218695E-07  0.3419266E+04  0.7818609E-02  0.8133194E-01
       -1   -1    0    0    0  501  0.00000000000E+00  0.00000000000E+00  0.18502626347E+04  0.18502626347E+04  0.50400001928E-02 0. -1.
        1   -1    0    0  501    0  0.00000000000E+00  0.00000000000E+00 -0.15796923221E+04  0.15796923222E+04  0.50400001928E-02 0.  1.
    10030    2    1    2    0    0  0.00000000000E+00  0.00000000000E+00  0.27057031251E+03  0.34299549568E+04  0.34192663997E+04 0.  0.
        2    1    3    3  502    0  0.97746849241E+03 -0.73754609950E+03 -0.10615188757E+04  0.16205681800E+04  0.25500000920E-02 0.  1.
       -2    1    3    3    0  502 -0.97746849241E+03  0.73754609950E+03  0.13320891883E+04  0.18093867768E+04  0.25500000920E-02 0. -1.
</event>
<event>
 5   0  0.1880301E-06  0.3392633E+04  0.7818609E-02  0.8139717E-01
       -2   -1    0    0    0  501  0.00000000000E+00  0.00000000000E+00  0.14681933792E+04  0.14681933793E+04  0.25500000920E-02 0.  1.
        2   -1    0    0  501    0  0.00000000000E+00  0.00000000000E+00 -0.19598849756E+04  0.19598849756E+04  0.25500000920E-02 0. -1.
    10030    2    1    2    0    0  0.00000000000E+00  0.00000000000E+00 -0.49169159638E+03  0.34280783549E+04  0.33926332813E+04 0.  0.
        4    1    3    3  502    0  0.63742883726E+03  0.15280291932E+04  0.12719937295E+03  0.16605330563E+04  0.12699999809E+01 0.  1.
       -4    1    3    3    0  502 -0.63742883726E+03 -0.15280291932E+04 -0.61889096933E+03  0.17675452986E+04  0.12699999809E+01 0. -1.
</event>
<event>
 5   0  0.6146388E-07  0.3378420E+04  0.7818609E-02  0.8143223E-01
       -1   -1    0    0    0  501  0.00000000000E+00  0.00000000000E+00  0.99599584472E+03  0.99599584473E+03  0.50400001928E-02 0.  1.
        1   -1    0    0  501    0  0.00000000000E+00  0.00000000000E+00 -0.28649021072E+04  0.28649021072E+04  0.50400001928E-02 0. -1.
    10030    2    1    2    0    0  0.00000000000E+00  0.00000000000E+00 -0.18689062624E+04  0.38608979519E+04  0.33784201008E+04 0.  0.
        4    1    3    3  502    0  0.12681842862E+04 -0.88325376997E+03 -0.15515914955E+03  0.15532239312E+04  0.12699999809E+01 0.  1.
       -4    1    3    3    0  502 -0.12681842862E+04  0.88325376997E+03 -0.17137471129E+04  0.23076740207E+04  0.12699999809E+01 0. -1.
</event>
<event>
 5   0  0.6218695E-07  0.3223630E+04  0.7818609E-02  0.8182604E-01
        1   -1    0    0  501    0  0.00000000000E+00  0.00000000000E+00  0.19686292264E+04  0.19686292264E+04  0.50400001928E-02 0.  1.
       -1   -1    0    0    0  501  0.00000000000E+00  0.00000000000E+00 -0.13196732816E+04  0.13196732816E+04  0.50400001928E-02 0. -1.
    10030    2    1    2    0    0  0.00000000000E+00  0.00000000000E+00  0.64895594487E+03  0.32883025080E+04  0.32236298742E+04 0.  0.
        2    1    3    3  502    0  0.14418935958E+04 -0.67448594190E+03  0.66503161740E+02  0.15932391841E+04  0.25500000920E-02 0.  1.
       -2    1    3    3    0  502 -0.14418935958E+04  0.67448594190E+03  0.58245278313E+03  0.16950633239E+04  0.25500000920E-02 0. -1.
</event>
<event>
 5   0  0.1339844E-06  0.3336988E+04  0.7818609E-02  0.8153547E-01
       -2   -1    0    0    0  501  0.00000000000E+00  0.00000000000E+00  0.11327485971E+04  0.11327485971E+04  0.25500000920E-02 0.  1.
        2   -1    0    0  501    0  0.00000000000E+00  0.00000000000E+00 -0.24576262757E+04  0.24576262757E+04  0.25500000920E-02 0. -1.
    10030    2    1    2    0    0  0.00000000000E+00  0.00000000000E+00 -0.13248776786E+04  0.35903748729E+04  0.33369882925E+04 0.  0.
        3    1    3    3  502    0  0.94712944009E+03  0.88566244476E+03  0.46724981135E+03  0.13783230894E+04  0.10100000352E+00 0.  1.
       -3    1    3    3    0  502 -0.94712944009E+03 -0.88566244476E+03 -0.17921274899E+04  0.22120517835E+04  0.10100000352E+00 0. -1.
</event>
<event>
 5   0  0.6134625E-07  0.3340700E+04  0.7818609E-02  0.8152616E-01
       -1   -1    0    0    0  501  0.00000000000E+00  0.00000000000E+00  0.10368502626E+04  0.10368502626E+04  0.50400001928E-02 0.  1.
        1   -1    0    0  501    0  0.00000000000E+00  0.00000000000E+00 -0.26909079242E+04  0.26909079242E+04  0.50400001928E-02 0. -1.
    10030    2    1    2    0    0  0.00000000000E+00  0.00000000000E+00 -0.16540576616E+04  0.37277581868E+04  0.33406996799E+04 0.  0.
        3    1    3    3  502    0  0.15228434672E+03 -0.15683314232E+04 -0.14455167549E+04  0.21383107057E+04  0.10100000352E+00 0. -1.
       -3    1    3    3    0  502 -0.15228434672E+03  0.15683314232E+04 -0.20854090666E+03  0.15894474811E+04  0.10100000352E+00 0.  1.
</event>
<event>
 5   0  0.1339844E-06  0.3463588E+04  0.7818609E-02  0.8122474E-01
       -2   -1    0    0    0  501  0.00000000000E+00  0.00000000000E+00  0.13364360266E+04  0.13364360266E+04  0.25500000920E-02 0. -1.
        2   -1    0    0  501    0  0.00000000000E+00  0.00000000000E+00 -0.22441112567E+04  0.22441112567E+04  0.25500000920E-02 0.  1.
    10030    2    1    2    0    0  0.00000000000E+00  0.00000000000E+00 -0.90767523008E+03  0.35805472833E+04  0.34635883884E+04 0.  0.
        3    1    3    3  502    0  0.50780101307E+03 -0.11970628724E+04  0.72859147198E+03  0.14905257236E+04  0.10100000352E+00 0. -1.
       -3    1    3    3    0  502 -0.50780101307E+03  0.11970628724E+04 -0.16362667021E+04  0.20900215597E+04  0.10100000352E+00 0.  1.
</event>
<event>
 5   0  0.6134625E-07  0.3409910E+04  0.7818609E-02  0.8135478E-01
        1   -1    0    0  501    0  0.00000000000E+00  0.00000000000E+00  0.26101383266E+04  0.26101383267E+04  0.50400001928E-02 0. -1.
       -1   -1    0    0    0  501  0.00000000000E+00  0.00000000000E+00 -0.11136845882E+04  0.11136845882E+04  0.50400001928E-02 0.  1.
    10030    2    1    2    0    0  0.00000000000E+00  0.00000000000E+00  0.14964537384E+04  0.37238229149E+04  0.34099095750E+04 0.  0.
        5    1    3    3  502    0 -0.13544238003E+04  0.21340680596E+03  0.18548457177E+04  0.23066167914E+04  0.46999998093E+01 0. -1.
       -5    1    3    3    0  502  0.13544238003E+04 -0.21340680596E+03 -0.35839197929E+03  0.14172061235E+04  0.46999998093E+01 0.  1.
</event>
<event>
 5   0  0.6146388E-07  0.3349510E+04  0.7818609E-02  0.8150411E-01
        1   -1    0    0  501    0  0.00000000000E+00  0.00000000000E+00  0.22887817504E+04  0.22887817504E+04  0.50400001928E-02 0.  1.
       -1   -1    0    0    0  501  0.00000000000E+00  0.00000000000E+00 -0.12254574773E+04  0.12254574773E+04  0.50400001928E-02 0. -1.
    10030    2    1    2    0    0  0.00000000000E+00  0.00000000000E+00  0.10633242731E+04  0.35142392278E+04  0.33495102389E+04 0.  0.
        4    1    3    3  502    0 -0.15929644516E+03 -0.89739584406E+02 -0.12149546288E+04  0.12286353867E+04  0.12699999809E+01 0. -1.
       -4    1    3    3    0  502  0.15929644516E+03  0.89739584406E+02  0.22782789019E+04  0.22856038411E+04  0.12699999809E+01 0.  1.
</event>
<event>
 5   0  0.6134625E-07  0.3386067E+04  0.7818609E-02  0.8141334E-01
        1   -1    0    0  501    0  0.00000000000E+00  0.00000000000E+00  0.25792680310E+04  0.25792680310E+04  0.50400001928E-02 0. -1.
       -1   -1    0    0    0  501  0.00000000000E+00  0.00000000000E+00 -0.11113086315E+04  0.11113086315E+04  0.50400001928E-02 0.  1.
    10030    2    1    2    0    0  0.00000000000E+00  0.00000000000E+00  0.14679593995E+04  0.36905766625E+04  0.33860672325E+04 0.  0.
        5    1    3    3  502    0 -0.75491779102E+03  0.71142640803E+03  0.21923340299E+04  0.24253616213E+04  0.46999998093E+01 0. -1.
       -5    1    3    3    0  502  0.75491779102E+03 -0.71142640803E+03 -0.72437463047E+03  0.12652150412E+04  0.46999998093E+01 0.  1.
</event>
<event>
 5   0  0.1339844E-06  0.3377575E+04  0.7818609E-02  0.8143432E-01
        2   -1    0    0  501    0  0.00000000000E+00  0.00000000000E+00  0.19080571190E+04  0.19080571190E+04  0.25500000920E-02 0. -1.
       -2   -1    0    0    0  501  0.00000000000E+00  0.00000000000E+00 -0.14947160719E+04  0.14947160720E+04  0.25500000920E-02 0.  1.
    10030    2    1    2    0    0  0.00000000000E+00  0.00000000000E+00  0.41334104707E+03  0.34027731910E+04  0.33775752498E+04 0.  0.
        3    1    3    3  502    0 -0.16533952624E+04  0.23278904081E+03  0.46173314682E+03  0.17323695161E+04  0.10100000352E+00 0.  1.
       -3    1    3    3    0  502  0.16533952624E+04 -0.23278904081E+03 -0.48392099751E+02  0.16704036748E+04  0.10100000352E+00 0. -1.
</event>
<event>
 5   0  0.6134625E-07  0.3373337E+04  0.7818609E-02  0.8144482E-01
       -1   -1    0    0    0  501  0.00000000000E+00  0.00000000000E+00  0.19979951468E+04  0.19979951468E+04  0.50400001928E-02 0.  1.
        1   -1    0    0  501    0  0.00000000000E+00  0.00000000000E+00 -0.14238524048E+04  0.14238524048E+04  0.50400001928E-02 0. -1.
    10030    2    1    2    0    0  0.00000000000E+00  0.00000000000E+00  0.57414274201E+03  0.34218475516E+04  0.33733367424E+04 0.  0.
        1    1    3    3  502    0  0.97831588604E+03 -0.77574330434E+03 -0.86324280395E+03  0.15179156056E+04  0.50400001928E-02 0. -1.
       -1    1    3    3    0  502 -0.97831588604E+03  0.77574330434E+03  0.14373855460E+04  0.19039319460E+04  0.50400001928E-02 0.  1.
</event>
<event>
 5   0  0.1911477E-06  0.3385153E+04  0.7818609E-02  0.8141560E-01
       -2   -1    0    0    0  501  0.00000000000E+00  0.00000000000E+00  0.20752731473E+04  0.20752731473E+04  0.25500000920E-02 0. -1.
        2   -1    0    0  501    0  0.00000000000E+00  0.00000000000E+00 -0.13804521419E+04  0.13804521419E+04  0.25500000920E-02 0.  1.
    10030    2    1    2    0    0  0.00000000000E+00  0.00000000000E+00  0.69482100535E+03  0.34557252892E+04  0.33851530312E+04 0.  0.
        5    1    3    3  502    0  0.15857375811E+04 -0.22441119783E+03 -0.21160875564E+03  0.16154641492E+04  0.46999998093E+01 0.  1.
       -5    1    3    3    0  502 -0.15857375811E+04  0.22441119783E+03  0.90642976099E+03  0.18402611400E+04  0.46999998093E+01 0. -1.
</event>
<event>
 5   0  0.6218695E-07  0.3411555E+04  0.7818609E-02  0.8135076E-01
        1   -1    0    0  501    0  0.00000000000E+00  0.00000000000E+00  0.26050418714E+04  0.26050418714E+04  0.50400001928E-02 0. -1.
       -1   -1    0    0    0  501  0.00000000000E+00  0.00000000000E+00 -0.11169406864E+04  0.11169406864E+04  0.50400001928E-02 0.  1.
    10030    2    1    2    0    0  0.00000000000E+00  0.00000000000E+00  0.14881011850E+04  0.37219825578E+04  0.34115552207E+04 0.  0.
        2    1    3    3  502    0 -0.36048867941E+03  0.13557733432E+04  0.18027094410E+04  0.22842580359E+04  0.25500000920E-02 0. -1.
       -2    1    3    3    0  502  0.36048867941E+03 -0.13557733432E+04 -0.31460825605E+03  0.14377245219E+04  0.25500000920E-02 0.  1.
</event>
<event>
 5   0  0.6134625E-07  0.3424473E+04  0.7818609E-02  0.8131926E-01
        1   -1    0    0  501    0  0.00000000000E+00  0.00000000000E+00  0.14939242949E+04  0.14939242949E+04  0.50400001928E-02 0.  1.
       -1   -1    0    0    0  501  0.00000000000E+00  0.00000000000E+00 -0.19624511438E+04  0.19624511438E+04  0.50400001928E-02 0. -1.
    10030    2    1    2    0    0  0.00000000000E+00  0.00000000000E+00 -0.46852684896E+03  0.34563754387E+04  0.34244727718E+04 0.  0.
        1    1    3    3  502    0  0.86668864255E+03 -0.14618592541E+04 -0.44494654413E+03  0.17567467402E+04  0.50400001928E-02 0. -1.
       -1    1    3    3    0  502 -0.86668864255E+03  0.14618592541E+04 -0.23580304824E+02  0.16996286985E+04  0.50400001928E-02 0.  1.
</event>
<event>
 5   0  0.6134625E-07  0.3450770E+04  0.7818609E-02  0.8125557E-01
        1   -1    0    0  501    0  0.00000000000E+00  0.00000000000E+00  0.20383498339E+04  0.20383498339E+04  0.50400001928E-02 0.  1.
       -1   -1    0    0    0  501  0.00000000000E+00  0.00000000000E+00 -0.14604724102E+04  0.14604724103E+04  0.50400001928E-02 0. -1.
    10030    2    1    2    0    0  0.00000000000E+00  0.00000000000E+00  0.57787742369E+03  0.34988222442E+04  0.34507701720E+04 0.  0.
        5    1    3    3  502    0 -0.45124176503E+03 -0.62059245154E+03 -0.12779535769E+04  0.14906178437E+04  0.46999998093E+01 0. -1.
       -5    1    3    3    0  502  0.45124176503E+03  0.62059245154E+03  0.18558310006E+04  0.20082044005E+04  0.46999998093E+01 0.  1.
</event>
<event>
 5   0  0.6134625E-07  0.3438206E+04  0.7818609E-02  0.8128593E-01
        1   -1    0    0  501    0  0.00000000000E+00  0.00000000000E+00  0.30114515526E+04  0.30114515526E+04  0.50400001928E-02 0.  1.
       -1   -1    0    0    0  501  0.00000000000E+00  0.00000000000E+00 -0.98135895063E+03  0.98135895064E+03  0.50400001928E-02 0. -1.
    10030    2    1    2    0    0  0.00000000000E+00  0.00000000000E+00  0.20300926019E+04  0.39928105032E+04  0.34382058900E+04 0.  0.
        3    1    3    3  502    0 -0.29540298290E+03  0.97995708352E+03  0.26190522336E+04  0.28119412192E+04  0.10100000352E+00 0. -1.
       -3    1    3    3    0  502  0.29540298290E+03 -0.97995708352E+03 -0.58895963168E+03  0.11808692840E+04  0.10100000352E+00 0.  1.
</event>
<event>
 5   0  0.1797075E-06  0.3087139E+04  0.7818609E-02  0.8219276E-01
       -2   -1    0    0    0  501  0.00000000000E+00  0.00000000000E+00  0.10685593936E+04  0.10685593936E+04  0.25500000920E-02 0.  1.
        2   -1    0    0  501    0  0.00000000000E+00  0.00000000000E+00 -0.22297380710E+04  0.22297380710E+04  0.25500000920E-02 0. -1.
    10030    2    1    2    0    0  0.00000000000E+00  0.00000000000E+00 -0.11611786774E+04  0.32982974647E+04  0.30871394922E+04 0.  0.
        2    1    3    3  502    0 -0.97787356154E+03  0.11821671679E+04 -0.39911347808E+03  0.15852594373E+04  0.25500000920E-02 0.  1.
       -2    1    3    3    0  502  0.97787356154E+03 -0.11821671679E+04 -0.76206519936E+03  0.17130380274E+04  0.25500000920E-02 0. -1.
</event>
<event>
 5   0  0.1948507E-06  0.2704405E+04  0.7818609E-02  0.8333577E-01
       -2   -1    0    0    0  501  0.00000000000E+00  0.00000000000E+00  0.74191569994E+03  0.74191569994E+03  0.25500000920E-02 0. -1.
        2   -1    0    0  501    0  0.00000000000E+00  0.00000000000E+00 -0.24645003419E+04  0.24645003419E+04  0.25500000920E-02 0.  1.
    10030    2    1    2    0    0  0.00000000000E+00  0.00000000000E+00 -0.17225846420E+04  0.32064160419E+04  0.27044049225E+04 0.  0.
        1    1    3    3  502    0 -0.38289054034E+03 -0.33749345305E+03  0.62332149504E+03  0.80562812943E+03  0.50400001928E-02 0. -1.
       -1    1    3    3    0  502  0.38289054034E+03  0.33749345305E+03 -0.23459061370E+04  0.24007879124E+04  0.50400001928E-02 0.  1.
</event>
<event>
 5   0  0.6146388E-07  0.3400564E+04  0.7818609E-02  0.8137768E-01
        1   -1    0    0  501    0  0.00000000000E+00  0.00000000000E+00  0.18766365876E+04  0.18766365876E+04  0.50400001928E-02 0.  1.
       -1   -1    0    0    0  501  0.00000000000E+00  0.00000000000E+00 -0.15405001735E+04  0.15405001735E+04  0.50400001928E-02 0. -1.
    10030    2    1    2    0    0  0.00000000000E+00  0.00000000000E+00  0.33613641406E+03  0.34171367611E+04  0.34005640642E+04 0.  0.
        4    1    3    3  502    0 -0.14231674419E+04  0.70581968074E+03  0.77713296675E+03  0.17684807746E+04  0.12699999809E+01 0.  1.
       -4    1    3    3    0  502  0.14231674419E+04 -0.70581968074E+03 -0.44099655268E+03  0.16486559865E+04  0.12699999809E+01 0. -1.
</event>
<event>
 5   0  0.6134625E-07  0.3561818E+04  0.7818609E-02  0.8099294E-01
        1   -1    0    0  501    0  0.00000000000E+00  0.00000000000E+00  0.12644273537E+04  0.12644273537E+04  0.50400001928E-02 0.  1.
       -1   -1    0    0    0  501  0.00000000000E+00  0.00000000000E+00 -0.25083589199E+04  0.25083589199E+04  0.50400001928E-02 0. -1.
    10030    2    1    2    0    0  0.00000000000E+00  0.00000000000E+00 -0.12439315662E+04  0.37727862736E+04  0.35618184295E+04 0.  0.
        1    1    3    3  502    0  0.72622978773E+03 -0.32481013847E+03  0.10657463312E+04  0.13299348003E+04  0.50400001928E-02 0.  1.
       -1    1    3    3    0  502 -0.72622978773E+03  0.32481013847E+03 -0.23096778974E+04  0.24428514733E+04  0.50400001928E-02 0. -1.
</event>
<event>
 5   0  0.6134625E-07  0.3378396E+04  0.7818609E-02  0.8143229E-01
        1   -1    0    0  501    0  0.00000000000E+00  0.00000000000E+00  0.87092107276E+03  0.87092107277E+03  0.50400001928E-02 0. -1.
       -1   -1    0    0    0  501  0.00000000000E+00  0.00000000000E+00 -0.32762890506E+04  0.32762890506E+04  0.50400001928E-02 0.  1.
    10030    2    1    2    0    0  0.00000000000E+00  0.00000000000E+00 -0.24053679779E+04  0.41472101234E+04  0.33783955806E+04 0.  0.
        1    1    3    3  502    0 -0.12670291927E+04  0.80781253601E+01 -0.25740268075E+04  0.28689793023E+04  0.50400001928E-02 0.  1.
       -1    1    3    3    0  502  0.12670291927E+04 -0.80781253601E+01  0.16865882959E+03  0.12782308211E+04  0.50400001928E-02 0. -1.
</event>
<event>
 5   0  0.6218695E-07  0.3451994E+04  0.7818609E-02  0.8125262E-01
       -1   -1    0    0    0  501  0.00000000000E+00  0.00000000000E+00  0.17316945605E+04  0.17316945606E+04  0.50400001928E-02 0.  1.
        1   -1    0    0  501    0  0.00000000000E+00  0.00000000000E+00 -0.17203186798E+04  0.17203186798E+04  0.50400001928E-02 0. -1.
    10030    2    1    2    0    0  0.00000000000E+00  0.00000000000E+00  0.11375880703E+02  0.34520132404E+04  0.34519944961E+04 0.  0.
        2    1    3    3  502    0  0.26009309197E+03 -0.23984105748E+03 -0.16836685479E+04  0.17204394579E+04  0.25500000920E-02 0. -1.
       -2    1    3    3    0  502 -0.26009309197E+03  0.23984105748E+03  0.16950444286E+04  0.17315737825E+04  0.25500000920E-02 0.  1.
</event>
<event>
 5   0  0.1948507E-06  0.3139360E+04  0.7818609E-02  0.8205018E-01
        2   -1    0    0  501    0  0.00000000000E+00  0.00000000000E+00  0.22695312055E+04  0.22695312055E+04  0.25500000920E-02 0. -1.
       -2   -1    0    0    0  501  0.00000000000E+00  0.00000000000E+00 -0.10856404229E+04  0.10856404229E+04  0.25500000920E-02 0.  1.
    10030    2    1    2    0    0  0.00000000000E+00  0.00000000000E+00  0.11838907826E+04  0.33551716284E+04  0.31393596912E+04 0.  0.
        1    1    3    3  502    0  0.13115716288E+04  0.84671704774E+03  0.41716434904E+03  0.16159133611E+04  0.50400001928E-02 0. -1.
       -1    1    3    3    0  502 -0.13115716288E+04 -0.84671704774E+03  0.76672643351E+03  0.17392582673E+04  0.50400001928E-02 0.  1.
</event>
<event>
 5   0  0.1339844E-06  0.3165121E+04  0.7818609E-02  0.8198090E-01
        2   -1    0    0  501    0  0.00000000000E+00  0.00000000000E+00  0.15732236497E+04  0.15732236497E+04  0.25500000920E-02 0. -1.
       -2   -1    0    0    0  501  0.00000000000E+00  0.00000000000E+00 -0.15919524244E+04  0.15919524244E+04  0.25500000920E-02 0.  1.
    10030    2    1    2    0    0  0.00000000000E+00  0.00000000000E+00 -0.18728774682E+02  0.31651760742E+04  0.31651206633E+04 0.  0.
        3    1    3    3  502    0  0.10053931023E+04 -0.11415292498E+04  0.42721269411E+03  0.15800047515E+04  0.10100000352E+00 0.  1.
       -3    1    3    3    0  502 -0.10053931023E+04  0.11415292498E+04 -0.44594146879E+03  0.15851713227E+04  0.10100000352E+00 0. -1.
</event>
<event>
 5   0  0.6134625E-07  0.3374325E+04  0.7818609E-02  0.8144237E-01
       -1   -1    0    0    0  501  0.00000000000E+00  0.00000000000E+00  0.18529615432E+04  0.18529615432E+04  0.50400001928E-02 0.  1.
        1   -1    0    0  501    0  0.00000000000E+00  0.00000000000E+00 -0.15361985830E+04  0.15361985830E+04  0.50400001928E-02 0. -1.
    10030    2    1    2    0    0  0.00000000000E+00  0.00000000000E+00  0.31676296018E+03  0.33891601262E+04  0.33743247603E+04 0.  0.
        3    1    3    3  502    0  0.10858084232E+04 -0.10366646361E+04  0.93174293920E+03  0.17668611758E+04  0.10100000352E+00 0.  1.
       -3    1    3    3    0  502 -0.10858084232E+04  0.10366646361E+04 -0.61497997902E+03  0.16222989504E+04  0.10100000352E+00 0. -1.
</event>
<event>
 5   0  0.1880301E-06  0.3428205E+04  0.7818609E-02  0.8131018E-01
       -2   -1    0    0    0  501  0.00000000000E+00  0.00000000000E+00  0.18112687362E+04  0.18112687362E+04  0.25500000920E-02 0. -1.
        2   -1    0    0  501    0  0.00000000000E+00  0.00000000000E+00 -0.16221492224E+04  0.16221492224E+04  0.25500000920E-02 0.  1.
    10030    2    1    2    0    0  0.00000000000E+00  0.00000000000E+00  0.18911951388E+03  0.34334179586E+04  0.34282054617E+04 0.  0.
        4    1    3    3  502    0  0.17018441996E+04 -0.69371594172E+02  0.28736340278E+03  0.17273289889E+04  0.12699999809E+01 0. -1.
       -4    1    3    3    0  502 -0.17018441996E+04  0.69371594172E+02 -0.98243888898E+02  0.17060889697E+04  0.12699999809E+01 0.  1.
</event>
<event>
 5   0  0.6134625E-07  0.3395530E+04  0.7818609E-02  0.8139004E-01
        1   -1    0    0  501    0  0.00000000000E+00  0.00000000000E+00  0.22804213697E+04  0.22804213697E+04  0.50400001928E-02 0.  1.
       -1   -1    0    0    0  501  0.00000000000E+00  0.00000000000E+00 -0.12639792433E+04  0.12639792433E+04  0.50400001928E-02 0. -1.
    10030    2    1    2    0    0  0.00000000000E+00  0.00000000000E+00  0.10164421264E+04  0.35444006131E+04  0.33955295772E+04 0.  0.
        3    1    3    3  502    0 -0.14074518041E+04  0.19543353821E+03  0.14780915538E+04  0.20503339972E+04  0.10100000352E+00 0.  1.
       -3    1    3    3    0  502  0.14074518041E+04 -0.19543353821E+03 -0.46164942737E+03  0.14940666159E+04  0.10100000352E+00 0. -1.
</event>
<event>
 5   0  0.6134625E-07  0.3402213E+04  0.7818609E-02  0.8137363E-01
       -1   -1    0    0    0  501  0.00000000000E+00  0.00000000000E+00  0.12452622168E+04  0.12452622168E+04  0.50400001928E-02 0.  1.
        1   -1    0    0  501    0  0.00000000000E+00  0.00000000000E+00 -0.23238186366E+04  0.23238186366E+04  0.50400001928E-02 0. -1.
    10030    2    1    2    0    0  0.00000000000E+00  0.00000000000E+00 -0.10785564198E+04  0.35690808533E+04  0.34022131308E+04 0.  0.
        3    1    3    3  502    0 -0.74754129703E+03  0.12089047517E+04 -0.15197272909E+04  0.20808266959E+04  0.10100000352E+00 0. -1.
       -3    1    3    3    0  502  0.74754129703E+03 -0.12089047517E+04  0.44117087111E+03  0.14882541574E+04  0.10100000352E+00 0.  1.
</event>
<event>
 5   0  0.1339844E-06  0.3412670E+04  0.7818609E-02  0.8134804E-01
        2   -1    0    0  501    0  0.00000000000E+00  0.00000000000E+00  0.11557625918E+04  0.11557625918E+04  0.25500000920E-02 0.  1.
       -2   -1    0    0    0  501  0.00000000000E+00  0.00000000000E+00 -0.25191839954E+04  0.25191839954E+04  0.25500000920E-02 0. -1.
    10030    2    1    2    0    0  0.00000000000E+00  0.00000000000E+00 -0.13634214036E+04  0.36749465872E+04  0.34126697020E+04 0.  0.
        3    1    3    3  502    0 -0.92896677163E+03  0.14269181189E+04 -0.56129535929E+03  0.17927986700E+04  0.10100000352E+00 0.  1.
       -3    1    3    3    0  502  0.92896677163E+03 -0.14269181189E+04 -0.80212604427E+03  0.18821479171E+04  0.10100000352E+00 0. -1.
</event>
<event>
 5   0  0.6146388E-07  0.3370498E+04  0.7818609E-02  0.8145185E-01
        1   -1    0    0  501    0  0.00000000000E+00  0.00000000000E+00  0.20475524583E+04  0.20475524583E+04  0.50400001928E-02 0.  1.
       -1   -1    0    0    0  501  0.00000000000E+00  0.00000000000E+00 -0.13870535534E+04  0.13870535534E+04  0.50400001928E-02 0. -1.
    10030    2    1    2    0    0  0.00000000000E+00  0.00000000000E+00  0.66049890495E+03  0.34346060117E+04  0.33704984279E+04 0.  0.
        4    1    3    3  502    0 -0.58135492992E+03 -0.11324391908E+04 -0.79514348603E+03  0.15008820245E+04  0.12699999809E+01 0. -1.
       -4    1    3    3    0  502  0.58135492992E+03  0.11324391908E+04  0.14556423910E+04  0.19337239872E+04  0.12699999809E+01 0.  1.
</event>
<event>
 5   0  0.6134625E-07  0.3541407E+04  0.7818609E-02  0.8104046E-01
        1   -1    0    0  501    0  0.00000000000E+00  0.00000000000E+00  0.20770306388E+04  0.20770306388E+04  0.50400001928E-02 0. -1.
       -1   -1    0    0    0  501  0.00000000000E+00  0.00000000000E+00 -0.15095548226E+04  0.15095548226E+04  0.50400001928E-02 0.  1.
    10030    2    1    2    0    0  0.00000000000E+00  0.00000000000E+00  0.56747581615E+03  0.35865854614E+04  0.35414074138E+04 0.  0.
        3    1    3    3  502    0 -0.36192413249E+03 -0.47641531126E+03  0.19715610193E+04  0.20603430514E+04  0.10100000352E+00 0. -1.
       -3    1    3    3    0  502  0.36192413249E+03  0.47641531126E+03 -0.14040852031E+04  0.15262424101E+04  0.10100000352E+00 0.  1.
</event>
<event>
 5   0  0.1797075E-06  0.3229142E+04  0.7818609E-02  0.8181163E-01
        2   -1    0    0  501    0  0.00000000000E+00  0.00000000000E+00  0.23320650524E+04  0.23320650524E+04  0.25500000920E-02 0. -1.
       -2   -1    0    0    0  501  0.00000000000E+00  0.00000000000E+00 -0.11178248728E+04  0.11178248728E+04  0.25500000920E-02 0.  1.
    10030    2    1    2    0    0  0.00000000000E+00  0.00000000000E+00  0.12142401796E+04  0.34498899252E+04  0.32291424995E+04 0.  0.
        2    1    3    3  502    0 -0.70722962081E+03  0.75941053039E+03  0.19285933591E+04  0.21900571762E+04  0.25500000920E-02 0. -1.
       -2    1    3    3    0  502  0.70722962081E+03 -0.75941053039E+03 -0.71435317957E+03  0.12598327490E+04  0.25500000920E-02 0.  1.
</event>
<event>
 5   0  0.6146388E-07  0.3343202E+04  0.7818609E-02  0.8151989E-01
       -1   -1    0    0    0  501  0.00000000000E+00  0.00000000000E+00  0.12371426663E+04  0.12371426663E+04  0.50400001928E-02 0.  1.
        1   -1    0    0  501    0  0.00000000000E+00  0.00000000000E+00 -0.22586323264E+04  0.22586323264E+04  0.50400001928E-02 0. -1.
    10030    2    1    2    0    0  0.00000000000E+00  0.00000000000E+00 -0.10214896601E+04  0.34957749926E+04  0.33432023082E+04 0.  0.
        4    1    3    3  502    0  0.96133546579E+03  0.13578410110E+04 -0.68048202796E+03  0.17974858809E+04  0.12699999809E+01 0. -1.
       -4    1    3    3    0  502 -0.96133546579E+03 -0.13578410110E+04 -0.34100763216E+03  0.16982891117E+04  0.12699999809E+01 0.  1.
</event>
<event>
 5   0  0.1948507E-06  0.3426305E+04  0.7818609E-02  0.8131480E-01
        2   -1    0    0  501    0  0.00000000000E+00  0.00000000000E+00  0.31964766317E+04  0.31964766317E+04  0.25500000920E-02 0.  1.
       -2   -1    0    0    0  501  0.00000000000E+00  0.00000000000E+00 -0.91816436134E+03  0.91816436134E+03  0.25500000920E-02 0. -1.
    10030    2    1    2    0    0  0.00000000000E+00  0.00000000000E+00  0.22783122703E+04  0.41146409930E+04  0.34263046713E+04 0.  0.
        1    1    3    3  502    0  0.58727497190E+03  0.81692735184E+03  0.28043073729E+04  0.29793291245E+04  0.50400001928E-02 0.  1.
       -1    1    3    3    0  502 -0.58727497190E+03 -0.81692735184E+03 -0.52599510253E+03  0.11353118685E+04  0.50400001928E-02 0. -1.
</event>
<event>
 5   0  0.1911477E-06  0.3420618E+04  0.7818609E-02  0.8132864E-01
        2   -1    0    0  501    0  0.00000000000E+00  0.00000000000E+00  0.17132640721E+04  0.17132640721E+04  0.25500000920E-02 0. -1.
       -2   -1    0    0    0  501  0.00000000000E+00  0.00000000000E+00 -0.17073589201E+04  0.17073589201E+04  0.25500000920E-02 0.  1.
    10030    2    1    2    0    0  0.00000000000E+00  0.00000000000E+00  0.59051519812E+01  0.34206229922E+04  0.34206178951E+04 0.  0.
        5    1    3    3  502    0  0.12910309699E+04 -0.13990009297E+03 -0.11100637297E+04  0.17083900536E+04  0.46999998093E+01 0.  1.
       -5    1    3    3    0  502 -0.12910309699E+04  0.13990009297E+03  0.11159688816E+04  0.17122329386E+04  0.46999998093E+01 0. -1.
</event>
<event>
 5   0  0.6146388E-07  0.3383863E+04  0.7818609E-02  0.8141878E-01
       -1   -1    0    0    0  501  0.00000000000E+00  0.00000000000E+00  0.14431514263E+04  0.14431514263E+04  0.50400001928E-02 0.  1.
        1   -1    0    0  501    0  0.00000000000E+00  0.00000000000E+00 -0.19835985120E+04  0.19835985120E+04  0.50400001928E-02 0. -1.
    10030    2    1    2    0    0  0.00000000000E+00  0.00000000000E+00 -0.54044708566E+03  0.34267499384E+04  0.33838634854E+04 0.  0.
        4    1    3    3  502    0  0.39737624217E+03 -0.94533092153E+02  0.13924706080E+04  0.14511445105E+04  0.12699999809E+01 0.  1.
       -4    1    3    3    0  502 -0.39737624217E+03  0.94533092153E+02 -0.19329176936E+04  0.19756054279E+04  0.12699999809E+01 0. -1.
</event>
<event>
 5   0  0.1339844E-06  0.3292760E+04  0.7818609E-02  0.8164740E-01
       -2   -1    0    0    0  501  0.00000000000E+00  0.00000000000E+00  0.11086376722E+04  0.11086376722E+04  0.25500000920E-02 0. -1.
        2   -1    0    0  501    0  0.00000000000E+00  0.00000000000E+00 -0.24449536918E+04  0.24449536918E+04  0.25500000920E-02 0.  1.
    10030    2    1    2    0    0  0.00000000000E+00  0.00000000000E+00 -0.13363160196E+04  0.35535913640E+04  0.32927604039E+04 0.  0.
        3    1    3    3  502    0  0.64305806418E+03  0.14941548297E+04 -0.39397527440E+03  0.16736901912E+04  0.10100000352E+00 0. -1.
       -3    1    3    3    0  502 -0.64305806418E+03 -0.14941548297E+04 -0.94234074525E+03  0.18799011728E+04  0.10100000352E+00 0.  1.
</event>
<event>
 5   0  0.6134625E-07  0.3401416E+04  0.7818609E-02  0.8137559E-01
       -1   -1    0    0    0  501  0.00000000000E+00  0.00000000000E+00  0.18517621428E+04  0.18517621428E+04  0.50400001928E-02 0. -1.
        1   -1    0    0  501    0  0.00000000000E+00  0.00000000000E+00 -0.15619756544E+04  0.15619756544E+04  0.50400001928E-02 0.  1.
    10030    2    1    2    0    0  0.00000000000E+00  0.00000000000E+00  0.28978648834E+03  0.34137377972E+04  0.34014158139E+04 0.  0.
        1    1    3    3  502    0 -0.76849669792E+03 -0.28321820157E+02 -0.13775126272E+04  0.15776344121E+04  0.50400001928E-02 0.  1.
       -1    1    3    3    0  502  0.76849669792E+03  0.28321820157E+02  0.16672991155E+04  0.18361033851E+04  0.50400001928E-02 0. -1.
</event>
<event>
 5   0  0.1797075E-06  0.2548465E+04  0.7818609E-02  0.8385920E-01
       -2   -1    0    0    0  501  0.00000000000E+00  0.00000000000E+00  0.91993468504E+03  0.91993468504E+03  0.25500000920E-02 0. -1.
        2   -1    0    0  501    0  0.00000000000E+00  0.00000000000E+00 -0.17649820634E+04  0.17649820634E+04  0.25500000920E-02 0.  1.
    10030    2    1    2    0    0  0.00000000000E+00  0.00000000000E+00 -0.84504737832E+03  0.26849167484E+04  0.25484648073E+04 0.  0.
        2    1    3    3  502    0 -0.38667825717E+03  0.36301361494E+03 -0.16431653331E+04  0.17266416163E+04  0.25500000920E-02 0.  1.
       -2    1    3    3    0  502  0.38667825717E+03 -0.36301361494E+03  0.79811795475E+03  0.95827513215E+03  0.25500000920E-02 0. -1.
</event>
<event>
 5   0  0.1339844E-06  0.3414155E+04  0.7818609E-02  0.8134441E-01
        2   -1    0    0  501    0  0.00000000000E+00  0.00000000000E+00  0.26128339291E+04  0.26128339291E+04  0.25500000920E-02 0. -1.
       -2   -1    0    0    0  501  0.00000000000E+00  0.00000000000E+00 -0.11153077645E+04  0.11153077645E+04  0.25500000920E-02 0.  1.
    10030    2    1    2    0    0  0.00000000000E+00  0.00000000000E+00  0.14975261646E+04  0.37281416937E+04  0.34141552212E+04 0.  0.
        3    1    3    3  502    0  0.45484413512E+03 -0.14392775236E+04  0.16194038614E+04  0.22137912850E+04  0.10100000352E+00 0. -1.
       -3    1    3    3    0  502 -0.45484413512E+03  0.14392775236E+04 -0.12187769680E+03  0.15143504087E+04  0.10100000352E+00 0.  1.
</event>
<event>
 5   0  0.1797075E-06  0.3378078E+04  0.7818609E-02  0.8143308E-01
       -2   -1    0    0    0  501  0.00000000000E+00  0.00000000000E+00  0.17232866434E+04  0.17232866434E+04  0.25500000920E-02 0. -1.
        2   -1    0    0  501    0  0.00000000000E+00  0.00000000000E+00 -0.16554722501E+04  0.16554722501E+04  0.25500000920E-02 0.  1.
    10030    2    1    2    0    0  0.00000000000E+00  0.00000000000E+00  0.67814393278E+02  0.33787588936E+04  0.33780782804E+04 0.  0.
        2    1    3    3  502    0 -0.43852358727E+03  0.15510163426E+04 -0.47106934696E+03  0.16792441637E+04  0.25500000920E-02 0.  1.
       -2    1    3    3    0  502  0.43852358727E+03 -0.15510163426E+04  0.53888374024E+03  0.16995147299E+04  0.25500000920E-02 0. -1.
</event>
<event>
 5   0  0.1797075E-06  0.3420062E+04  0.7818609E-02  0.8133000E-01
        2   -1    0    0  501    0  0.00000000000E+00  0.00000000000E+00  0.30696243859E+04  0.30696243859E+04  0.25500000920E-02 0.  1.
       -2   -1    0    0    0  501  0.00000000000E+00  0.00000000000E+00 -0.95262639880E+03  0.95262639880E+03  0.25500000920E-02 0. -1.
    10030    2    1    2    0    0  0.00000000000E+00  0.00000000000E+00  0.21169979871E+04  0.40222507847E+04  0.34200615342E+04 0.  0.
        2    1    3    3  502    0 -0.33548074329E+03  0.27673688709E+00  0.30305423451E+04  0.30490546586E+04  0.25500000920E-02 0.  1.
       -2    1    3    3    0  502  0.33548074329E+03 -0.27673688709E+00 -0.91354435803E+03  0.97319612607E+03  0.25500000920E-02 0. -1.
</event>
<event>
 5   0  0.6134625E-07  0.3394844E+04  0.7818609E-02  0.8139173E-01
        1   -1    0    0  501    0  0.00000000000E+00  0.00000000000E+00  0.18268667610E+04  0.18268667610E+04  0.50400001928E-02 0.  1.
       -1   -1    0    0    0  501  0.00000000000E+00  0.00000000000E+00 -0.15771496122E+04  0.15771496122E+04  0.50400001928E-02 0. -1.
    10030    2    1    2    0    0  0.00000000000E+00  0.00000000000E+00  0.24971714886E+03  0.34040163732E+04  0.33948444463E+04 0.  0.
        5    1    3    3  502    0  0.38091287755E+03  0.90168142397E+03 -0.12656454649E+04  0.16000014198E+04  0.46999998093E+01 0. -1.
       -5    1    3    3    0  502 -0.38091287755E+03 -0.90168142397E+03  0.15153626138E+04  0.18040149533E+04  0.46999998093E+01 0.  1.
</event>
<event>
 5   0  0.6146388E-07  0.3408831E+04  0.7818609E-02  0.8135742E-01
       -1   -1    0    0    0  501  0.00000000000E+00  0.00000000000E+00  0.12663140068E+04  0.12663140068E+04  0.50400001928E-02 0.  1.
        1   -1    0    0  501    0  0.00000000000E+00  0.00000000000E+00 -0.22940856896E+04  0.22940856896E+04  0.50400001928E-02 0. -1.
    10030    2    1    2    0    0  0.00000000000E+00  0.00000000000E+00 -0.10277716828E+04  0.35603996965E+04  0.34088313784E+04 0.  0.
        4    1    3    3  502    0 -0.14959737442E+04 -0.70046341430E+03 -0.75155513251E+02  0.16535526608E+04  0.12699999809E+01 0.  1.
       -4    1    3    3    0  502  0.14959737442E+04  0.70046341430E+03 -0.95261616952E+03  0.19068470356E+04  0.12699999809E+01 0. -1.
</event>
<event>
 5   0  0.1797075E-06  0.3468688E+04  0.7818609E-02  0.8121251E-01
       -2   -1    0    0    0  501  0.00000000000E+00  0.00000000000E+00  0.16384236689E+04  0.16384236690E+04  0.25500000920E-02 0. -1.
        2   -1    0    0  501    0  0.00000000000E+00  0.00000000000E+00 -0.18358795263E+04  0.18358795263E+04  0.25500000920E-02 0.  1.
    10030    2    1    2    0    0  0.00000000000E+00  0.00000000000E+00 -0.19745585735E+03  0.34743031953E+04  0.34686876304E+04 0.  0.
        2    1    3    3  502    0  0.58527646029E+03  0.43870136755E+03 -0.16738325494E+04  0.18266698739E+04  0.25500000920E-02 0.  1.
       -2    1    3    3    0  502 -0.58527646029E+03 -0.43870136755E+03  0.14763766920E+04  0.16476333214E+04  0.25500000920E-02 0. -1.
</event>
<event>
 5   0  0.1797075E-06  0.3415086E+04  0.7818609E-02  0.8134214E-01
       -2   -1    0    0    0  501  0.00000000000E+00  0.00000000000E+00  0.16645007753E+04  0.16645007753E+04  0.25500000920E-02 0.  1.
        2   -1    0    0  501    0  0.00000000000E+00  0.00000000000E+00 -0.17516981318E+04  0.17516981318E+04  0.25500000920E-02 0. -1.
    10030    2    1    2    0    0  0.00000000000E+00  0.00000000000E+00 -0.87197356502E+02  0.34161989072E+04  0.34150858839E+04 0.  0.
        2    1    3    3  502    0 -0.12398901721E+04  0.93121783782E+03 -0.75882023301E+03  0.17263552492E+04  0.25500000920E-02 0. -1.
       -2    1    3    3    0  502  0.12398901721E+04 -0.93121783782E+03  0.67162287650E+03  0.16898436580E+04  0.25500000920E-02 0.  1.
</event>
<event>
 5   0  0.6134625E-07  0.3387745E+04  0.7818609E-02  0.8140921E-01
        1   -1    0    0  501    0  0.00000000000E+00  0.00000000000E+00  0.20473765826E+04  0.20473765826E+04  0.50400001928E-02 0. -1.
       -1   -1    0    0    0  501  0.00000000000E+00  0.00000000000E+00 -0.14014052107E+04  0.14014052107E+04  0.50400001928E-02 0.  1.
    10030    2    1    2    0    0  0.00000000000E+00  0.00000000000E+00  0.64597137189E+03  0.34487817933E+04  0.33877450974E+04 0.  0.
        5    1    3    3  502    0  0.12731247066E+04  0.96272218966E+03 -0.25424120221E+03  0.16162738666E+04  0.46999998093E+01 0.  1.
       -5    1    3    3    0  502 -0.12731247066E+04 -0.96272218966E+03  0.90021257409E+03  0.18325079267E+04  0.46999998093E+01 0. -1.
</event>
<event>
 5   0  0.1339844E-06  0.3442348E+04  0.7818609E-02  0.8127590E-01
       -2   -1    0    0    0  501  0.00000000000E+00  0.00000000000E+00  0.18279596972E+04  0.18279596972E+04  0.25500000920E-02 0.  1.
        2   -1    0    0  501    0  0.00000000000E+00  0.00000000000E+00 -0.16206262352E+04  0.16206262352E+04  0.25500000920E-02 0. -1.
    10030    2    1    2    0    0  0.00000000000E+00  0.00000000000E+00  0.20733346201E+03  0.34485859324E+04  0.34423477118E+04 0.  0.
        3    1    3    3  502    0  0.75508321615E+03 -0.57914140706E+03  0.15404498470E+04  0.18106742319E+04  0.10100000352E+00 0.  1.
       -3    1    3    3    0  502 -0.75508321615E+03  0.57914140706E+03 -0.13331163850E+04  0.16379117006E+04  0.10100000352E+00 0. -1.
</event>
<event>
 5   0  0.1911477E-06  0.3437590E+04  0.7818609E-02  0.8128742E-01
        2   -1    0    0  501    0  0.00000000000E+00  0.00000000000E+00  0.22777713582E+04  0.22777713582E+04  0.25500000920E-02 0.  1.
       -2   -1    0    0    0  501  0.00000000000E+00  0.00000000000E+00 -0.12969941699E+04  0.12969941699E+04  0.25500000920E-02 0. -1.
    10030    2    1    2    0    0  0.00000000000E+00  0.00000000000E+00  0.98077718824E+03  0.35747655281E+04  0.34375899535E+04 0.  0.
        5    1    3    3  502    0  0.42252025307E+03 -0.93298419184E+03  0.19257775937E+04  0.21811979041E+04  0.46999998093E+01 0.  1.
       -5    1    3    3    0  502 -0.42252025307E+03  0.93298419184E+03 -0.94500040544E+03  0.13935676240E+04  0.46999998093E+01 0. -1.
</event>
<event>
 5   0  0.6146388E-07  0.2866840E+04  0.7818609E-02  0.8282812E-01
       -1   -1    0    0    0  501  0.00000000000E+00  0.00000000000E+00  0.18413367381E+04  0.18413367382E+04  0.50400001928E-02 0.  1.
        1   -1    0    0  501    0  0.00000000000E+00  0.00000000000E+00 -0.11158702234E+04  0.11158702235E+04  0.50400001928E-02 0. -1.
    10030    2    1    2    0    0  0.00000000000E+00  0.00000000000E+00  0.72546651469E+03  0.29572069616E+04  0.28668399589E+04 0.  0.
        4    1    3    3  502    0  0.76562135454E+02  0.12971902676E+04  0.98689058617E+03  0.16317227071E+04  0.12699999809E+01 0.  1.
       -4    1    3    3    0  502 -0.76562135454E+02 -0.12971902676E+04 -0.26142407148E+03  0.13254842545E+04  0.12699999809E+01 0. -1.
</event>
<event>
 5   0  0.1797075E-06  0.3473803E+04  0.7818609E-02  0.8120026E-01
        2   -1    0    0  501    0  0.00000000000E+00  0.00000000000E+00  0.23629722427E+04  0.23629722427E+04  0.25500000920E-02 0.  1.
       -2   -1    0    0    0  501  0.00000000000E+00  0.00000000000E+00 -0.12767088360E+04  0.12767088360E+04  0.25500000920E-02 0. -1.
    10030    2    1    2    0    0  0.00000000000E+00  0.00000000000E+00  0.10862634068E+04  0.36396810787E+04  0.34738034150E+04 0.  0.
        2    1    3    3  502    0  0.16613457098E+04 -0.11904857967E+03  0.27083308479E+02  0.16658258124E+04  0.25500000920E-02 0. -1.
       -2    1    3    3    0  502 -0.16613457098E+04  0.11904857967E+03  0.10591800983E+04  0.19738552663E+04  0.25500000920E-02 0.  1.
</event>
<event>
 5   0  0.1339844E-06  0.3451495E+04  0.7818609E-02  0.8125382E-01
       -2   -1    0    0    0  501  0.00000000000E+00  0.00000000000E+00  0.16372578849E+04  0.16372578849E+04  0.25500000920E-02 0. -1.
        2   -1    0    0  501    0  0.00000000000E+00  0.00000000000E+00 -0.18190195211E+04  0.18190195211E+04  0.25500000920E-02 0.  1.
    10030    2    1    2    0    0  0.00000000000E+00  0.00000000000E+00 -0.18176163622E+03  0.34562774060E+04  0.34514947797E+04 0.  0.
        3    1    3    3  502    0 -0.15058570775E+04  0.69284225716E+03 -0.57172126631E+03  0.17534255467E+04  0.10100000352E+00 0.  1.
       -3    1    3    3    0  502  0.15058570775E+04 -0.69284225716E+03  0.38995963009E+03  0.17028518593E+04  0.10100000352E+00 0. -1.
</event>
<event>
 5   0  0.1911477E-06  0.3283606E+04  0.7818609E-02  0.8167079E-01
        2   -1    0    0  501    0  0.00000000000E+00  0.00000000000E+00  0.17996369258E+04  0.17996369258E+04  0.25500000920E-02 0.  1.
       -2   -1    0    0    0  501  0.00000000000E+00  0.00000000000E+00 -0.14978118528E+04  0.14978118528E+04  0.25500000920E-02 0. -1.
    10030    2    1    2    0    0  0.00000000000E+00  0.00000000000E+00  0.30182507305E+03  0.32974487786E+04  0.32836062603E+04 0.  0.
        5    1    3    3  502    0 -0.15410601874E+04  0.39449865823E+03 -0.25700145995E+03  0.16113868353E+04  0.46999998093E+01 0. -1.
       -5    1    3    3    0  502  0.15410601874E+04 -0.39449865823E+03  0.55882653300E+03  0.16860619433E+04  0.46999998093E+01 0.  1.
</event>
<event>
 5   0  0.6134625E-07  0.3391210E+04  0.7818609E-02  0.8140067E-01
       -1   -1    0    0    0  501  0.00000000000E+00  0.00000000000E+00  0.16173676794E+04  0.16173676794E+04  0.50400001928E-02 0.  1.
        1   -1    0    0  501    0  0.00000000000E+00  0.00000000000E+00 -0.17776265126E+04  0.17776265126E+04  0.50400001928E-02 0. -1.
    10030    2    1    2    0    0  0.00000000000E+00  0.00000000000E+00 -0.16025883322E+03  0.33949941920E+04  0.33912096176E+04 0.  0.
        3    1    3    3  502    0 -0.44004847574E+03 -0.14002280314E+04 -0.93007303880E+03  0.17376182171E+04  0.10100000352E+00 0. -1.
       -3    1    3    3    0  502  0.44004847574E+03  0.14002280314E+04  0.76981420558E+03  0.16573759749E+04  0.10100000352E+00 0.  1.
</event>
<event>
 5   0  0.1880301E-06  0.3470968E+04  0.7818609E-02  0.8120705E-01
        2   -1    0    0  501    0  0.00000000000E+00  0.00000000000E+00  0.28783487577E+04  0.28783487577E+04  0.25500000920E-02 0. -1.
       -2   -1    0    0    0  501  0.00000000000E+00  0.00000000000E+00 -0.10464003494E+04  0.10464003494E+04  0.25500000920E-02 0.  1.
    10030    2    1    2    0    0  0.00000000000E+00  0.00000000000E+00  0.18319484084E+04  0.39247491071E+04  0.34709682486E+04 0.  0.
        4    1    3    3  502    0  0.11601591255E+04 -0.12472291323E+04  0.12915996108E+04  0.21377045803E+04  0.12699999809E+01 0. -1.
       -4    1    3    3    0  502 -0.11601591255E+04  0.12472291323E+04  0.54034879757E+03  0.17870445269E+04  0.12699999809E+01 0.  1.
</event>
<event>
 5   0  0.6134625E-07  0.3384206E+04  0.7818609E-02  0.8141794E-01
        1   -1    0    0  501    0  0.00000000000E+00  0.00000000000E+00  0.15668017671E+04  0.15668017671E+04  0.50400001928E-02 0. -1.
       -1   -1    0    0    0  501  0.00000000000E+00  0.00000000000E+00 -0.18274251350E+04  0.18274251350E+04  0.50400001928E-02 0.  1.
    10030    2    1    2    0    0  0.00000000000E+00  0.00000000000E+00 -0.26062336790E+03  0.33942269021E+04  0.33842062176E+04 0.  0.
        1    1    3    3  502    0 -0.10656875743E+04  0.10564814454E+04 -0.91452835744E+03  0.17573289866E+04  0.50400001928E-02 0.  1.
       -1    1    3    3    0  502  0.10656875743E+04 -0.10564814454E+04  0.65390498954E+03  0.16368979155E+04  0.50400001928E-02 0. -1.
</event>
<event>
 5   0  0.6134625E-07  0.3336095E+04  0.7818609E-02  0.8153771E-01
       -4   -1    0    0    0  501  0.00000000000E+00  0.00000000000E+00  0.16358257971E+04  0.16358262901E+04  0.12699999809E+01 0. -1.
        4   -1    0    0  501    0  0.00000000000E+00  0.00000000000E+00 -0.17009030654E+04  0.17009035396E+04  0.12699999809E+01 0.  1.
    10030    2    1    2    0    0  0.00000000000E+00  0.00000000000E+00 -0.65077268311E+02  0.33367298297E+04  0.33360951583E+04 0.  0.
        2    1    3    3  502    0  0.11136963424E+04  0.12417366183E+04 -0.44924618679E+02  0.16686064825E+04  0.25500000920E-02 0. -1.
       -2    1    3    3    0  502 -0.11136963424E+04 -0.12417366183E+04 -0.20152649632E+02  0.16681233472E+04  0.25500000920E-02 0.  1.
</event>
<event>
 5   0  0.1797075E-06  0.3378529E+04  0.7818609E-02  0.8143196E-01
        2   -1    0    0  501    0  0.00000000000E+00  0.00000000000E+00  0.25694191013E+04  0.25694191013E+04  0.25500000920E-02 0. -1.
       -2   -1    0    0    0  501  0.00000000000E+00  0.00000000000E+00 -0.11106068238E+04  0.11106068238E+04  0.25500000920E-02 0.  1.
    10030    2    1    2    0    0  0.00000000000E+00  0.00000000000E+00  0.14588122774E+04  0.36800259251E+04  0.33785289030E+04 0.  0.
        2    1    3    3  502    0 -0.15115309871E+04 -0.19293586576E+03 -0.64815936766E+02  0.15251725407E+04  0.25500000920E-02 0.  1.
       -2    1    3    3    0  502  0.15115309871E+04  0.19293586576E+03  0.15236282142E+04  0.21548533844E+04  0.25500000920E-02 0. -1.
</event>
<event>
 5   0  0.1339844E-06  0.3443128E+04  0.7818609E-02  0.8127402E-01
       -2   -1    0    0    0  501  0.00000000000E+00  0.00000000000E+00  0.15419103742E+04  0.15419103742E+04  0.25500000920E-02 0. -1.
        2   -1    0    0  501    0  0.00000000000E+00  0.00000000000E+00 -0.19221497426E+04  0.19221497426E+04  0.25500000920E-02 0.  1.
    10030    2    1    2    0    0  0.00000000000E+00  0.00000000000E+00 -0.38023936840E+03  0.34640601168E+04  0.34431280132E+04 0.  0.
        3    1    3    3  502    0  0.40369619810E+03 -0.97482959018E+03 -0.15587276276E+04  0.18822579997E+04  0.10100000352E+00 0.  1.
       -3    1    3    3    0  502 -0.40369619810E+03  0.97482959018E+03  0.11784882592E+04  0.15818021170E+04  0.10100000352E+00 0. -1.
</event>
<event>
 5   0  0.6146388E-07  0.3218305E+04  0.7818609E-02  0.8183999E-01
       -1   -1    0    0    0  501  0.00000000000E+00  0.00000000000E+00  0.20341351952E+04  0.20341351952E+04  0.50400001928E-02 0. -1.
        1   -1    0    0  501    0  0.00000000000E+00  0.00000000000E+00 -0.12729598977E+04  0.12729598978E+04  0.50400001928E-02 0.  1.
    10030    2    1    2    0    0  0.00000000000E+00  0.00000000000E+00  0.76117529747E+03  0.33070950930E+04  0.32183054735E+04 0.  0.
        4    1    3    3  502    0  0.64853354280E+03  0.13609060344E+04  0.95888373988E+03  0.17866506738E+04  0.12699999809E+01 0. -1.
       -4    1    3    3    0  502 -0.64853354280E+03 -0.13609060344E+04 -0.19770844241E+03  0.15204444192E+04  0.12699999809E+01 0.  1.
</event>
<event>
 5   0  0.1339844E-06  0.3297234E+04  0.7818609E-02  0.8163599E-01
        2   -1    0    0  501    0  0.00000000000E+00  0.00000000000E+00  0.24021669101E+04  0.24021669101E+04  0.25500000920E-02 0. -1.
       -2   -1    0    0    0  501  0.00000000000E+00  0.00000000000E+00 -0.11314527736E+04  0.11314527736E+04  0.25500000920E-02 0.  1.
    10030    2    1    2    0    0  0.00000000000E+00  0.00000000000E+00  0.12707141364E+04  0.35336196837E+04  0.32972342429E+04 0.  0.
        3    1    3    3  502    0  0.64231808294E+03  0.12541202122E+04 -0.28189385825E+03  0.14369600495E+04  0.10100000352E+00 0.  1.
       -3    1    3    3    0  502 -0.64231808294E+03 -0.12541202122E+04  0.15526079947E+04  0.20966596342E+04  0.10100000352E+00 0. -1.
</event>
<event>
 5   0  0.6134625E-07  0.3434759E+04  0.7818609E-02  0.8129428E-01
        1   -1    0    0  501    0  0.00000000000E+00  0.00000000000E+00  0.13796176749E+04  0.13796176749E+04  0.50400001928E-02 0. -1.
       -1   -1    0    0    0  501  0.00000000000E+00  0.00000000000E+00 -0.21378336204E+04  0.21378336204E+04  0.50400001928E-02 0.  1.
    10030    2    1    2    0    0  0.00000000000E+00  0.00000000000E+00 -0.75821594555E+03  0.35174512953E+04  0.34347594086E+04 0.  0.
        5    1    3    3  502    0  0.13406529838E+03 -0.77582762494E+03 -0.19421192023E+04  0.20956457463E+04  0.46999998093E+01 0.  1.
       -5    1    3    3    0  502 -0.13406529838E+03  0.77582762494E+03  0.11839032568E+04  0.14218055490E+04  0.46999998093E+01 0. -1.
</event>
<event>
 5   0  0.6134625E-07  0.3418431E+04  0.7818609E-02  0.8133398E-01
        1   -1    0    0  501    0  0.00000000000E+00  0.00000000000E+00  0.21414399959E+04  0.21414399959E+04  0.50400001928E-02 0.  1.
       -1   -1    0    0    0  501  0.00000000000E+00  0.00000000000E+00 -0.13642303713E+04  0.13642303714E+04  0.50400001928E-02 0. -1.
    10030    2    1    2    0    0  0.00000000000E+00  0.00000000000E+00  0.77720962451E+03  0.35056703672E+04  0.34184309154E+04 0.  0.
        1    1    3    3  502    0 -0.71744131091E+03  0.36426846307E+02 -0.12019003485E+04  0.14002190534E+04  0.50400001928E-02 0. -1.
       -1    1    3    3    0  502  0.71744131091E+03 -0.36426846307E+02  0.19791099730E+04  0.21054513138E+04  0.50400001928E-02 0.  1.
</event>
<event>
 5   0  0.1797075E-06  0.3393676E+04  0.7818609E-02  0.8139460E-01
        2   -1    0    0  501    0  0.00000000000E+00  0.00000000000E+00  0.14140337628E+04  0.14140337628E+04  0.25500000920E-02 0.  1.
       -2   -1    0    0    0  501  0.00000000000E+00  0.00000000000E+00 -0.20362029766E+04  0.20362029766E+04  0.25500000920E-02 0. -1.
    10030    2    1    2    0    0  0.00000000000E+00  0.00000000000E+00 -0.62216921385E+03  0.34502367394E+04  0.33936763292E+04 0.  0.
        2    1    3    3  502    0 -0.65625586657E+03  0.15505903082E+04 -0.97203289967E+02  0.16865498943E+04  0.25500000920E-02 0. -1.
       -2    1    3    3    0  502  0.65625586657E+03 -0.15505903082E+04 -0.52496592388E+03  0.17636868451E+04  0.25500000920E-02 0.  1.
</event>
<event>
 5   0  0.1339844E-06  0.2580713E+04  0.7818609E-02  0.8374782E-01
       -2   -1    0    0    0  501  0.00000000000E+00  0.00000000000E+00  0.75912150230E+03  0.75912150230E+03  0.25500000920E-02 0. -1.
        2   -1    0    0  501    0  0.00000000000E+00  0.00000000000E+00 -0.21933509307E+04  0.21933509307E+04  0.25500000920E-02 0.  1.
    10030    2    1    2    0    0  0.00000000000E+00  0.00000000000E+00 -0.14342294284E+04  0.29524724330E+04  0.25807129663E+04 0.  0.
        3    1    3    3  502    0  0.94068390249E+02 -0.56437198031E+03  0.60606321005E+03  0.83347298635E+03  0.10100000352E+00 0. -1.
       -3    1    3    3    0  502 -0.94068390249E+02  0.56437198031E+03 -0.20402926385E+04  0.21189994467E+04  0.10100000352E+00 0.  1.
</event>
<event>
 5   0  0.1948507E-06  0.3352573E+04  0.7818609E-02  0.8149646E-01
        2   -1    0    0  501    0  0.00000000000E+00  0.00000000000E+00  0.24313173855E+04  0.24313173855E+04  0.25500000920E-02 0.  1.
       -2   -1    0    0    0  501  0.00000000000E+00  0.00000000000E+00 -0.11557256999E+04  0.11557256999E+04  0.25500000920E-02 0. -1.
    10030    2    1    2    0    0  0.00000000000E+00  0.00000000000E+00  0.12755916855E+04  0.35870430854E+04  0.33525727357E+04 0.  0.
        1    1    3    3  502    0 -0.60767885101E+03 -0.14623455616E+04  0.12259772090E+04  0.20026852585E+04  0.50400001928E-02 0. -1.
       -1    1    3    3    0  502  0.60767885101E+03  0.14623455616E+04  0.49614476521E+02  0.15843578269E+04  0.50400001928E-02 0.  1.
</event>
<event>
 5   0  0.6146388E-07  0.3390203E+04  0.7818609E-02  0.8140315E-01
       -1   -1    0    0    0  501  0.00000000000E+00  0.00000000000E+00  0.16030063448E+04  0.16030063448E+04  0.50400001928E-02 0.  1.
        1   -1    0    0  501    0  0.00000000000E+00  0.00000000000E+00 -0.17924878126E+04  0.17924878126E+04  0.50400001928E-02 0. -1.
    10030    2    1    2    0    0  0.00000000000E+00  0.00000000000E+00 -0.18948146777E+03  0.33954941574E+04  0.33902031424E+04 0.  0.
        4    1    3    3  502    0 -0.29451066607E+03  0.16687488605E+04 -0.50986951221E+02  0.16953054515E+04  0.12699999809E+01 0.  1.
       -4    1    3    3    0  502  0.29451066607E+03 -0.16687488605E+04 -0.13849451655E+03  0.17001887059E+04  0.12699999809E+01 0. -1.
</event>
<event>
 5   0  0.1339844E-06  0.3393639E+04  0.7818609E-02  0.8139469E-01
        2   -1    0    0  501    0  0.00000000000E+00  0.00000000000E+00  0.13926723431E+04  0.13926723431E+04  0.25500000920E-02 0.  1.
       -2   -1    0    0    0  501  0.00000000000E+00  0.00000000000E+00 -0.20673899637E+04  0.20673899637E+04  0.25500000920E-02 0. -1.
    10030    2    1    2    0    0  0.00000000000E+00  0.00000000000E+00 -0.67471762064E+03  0.34600623068E+04  0.33936392412E+04 0.  0.
        3    1    3    3  502    0  0.14694366085E+04  0.83906591687E+03 -0.46600795494E+03  0.17551179400E+04  0.10100000352E+00 0.  1.
       -3    1    3    3    0  502 -0.14694366085E+04 -0.83906591687E+03 -0.20870966570E+03  0.17049443668E+04  0.10100000352E+00 0. -1.
</event>
<event>
 5   0  0.6146388E-07  0.2675706E+04  0.7818609E-02  0.8342931E-01
        1   -1    0    0  501    0  0.00000000000E+00  0.00000000000E+00  0.15806841091E+04  0.15806841091E+04  0.50400001928E-02 0.  1.
       -1   -1    0    0    0  501  0.00000000000E+00  0.00000000000E+00 -0.11323265028E+04  0.11323265028E+04  0.50400001928E-02 0. -1.
    10030    2    1    2    0    0  0.00000000000E+00  0.00000000000E+00  0.44835760629E+03  0.27130106119E+04  0.26757058951E+04 0.  0.
        4    1    3    3  502    0  0.48397074000E+03 -0.79859769156E+03  0.11955876088E+04  0.15170422846E+04  0.12699999809E+01 0.  1.
       -4    1    3    3    0  502 -0.48397074000E+03  0.79859769156E+03 -0.74723000253E+03  0.11959683272E+04  0.12699999809E+01 0. -1.
</event>
<event>
 5   0  0.1339844E-06  0.3248521E+04  0.7818609E-02  0.8176119E-01
        2   -1    0    0  501    0  0.00000000000E+00  0.00000000000E+00  0.29355074984E+04  0.29355074984E+04  0.25500000920E-02 0. -1.
       -2   -1    0    0    0  501  0.00000000000E+00  0.00000000000E+00 -0.89872767038E+03  0.89872767038E+03  0.25500000920E-02 0.  1.
    10030    2    1    2    0    0  0.00000000000E+00  0.00000000000E+00  0.20367798280E+04  0.38342351688E+04  0.32485207806E+04 0.  0.
        3    1    3    3  502    0 -0.61358514348E+03  0.59245717557E+03 -0.61313124199E+03  0.10504390336E+04  0.10100000352E+00 0.  1.
       -3    1    3    3    0  502  0.61358514348E+03 -0.59245717557E+03  0.26499110700E+04  0.27837961352E+04  0.10100000352E+00 0. -1.
</event>
<event>
 5   0  0.6218695E-07  0.3422684E+04  0.7818609E-02  0.8132361E-01
       -1   -1    0    0    0  501  0.00000000000E+00  0.00000000000E+00  0.12888665035E+04  0.12888665035E+04  0.50400001928E-02 0. -1.
        1   -1    0    0  501    0  0.00000000000E+00  0.00000000000E+00 -0.22722995616E+04  0.22722995617E+04  0.50400001928E-02 0.  1.
    10030    2    1    2    0    0  0.00000000000E+00  0.00000000000E+00 -0.98343305813E+03  0.35611660652E+04  0.34226836202E+04 0.  0.
        2    1    3    3  502    0 -0.31259040110E+03 -0.63277392928E+03  0.11303923434E+04  0.13326299015E+04  0.25500000920E-02 0. -1.
       -2    1    3    3    0  502  0.31259040110E+03  0.63277392928E+03 -0.21138254015E+04  0.22285361636E+04  0.25500000920E-02 0.  1.
</event>
<event>
 5   0  0.6134625E-07  0.3401343E+04  0.7818609E-02  0.8137577E-01
        1   -1    0    0  501    0  0.00000000000E+00  0.00000000000E+00  0.30371236904E+04  0.30371236904E+04  0.50400001928E-02 0. -1.
       -1   -1    0    0    0  501  0.00000000000E+00  0.00000000000E+00 -0.95230990023E+03  0.95230990025E+03  0.50400001928E-02 0.  1.
    10030    2    1    2    0    0  0.00000000000E+00  0.00000000000E+00  0.20848137902E+04  0.39894335907E+04  0.34013426517E+04 0.  0.
        3    1    3    3  502    0 -0.42325621521E+03  0.75186326379E+03 -0.67653696268E+03  0.10964243992E+04  0.10100000352E+00 0.  1.
       -3    1    3    3    0  502  0.42325621521E+03 -0.75186326379E+03  0.27613507529E+04  0.28930091914E+04  0.10100000352E+00 0. -1.
</event>
<event>
 5   0  0.1948507E-06  0.3399293E+04  0.7818609E-02  0.8138080E-01
        2   -1    0    0  501    0  0.00000000000E+00  0.00000000000E+00  0.17457612029E+04  0.17457612029E+04  0.25500000920E-02 0. -1.
       -2   -1    0    0    0  501  0.00000000000E+00  0.00000000000E+00 -0.16547496035E+04  0.16547496035E+04  0.25500000920E-02 0.  1.
    10030    2    1    2    0    0  0.00000000000E+00  0.00000000000E+00  0.91011599448E+02  0.34005108064E+04  0.33992926666E+04 0.  0.
        1    1    3    3  502    0  0.85309269942E+03  0.22329827393E+03 -0.14080009030E+04  0.16613536095E+04  0.50400001928E-02 0.  1.
       -1    1    3    3    0  502 -0.85309269942E+03 -0.22329827393E+03  0.14990125024E+04  0.17391571969E+04  0.50400001928E-02 0. -1.
</event>
<event>
 5   0  0.1880301E-06  0.3293833E+04  0.7818609E-02  0.8164466E-01
        2   -1    0    0  501    0  0.00000000000E+00  0.00000000000E+00  0.25163810824E+04  0.25163810824E+04  0.25500000920E-02 0. -1.
       -2   -1    0    0    0  501  0.00000000000E+00  0.00000000000E+00 -0.10778709824E+04  0.10778709824E+04  0.25500000920E-02 0.  1.
    10030    2    1    2    0    0  0.00000000000E+00  0.00000000000E+00  0.14385101000E+04  0.35942520648E+04  0.32938331162E+04 0.  0.
        4    1    3    3  502    0 -0.85099020936E+03 -0.11959876633E+04  0.15342056568E+04  0.21232897676E+04  0.12699999809E+01 0. -1.
       -4    1    3    3    0  502  0.85099020936E+03  0.11959876633E+04 -0.95695556783E+02  0.14709622972E+04  0.12699999809E+01 0.  1.
</event>
<event>
 5   0  0.1339844E-06  0.3424390E+04  0.7818609E-02  0.8131946E-01
       -2   -1    0    0    0  501  0.00000000000E+00  0.00000000000E+00  0.12830406786E+04  0.12830406786E+04  0.25500000920E-02 0. -1.
        2   -1    0    0  501    0  0.00000000000E+00  0.00000000000E+00 -0.22848940600E+04  0.22848940600E+04  0.25500000920E-02 0.  1.
    10030    2    1    2    0    0  0.00000000000E+00  0.00000000000E+00 -0.10018533814E+04  0.35679347386E+04  0.34243901795E+04 0.  0.
        3    1    3    3  502    0 -0.48937932553E+03  0.14978920249E+04  0.19680030626E+03  0.15880500663E+04  0.10100000352E+00 0. -1.
       -3    1    3    3    0  502  0.48937932553E+03 -0.14978920249E+04 -0.11986536877E+04  0.19798846723E+04  0.10100000352E+00 0.  1.
</event>
<event>
 5   0  0.6218695E-07  0.3374570E+04  0.7818609E-02  0.8144176E-01
        1   -1    0    0  501    0  0.00000000000E+00  0.00000000000E+00  0.24682256990E+04  0.24682256990E+04  0.50400001928E-02 0.  1.
       -1   -1    0    0    0  501  0.00000000000E+00  0.00000000000E+00 -0.11534321529E+04  0.11534321529E+04  0.50400001928E-02 0. -1.
    10030    2    1    2    0    0  0.00000000000E+00  0.00000000000E+00  0.13147935462E+04  0.36216578519E+04  0.33745701248E+04 0.  0.
        2    1    3    3  502    0  0.64329672766E+03  0.87383978759E+03 -0.72930388963E+03  0.13074061410E+04  0.25500000920E-02 0. -1.
       -2    1    3    3    0  502 -0.64329672766E+03 -0.87383978759E+03  0.20440974358E+04  0.23142517109E+04  0.25500000920E-02 0.  1.
</event>
<event>
 5   0  0.6218695E-07  0.3203451E+04  0.7818609E-02  0.8187906E-01
        1   -1    0    0  501    0  0.00000000000E+00  0.00000000000E+00  0.17770794235E+04  0.17770794235E+04  0.50400001928E-02 0.  1.
       -1   -1    0    0    0  501  0.00000000000E+00  0.00000000000E+00 -0.14436743512E+04  0.14436743512E+04  0.50400001928E-02 0. -1.
    10030    2    1    2    0    0  0.00000000000E+00  0.00000000000E+00  0.33340507221E+03  0.32207537747E+04  0.32034506294E+04 0.  0.
        2    1    3    3  502    0 -0.74674724858E+02 -0.35560339160E+03 -0.14016894697E+04  0.14480205303E+04  0.25500000920E-02 0. -1.
       -2    1    3    3    0  502  0.74674724858E+02  0.35560339160E+03  0.17350945419E+04  0.17727332444E+04  0.25500000920E-02 0.  1.
</event>
<event>
 5   0  0.1911477E-06  0.3348313E+04  0.7818609E-02  0.8150710E-01
       -2   -1    0    0    0  501  0.00000000000E+00  0.00000000000E+00  0.14461553594E+04  0.14461553594E+04  0.25500000920E-02 0.  1.
        2   -1    0    0  501    0  0.00000000000E+00  0.00000000000E+00 -0.19381042204E+04  0.19381042204E+04  0.25500000920E-02 0. -1.
    10030    2    1    2    0    0  0.00000000000E+00  0.00000000000E+00 -0.49194886102E+03  0.33842595798E+04  0.33483128918E+04 0.  0.
        5    1    3    3  502    0  0.13760199475E+04  0.19429288410E+02  0.71765985811E+03  0.15520522398E+04  0.46999998093E+01 0.  1.
       -5    1    3    3    0  502 -0.13760199475E+04 -0.19429288410E+02 -0.12096087191E+04  0.18322073400E+04  0.46999998093E+01 0. -1.
</event>
<event>
 5   0  0.6146388E-07  0.3436677E+04  0.7818609E-02  0.8128963E-01
        1   -1    0    0  501    0  0.00000000000E+00  0.00000000000E+00  0.30110188897E+04  0.30110188897E+04  0.50400001928E-02 0.  1.
       -1   -1    0    0    0  501  0.00000000000E+00  0.00000000000E+00 -0.98062741612E+03  0.98062741613E+03  0.50400001928E-02 0. -1.
    10030    2    1    2    0    0  0.00000000000E+00  0.00000000000E+00  0.20303914736E+04  0.39916463058E+04  0.34366772753E+04 0.  0.
        4    1    3    3  502    0 -0.13229308201E+04  0.19335709760E+03 -0.23853653692E+03  0.13580994861E+04  0.12699999809E+01 0.  1.
       -4    1    3    3    0  502  0.13229308201E+04 -0.19335709760E+03  0.22689280105E+04  0.26335468197E+04  0.12699999809E+01 0. -1.
</event>
<event>
 5   0  0.1339844E-06  0.3257436E+04  0.7818609E-02  0.8173811E-01
       -2   -1    0    0    0  501  0.00000000000E+00  0.00000000000E+00  0.11679994971E+04  0.11679994971E+04  0.25500000920E-02 0. -1.
        2   -1    0    0  501    0  0.00000000000E+00  0.00000000000E+00 -0.22711673634E+04  0.22711673634E+04  0.25500000920E-02 0.  1.
    10030    2    1    2    0    0  0.00000000000E+00  0.00000000000E+00 -0.11031678662E+04  0.34391668605E+04  0.32574360091E+04 0.  0.
        3    1    3    3  502    0 -0.13952108067E+03  0.14041933826E+04  0.30711582381E+03  0.14441417268E+04  0.10100000352E+00 0. -1.
       -3    1    3    3    0  502  0.13952108067E+03 -0.14041933826E+04 -0.14102836900E+04  0.19950251337E+04  0.10100000352E+00 0.  1.
</event>
<event>
 5   0  0.1911477E-06  0.3415079E+04  0.7818609E-02  0.8134215E-01
       -2   -1    0    0    0  501  0.00000000000E+00  0.00000000000E+00  0.14989577092E+04  0.14989577092E+04  0.25500000920E-02 0.  1.
        2   -1    0    0  501    0  0.00000000000E+00  0.00000000000E+00 -0.19451455726E+04  0.19451455726E+04  0.25500000920E-02 0. -1.
    10030    2    1    2    0    0  0.00000000000E+00  0.00000000000E+00 -0.44618786345E+03  0.34441032818E+04  0.34150788873E+04 0.  0.
        5    1    3    3  502    0 -0.40525626538E+03 -0.57048055076E+03 -0.17938898536E+04  0.19255502061E+04  0.46999998093E+01 0. -1.
       -5    1    3    3    0  502  0.40525626538E+03  0.57048055076E+03  0.13477019902E+04  0.15185530757E+04  0.46999998093E+01 0.  1.
</event>
<event>
 5   0  0.6146388E-07  0.2694016E+04  0.7818609E-02  0.8336949E-01
       -1   -1    0    0    0  501  0.00000000000E+00  0.00000000000E+00  0.12386496761E+04  0.12386496761E+04  0.50400001928E-02 0. -1.
        1   -1    0    0  501    0  0.00000000000E+00  0.00000000000E+00 -0.14648455736E+04  0.14648455736E+04  0.50400001928E-02 0.  1.
    10030    2    1    2    0    0  0.00000000000E+00  0.00000000000E+00 -0.22619589748E+03  0.27034952497E+04  0.26940159579E+04 0.  0.
        4    1    3    3  502    0  0.98108528855E+03  0.73781502115E+03  0.44340678347E+03  0.13051860164E+04  0.12699999809E+01 0. -1.
       -4    1    3    3    0  502 -0.98108528855E+03 -0.73781502115E+03 -0.66960268095E+03  0.13983092334E+04  0.12699999809E+01 0.  1.
</event>
<event>
 5   0  0.6134625E-07  0.3420216E+04  0.7818609E-02  0.8132962E-01
       -1   -1    0    0    0  501  0.00000000000E+00  0.00000000000E+00  0.16687449617E+04  0.16687449617E+04  0.50400001928E-02 0. -1.
        1   -1    0    0  501    0  0.00000000000E+00  0.00000000000E+00 -0.17524965815E+04  0.17524965815E+04  0.50400001928E-02 0.  1.
    10030    2    1    2    0    0  0.00000000000E+00  0.00000000000E+00 -0.83751619775E+02  0.34212415431E+04  0.34202162743E+04 0.  0.
        5    1    3    3  502    0  0.15568399035E+04 -0.51714355954E+03 -0.52499036436E+03  0.17224473632E+04  0.46999998093E+01 0.  1.
       -5    1    3    3    0  502 -0.15568399035E+04  0.51714355954E+03  0.44123874458E+03  0.16987941800E+04  0.46999998093E+01 0. -1.
</event>
<event>
 5   0  0.1880301E-06  0.3414490E+04  0.7818609E-02  0.8134359E-01
       -2   -1    0    0    0  501  0.00000000000E+00  0.00000000000E+00  0.11129930673E+04  0.11129930673E+04  0.25500000920E-02 0.  1.
        2   -1    0    0  501    0  0.00000000000E+00  0.00000000000E+00 -0.26187809856E+04  0.26187809856E+04  0.25500000920E-02 0. -1.
    10030    2    1    2    0    0  0.00000000000E+00  0.00000000000E+00 -0.15057879183E+04  0.37317740528E+04  0.34144897608E+04 0.  0.
        4    1    3    3  502    0  0.11736877812E+03  0.11094630605E+04  0.65947358766E+03  0.12959902540E+04  0.12699999809E+01 0.  1.
       -4    1    3    3    0  502 -0.11736877812E+03 -0.11094630605E+04 -0.21652615060E+04  0.24357837989E+04  0.12699999809E+01 0. -1.
</event>
<event>
 5   0  0.6134625E-07  0.3183161E+04  0.7818609E-02  0.8193279E-01
        1   -1    0    0  501    0  0.00000000000E+00  0.00000000000E+00  0.27709372942E+04  0.27709372942E+04  0.50400001928E-02 0. -1.
       -1   -1    0    0    0  501  0.00000000000E+00  0.00000000000E+00 -0.91417746392E+03  0.91417746393E+03  0.50400001928E-02 0.  1.
    10030    2    1    2    0    0  0.00000000000E+00  0.00000000000E+00  0.18567598303E+04  0.36851147582E+04  0.31831609625E+04 0.  0.
        3    1    3    3  502    0 -0.12576860515E+03 -0.91608518305E+03 -0.57130891206E+03  0.10869331570E+04  0.10100000352E+00 0. -1.
       -3    1    3    3    0  502  0.12576860515E+03  0.91608518305E+03  0.24280687423E+04  0.25981816011E+04  0.10100000352E+00 0.  1.
</event>
<event>
 5   0  0.1797075E-06  0.3405185E+04  0.7818609E-02  0.8136635E-01
       -2   -1    0    0    0  501  0.00000000000E+00  0.00000000000E+00  0.12177029409E+04  0.12177029409E+04  0.25500000920E-02 0.  1.
        2   -1    0    0  501    0  0.00000000000E+00  0.00000000000E+00 -0.23805652934E+04  0.23805652934E+04  0.25500000920E-02 0. -1.
    10030    2    1    2    0    0  0.00000000000E+00  0.00000000000E+00 -0.11628623525E+04  0.35982682343E+04  0.34051850809E+04 0.  0.
        2    1    3    3  502    0 -0.40391773460E+03  0.16513411639E+04 -0.68024379895E+03  0.18310676672E+04  0.25500000920E-02 0.  1.
       -2    1    3    3    0  502  0.40391773460E+03 -0.16513411639E+04 -0.48261855350E+03  0.17672005670E+04  0.25500000920E-02 0. -1.
</event>
<event>
 5   0  0.6218695E-07  0.3427149E+04  0.7818609E-02  0.8131275E-01
       -1   -1    0    0    0  501  0.00000000000E+00  0.00000000000E+00  0.31178946817E+04  0.31178946817E+04  0.50400001928E-02 0. -1.
        1   -1    0    0  501    0  0.00000000000E+00  0.00000000000E+00 -0.94176942416E+03  0.94176942417E+03  0.50400001928E-02 0.  1.
    10030    2    1    2    0    0  0.00000000000E+00  0.00000000000E+00  0.21761252575E+04  0.40596641059E+04  0.34271491820E+04 0.  0.
        2    1    3    3  502    0 -0.59667397498E+03  0.11319186237E+04  0.24381900331E+04  0.27535486632E+04  0.25500000920E-02 0.  1.
       -2    1    3    3    0  502  0.59667397498E+03 -0.11319186237E+04 -0.26206477559E+03  0.13061154427E+04  0.25500000920E-02 0. -1.
</event>
<event>
 5   0  0.6146388E-07  0.3297855E+04  0.7818609E-02  0.8163442E-01
       -1   -1    0    0    0  501  0.00000000000E+00  0.00000000000E+00  0.11706622473E+04  0.11706622473E+04  0.50400001928E-02 0. -1.
        1   -1    0    0  501    0  0.00000000000E+00  0.00000000000E+00 -0.23225837998E+04  0.23225837998E+04  0.50400001928E-02 0.  1.
    10030    2    1    2    0    0  0.00000000000E+00  0.00000000000E+00 -0.11519215525E+04  0.34932460471E+04  0.32978545575E+04 0.  0.
        4    1    3    3  502    0  0.15116962099E+04  0.65195154375E+03 -0.67472287172E+03  0.17791904937E+04  0.12699999809E+01 0. -1.
       -4    1    3    3    0  502 -0.15116962099E+04 -0.65195154375E+03 -0.47719868077E+03  0.17140555534E+04  0.12699999809E+01 0.  1.
</event>
<event>
 5   0  0.1797075E-06  0.3399912E+04  0.7818609E-02  0.8137928E-01
        2   -1    0    0  501    0  0.00000000000E+00  0.00000000000E+00  0.14039945574E+04  0.14039945574E+04  0.25500000920E-02 0. -1.
       -2   -1    0    0    0  501  0.00000000000E+00  0.00000000000E+00 -0.20583063239E+04  0.20583063239E+04  0.25500000920E-02 0.  1.
    10030    2    1    2    0    0  0.00000000000E+00  0.00000000000E+00 -0.65431176654E+03  0.34623008813E+04  0.33999122790E+04 0.  0.
        2    1    3    3  502    0  0.11791440735E+03 -0.40449017498E+03 -0.20042936539E+04  0.20480989137E+04  0.25500000920E-02 0.  1.
       -2    1    3    3    0  502 -0.11791440735E+03  0.40449017498E+03  0.13499818873E+04  0.14142019676E+04  0.25500000920E-02 0. -1.
</event>
<event>
 5   0  0.1880301E-06  0.3416485E+04  0.7818609E-02  0.8133872E-01
        2   -1    0    0  501    0  0.00000000000E+00  0.00000000000E+00  0.11497589231E+04  0.11497589231E+04  0.25500000920E-02 0.  1.
       -2   -1    0    0    0  501  0.00000000000E+00  0.00000000000E+00 -0.25380040430E+04  0.25380040430E+04  0.25500000920E-02 0. -1.
    10030    2    1    2    0    0  0.00000000000E+00  0.00000000000E+00 -0.13882451198E+04  0.36877629661E+04  0.34164852087E+04 0.  0.
        4    1    3    3  502    0  0.14191497416E+04 -0.53707812405E+03  0.15281462408E+03  0.15250550229E+04  0.12699999809E+01 0. -1.
       -4    1    3    3    0  502 -0.14191497416E+04  0.53707812405E+03 -0.15410597439E+04  0.21627079432E+04  0.12699999809E+01 0.  1.
</event>
<event>
 5   0  0.6134625E-07  0.3411326E+04  0.7818609E-02  0.8135132E-01
       -3   -1    0    0    0  501  0.00000000000E+00  0.00000000000E+00  0.18911156114E+04  0.18911156141E+04  0.10100000352E+00 0.  1.
        3   -1    0    0  501    0  0.00000000000E+00  0.00000000000E+00 -0.15383968677E+04  0.15383968710E+04  0.10100000352E+00 0. -1.
    10030    2    1    2    0    0  0.00000000000E+00  0.00000000000E+00  0.35271874375E+03  0.34295124851E+04  0.34113260433E+04 0.  0.
        3    1    3    3  502    0  0.33802733052E+03 -0.13426645709E+04 -0.82508155905E+03  0.16117599745E+04  0.10100000352E+00 0. -1.
       -3    1    3    3    0  502 -0.33802733052E+03  0.13426645709E+04  0.11778003028E+04  0.18177525106E+04  0.10100000352E+00 0.  1.
</event>
<event>
 5   0  0.1911477E-06  0.3397074E+04  0.7818609E-02  0.8138625E-01
       -2   -1    0    0    0  501  0.00000000000E+00  0.00000000000E+00  0.20363700048E+04  0.20363700048E+04  0.25500000920E-02 0. -1.
        2   -1    0    0  501    0  0.00000000000E+00  0.00000000000E+00 -0.14167506771E+04  0.14167506771E+04  0.25500000920E-02 0.  1.
    10030    2    1    2    0    0  0.00000000000E+00  0.00000000000E+00  0.61961932779E+03  0.34531206819E+04  0.33970743784E+04 0.  0.
        5    1    3    3  502    0 -0.72551563295E+03  0.13350507576E+03 -0.12454029808E+04  0.14474968786E+04  0.46999998093E+01 0.  1.
       -5    1    3    3    0  502  0.72551563295E+03 -0.13350507576E+03  0.18650223086E+04  0.20056238033E+04  0.46999998093E+01 0. -1.
</event>
<event>
 5   0  0.6134625E-07  0.2437827E+04  0.7818609E-02  0.8425476E-01
        1   -1    0    0  501    0  0.00000000000E+00  0.00000000000E+00  0.14255968310E+04  0.14255968310E+04  0.50400001928E-02 0. -1.
       -1   -1    0    0    0  501  0.00000000000E+00  0.00000000000E+00 -0.10421951512E+04  0.10421951512E+04  0.50400001928E-02 0.  1.
    10030    2    1    2    0    0  0.00000000000E+00  0.00000000000E+00  0.38340167976E+03  0.24677919822E+04  0.24378269871E+04 0.  0.
        1    1    3    3  502    0  0.75148593365E+03 -0.84170260839E+03 -0.27500373917E+03  0.11613877242E+04  0.50400001928E-02 0. -1.
       -1    1    3    3    0  502 -0.75148593365E+03  0.84170260839E+03  0.65840541892E+03  0.13064042579E+04  0.50400001928E-02 0.  1.
</event>
<event>
 5   0  0.6146388E-07  0.3389906E+04  0.7818609E-02  0.8140388E-01
       -1   -1    0    0    0  501  0.00000000000E+00  0.00000000000E+00  0.16156180299E+04  0.16156180299E+04  0.50400001928E-02 0. -1.
        1   -1    0    0  501    0  0.00000000000E+00  0.00000000000E+00 -0.17781842048E+04  0.17781842049E+04  0.50400001928E-02 0.  1.
    10030    2    1    2    0    0  0.00000000000E+00  0.00000000000E+00 -0.16256617496E+03  0.33938022348E+04  0.33899064659E+04 0.  0.
        4    1    3    3  502    0  0.12430726774E+04 -0.60945333122E+03  0.89769640748E+03  0.16500071204E+04  0.12699999809E+01 0. -1.
       -4    1    3    3    0  502 -0.12430726774E+04  0.60945333122E+03 -0.10602625824E+04  0.17437951144E+04  0.12699999809E+01 0.  1.
</event>
<event>
 5   0  0.1880301E-06  0.3407251E+04  0.7818609E-02  0.8136129E-01
        2   -1    0    0  501    0  0.00000000000E+00  0.00000000000E+00  0.18734410673E+04  0.18734410673E+04  0.25500000920E-02 0. -1.
       -2   -1    0    0    0  501  0.00000000000E+00  0.00000000000E+00 -0.15492029943E+04  0.15492029943E+04  0.25500000920E-02 0.  1.
    10030    2    1    2    0    0  0.00000000000E+00  0.00000000000E+00  0.32423807296E+03  0.34226440616E+04  0.34072513915E+04 0.  0.
        4    1    3    3  502    0 -0.85242252486E+03  0.38631260137E+03 -0.12678559221E+04  0.15758559068E+04  0.12699999809E+01 0.  1.
       -4    1    3    3    0  502  0.85242252486E+03 -0.38631260137E+03  0.15920939951E+04  0.18467881548E+04  0.12699999809E+01 0. -1.
</event>
<event>
 5   0  0.6134625E-07  0.3373626E+04  0.7818609E-02  0.8144410E-01
        1   -1    0    0  501    0  0.00000000000E+00  0.00000000000E+00  0.19047713883E+04  0.19047713883E+04  0.50400001928E-02 0.  1.
       -1   -1    0    0    0  501  0.00000000000E+00  0.00000000000E+00 -0.14937949395E+04  0.14937949395E+04  0.50400001928E-02 0. -1.
    10030    2    1    2    0    0  0.00000000000E+00  0.00000000000E+00  0.41097644877E+03  0.33985663278E+04  0.33736258600E+04 0.  0.
        3    1    3    3  502    0  0.32151223028E+03 -0.12196502591E+04  0.13337775721E+04  0.18357231520E+04  0.10100000352E+00 0.  1.
       -3    1    3    3    0  502 -0.32151223028E+03  0.12196502591E+04 -0.92280112330E+03  0.15628431758E+04  0.10100000352E+00 0. -1.
</event>
<event>
 5   0  0.6134625E-07  0.3024639E+04  0.7818609E-02  0.8236730E-01
       -1   -1    0    0    0  501  0.00000000000E+00  0.00000000000E+00  0.16999100082E+04  0.16999100082E+04  0.50400001928E-02 0. -1.
        1   -1    0    0  501    0  0.00000000000E+00  0.00000000000E+00 -0.13454300418E+04  0.13454300418E+04  0.50400001928E-02 0.  1.
    10030    2    1    2    0    0  0.00000000000E+00  0.00000000000E+00  0.35447996646E+03  0.30453400500E+04  0.30246388170E+04 0.  0.
        1    1    3    3  502    0 -0.97481922557E+03  0.79627241197E+03 -0.66682202686E+03  0.14244205461E+04  0.50400001928E-02 0. -1.
       -1    1    3    3    0  502  0.97481922557E+03 -0.79627241197E+03  0.10213019933E+04  0.16209195039E+04  0.50400001928E-02 0.  1.
</event>
<event>
 5   0  0.6134625E-07  0.3354803E+04  0.7818609E-02  0.8149089E-01
       -1   -1    0    0    0  501  0.00000000000E+00  0.00000000000E+00  0.14578430439E+04  0.14578430439E+04  0.50400001928E-02 0. -1.
        1   -1    0    0  501    0  0.00000000000E+00  0.00000000000E+00 -0.19300260266E+04  0.19300260266E+04  0.50400001928E-02 0.  1.
    10030    2    1    2    0    0  0.00000000000E+00  0.00000000000E+00 -0.47218298278E+03  0.33878690705E+04  0.33548025381E+04 0.  0.
        1    1    3    3  502    0 -0.38720167324E+03  0.12874268459E+04 -0.12491149602E+04  0.18351243018E+04  0.50400001928E-02 0. -1.
       -1    1    3    3    0  502  0.38720167324E+03 -0.12874268459E+04  0.77693197739E+03  0.15527447687E+04  0.50400001928E-02 0.  1.
</event>
<event>
 5   0  0.1880301E-06  0.3415055E+04  0.7818609E-02  0.8134221E-01
        2   -1    0    0  501    0  0.00000000000E+00  0.00000000000E+00  0.19534337926E+04  0.19534337926E+04  0.25500000920E-02 0. -1.
       -2   -1    0    0    0  501  0.00000000000E+00  0.00000000000E+00 -0.14925771505E+04  0.14925771505E+04  0.25500000920E-02 0.  1.
    10030    2    1    2    0    0  0.00000000000E+00  0.00000000000E+00  0.46085664210E+03  0.34460109431E+04  0.34150552815E+04 0.  0.
        4    1    3    3  502    0  0.47209631965E+03  0.13963836127E+04  0.11001499381E+04  0.18393187946E+04  0.12699999809E+01 0. -1.
       -4    1    3    3    0  502 -0.47209631965E+03 -0.13963836127E+04 -0.63929329603E+03  0.16066921485E+04  0.12699999809E+01 0.  1.
</event>
<event>
 5   0  0.1339844E-06  0.3303870E+04  0.7818609E-02  0.8161911E-01
        2   -1    0    0  501    0  0.00000000000E+00  0.00000000000E+00  0.15992971754E+04  0.15992971754E+04  0.25500000920E-02 0. -1.
       -2   -1    0    0    0  501  0.00000000000E+00  0.00000000000E+00 -0.17063053525E+04  0.17063053525E+04  0.25500000920E-02 0.  1.
    10030    2    1    2    0    0  0.00000000000E+00  0.00000000000E+00 -0.10700817711E+03  0.33056025278E+04  0.33038700522E+04 0.  0.
        3    1    3    3  502    0  0.76131934341E+03  0.12394834966E+04  0.72982589033E+03  0.16274434926E+04  0.10100000352E+00 0. -1.
       -3    1    3    3    0  502 -0.76131934341E+03 -0.12394834966E+04 -0.83683406744E+03  0.16781590353E+04  0.10100000352E+00 0.  1.
</event>
<event>
 5   0  0.6134625E-07  0.3358270E+04  0.7818609E-02  0.8148225E-01
       -1   -1    0    0    0  501  0.00000000000E+00  0.00000000000E+00  0.16525721258E+04  0.16525721258E+04  0.50400001928E-02 0. -1.
        1   -1    0    0  501    0  0.00000000000E+00  0.00000000000E+00 -0.17061252214E+04  0.17061252214E+04  0.50400001928E-02 0.  1.
    10030    2    1    2    0    0  0.00000000000E+00  0.00000000000E+00 -0.53553095562E+02  0.33586973472E+04  0.33582703786E+04 0.  0.
        5    1    3    3  502    0  0.66146814847E+03  0.74823334056E+03  0.13232393767E+04  0.16578232057E+04  0.46999998093E+01 0. -1.
       -5    1    3    3    0  502 -0.66146814847E+03 -0.74823334056E+03 -0.13767924723E+04  0.17008741414E+04  0.46999998093E+01 0.  1.
</event>
<event>
 5   0  0.1911477E-06  0.3354461E+04  0.7818609E-02  0.8149174E-01
        2   -1    0    0  501    0  0.00000000000E+00  0.00000000000E+00  0.15927940333E+04  0.15927940333E+04  0.25500000920E-02 0. -1.
       -2   -1    0    0    0  501  0.00000000000E+00  0.00000000000E+00 -0.17661427211E+04  0.17661427211E+04  0.25500000920E-02 0.  1.
    10030    2    1    2    0    0  0.00000000000E+00  0.00000000000E+00 -0.17334868784E+03  0.33589367544E+04  0.33544606649E+04 0.  0.
        5    1    3    3  502    0 -0.31934138715E+02 -0.97580360149E+03  0.12789148516E+04  0.16089927736E+04  0.46999998093E+01 0. -1.
       -5    1    3    3    0  502  0.31934138715E+02  0.97580360149E+03 -0.14522635394E+04  0.17499439808E+04  0.46999998093E+01 0.  1.
</event>
<event>
 5   0  0.1339844E-06  0.3337312E+04  0.7818609E-02  0.8153466E-01
        2   -1    0    0  501    0  0.00000000000E+00  0.00000000000E+00  0.18583621213E+04  0.18583621213E+04  0.25500000920E-02 0. -1.
       -2   -1    0    0    0  501  0.00000000000E+00  0.00000000000E+00 -0.14983152470E+04  0.14983152470E+04  0.25500000920E-02 0.  1.
    10030    2    1    2    0    0  0.00000000000E+00  0.00000000000E+00  0.36004687431E+03  0.33566773683E+04  0.33373116730E+04 0.  0.
        3    1    3    3  502    0 -0.12546857974E+04 -0.55067107803E+01  0.12864730241E+04  0.17970196509E+04  0.10100000352E+00 0.  1.
       -3    1    3    3    0  502  0.12546857974E+04  0.55067107803E+01 -0.92642614979E+03  0.15596577173E+04  0.10100000352E+00 0. -1.
</event>
<event>
 5   0  0.6134625E-07  0.3752653E+04  0.7818609E-02  0.8056392E-01
       -1   -1    0    0    0  501  0.00000000000E+00  0.00000000000E+00  0.24672760892E+04  0.24672760892E+04  0.50400001928E-02 0. -1.
        1   -1    0    0  501    0  0.00000000000E+00  0.00000000000E+00 -0.14269179644E+04  0.14269179644E+04  0.50400001928E-02 0.  1.
    10030    2    1    2    0    0  0.00000000000E+00  0.00000000000E+00  0.10403581248E+04  0.38941940536E+04  0.37526527016E+04 0.  0.
        3    1    3    3  502    0 -0.90628855500E+03 -0.32073604701E+03 -0.11519219417E+04  0.15003848596E+04  0.10100000352E+00 0.  1.
       -3    1    3    3    0  502  0.90628855500E+03  0.32073604701E+03  0.21922800666E+04  0.23938091940E+04  0.10100000352E+00 0. -1.
</event>
<event>
 5   0  0.1911477E-06  0.3386824E+04  0.7818609E-02  0.8141148E-01
       -2   -1    0    0    0  501  0.00000000000E+00  0.00000000000E+00  0.11617931110E+04  0.11617931110E+04  0.25500000920E-02 0. -1.
        2   -1    0    0  501    0  0.00000000000E+00  0.00000000000E+00 -0.24682915729E+04  0.24682915729E+04  0.25500000920E-02 0.  1.
    10030    2    1    2    0    0  0.00000000000E+00  0.00000000000E+00 -0.13064984619E+04  0.36300846839E+04  0.33868239667E+04 0.  0.
        5    1    3    3  502    0 -0.11295230286E+04  0.70036917892E+02 -0.20034494532E+04  0.23009909264E+04  0.46999998093E+01 0.  1.
       -5    1    3    3    0  502  0.11295230286E+04 -0.70036917892E+02  0.69695099125E+03  0.13290937575E+04  0.46999998093E+01 0. -1.
</event>
<event>
 5   0  0.1797075E-06  0.3424591E+04  0.7818609E-02  0.8131897E-01
        2   -1    0    0  501    0  0.00000000000E+00  0.00000000000E+00  0.19750069179E+04  0.19750069179E+04  0.25500000920E-02 0. -1.
       -2   -1    0    0    0  501  0.00000000000E+00  0.00000000000E+00 -0.14845290897E+04  0.14845290897E+04  0.25500000920E-02 0.  1.
    10030    2    1    2    0    0  0.00000000000E+00  0.00000000000E+00  0.49047782823E+03  0.34595360076E+04  0.34245906161E+04 0.  0.
        2    1    3    3  502    0 -0.50403417146E+03  0.26074505510E+03  0.18772478175E+04  0.19611470618E+04  0.25500000920E-02 0. -1.
       -2    1    3    3    0  502  0.50403417146E+03 -0.26074505510E+03 -0.13867699892E+04  0.14983889458E+04  0.25500000920E-02 0.  1.
</event>
<event>
 5   0  0.1339844E-06  0.3359348E+04  0.7818609E-02  0.8147956E-01
        2   -1    0    0  501    0  0.00000000000E+00  0.00000000000E+00  0.16440533236E+04  0.16440533236E+04  0.25500000920E-02 0. -1.
       -2   -1    0    0    0  501  0.00000000000E+00  0.00000000000E+00 -0.17160666138E+04  0.17160666138E+04  0.25500000920E-02 0.  1.
    10030    2    1    2    0    0  0.00000000000E+00  0.00000000000E+00 -0.72013290248E+02  0.33601199374E+04  0.33593481629E+04 0.  0.
        3    1    3    3  502    0 -0.11281353954E+04 -0.62340554148E+03  0.10412649631E+04  0.16569721401E+04  0.10100000352E+00 0. -1.
       -3    1    3    3    0  502  0.11281353954E+04  0.62340554148E+03 -0.11132782534E+04  0.17031477972E+04  0.10100000352E+00 0.  1.
</event>
<event>
 5   0  0.6146388E-07  0.3395098E+04  0.7818609E-02  0.8139111E-01
       -1   -1    0    0    0  501  0.00000000000E+00  0.00000000000E+00  0.10581302331E+04  0.10581302331E+04  0.50400001928E-02 0.  1.
        1   -1    0    0  501    0  0.00000000000E+00  0.00000000000E+00 -0.27233622688E+04  0.27233622688E+04  0.50400001928E-02 0. -1.
    10030    2    1    2    0    0  0.00000000000E+00  0.00000000000E+00 -0.16652320357E+04  0.37814925019E+04  0.33950976142E+04 0.  0.
        4    1    3    3  502    0  0.15660371313E+03  0.89122768451E+03  0.76711045783E+03  0.11862847786E+04  0.12699999809E+01 0.  1.
       -4    1    3    3    0  502 -0.15660371313E+03 -0.89122768451E+03 -0.24323424935E+04  0.25952077233E+04  0.12699999809E+01 0. -1.
</event>
<event>
 5   0  0.6134625E-07  0.3403969E+04  0.7818609E-02  0.8136933E-01
        3   -1    0    0  501    0  0.00000000000E+00  0.00000000000E+00  0.11130489949E+04  0.11130489994E+04  0.10100000352E+00 0.  1.
       -3   -1    0    0    0  501  0.00000000000E+00  0.00000000000E+00 -0.26025377471E+04  0.26025377490E+04  0.10100000352E+00 0. -1.
    10030    2    1    2    0    0  0.00000000000E+00  0.00000000000E+00 -0.14894887522E+04  0.37155867485E+04  0.34039694685E+04 0.  0.
        2    1    3    3  502    0 -0.69356525373E+03 -0.12291494318E+04 -0.17830965362E+04  0.22740436108E+04  0.25500000920E-02 0. -1.
       -2    1    3    3    0  502  0.69356525373E+03  0.12291494318E+04  0.29360778396E+03  0.14415431376E+04  0.25500000920E-02 0.  1.
</event>
<event>
 5   0  0.1797075E-06  0.2428718E+04  0.7818609E-02  0.8428830E-01
        2   -1    0    0  501    0  0.00000000000E+00  0.00000000000E+00  0.17017713130E+04  0.17017713130E+04  0.25500000920E-02 0.  1.
       -2   -1    0    0    0  501  0.00000000000E+00  0.00000000000E+00 -0.86654860958E+03  0.86654860958E+03  0.25500000920E-02 0. -1.
    10030    2    1    2    0    0  0.00000000000E+00  0.00000000000E+00  0.83522270345E+03  0.25683199226E+04  0.24287178223E+04 0.  0.
        2    1    3    3  502    0 -0.38978065999E+03 -0.83344595309E+03  0.12556975446E+04  0.15567072439E+04  0.25500000920E-02 0.  1.
       -2    1    3    3    0  502  0.38978065999E+03  0.83344595309E+03 -0.42047484119E+03  0.10116126787E+04  0.25500000920E-02 0. -1.
</event>
<event>
 5   0  0.6134625E-07  0.3357752E+04  0.7818609E-02  0.8148354E-01
       -1   -1    0    0    0  501  0.00000000000E+00  0.00000000000E+00  0.14109213981E+04  0.14109213982E+04  0.50400001928E-02 0.  1.
        1   -1    0    0  501    0  0.00000000000E+00  0.00000000000E+00 -0.19977192042E+04  0.19977192042E+04  0.50400001928E-02 0. -1.
    10030    2    1    2    0    0  0.00000000000E+00  0.00000000000E+00 -0.58679780606E+03  0.34086406024E+04  0.33577520890E+04 0.  0.
        3    1    3    3  502    0 -0.11356737286E+04 -0.18713473217E+02  0.96167156954E+03  0.14882597992E+04  0.10100000352E+00 0.  1.
       -3    1    3    3    0  502  0.11356737286E+04  0.18713473217E+02 -0.15484693756E+04  0.19203808032E+04  0.10100000352E+00 0. -1.
</event>
<event>
 5   0  0.6134625E-07  0.3311217E+04  0.7818609E-02  0.8160047E-01
        1   -1    0    0  501    0  0.00000000000E+00  0.00000000000E+00  0.20625517146E+04  0.20625517146E+04  0.50400001928E-02 0. -1.
       -1   -1    0    0    0  501  0.00000000000E+00  0.00000000000E+00 -0.13289558790E+04  0.13289558790E+04  0.50400001928E-02 0.  1.
    10030    2    1    2    0    0  0.00000000000E+00  0.00000000000E+00  0.73359583559E+03  0.33915075936E+04  0.33112174359E+04 0.  0.
        3    1    3    3  502    0  0.41837819081E+02 -0.15991936883E+04  0.80360016474E+03  0.17902357641E+04  0.10100000352E+00 0. -1.
       -3    1    3    3    0  502 -0.41837819081E+02  0.15991936883E+04 -0.70004329156E+02  0.16012718296E+04  0.10100000352E+00 0.  1.
</event>
<event>
 5   0  0.1880301E-06  0.3408046E+04  0.7818609E-02  0.8135934E-01
        2   -1    0    0  501    0  0.00000000000E+00  0.00000000000E+00  0.21371106915E+04  0.21371106915E+04  0.25500000920E-02 0. -1.
       -2   -1    0    0    0  501  0.00000000000E+00  0.00000000000E+00 -0.13587011420E+04  0.13587011420E+04  0.25500000920E-02 0.  1.
    10030    2    1    2    0    0  0.00000000000E+00  0.00000000000E+00  0.77840954955E+03  0.34958118335E+04  0.34080462069E+04 0.  0.
        4    1    3    3  502    0 -0.96432408020E+03 -0.15980645630E+03  0.18209414265E+04  0.20667095410E+04  0.12699999809E+01 0. -1.
       -4    1    3    3    0  502  0.96432408020E+03  0.15980645630E+03 -0.10425318769E+04  0.14291022925E+04  0.12699999809E+01 0.  1.
</event>
<event>
 5   0  0.6134625E-07  0.3307587E+04  0.7818609E-02  0.8160968E-01
        1   -1    0    0  501    0  0.00000000000E+00  0.00000000000E+00  0.22191264769E+04  0.22191264769E+04  0.50400001928E-02 0. -1.
       -1   -1    0    0    0  501  0.00000000000E+00  0.00000000000E+00 -0.12324816042E+04  0.12324816042E+04  0.50400001928E-02 0.  1.
    10030    2    1    2    0    0  0.00000000000E+00  0.00000000000E+00  0.98664487267E+03  0.34516080811E+04  0.33075867699E+04 0.  0.
        3    1    3    3  502    0  0.14839979956E+03  0.71815143605E+03 -0.10535403880E+04  0.12836320910E+04  0.10100000352E+00 0.  1.
       -3    1    3    3    0  502 -0.14839979956E+03 -0.71815143605E+03  0.20401852607E+04  0.21679759901E+04  0.10100000352E+00 0. -1.
</event>
<event>
 5   0  0.6146388E-07  0.3385269E+04  0.7818609E-02  0.8141531E-01
        1   -1    0    0  501    0  0.00000000000E+00  0.00000000000E+00  0.22542704048E+04  0.22542704048E+04  0.50400001928E-02 0. -1.
       -1   -1    0    0    0  501  0.00000000000E+00  0.00000000000E+00 -0.12709265089E+04  0.12709265089E+04  0.50400001928E-02 0.  1.
    10030    2    1    2    0    0  0.00000000000E+00  0.00000000000E+00  0.98334389586E+03  0.35251969137E+04  0.33852692748E+04 0.  0.
        4    1    3    3  502    0 -0.12085295141E+04  0.11728720932E+04  0.66850838113E+03  0.18119264891E+04  0.12699999809E+01 0. -1.
       -4    1    3    3    0  502  0.12085295141E+04 -0.11728720932E+04  0.31483551473E+03  0.17132704246E+04  0.12699999809E+01 0.  1.
</event>
<event>
 5   0  0.6134625E-07  0.3465214E+04  0.7818609E-02  0.8122084E-01
       -1   -1    0    0    0  501  0.00000000000E+00  0.00000000000E+00  0.13847820568E+04  0.13847820569E+04  0.50400001928E-02 0.  1.
        1   -1    0    0  501    0  0.00000000000E+00  0.00000000000E+00 -0.21677971876E+04  0.21677971876E+04  0.50400001928E-02 0. -1.
    10030    2    1    2    0    0  0.00000000000E+00  0.00000000000E+00 -0.78301513075E+03  0.35525792445E+04  0.34652137875E+04 0.  0.
        3    1    3    3  502    0  0.10678688616E+04 -0.96741552844E+03  0.59487754886E+03  0.15588829394E+04  0.10100000352E+00 0.  1.
       -3    1    3    3    0  502 -0.10678688616E+04  0.96741552844E+03 -0.13778926796E+04  0.19936963051E+04  0.10100000352E+00 0. -1.
</event>
<event>
 5   0  0.1339844E-06  0.3376255E+04  0.7818609E-02  0.8143759E-01
       -2   -1    0    0    0  501  0.00000000000E+00  0.00000000000E+00  0.14162104764E+04  0.14162104764E+04  0.25500000920E-02 0. -1.
        2   -1    0    0  501    0  0.00000000000E+00  0.00000000000E+00 -0.20122535048E+04  0.20122535048E+04  0.25500000920E-02 0.  1.
    10030    2    1    2    0    0  0.00000000000E+00  0.00000000000E+00 -0.59604302839E+03  0.34284639813E+04  0.33762550228E+04 0.  0.
        3    1    3    3  502    0 -0.13886860567E+04  0.81414035625E+03  0.21827056516E+03  0.16244739252E+04  0.10100000352E+00 0. -1.
       -3    1    3    3    0  502  0.13886860567E+04 -0.81414035625E+03 -0.81431359355E+03  0.18039900561E+04  0.10100000352E+00 0.  1.
</event>
<event>
 5   0  0.6146388E-07  0.3406579E+04  0.7818609E-02  0.8136294E-01
       -1   -1    0    0    0  501  0.00000000000E+00  0.00000000000E+00  0.13484710900E+04  0.13484710900E+04  0.50400001928E-02 0.  1.
        1   -1    0    0  501    0  0.00000000000E+00  0.00000000000E+00 -0.21514699130E+04  0.21514699130E+04  0.50400001928E-02 0. -1.
    10030    2    1    2    0    0  0.00000000000E+00  0.00000000000E+00 -0.80299882305E+03  0.34999410030E+04  0.34065789165E+04 0.  0.
        4    1    3    3  502    0  0.78441321759E+03  0.68767644749E+03  0.98187589286E+03  0.14325797968E+04  0.12699999809E+01 0.  1.
       -4    1    3    3    0  502 -0.78441321759E+03 -0.68767644749E+03 -0.17848747159E+04  0.20673612062E+04  0.12699999809E+01 0. -1.
</event>
<event>
 5   0  0.6134625E-07  0.3380634E+04  0.7818609E-02  0.8142676E-01
       -1   -1    0    0    0  501  0.00000000000E+00  0.00000000000E+00  0.16304110859E+04  0.16304110859E+04  0.50400001928E-02 0. -1.
        1   -1    0    0  501    0  0.00000000000E+00  0.00000000000E+00 -0.17524242341E+04  0.17524242341E+04  0.50400001928E-02 0.  1.
    10030    2    1    2    0    0  0.00000000000E+00  0.00000000000E+00 -0.12201314816E+03  0.33828353200E+04  0.33806342000E+04 0.  0.
        5    1    3    3  502    0  0.11639617364E+04  0.11627024010E+04 -0.44915862036E+03  0.17054176478E+04  0.46999998093E+01 0.  1.
       -5    1    3    3    0  502 -0.11639617364E+04 -0.11627024010E+04  0.32714547220E+03  0.16774176722E+04  0.46999998093E+01 0. -1.
</event>
<event>
 5   0  0.1911477E-06  0.3406862E+04  0.7818609E-02  0.8136224E-01
        2   -1    0    0  501    0  0.00000000000E+00  0.00000000000E+00  0.17644508503E+04  0.17644508503E+04  0.25500000920E-02 0.  1.
       -2   -1    0    0    0  501  0.00000000000E+00  0.00000000000E+00 -0.16445217925E+04  0.16445217925E+04  0.25500000920E-02 0. -1.
    10030    2    1    2    0    0  0.00000000000E+00  0.00000000000E+00  0.11992905773E+03  0.34089726428E+04  0.34068624129E+04 0.  0.
        5    1    3    3  502    0 -0.69238007387E+03 -0.33119020359E+03 -0.14616939096E+04  0.16509537525E+04  0.46999998093E+01 0. -1.
       -5    1    3    3    0  502  0.69238007387E+03  0.33119020359E+03  0.15816229673E+04  0.17580188903E+04  0.46999998093E+01 0.  1.
</event>
<event>
 5   0  0.6134625E-07  0.2601592E+04  0.7818609E-02  0.8367661E-01
        1   -1    0    0  501    0  0.00000000000E+00  0.00000000000E+00  0.14134382097E+04  0.14134382097E+04  0.50400001928E-02 0.  1.
       -1   -1    0    0    0  501  0.00000000000E+00  0.00000000000E+00 -0.11971303866E+04  0.11971303866E+04  0.50400001928E-02 0. -1.
    10030    2    1    2    0    0  0.00000000000E+00  0.00000000000E+00  0.21630782310E+03  0.26105685962E+04  0.26015916900E+04 0.  0.
        5    1    3    3  502    0 -0.90157608867E+01 -0.12923239130E+04  0.25653354404E+03  0.13175788133E+04  0.46999998093E+01 0. -1.
       -5    1    3    3    0  502  0.90157608867E+01  0.12923239130E+04 -0.40225720940E+02  0.12929897829E+04  0.46999998093E+01 0.  1.
</event>
<event>
 5   0  0.1880301E-06  0.3275749E+04  0.7818609E-02  0.8169094E-01
       -2   -1    0    0    0  501  0.00000000000E+00  0.00000000000E+00  0.16867837458E+04  0.16867837458E+04  0.25500000920E-02 0. -1.
        2   -1    0    0  501    0  0.00000000000E+00  0.00000000000E+00 -0.15903836508E+04  0.15903836508E+04  0.25500000920E-02 0.  1.
    10030    2    1    2    0    0  0.00000000000E+00  0.00000000000E+00  0.96400095018E+02  0.32771673965E+04  0.32757492527E+04 0.  0.
        4    1    3    3  502    0  0.12548053034E+04  0.18368858615E+03 -0.98875909184E+03  0.16080808440E+04  0.12699999809E+01 0.  1.
       -4    1    3    3    0  502 -0.12548053034E+04 -0.18368858615E+03  0.10851591869E+04  0.16690865526E+04  0.12699999809E+01 0. -1.
</event>
<event>
 5   0  0.6218695E-07  0.3450630E+04  0.7818609E-02  0.8125591E-01
       -1   -1    0    0    0  501  0.00000000000E+00  0.00000000000E+00  0.12947448843E+04  0.12947448843E+04  0.50400001928E-02 0. -1.
        1   -1    0    0  501    0  0.00000000000E+00  0.00000000000E+00 -0.22990725114E+04  0.22990725114E+04  0.50400001928E-02 0.  1.
    10030    2    1    2    0    0  0.00000000000E+00  0.00000000000E+00 -0.10043276270E+04  0.35938173957E+04  0.34506303034E+04 0.  0.
        2    1    3    3  502    0 -0.14031859805E+04 -0.10196587454E+03  0.53796916964E+03  0.15062333029E+04  0.25500000920E-02 0. -1.
       -2    1    3    3    0  502  0.14031859805E+04  0.10196587454E+03 -0.15422967967E+04  0.20875840928E+04  0.25500000920E-02 0.  1.
</event>
<event>
 5   0  0.1911477E-06  0.3396951E+04  0.7818609E-02  0.8138655E-01
       -2   -1    0    0    0  501  0.00000000000E+00  0.00000000000E+00  0.14846119109E+04  0.14846119109E+04  0.25500000920E-02 0.  1.
        2   -1    0    0  501    0  0.00000000000E+00  0.00000000000E+00 -0.19431471827E+04  0.19431471827E+04  0.25500000920E-02 0. -1.
    10030    2    1    2    0    0  0.00000000000E+00  0.00000000000E+00 -0.45853527181E+03  0.34277590936E+04  0.33969512519E+04 0.  0.
        5    1    3    3  502    0 -0.15740740109E+04 -0.63395990275E+03 -0.15662017113E+03  0.17041614120E+04  0.46999998093E+01 0.  1.
       -5    1    3    3    0  502  0.15740740109E+04  0.63395990275E+03 -0.30191510067E+03  0.17235976816E+04  0.46999998093E+01 0. -1.
</event>
<event>
 5   0  0.6134625E-07  0.3409588E+04  0.7818609E-02  0.8135557E-01
        1   -1    0    0  501    0  0.00000000000E+00  0.00000000000E+00  0.21504537317E+04  0.21504537317E+04  0.50400001928E-02 0.  1.
       -1   -1    0    0    0  501  0.00000000000E+00  0.00000000000E+00 -0.13514923681E+04  0.13514923681E+04  0.50400001928E-02 0. -1.
    10030    2    1    2    0    0  0.00000000000E+00  0.00000000000E+00  0.79896136356E+03  0.35019460998E+04  0.34095875448E+04 0.  0.
        1    1    3    3  502    0  0.50351889399E+03 -0.58526914527E+03 -0.11616424300E+04  0.13948062174E+04  0.50400001928E-02 0. -1.
       -1    1    3    3    0  502 -0.50351889399E+03  0.58526914527E+03  0.19606037935E+04  0.21071398824E+04  0.50400001928E-02 0.  1.
</event>
<event>
 5   0  0.1339844E-06  0.3403916E+04  0.7818609E-02  0.8136946E-01
       -2   -1    0    0    0  501  0.00000000000E+00  0.00000000000E+00  0.13760809141E+04  0.13760809141E+04  0.25500000920E-02 0. -1.
        2   -1    0    0  501    0  0.00000000000E+00  0.00000000000E+00 -0.21050076959E+04  0.21050076959E+04  0.25500000920E-02 0.  1.
    10030    2    1    2    0    0  0.00000000000E+00  0.00000000000E+00 -0.72892678178E+03  0.34810886100E+04  0.34039159298E+04 0.  0.
        3    1    3    3  502    0  0.11702934408E+04  0.10945183743E+04 -0.95114521288E+03  0.18633932584E+04  0.10100000352E+00 0.  1.
       -3    1    3    3    0  502 -0.11702934408E+04 -0.10945183743E+04  0.22221843110E+03  0.16176953516E+04  0.10100000352E+00 0. -1.
</event>
<event>
 5   0  0.6218695E-07  0.3370518E+04  0.7818609E-02  0.8145180E-01
        1   -1    0    0  501    0  0.00000000000E+00  0.00000000000E+00  0.22136629170E+04  0.22136629170E+04  0.50400001928E-02 0.  1.
       -1   -1    0    0    0  501  0.00000000000E+00  0.00000000000E+00 -0.12829858874E+04  0.12829858875E+04  0.50400001928E-02 0. -1.
    10030    2    1    2    0    0  0.00000000000E+00  0.00000000000E+00  0.93067702953E+03  0.34966488044E+04  0.33705182285E+04 0.  0.
        2    1    3    3  502    0 -0.97125438374E+03 -0.12934900458E+04  0.95594873063E+03  0.18789064778E+04  0.25500000920E-02 0.  1.
       -2    1    3    3    0  502  0.97125438374E+03  0.12934900458E+04 -0.25271701096E+02  0.16177423267E+04  0.25500000920E-02 0. -1.
</event>
<event>
 5   0  0.6134625E-07  0.3390887E+04  0.7818609E-02  0.8140146E-01
        1   -1    0    0  501    0  0.00000000000E+00  0.00000000000E+00  0.26319751237E+04  0.26319751237E+04  0.50400001928E-02 0.  1.
       -1   -1    0    0    0  501  0.00000000000E+00  0.00000000000E+00 -0.10921567402E+04  0.10921567402E+04  0.50400001928E-02 0. -1.
    10030    2    1    2    0    0  0.00000000000E+00  0.00000000000E+00  0.15398183835E+04  0.37241318640E+04  0.33908874187E+04 0.  0.
        5    1    3    3  502    0 -0.23636163704E+03 -0.15134727600E+04 -0.28168851928E+02  0.15320842643E+04  0.46999998093E+01 0.  1.
       -5    1    3    3    0  502  0.23636163704E+03  0.15134727600E+04  0.15679872354E+04  0.21920475997E+04  0.46999998093E+01 0. -1.
</event>
<event>
 5   0  0.6218695E-07  0.3324566E+04  0.7818609E-02  0.8156673E-01
       -1   -1    0    0    0  501  0.00000000000E+00  0.00000000000E+00  0.14723922282E+04  0.14723922282E+04  0.50400001928E-02 0. -1.
        1   -1    0    0  501    0  0.00000000000E+00  0.00000000000E+00 -0.18766632059E+04  0.18766632059E+04  0.50400001928E-02 0.  1.
    10030    2    1    2    0    0  0.00000000000E+00  0.00000000000E+00 -0.40427097769E+03  0.33490554341E+04  0.33245657276E+04 0.  0.
        2    1    3    3  502    0  0.13483089739E+04  0.12966754092E+03 -0.11727858661E+04  0.17916968069E+04  0.25500000920E-02 0.  1.
       -2    1    3    3    0  502 -0.13483089739E+04 -0.12966754092E+03  0.76851488836E+03  0.15573586272E+04  0.25500000920E-02 0. -1.
</event>
<event>
 5   0  0.1911477E-06  0.3400836E+04  0.7818609E-02  0.8137701E-01
        2   -1    0    0  501    0  0.00000000000E+00  0.00000000000E+00  0.23922343702E+04  0.23922343702E+04  0.25500000920E-02 0. -1.
       -2   -1    0    0    0  501  0.00000000000E+00  0.00000000000E+00 -0.12086700584E+04  0.12086700584E+04  0.25500000920E-02 0.  1.
    10030    2    1    2    0    0  0.00000000000E+00  0.00000000000E+00  0.11835643118E+04  0.36009044286E+04  0.34008364006E+04 0.  0.
        5    1    3    3  502    0  0.11175447629E+04  0.10644783458E+04  0.13474772354E+04  0.20488380697E+04  0.46999998093E+01 0. -1.
       -5    1    3    3    0  502 -0.11175447629E+04 -0.10644783458E+04 -0.16391292362E+03  0.15520663589E+04  0.46999998093E+01 0.  1.
</event>
<event>
 5   0  0.1880301E-06  0.3393804E+04  0.7818609E-02  0.8139429E-01
       -2   -1    0    0    0  501  0.00000000000E+00  0.00000000000E+00  0.12318738098E+04  0.12318738098E+04  0.25500000920E-02 0. -1.
        2   -1    0    0  501    0  0.00000000000E+00  0.00000000000E+00 -0.23374765751E+04  0.23374765751E+04  0.25500000920E-02 0.  1.
    10030    2    1    2    0    0  0.00000000000E+00  0.00000000000E+00 -0.11056027653E+04  0.35693503848E+04  0.33938038681E+04 0.  0.
        4    1    3    3  502    0 -0.13192446451E+04 -0.87694696182E+03 -0.11925688817E+04  0.19828425450E+04  0.12699999809E+01 0. -1.
       -4    1    3    3    0  502  0.13192446451E+04  0.87694696182E+03  0.86966116418E+02  0.15865078398E+04  0.12699999809E+01 0.  1.
</event>
<event>
 5   0  0.6134625E-07  0.3375976E+04  0.7818609E-02  0.8143828E-01
        4   -1    0    0  501    0  0.00000000000E+00  0.00000000000E+00  0.14372758843E+04  0.14372764454E+04  0.12699999809E+01 0.  1.
       -4   -1    0    0    0  501  0.00000000000E+00  0.00000000000E+00 -0.19824323598E+04  0.19824327666E+04  0.12699999809E+01 0. -1.
    10030    2    1    2    0    0  0.00000000000E+00  0.00000000000E+00 -0.54515647548E+03  0.34197092120E+04  0.33759762310E+04 0.  0.
        4    1    3    3  502    0 -0.12504136047E+04  0.10956828975E+04 -0.56833149036E+03  0.17570024162E+04  0.12699999809E+01 0. -1.
       -4    1    3    3    0  502  0.12504136047E+04 -0.10956828975E+04  0.23175014879E+02  0.16627067958E+04  0.12699999809E+01 0.  1.
</event>
<event>
 5   0  0.6134625E-07  0.3349412E+04  0.7818609E-02  0.8150435E-01
        1   -1    0    0  501    0  0.00000000000E+00  0.00000000000E+00  0.29664359234E+04  0.29664359234E+04  0.50400001928E-02 0. -1.
       -1   -1    0    0    0  501  0.00000000000E+00  0.00000000000E+00 -0.94545783900E+03  0.94545783902E+03  0.50400001928E-02 0.  1.
    10030    2    1    2    0    0  0.00000000000E+00  0.00000000000E+00  0.20209780844E+04  0.39118937624E+04  0.33494119470E+04 0.  0.
        1    1    3    3  502    0 -0.16123373685E+04  0.45277831214E+03  0.10108725814E+04  0.19561450267E+04  0.50400001928E-02 0. -1.
       -1    1    3    3    0  502  0.16123373685E+04 -0.45277831214E+03  0.10101055030E+04  0.19557487357E+04  0.50400001928E-02 0.  1.
</event>
<event>
 5   0  0.6134625E-07  0.3425919E+04  0.7818609E-02  0.8131574E-01
        1   -1    0    0  501    0  0.00000000000E+00  0.00000000000E+00  0.24298355399E+04  0.24298355399E+04  0.50400001928E-02 0. -1.
       -1   -1    0    0    0  501  0.00000000000E+00  0.00000000000E+00 -0.12075841626E+04  0.12075841626E+04  0.50400001928E-02 0.  1.
    10030    2    1    2    0    0  0.00000000000E+00  0.00000000000E+00  0.12222513774E+04  0.36374197025E+04  0.34259193894E+04 0.  0.
        3    1    3    3  502    0 -0.13053053667E+04 -0.72105066764E+03  0.15060714354E+04  0.21194309011E+04  0.10100000352E+00 0. -1.
       -3    1    3    3    0  502  0.13053053667E+04  0.72105066764E+03 -0.28382005806E+03  0.15179888014E+04  0.10100000352E+00 0.  1.
</event>
<event>
 5   0  0.1797075E-06  0.3448827E+04  0.7818609E-02  0.8126026E-01
       -2   -1    0    0    0  501  0.00000000000E+00  0.00000000000E+00  0.13163566011E+04  0.13163566011E+04  0.25500000920E-02 0. -1.
        2   -1    0    0  501    0  0.00000000000E+00  0.00000000000E+00 -0.22589636164E+04  0.22589636164E+04  0.25500000920E-02 0.  1.
    10030    2    1    2    0    0  0.00000000000E+00  0.00000000000E+00 -0.94260701531E+03  0.35753202175E+04  0.34488268546E+04 0.  0.
        2    1    3    3  502    0  0.10423410083E+04 -0.37955227189E+03  0.89737229445E+03  0.14268187479E+04  0.25500000920E-02 0. -1.
       -2    1    3    3    0  502 -0.10423410083E+04  0.37955227189E+03 -0.18399793098E+04  0.21485014696E+04  0.25500000920E-02 0.  1.
</event>
<event>
 5   0  0.6134625E-07  0.3186354E+04  0.7818609E-02  0.8192430E-01
       -1   -1    0    0    0  501  0.00000000000E+00  0.00000000000E+00  0.10235314174E+04  0.10235314174E+04  0.50400001928E-02 0.  1.
        1   -1    0    0  501    0  0.00000000000E+00  0.00000000000E+00 -0.24798587896E+04  0.24798587896E+04  0.50400001928E-02 0. -1.
    10030    2    1    2    0    0  0.00000000000E+00  0.00000000000E+00 -0.14563273721E+04  0.35033902070E+04  0.31863542690E+04 0.  0.
        1    1    3    3  502    0  0.93181134427E+03 -0.67045793173E+02 -0.21470895702E+04  0.23415296586E+04  0.50400001928E-02 0. -1.
       -1    1    3    3    0  502 -0.93181134427E+03  0.67045793173E+02  0.69076219802E+03  0.11618605484E+04  0.50400001928E-02 0.  1.
</event>
<event>
 5   0  0.1911477E-06  0.2902914E+04  0.7818609E-02  0.8272011E-01
       -2   -1    0    0    0  501  0.00000000000E+00  0.00000000000E+00  0.13659109147E+04  0.13659109147E+04  0.25500000920E-02 0. -1.
        2   -1    0    0  501    0  0.00000000000E+00  0.00000000000E+00 -0.15423602505E+04  0.15423602506E+04  0.25500000920E-02 0.  1.
    10030    2    1    2    0    0  0.00000000000E+00  0.00000000000E+00 -0.17644933582E+03  0.29082711653E+04  0.29029135024E+04 0.  0.
        5    1    3    3  502    0  0.12113740442E+04 -0.79845554220E+03 -0.46358993394E+02  0.14515955270E+04  0.46999998093E+01 0. -1.
       -5    1    3    3    0  502 -0.12113740442E+04  0.79845554220E+03 -0.13009034243E+03  0.14566756382E+04  0.46999998093E+01 0.  1.
</event>
<event>
 5   0  0.6134625E-07  0.3340403E+04  0.7818609E-02  0.8152690E-01
       -1   -1    0    0    0  501  0.00000000000E+00  0.00000000000E+00  0.15428894669E+04  0.15428894669E+04  0.50400001928E-02 0. -1.
        1   -1    0    0  501    0  0.00000000000E+00  0.00000000000E+00 -0.18080188624E+04  0.18080188624E+04  0.50400001928E-02 0.  1.
    10030    2    1    2    0    0  0.00000000000E+00  0.00000000000E+00 -0.26512939555E+03  0.33509083293E+04  0.33404031246E+04 0.  0.
        1    1    3    3  502    0  0.10845758876E+04 -0.64294226976E+03  0.96627677302E+03  0.15885120145E+04  0.50400001928E-02 0. -1.
       -1    1    3    3    0  502 -0.10845758876E+04  0.64294226976E+03 -0.12314061686E+04  0.17623963148E+04  0.50400001928E-02 0.  1.
</event>
<event>
 5   0  0.1797075E-06  0.3384462E+04  0.7818609E-02  0.8141730E-01
       -2   -1    0    0    0  501  0.00000000000E+00  0.00000000000E+00  0.11745043011E+04  0.11745043011E+04  0.25500000920E-02 0. -1.
        2   -1    0    0  501    0  0.00000000000E+00  0.00000000000E+00 -0.24381735216E+04  0.24381735216E+04  0.25500000920E-02 0.  1.
    10030    2    1    2    0    0  0.00000000000E+00  0.00000000000E+00 -0.12636692205E+04  0.36126778226E+04  0.33844617225E+04 0.  0.
        2    1    3    3  502    0 -0.25505046682E+03 -0.23386740048E+03  0.11363345545E+04  0.11878555979E+04  0.25500000920E-02 0. -1.
       -2    1    3    3    0  502  0.25505046682E+03  0.23386740048E+03 -0.24000037750E+04  0.24248222248E+04  0.25500000920E-02 0.  1.
</event>
<event>
 5   0  0.6134625E-07  0.3388413E+04  0.7818609E-02  0.8140756E-01
        1   -1    0    0  501    0  0.00000000000E+00  0.00000000000E+00  0.26592316054E+04  0.26592316054E+04  0.50400001928E-02 0. -1.
       -1   -1    0    0    0  501  0.00000000000E+00  0.00000000000E+00 -0.10793856550E+04  0.10793856551E+04  0.50400001928E-02 0.  1.
    10030    2    1    2    0    0  0.00000000000E+00  0.00000000000E+00  0.15798459504E+04  0.37386172605E+04  0.33884134626E+04 0.  0.
        5    1    3    3  502    0 -0.12323527679E+04  0.47523663827E+03  0.19606069295E+04  0.23640103275E+04  0.46999998093E+01 0. -1.
       -5    1    3    3    0  502  0.12323527679E+04 -0.47523663827E+03 -0.38076097909E+03  0.13746069329E+04  0.46999998093E+01 0.  1.
</event>
<event>
 5   0  0.1339844E-06  0.3511793E+04  0.7818609E-02  0.8111001E-01
        2   -1    0    0  501    0  0.00000000000E+00  0.00000000000E+00  0.11339266341E+04  0.11339266341E+04  0.25500000920E-02 0.  1.
       -2   -1    0    0    0  501  0.00000000000E+00  0.00000000000E+00 -0.27190230040E+04  0.27190230040E+04  0.25500000920E-02 0. -1.
    10030    2    1    2    0    0  0.00000000000E+00  0.00000000000E+00 -0.15850963700E+04  0.38529496381E+04  0.35117930480E+04 0.  0.
        3    1    3    3  502    0 -0.13848389273E+04 -0.15246001493E+03  0.37998712290E+03  0.14440959575E+04  0.10100000352E+00 0.  1.
       -3    1    3    3    0  502  0.13848389273E+04  0.15246001493E+03 -0.19650834929E+04  0.24088536806E+04  0.10100000352E+00 0. -1.
</event>
<event>
 5   0  0.6134625E-07  0.3436171E+04  0.7818609E-02  0.8129086E-01
       -1   -1    0    0    0  501  0.00000000000E+00  0.00000000000E+00  0.12669549896E+04  0.12669549896E+04  0.50400001928E-02 0.  1.
        1   -1    0    0  501    0  0.00000000000E+00  0.00000000000E+00 -0.23298515137E+04  0.23298515137E+04  0.50400001928E-02 0. -1.
    10030    2    1    2    0    0  0.00000000000E+00  0.00000000000E+00 -0.10628965241E+04  0.35968065034E+04  0.34361705432E+04 0.  0.
        1    1    3    3  502    0  0.16263862998E+04  0.47205042332E+03 -0.22833727983E+03  0.17088305685E+04  0.50400001928E-02 0.  1.
       -1    1    3    3    0  502 -0.16263862998E+04 -0.47205042332E+03 -0.83455924424E+03  0.18879759349E+04  0.50400001928E-02 0. -1.
</event>
<event>
 5   0  0.6218695E-07  0.3394669E+04  0.7818609E-02  0.8139216E-01
        1   -1    0    0  501    0  0.00000000000E+00  0.00000000000E+00  0.21236840166E+04  0.21236840166E+04  0.50400001928E-02 0. -1.
       -1   -1    0    0    0  501  0.00000000000E+00  0.00000000000E+00 -0.13565785101E+04  0.13565785101E+04  0.50400001928E-02 0.  1.
    10030    2    1    2    0    0  0.00000000000E+00  0.00000000000E+00  0.76710550646E+03  0.34802625267E+04  0.33946688199E+04 0.  0.
        2    1    3    3  502    0 -0.84261279509E+03 -0.10368545617E+04 -0.68968557141E+03  0.15035723767E+04  0.25500000920E-02 0.  1.
       -2    1    3    3    0  502  0.84261279509E+03  0.10368545617E+04  0.14567910779E+04  0.19766901500E+04  0.25500000920E-02 0. -1.
</event>
<event>
 5   0  0.1339844E-06  0.3409671E+04  0.7818609E-02  0.8135537E-01
        2   -1    0    0  501    0  0.00000000000E+00  0.00000000000E+00  0.33421854064E+04  0.33421854064E+04  0.25500000920E-02 0. -1.
       -2   -1    0    0    0  501  0.00000000000E+00  0.00000000000E+00 -0.86962963297E+03  0.86962963298E+03  0.25500000920E-02 0.  1.
    10030    2    1    2    0    0  0.00000000000E+00  0.00000000000E+00  0.24725557734E+04  0.42118150394E+04  0.34096706400E+04 0.  0.
        3    1    3    3  502    0 -0.16360601224E+04 -0.40131022110E+03  0.91245980780E+03  0.19158093665E+04  0.10100000352E+00 0.  1.
       -3    1    3    3    0  502  0.16360601224E+04  0.40131022110E+03  0.15600959656E+04  0.22960056729E+04  0.10100000352E+00 0. -1.
</event>
<event>
 5   0  0.6134625E-07  0.3393281E+04  0.7818609E-02  0.8139557E-01
        1   -1    0    0  501    0  0.00000000000E+00  0.00000000000E+00  0.29132157194E+04  0.29132157194E+04  0.50400001928E-02 0. -1.
       -1   -1    0    0    0  501  0.00000000000E+00  0.00000000000E+00 -0.98811417057E+03  0.98811417058E+03  0.50400001928E-02 0.  1.
    10030    2    1    2    0    0  0.00000000000E+00  0.00000000000E+00  0.19251015488E+04  0.39013298899E+04  0.33932814409E+04 0.  0.
        3    1    3    3  502    0 -0.14748948129E+04 -0.63317150210E+03  0.15947607253E+04  0.22626273757E+04  0.10100000352E+00 0. -1.
       -3    1    3    3    0  502  0.14748948129E+04  0.63317150210E+03  0.33034082351E+03  0.16387025142E+04  0.10100000352E+00 0.  1.
</event>
<event>
 5   0  0.1948507E-06  0.3354169E+04  0.7818609E-02  0.8149247E-01
       -2   -1    0    0    0  501  0.00000000000E+00  0.00000000000E+00  0.14879142117E+04  0.14879142117E+04  0.25500000920E-02 0.  1.
        2   -1    0    0  501    0  0.00000000000E+00  0.00000000000E+00 -0.18903057895E+04  0.18903057895E+04  0.25500000920E-02 0. -1.
    10030    2    1    2    0    0  0.00000000000E+00  0.00000000000E+00 -0.40239157778E+03  0.33782200012E+04  0.33541692555E+04 0.  0.
        1    1    3    3  502    0  0.12779714508E+04  0.59325207143E+03 -0.11173631847E+04  0.17982378975E+04  0.50400001928E-02 0. -1.
       -1    1    3    3    0  502 -0.12779714508E+04 -0.59325207143E+03  0.71497160695E+03  0.15799821037E+04  0.50400001928E-02 0.  1.
</event>
<event>
 5   0  0.6146388E-07  0.3411773E+04  0.7818609E-02  0.8135023E-01
        1   -1    0    0  501    0  0.00000000000E+00  0.00000000000E+00  0.16517034640E+04  0.16517034640E+04  0.50400001928E-02 0.  1.
       -1   -1    0    0    0  501  0.00000000000E+00  0.00000000000E+00 -0.17618469419E+04  0.17618469419E+04  0.50400001928E-02 0. -1.
    10030    2    1    2    0    0  0.00000000000E+00  0.00000000000E+00 -0.11014347786E+03  0.34135504059E+04  0.34117729684E+04 0.  0.
        4    1    3    3  502    0  0.34625180636E+03  0.12073126976E+04 -0.12100356464E+04  0.17440418979E+04  0.12699999809E+01 0. -1.
       -4    1    3    3    0  502 -0.34625180636E+03 -0.12073126976E+04  0.10998921685E+04  0.16695085080E+04  0.12699999809E+01 0.  1.
</event>
<event>
 5   0  0.1797075E-06  0.3393245E+04  0.7818609E-02  0.8139566E-01
       -2   -1    0    0    0  501  0.00000000000E+00  0.00000000000E+00  0.14155866244E+04  0.14155866244E+04  0.25500000920E-02 0. -1.
        2   -1    0    0  501    0  0.00000000000E+00  0.00000000000E+00 -0.20334528735E+04  0.20334528735E+04  0.25500000920E-02 0.  1.
    10030    2    1    2    0    0  0.00000000000E+00  0.00000000000E+00 -0.61786624910E+03  0.34490394979E+04  0.33932454606E+04 0.  0.
        2    1    3    3  502    0  0.49732416625E+03 -0.86886892617E+03  0.10833574451E+04  0.14751026714E+04  0.25500000920E-02 0. -1.
       -2    1    3    3    0  502 -0.49732416625E+03  0.86886892617E+03 -0.17012236942E+04  0.19739368265E+04  0.25500000920E-02 0.  1.
</event>
<event>
 5   0  0.6134625E-07  0.2921546E+04  0.7818609E-02  0.8266496E-01
        1   -1    0    0  501    0  0.00000000000E+00  0.00000000000E+00  0.21117926144E+04  0.21117926144E+04  0.50400001928E-02 0.  1.
       -1   -1    0    0    0  501  0.00000000000E+00  0.00000000000E+00 -0.10104487050E+04  0.10104487050E+04  0.50400001928E-02 0. -1.
    10030    2    1    2    0    0  0.00000000000E+00  0.00000000000E+00  0.11013439094E+04  0.31222413195E+04  0.29215462430E+04 0.  0.
        1    1    3    3  502    0 -0.27420861526E+03 -0.97804925592E+02 -0.97913096240E+03  0.10214957708E+04  0.50400001928E-02 0. -1.
       -1    1    3    3    0  502  0.27420861526E+03  0.97804925592E+02  0.20804748718E+04  0.21007455487E+04  0.50400001928E-02 0.  1.
</event>
<event>
 5   0  0.1880301E-06  0.3371188E+04  0.7818609E-02  0.8145014E-01
       -2   -1    0    0    0  501  0.00000000000E+00  0.00000000000E+00  0.13009728522E+04  0.13009728522E+04  0.25500000920E-02 0.  1.
        2   -1    0    0  501    0  0.00000000000E+00  0.00000000000E+00 -0.21839255065E+04  0.21839255065E+04  0.25500000920E-02 0. -1.
    10030    2    1    2    0    0  0.00000000000E+00  0.00000000000E+00 -0.88295265435E+03  0.34848983587E+04  0.33711883930E+04 0.  0.
        4    1    3    3  502    0 -0.12857977161E+04  0.54892241011E+03 -0.14148496319E+04  0.19890682926E+04  0.12699999809E+01 0. -1.
       -4    1    3    3    0  502  0.12857977161E+04 -0.54892241011E+03  0.53189697755E+03  0.14958300661E+04  0.12699999809E+01 0.  1.
</event>
<event>
 5   0  0.1948507E-06  0.3299219E+04  0.7818609E-02  0.8163094E-01
        2   -1    0    0  501    0  0.00000000000E+00  0.00000000000E+00  0.16493029153E+04  0.16493029153E+04  0.25500000920E-02 0. -1.
       -2   -1    0    0    0  501  0.00000000000E+00  0.00000000000E+00 -0.16499157313E+04  0.16499157313E+04  0.25500000920E-02 0.  1.
    10030    2    1    2    0    0  0.00000000000E+00  0.00000000000E+00 -0.61281597109E+00  0.32992186466E+04  0.32992185897E+04 0.  0.
        1    1    3    3  502    0  0.62634527255E+03  0.14508408312E+04  0.47294121782E+03  0.16495214195E+04  0.50400001928E-02 0. -1.
       -1    1    3    3    0  502 -0.62634527255E+03 -0.14508408312E+04 -0.47355403380E+03  0.16496972271E+04  0.50400001928E-02 0.  1.
</event>
<event>
 5   0  0.6134625E-07  0.3473205E+04  0.7818609E-02  0.8120170E-01
       -1   -1    0    0    0  501  0.00000000000E+00  0.00000000000E+00  0.22187854401E+04  0.22187854401E+04  0.50400001928E-02 0. -1.
        1   -1    0    0  501    0  0.00000000000E+00  0.00000000000E+00 -0.13592068076E+04  0.13592068076E+04  0.50400001928E-02 0.  1.
    10030    2    1    2    0    0  0.00000000000E+00  0.00000000000E+00  0.85957863249E+03  0.35779922478E+04  0.34732050184E+04 0.  0.
        3    1    3    3  502    0 -0.52041371321E+03 -0.11867257337E+04 -0.76122280174E+03  0.15028667818E+04  0.10100000352E+00 0.  1.
       -3    1    3    3    0  502  0.52041371321E+03  0.11867257337E+04  0.16208014342E+04  0.20751254659E+04  0.10100000352E+00 0. -1.
</event>
<event>
 5   0  0.6134625E-07  0.3406124E+04  0.7818609E-02  0.8136405E-01
        1   -1    0    0  501    0  0.00000000000E+00  0.00000000000E+00  0.22100864834E+04  0.22100864834E+04  0.50400001928E-02 0.  1.
       -1   -1    0    0    0  501  0.00000000000E+00  0.00000000000E+00 -0.13123560275E+04  0.13123560275E+04  0.50400001928E-02 0. -1.
    10030    2    1    2    0    0  0.00000000000E+00  0.00000000000E+00  0.89773045590E+03  0.35224425109E+04  0.34061240834E+04 0.  0.
        5    1    3    3  502    0  0.12695082815E+03  0.14137129015E+04 -0.52438871033E+03  0.15131775474E+04  0.46999998093E+01 0. -1.
       -5    1    3    3    0  502 -0.12695082815E+03 -0.14137129015E+04  0.14221191662E+04  0.20092649635E+04  0.46999998093E+01 0.  1.
</event>
<event>
 5   0  0.6134625E-07  0.3449817E+04  0.7818609E-02  0.8125787E-01
        1   -1    0    0  501    0  0.00000000000E+00  0.00000000000E+00  0.14781156207E+04  0.14781156207E+04  0.50400001928E-02 0. -1.
       -1   -1    0    0    0  501  0.00000000000E+00  0.00000000000E+00 -0.20129070965E+04  0.20129070965E+04  0.50400001928E-02 0.  1.
    10030    2    1    2    0    0  0.00000000000E+00  0.00000000000E+00 -0.53479147583E+03  0.34910227172E+04  0.34498170516E+04 0.  0.
        1    1    3    3  502    0 -0.13263044477E+04 -0.27301766356E+03 -0.13486558785E+04  0.19111501279E+04  0.50400001928E-02 0.  1.
       -1    1    3    3    0  502  0.13263044477E+04  0.27301766356E+03  0.81386440270E+03  0.15798725894E+04  0.50400001928E-02 0. -1.
</event>
<event>
 5   0  0.6134625E-07  0.2676489E+04  0.7818609E-02  0.8342674E-01
        1   -1    0    0  501    0  0.00000000000E+00  0.00000000000E+00  0.11441579996E+04  0.11441579996E+04  0.50400001928E-02 0. -1.
       -1   -1    0    0    0  501  0.00000000000E+00  0.00000000000E+00 -0.15652545656E+04  0.15652545656E+04  0.50400001928E-02 0.  1.
    10030    2    1    2    0    0  0.00000000000E+00  0.00000000000E+00 -0.42109656593E+03  0.27094125652E+04  0.26764891426E+04 0.  0.
        5    1    3    3  502    0  0.13268330957E+04  0.36386293985E+01 -0.38698261198E+03  0.13821276842E+04  0.46999998093E+01 0.  1.
       -5    1    3    3    0  502 -0.13268330957E+04 -0.36386293985E+01 -0.34113953957E+02  0.13272848810E+04  0.46999998093E+01 0. -1.
</event>
<event>
 5   0  0.1797075E-06  0.3235345E+04  0.7818609E-02  0.8179545E-01
       -2   -1    0    0    0  501  0.00000000000E+00  0.00000000000E+00  0.11875340216E+04  0.11875340216E+04  0.25500000920E-02 0.  1.
        2   -1    0    0  501    0  0.00000000000E+00  0.00000000000E+00 -0.22036114913E+04  0.22036114913E+04  0.25500000920E-02 0. -1.
    10030    2    1    2    0    0  0.00000000000E+00  0.00000000000E+00 -0.10160774698E+04  0.33911455129E+04  0.32353445667E+04 0.  0.
        2    1    3    3  502    0  0.25941455175E+03 -0.15238249355E+04 -0.10080050064E+04  0.18453759608E+04  0.25500000920E-02 0.  1.
       -2    1    3    3    0  502 -0.25941455175E+03  0.15238249355E+04 -0.80724633726E+01  0.15457695521E+04  0.25500000920E-02 0. -1.
</event>
<event>
 5   0  0.6134625E-07  0.3382271E+04  0.7818609E-02  0.8142271E-01
        1   -1    0    0  501    0  0.00000000000E+00  0.00000000000E+00  0.17787998221E+04  0.17787998221E+04  0.50400001928E-02 0. -1.
       -1   -1    0    0    0  501  0.00000000000E+00  0.00000000000E+00 -0.16077912827E+04  0.16077912827E+04  0.50400001928E-02 0.  1.
    10030    2    1    2    0    0  0.00000000000E+00  0.00000000000E+00  0.17100853938E+03  0.33865911049E+04  0.33822707448E+04 0.  0.
        1    1    3    3  502    0 -0.58690089252E+03 -0.73809058656E+02  0.16718380707E+04  0.17733987057E+04  0.50400001928E-02 0. -1.
       -1    1    3    3    0  502  0.58690089252E+03  0.73809058656E+02 -0.15008295313E+04  0.16131923992E+04  0.50400001928E-02 0.  1.
</event>
<event>
 5   0  0.1948507E-06  0.3269938E+04  0.7818609E-02  0.8170587E-01
       -2   -1    0    0    0  501  0.00000000000E+00  0.00000000000E+00  0.10842122741E+04  0.10842122741E+04  0.25500000920E-02 0. -1.
        2   -1    0    0  501    0  0.00000000000E+00  0.00000000000E+00 -0.24654987930E+04  0.24654987930E+04  0.25500000920E-02 0.  1.
    10030    2    1    2    0    0  0.00000000000E+00  0.00000000000E+00 -0.13812865189E+04  0.35497110671E+04  0.32699382582E+04 0.  0.
        1    1    3    3  502    0  0.47597079659E+03 -0.11508547372E+04  0.45928572045E+03  0.13273877347E+04  0.50400001928E-02 0. -1.
       -1    1    3    3    0  502 -0.47597079659E+03  0.11508547372E+04 -0.18405722394E+04  0.22223233324E+04  0.50400001928E-02 0.  1.
</event>
<event>
 5   0  0.1880301E-06  0.3295306E+04  0.7818609E-02  0.8164091E-01
        2   -1    0    0  501    0  0.00000000000E+00  0.00000000000E+00  0.11031907294E+04  0.11031907294E+04  0.25500000920E-02 0. -1.
       -2   -1    0    0    0  501  0.00000000000E+00  0.00000000000E+00 -0.24608255057E+04  0.24608255057E+04  0.25500000920E-02 0.  1.
    10030    2    1    2    0    0  0.00000000000E+00  0.00000000000E+00 -0.13576347764E+04  0.35640162351E+04  0.32953056821E+04 0.  0.
        4    1    3    3  502    0  0.61298769620E+02  0.26489931309E+03  0.10787586129E+04  0.11124976149E+04  0.12699999809E+01 0. -1.
       -4    1    3    3    0  502 -0.61298769620E+02 -0.26489931309E+03 -0.24363933893E+04  0.24515186203E+04  0.12699999809E+01 0.  1.
</event>
<event>
 5   0  0.6134625E-07  0.3391608E+04  0.7818609E-02  0.8139969E-01
        1   -1    0    0  501    0  0.00000000000E+00  0.00000000000E+00  0.23204180101E+04  0.23204180101E+04  0.50400001928E-02 0.  1.
       -1   -1    0    0    0  501  0.00000000000E+00  0.00000000000E+00 -0.12393243760E+04  0.12393243760E+04  0.50400001928E-02 0. -1.
    10030    2    1    2    0    0  0.00000000000E+00  0.00000000000E+00  0.10810936341E+04  0.35597423861E+04  0.33916076438E+04 0.  0.
        3    1    3    3  502    0 -0.13535173492E+04  0.35890297455E+03 -0.46339121333E+03  0.14749752494E+04  0.10100000352E+00 0. -1.
       -3    1    3    3    0  502  0.13535173492E+04 -0.35890297455E+03  0.15444848475E+04  0.20847671366E+04  0.10100000352E+00 0.  1.
</event>
<event>
 5   0  0.1339844E-06  0.3366687E+04  0.7818609E-02  0.8146131E-01
       -2   -1    0    0    0  501  0.00000000000E+00  0.00000000000E+00  0.11745587964E+04  0.11745587964E+04  0.25500000920E-02 0.  1.
        2   -1    0    0  501    0  0.00000000000E+00  0.00000000000E+00 -0.24125190654E+04  0.24125190654E+04  0.25500000920E-02 0. -1.
    10030    2    1    2    0    0  0.00000000000E+00  0.00000000000E+00 -0.12379602690E+04  0.35870778619E+04  0.33666870896E+04 0.  0.
        3    1    3    3  502    0 -0.33668025765E+03 -0.74605022036E+02  0.11365207363E+04  0.11876863641E+04  0.10100000352E+00 0.  1.
       -3    1    3    3    0  502  0.33668025765E+03  0.74605022036E+02 -0.23744810053E+04  0.23993914978E+04  0.10100000352E+00 0. -1.
</event>
<event>
 5   0  0.1948507E-06  0.3411991E+04  0.7818609E-02  0.8134970E-01
       -2   -1    0    0    0  501  0.00000000000E+00  0.00000000000E+00  0.11449181340E+04  0.11449181340E+04  0.25500000920E-02 0.  1.
        2   -1    0    0  501    0  0.00000000000E+00  0.00000000000E+00 -0.25420343994E+04  0.25420343994E+04  0.25500000920E-02 0. -1.
    10030    2    1    2    0    0  0.00000000000E+00  0.00000000000E+00 -0.13971162653E+04  0.36869525334E+04  0.34119913723E+04 0.  0.
        1    1    3    3  502    0  0.10368877463E+04 -0.84725063964E+03  0.44372549250E+03  0.14106247402E+04  0.50400001928E-02 0.  1.
       -1    1    3    3    0  502 -0.10368877463E+04  0.84725063964E+03 -0.18408417578E+04  0.22763277932E+04  0.50400001928E-02 0. -1.
</event>
<event>
 5   0  0.6218695E-07  0.3356932E+04  0.7818609E-02  0.8148558E-01
       -1   -1    0    0    0  501  0.00000000000E+00  0.00000000000E+00  0.12245686996E+04  0.12245686996E+04  0.50400001928E-02 0. -1.
        1   -1    0    0  501    0  0.00000000000E+00  0.00000000000E+00 -0.23006045904E+04  0.23006045904E+04  0.50400001928E-02 0.  1.
    10030    2    1    2    0    0  0.00000000000E+00  0.00000000000E+00 -0.10760358908E+04  0.35251732900E+04  0.33569321539E+04 0.  0.
        2    1    3    3  502    0  0.30615892222E+03  0.14310542931E+04  0.32512417101E+03  0.14991182082E+04  0.25500000920E-02 0. -1.
       -2    1    3    3    0  502 -0.30615892222E+03 -0.14310542931E+04 -0.14011600618E+04  0.20260550818E+04  0.25500000920E-02 0.  1.
</event>
<event>
 5   0  0.6134625E-07  0.3384425E+04  0.7818609E-02  0.8141740E-01
       -1   -1    0    0    0  501  0.00000000000E+00  0.00000000000E+00  0.12363237316E+04  0.12363237316E+04  0.50400001928E-02 0.  1.
        1   -1    0    0  501    0  0.00000000000E+00  0.00000000000E+00 -0.23162079013E+04  0.23162079013E+04  0.50400001928E-02 0. -1.
    10030    2    1    2    0    0  0.00000000000E+00  0.00000000000E+00 -0.10798841697E+04  0.35525316329E+04  0.33844247934E+04 0.  0.
        3    1    3    3  502    0  0.82200504685E+03 -0.40593804427E+03  0.95306639789E+03  0.13224271480E+04  0.10100000352E+00 0.  1.
       -3    1    3    3    0  502 -0.82200504685E+03  0.40593804427E+03 -0.20329505676E+04  0.22301044848E+04  0.10100000352E+00 0. -1.
</event>
<event>
 5   0  0.6146388E-07  0.3412226E+04  0.7818609E-02  0.8134912E-01
        1   -1    0    0  501    0  0.00000000000E+00  0.00000000000E+00  0.17273174912E+04  0.17273174912E+04  0.50400001928E-02 0. -1.
       -1   -1    0    0    0  501  0.00000000000E+00  0.00000000000E+00 -0.16851690805E+04  0.16851690805E+04  0.50400001928E-02 0.  1.
    10030    2    1    2    0    0  0.00000000000E+00  0.00000000000E+00  0.42148410613E+02  0.34124865717E+04  0.34122262694E+04 0.  0.
        4    1    3    3  502    0  0.10073744396E+04 -0.13515858453E+04 -0.24206723972E+03  0.17029931650E+04  0.12699999809E+01 0.  1.
       -4    1    3    3    0  502 -0.10073744396E+04  0.13515858453E+04  0.28421565034E+03  0.17094934067E+04  0.12699999809E+01 0. -1.
</event>
<event>
 5   0  0.1339844E-06  0.3380918E+04  0.7818609E-02  0.8142606E-01
        2   -1    0    0  501    0  0.00000000000E+00  0.00000000000E+00  0.84717970000E+03  0.84717970000E+03  0.25500000920E-02 0. -1.
       -2   -1    0    0    0  501  0.00000000000E+00  0.00000000000E+00 -0.33731353528E+04  0.33731353528E+04  0.25500000920E-02 0.  1.
    10030    2    1    2    0    0  0.00000000000E+00  0.00000000000E+00 -0.25259556528E+04  0.42203150528E+04  0.33809180979E+04 0.  0.
        3    1    3    3  502    0 -0.73575691630E+03 -0.10169542063E+04  0.15045172999E+03  0.12641874192E+04  0.10100000352E+00 0. -1.
       -3    1    3    3    0  502  0.73575691630E+03  0.10169542063E+04 -0.26764073828E+04  0.29561276336E+04  0.10100000352E+00 0.  1.
</event>
<event>
 5   0  0.1339844E-06  0.3373478E+04  0.7818609E-02  0.8144447E-01
        2   -1    0    0  501    0  0.00000000000E+00  0.00000000000E+00  0.26227783445E+04  0.26227783445E+04  0.25500000920E-02 0. -1.
       -2   -1    0    0    0  501  0.00000000000E+00  0.00000000000E+00 -0.10847611094E+04  0.10847611094E+04  0.25500000920E-02 0.  1.
    10030    2    1    2    0    0  0.00000000000E+00  0.00000000000E+00  0.15380172351E+04  0.37075394539E+04  0.33734776992E+04 0.  0.
        3    1    3    3  502    0 -0.90153900772E+03 -0.20909792021E+03 -0.78081022286E+03  0.12108505841E+04  0.10100000352E+00 0.  1.
       -3    1    3    3    0  502  0.90153900772E+03  0.20909792021E+03  0.23188274580E+04  0.24966888698E+04  0.10100000352E+00 0. -1.
</event>
<event>
 5   0  0.1880301E-06  0.3425065E+04  0.7818609E-02  0.8131782E-01
        2   -1    0    0  501    0  0.00000000000E+00  0.00000000000E+00  0.19154048414E+04  0.19154048414E+04  0.25500000920E-02 0.  1.
       -2   -1    0    0    0  501  0.00000000000E+00  0.00000000000E+00 -0.15311475591E+04  0.15311475591E+04  0.25500000920E-02 0. -1.
    10030    2    1    2    0    0  0.00000000000E+00  0.00000000000E+00  0.38425728228E+03  0.34465524005E+04  0.34250649323E+04 0.  0.
        4    1    3    3  502    0 -0.86847030395E+03  0.52151304083E+03  0.15815696029E+04  0.18781854388E+04  0.12699999809E+01 0.  1.
       -4    1    3    3    0  502  0.86847030395E+03 -0.52151304083E+03 -0.11973123206E+04  0.15683669617E+04  0.12699999809E+01 0. -1.
</event>
<event>
 5   0  0.1339844E-06  0.3305743E+04  0.7818609E-02  0.8161436E-01
        2   -1    0    0  501    0  0.00000000000E+00  0.00000000000E+00  0.23569218397E+04  0.23569218397E+04  0.25500000920E-02 0.  1.
       -2   -1    0    0    0  501  0.00000000000E+00  0.00000000000E+00 -0.11591322885E+04  0.11591322885E+04  0.25500000920E-02 0. -1.
    10030    2    1    2    0    0  0.00000000000E+00  0.00000000000E+00  0.11977895513E+04  0.35160541282E+04  0.33057430063E+04 0.  0.
        3    1    3    3  502    0 -0.86189248954E+02 -0.15553912606E+04  0.11189533325E+02  0.15578176325E+04  0.10100000352E+00 0. -1.
       -3    1    3    3    0  502  0.86189248954E+02  0.15553912606E+04  0.11866000179E+04  0.19582364957E+04  0.10100000352E+00 0.  1.
</event>
<event>
 5   0  0.6134625E-07  0.3443666E+04  0.7818609E-02  0.8127272E-01
        1   -1    0    0  501    0  0.00000000000E+00  0.00000000000E+00  0.23814455417E+04  0.23814455417E+04  0.50400001928E-02 0. -1.
       -1   -1    0    0    0  501  0.00000000000E+00  0.00000000000E+00 -0.12449197066E+04  0.12449197066E+04  0.50400001928E-02 0.  1.
    10030    2    1    2    0    0  0.00000000000E+00  0.00000000000E+00  0.11365258352E+04  0.36263652483E+04  0.34436657707E+04 0.  0.
        3    1    3    3  502    0  0.93184840592E+02  0.34360755308E+03  0.23422628622E+04  0.23691654418E+04  0.10100000352E+00 0. -1.
       -3    1    3    3    0  502 -0.93184840592E+02 -0.34360755308E+03 -0.12057370270E+04  0.12571998065E+04  0.10100000352E+00 0.  1.
</event>
<event>
 5   0  0.6146388E-07  0.2482618E+04  0.7818609E-02  0.8409204E-01
        1   -1    0    0  501    0  0.00000000000E+00  0.00000000000E+00  0.13220617405E+04  0.13220617406E+04  0.50400001928E-02 0.  1.
       -1   -1    0    0    0  501  0.00000000000E+00  0.00000000000E+00 -0.11654887289E+04  0.11654887290E+04  0.50400001928E-02 0. -1.
    10030    2    1    2    0    0  0.00000000000E+00  0.00000000000E+00  0.15657301160E+03  0.24875504695E+04  0.24826180194E+04 0.  0.
        4    1    3    3  502    0  0.64674193633E+02  0.63131993429E+03  0.11472232026E+04  0.13110569401E+04  0.12699999809E+01 0.  1.
       -4    1    3    3    0  502 -0.64674193633E+02 -0.63131993429E+03 -0.99065019103E+03  0.11764935294E+04  0.12699999809E+01 0. -1.
</event>
<event>
 5   0  0.6134625E-07  0.3450932E+04  0.7818609E-02  0.8125518E-01
        1   -1    0    0  501    0  0.00000000000E+00  0.00000000000E+00  0.12527956765E+04  0.12527956766E+04  0.50400001928E-02 0.  1.
       -1   -1    0    0    0  501  0.00000000000E+00  0.00000000000E+00 -0.23764717780E+04  0.23764717780E+04  0.50400001928E-02 0. -1.
    10030    2    1    2    0    0  0.00000000000E+00  0.00000000000E+00 -0.11236761014E+04  0.36292674545E+04  0.34509323777E+04 0.  0.
        5    1    3    3  502    0  0.14011416696E+03 -0.17092800789E+04 -0.36245957371E+03  0.17529031349E+04  0.46999998093E+01 0.  1.
       -5    1    3    3    0  502 -0.14011416696E+03  0.17092800789E+04 -0.76121652774E+03  0.18763643196E+04  0.46999998093E+01 0. -1.
</event>
<event>
 5   0  0.6146388E-07  0.3411243E+04  0.7818609E-02  0.8135152E-01
       -1   -1    0    0    0  501  0.00000000000E+00  0.00000000000E+00  0.11613482695E+04  0.11613482695E+04  0.50400001928E-02 0. -1.
        1   -1    0    0  501    0  0.00000000000E+00  0.00000000000E+00 -0.25049722861E+04  0.25049722861E+04  0.50400001928E-02 0.  1.
    10030    2    1    2    0    0  0.00000000000E+00  0.00000000000E+00 -0.13436240166E+04  0.36663205556E+04  0.34112433097E+04 0.  0.
        4    1    3    3  502    0 -0.16198938652E+04 -0.53269972005E+03 -0.63278581256E+03  0.18188580549E+04  0.12699999809E+01 0. -1.
       -4    1    3    3    0  502  0.16198938652E+04  0.53269972005E+03 -0.71083820406E+03  0.18474625007E+04  0.12699999809E+01 0.  1.
</event>
<event>
 5   0  0.1339844E-06  0.3412322E+04  0.7818609E-02  0.8134889E-01
       -2   -1    0    0    0  501  0.00000000000E+00  0.00000000000E+00  0.15284528722E+04  0.15284528722E+04  0.25500000920E-02 0. -1.
        2   -1    0    0  501    0  0.00000000000E+00  0.00000000000E+00 -0.19045308432E+04  0.19045308432E+04  0.25500000920E-02 0.  1.
    10030    2    1    2    0    0  0.00000000000E+00  0.00000000000E+00 -0.37607797098E+03  0.34329837153E+04  0.34123221638E+04 0.  0.
        3    1    3    3  502    0 -0.39069405341E+03  0.57886570480E+03  0.13780685130E+04  0.15449272424E+04  0.10100000352E+00 0. -1.
       -3    1    3    3    0  502  0.39069405341E+03 -0.57886570480E+03 -0.17541464840E+04  0.18880564729E+04  0.10100000352E+00 0.  1.
</event>
<event>
 5   0  0.6134625E-07  0.3355898E+04  0.7818609E-02  0.8148816E-01
        1   -1    0    0  501    0  0.00000000000E+00  0.00000000000E+00  0.21239865986E+04  0.21239865986E+04  0.50400001928E-02 0. -1.
       -1   -1    0    0    0  501  0.00000000000E+00  0.00000000000E+00 -0.13255790568E+04  0.13255790568E+04  0.50400001928E-02 0.  1.
    10030    2    1    2    0    0  0.00000000000E+00  0.00000000000E+00  0.79840754173E+03  0.34495656554E+04  0.33558975861E+04 0.  0.
        1    1    3    3  502    0 -0.11269988747E+04  0.73361938659E+03 -0.63239555382E+03  0.14860174980E+04  0.50400001928E-02 0.  1.
       -1    1    3    3    0  502  0.11269988747E+04 -0.73361938659E+03  0.14308030955E+04  0.19635481573E+04  0.50400001928E-02 0. -1.
</event>
<event>
 5   0  0.1911477E-06  0.2567004E+04  0.7818609E-02  0.8379496E-01
        2   -1    0    0  501    0  0.00000000000E+00  0.00000000000E+00  0.14733503405E+04  0.14733503405E+04  0.25500000920E-02 0. -1.
       -2   -1    0    0    0  501  0.00000000000E+00  0.00000000000E+00 -0.11181168498E+04  0.11181168498E+04  0.25500000920E-02 0.  1.
    10030    2    1    2    0    0  0.00000000000E+00  0.00000000000E+00  0.35523349068E+03  0.25914671902E+04  0.25670043563E+04 0.  0.
        5    1    3    3  502    0  0.25442498261E+03 -0.11985346905E+04  0.56354013226E+03  0.13486352535E+04  0.46999998093E+01 0. -1.
       -5    1    3    3    0  502 -0.25442498261E+03  0.11985346905E+04 -0.20830664159E+03  0.12428319368E+04  0.46999998093E+01 0.  1.
</event>
<event>
 5   0  0.1339844E-06  0.2444003E+04  0.7818609E-02  0.8423211E-01
       -2   -1    0    0    0  501  0.00000000000E+00  0.00000000000E+00  0.82216417439E+03  0.82216417440E+03  0.25500000920E-02 0. -1.
        2   -1    0    0  501    0  0.00000000000E+00  0.00000000000E+00 -0.18162888935E+04  0.18162888935E+04  0.25500000920E-02 0.  1.
    10030    2    1    2    0    0  0.00000000000E+00  0.00000000000E+00 -0.99412471912E+03  0.26384530679E+04  0.24440029939E+04 0.  0.
        3    1    3    3  502    0  0.10051239031E+04 -0.47120643726E+02  0.25149797917E+03  0.10371815942E+04  0.10100000352E+00 0.  1.
       -3    1    3    3    0  502 -0.10051239031E+04  0.47120643726E+02 -0.12456226983E+04  0.16012714737E+04  0.10100000352E+00 0. -1.
</event>
<event>
 5   0  0.6134625E-07  0.3263736E+04  0.7818609E-02  0.8172185E-01
       -1   -1    0    0    0  501  0.00000000000E+00  0.00000000000E+00  0.92109427200E+03  0.92109427201E+03  0.50400001928E-02 0.  1.
        1   -1    0    0  501    0  0.00000000000E+00  0.00000000000E+00 -0.28911191060E+04  0.28911191060E+04  0.50400001928E-02 0. -1.
    10030    2    1    2    0    0  0.00000000000E+00  0.00000000000E+00 -0.19700248340E+04  0.38122133780E+04  0.32637360483E+04 0.  0.
        3    1    3    3  502    0  0.32606203546E+01 -0.36721103622E+03 -0.28422292779E+04  0.28658544721E+04  0.10100000352E+00 0. -1.
       -3    1    3    3    0  502 -0.32606203546E+01  0.36721103622E+03  0.87220444388E+03  0.94635890596E+03  0.10100000352E+00 0.  1.
</event>
<event>
 5   0  0.1880301E-06  0.3382366E+04  0.7818609E-02  0.8142248E-01
       -2   -1    0    0    0  501  0.00000000000E+00  0.00000000000E+00  0.11507216778E+04  0.11507216778E+04  0.25500000920E-02 0.  1.
        2   -1    0    0  501    0  0.00000000000E+00  0.00000000000E+00 -0.24854839114E+04  0.24854839114E+04  0.25500000920E-02 0. -1.
    10030    2    1    2    0    0  0.00000000000E+00  0.00000000000E+00 -0.13347622336E+04  0.36362055892E+04  0.33823661639E+04 0.  0.
        4    1    3    3  502    0  0.33166265713E+02 -0.14014052287E+04 -0.16844593635E+04  0.21914473702E+04  0.12699999809E+01 0. -1.
       -4    1    3    3    0  502 -0.33166265713E+02  0.14014052287E+04  0.34969712985E+03  0.14447582191E+04  0.12699999809E+01 0.  1.
</event>
<event>
 5   0  0.1911477E-06  0.3089471E+04  0.7818609E-02  0.8218633E-01
        2   -1    0    0  501    0  0.00000000000E+00  0.00000000000E+00  0.12059053914E+04  0.12059053914E+04  0.25500000920E-02 0.  1.
       -2   -1    0    0    0  501  0.00000000000E+00  0.00000000000E+00 -0.19787688870E+04  0.19787688870E+04  0.25500000920E-02 0. -1.
    10030    2    1    2    0    0  0.00000000000E+00  0.00000000000E+00 -0.77286349555E+03  0.31846742785E+04  0.30894711970E+04 0.  0.
        5    1    3    3  502    0 -0.91676402990E+02  0.14504749502E+04  0.15305393829E+03  0.14614136109E+04  0.46999998093E+01 0.  1.
       -5    1    3    3    0  502  0.91676402990E+02 -0.14504749502E+04 -0.92591743384E+03  0.17232606676E+04  0.46999998093E+01 0. -1.
</event>
<event>
 5   0  0.6218695E-07  0.3390670E+04  0.7818609E-02  0.8140200E-01
       -1   -1    0    0    0  501  0.00000000000E+00  0.00000000000E+00  0.19723249089E+04  0.19723249089E+04  0.50400001928E-02 0. -1.
        1   -1    0    0  501    0  0.00000000000E+00  0.00000000000E+00 -0.14572454470E+04  0.14572454470E+04  0.50400001928E-02 0.  1.
    10030    2    1    2    0    0  0.00000000000E+00  0.00000000000E+00  0.51507946193E+03  0.34295703560E+04  0.33906704314E+04 0.  0.
        2    1    3    3  502    0 -0.10942675531E+04 -0.93742803263E+03  0.11610790696E+04  0.18504857201E+04  0.25500000920E-02 0. -1.
       -2    1    3    3    0  502  0.10942675531E+04  0.93742803263E+03 -0.64599960770E+03  0.15790846359E+04  0.25500000920E-02 0.  1.
</event>
<event>
 5   0  0.6146388E-07  0.2608102E+04  0.7818609E-02  0.8365454E-01
       -1   -1    0    0    0  501  0.00000000000E+00  0.00000000000E+00  0.23396141855E+04  0.23396141855E+04  0.50400001928E-02 0.  1.
        1   -1    0    0  501    0  0.00000000000E+00  0.00000000000E+00 -0.72685042869E+03  0.72685042870E+03  0.50400001928E-02 0. -1.
    10030    2    1    2    0    0  0.00000000000E+00  0.00000000000E+00  0.16127637568E+04  0.30664646142E+04  0.26081024318E+04 0.  0.
        4    1    3    3  502    0  0.37980187860E+03  0.10838604672E+04  0.15326319466E+04  0.19151932738E+04  0.12699999809E+01 0.  1.
       -4    1    3    3    0  502 -0.37980187860E+03 -0.10838604672E+04  0.80131810166E+02  0.11512713404E+04  0.12699999809E+01 0. -1.
</event>
<event>
 5   0  0.6134625E-07  0.3402206E+04  0.7818609E-02  0.8137365E-01
        1   -1    0    0  501    0  0.00000000000E+00  0.00000000000E+00  0.16106191531E+04  0.16106191531E+04  0.50400001928E-02 0. -1.
       -1   -1    0    0    0  501  0.00000000000E+00  0.00000000000E+00 -0.17966701692E+04  0.17966701692E+04  0.50400001928E-02 0.  1.
    10030    2    1    2    0    0  0.00000000000E+00  0.00000000000E+00 -0.18605101608E+03  0.34072893222E+04  0.34022059821E+04 0.  0.
        1    1    3    3  502    0 -0.51981652097E+02 -0.98490642252E+03  0.12950499211E+04  0.16278504389E+04  0.50400001928E-02 0. -1.
       -1    1    3    3    0  502  0.51981652097E+02  0.98490642252E+03 -0.14811009372E+04  0.17794388833E+04  0.50400001928E-02 0.  1.
</event>
<event>
 5   0  0.6134625E-07  0.3418782E+04  0.7818609E-02  0.8133312E-01
       -1   -1    0    0    0  501  0.00000000000E+00  0.00000000000E+00  0.20580665566E+04  0.20580665566E+04  0.50400001928E-02 0.  1.
        1   -1    0    0  501    0  0.00000000000E+00  0.00000000000E+00 -0.14197881000E+04  0.14197881001E+04  0.50400001928E-02 0. -1.
    10030    2    1    2    0    0  0.00000000000E+00  0.00000000000E+00  0.63827845658E+03  0.34778546567E+04  0.34187824770E+04 0.  0.
        3    1    3    3  502    0 -0.58798140883E+03 -0.14435128911E+04  0.10330969971E+04  0.18699574914E+04  0.10100000352E+00 0.  1.
       -3    1    3    3    0  502  0.58798140883E+03  0.14435128911E+04 -0.39481854051E+03  0.16078971653E+04  0.10100000352E+00 0. -1.
</event>
<event>
 5   0  0.1948507E-06  0.3512745E+04  0.7818609E-02  0.8110776E-01
       -2   -1    0    0    0  501  0.00000000000E+00  0.00000000000E+00  0.13839426973E+04  0.13839426973E+04  0.25500000920E-02 0. -1.
        2   -1    0    0  501    0  0.00000000000E+00  0.00000000000E+00 -0.22290265581E+04  0.22290265581E+04  0.25500000920E-02 0.  1.
    10030    2    1    2    0    0  0.00000000000E+00  0.00000000000E+00 -0.84508386084E+03  0.36129692554E+04  0.35127453806E+04 0.  0.
        1    1    3    3  502    0  0.14590032894E+04  0.75482661302E+03  0.21679709589E+03  0.16569413976E+04  0.50400001928E-02 0. -1.
       -1    1    3    3    0  502 -0.14590032894E+04 -0.75482661302E+03 -0.10618809567E+04  0.19560278578E+04  0.50400001928E-02 0.  1.
</event>
<event>
 5   0  0.6146388E-07  0.3399083E+04  0.7818609E-02  0.8138131E-01
        1   -1    0    0  501    0  0.00000000000E+00  0.00000000000E+00  0.24055357371E+04  0.24055357371E+04  0.50400001928E-02 0. -1.
       -1   -1    0    0    0  501  0.00000000000E+00  0.00000000000E+00 -0.12007473791E+04  0.12007473791E+04  0.50400001928E-02 0.  1.
    10030    2    1    2    0    0  0.00000000000E+00  0.00000000000E+00  0.12047883581E+04  0.36062831162E+04  0.33990826596E+04 0.  0.
        4    1    3    3  502    0  0.15556579399E+03  0.14886297210E+04 -0.25180527845E+03  0.15177702967E+04  0.12699999809E+01 0.  1.
       -4    1    3    3    0  502 -0.15556579399E+03 -0.14886297210E+04  0.14565936365E+04  0.20885128195E+04  0.12699999809E+01 0. -1.
</event>
<event>
 5   0  0.1948507E-06  0.3388048E+04  0.7818609E-02  0.8140846E-01
       -2   -1    0    0    0  501  0.00000000000E+00  0.00000000000E+00  0.22508380130E+04  0.22508380130E+04  0.25500000920E-02 0. -1.
        2   -1    0    0  501    0  0.00000000000E+00  0.00000000000E+00 -0.12749547194E+04  0.12749547194E+04  0.25500000920E-02 0.  1.
    10030    2    1    2    0    0  0.00000000000E+00  0.00000000000E+00  0.97588329362E+03  0.35257927323E+04  0.33880475482E+04 0.  0.
        1    1    3    3  502    0 -0.12446729329E+04 -0.11469861957E+04  0.56099915282E+03  0.17831175207E+04  0.50400001928E-02 0. -1.
       -1    1    3    3    0  502  0.12446729329E+04  0.11469861957E+04  0.41488414081E+03  0.17426752117E+04  0.50400001928E-02 0.  1.
</event>
<event>
 5   0  0.6134625E-07  0.2708000E+04  0.7818609E-02  0.8332414E-01
       -1   -1    0    0    0  501  0.00000000000E+00  0.00000000000E+00  0.15487634950E+04  0.15487634950E+04  0.50400001928E-02 0. -1.
        1   -1    0    0  501    0  0.00000000000E+00  0.00000000000E+00 -0.11837291913E+04  0.11837291914E+04  0.50400001928E-02 0.  1.
    10030    2    1    2    0    0  0.00000000000E+00  0.00000000000E+00  0.36503430369E+03  0.27324926864E+04  0.27080004133E+04 0.  0.
        3    1    3    3  502    0  0.68963538882E+03  0.27971854245E+03 -0.95885308514E+03  0.12137704402E+04  0.10100000352E+00 0.  1.
       -3    1    3    3    0  502 -0.68963538882E+03 -0.27971854245E+03  0.13238873888E+04  0.15187222462E+04  0.10100000352E+00 0. -1.
</event>
<event>
 5   0  0.1911477E-06  0.3279880E+04  0.7818609E-02  0.8168034E-01
        2   -1    0    0  501    0  0.00000000000E+00  0.00000000000E+00  0.22296142303E+04  0.22296142303E+04  0.25500000920E-02 0.  1.
       -2   -1    0    0    0  501  0.00000000000E+00  0.00000000000E+00 -0.12062192061E+04  0.12062192061E+04  0.25500000920E-02 0. -1.
    10030    2    1    2    0    0  0.00000000000E+00  0.00000000000E+00  0.10233950242E+04  0.34358334364E+04  0.32798801849E+04 0.  0.
        5    1    3    3  502    0 -0.71809318230E+03 -0.87866150080E+03 -0.72852092655E+03  0.13485060926E+04  0.46999998093E+01 0. -1.
       -5    1    3    3    0  502  0.71809318230E+03  0.87866150080E+03  0.17519159508E+04  0.20873273438E+04  0.46999998093E+01 0.  1.
</event>
<event>
 5   0  0.6134625E-07  0.2781025E+04  0.7818609E-02  0.8309184E-01
        1   -1    0    0  501    0  0.00000000000E+00  0.00000000000E+00  0.14154129979E+04  0.14154129979E+04  0.50400001928E-02 0.  1.
       -1   -1    0    0    0  501  0.00000000000E+00  0.00000000000E+00 -0.13660499302E+04  0.13660499302E+04  0.50400001928E-02 0. -1.
    10030    2    1    2    0    0  0.00000000000E+00  0.00000000000E+00  0.49363067701E+02  0.27814629281E+04  0.27810248665E+04 0.  0.
        5    1    3    3  502    0 -0.31983795045E+03  0.38611934949E+02 -0.13282013187E+04  0.13667216356E+04  0.46999998093E+01 0. -1.
       -5    1    3    3    0  502  0.31983795045E+03 -0.38611934949E+02  0.13775643864E+04  0.14147412925E+04  0.46999998093E+01 0.  1.
</event>
<event>
 5   0  0.1339844E-06  0.3386449E+04  0.7818609E-02  0.8141240E-01
        2   -1    0    0  501    0  0.00000000000E+00  0.00000000000E+00  0.17398841889E+04  0.17398841889E+04  0.25500000920E-02 0. -1.
       -2   -1    0    0    0  501  0.00000000000E+00  0.00000000000E+00 -0.16478157027E+04  0.16478157027E+04  0.25500000920E-02 0.  1.
    10030    2    1    2    0    0  0.00000000000E+00  0.00000000000E+00  0.92068486227E+02  0.33876998916E+04  0.33864485748E+04 0.  0.
        3    1    3    3  502    0 -0.44384431614E+03  0.11824850308E+04  0.11741653789E+04  0.17245094875E+04  0.10100000352E+00 0. -1.
       -3    1    3    3    0  502  0.44384431614E+03 -0.11824850308E+04 -0.10820968927E+04  0.16631904042E+04  0.10100000352E+00 0.  1.
</event>
<event>
 5   0  0.1339844E-06  0.3440038E+04  0.7818609E-02  0.8128149E-01
        2   -1    0    0  501    0  0.00000000000E+00  0.00000000000E+00  0.22391607601E+04  0.22391607601E+04  0.25500000920E-02 0. -1.
       -2   -1    0    0    0  501  0.00000000000E+00  0.00000000000E+00 -0.13212385791E+04  0.13212385791E+04  0.25500000920E-02 0.  1.
    10030    2    1    2    0    0  0.00000000000E+00  0.00000000000E+00  0.91792218100E+03  0.35603993392E+04  0.34400381283E+04 0.  0.
        3    1    3    3  502    0  0.15170406273E+04 -0.63491696050E+01  0.12978847353E+04  0.19964862567E+04  0.10100000352E+00 0. -1.
       -3    1    3    3    0  502 -0.15170406273E+04  0.63491696050E+01 -0.37996255429E+03  0.15639130825E+04  0.10100000352E+00 0.  1.
</event>
<event>
 5   0  0.1911477E-06  0.3470608E+04  0.7818609E-02  0.8120791E-01
        2   -1    0    0  501    0  0.00000000000E+00  0.00000000000E+00  0.17891348706E+04  0.17891348706E+04  0.25500000920E-02 0.  1.
       -2   -1    0    0    0  501  0.00000000000E+00  0.00000000000E+00 -0.16830923718E+04  0.16830923718E+04  0.25500000920E-02 0. -1.
    10030    2    1    2    0    0  0.00000000000E+00  0.00000000000E+00  0.10604249884E+03  0.34722272425E+04  0.34706075854E+04 0.  0.
        5    1    3    3  502    0  0.45316936659E+03  0.82054546997E+03  0.15140451233E+04  0.17807335760E+04  0.46999998093E+01 0.  1.
       -5    1    3    3    0  502 -0.45316936659E+03 -0.82054546997E+03 -0.14080026245E+04  0.16914936665E+04  0.46999998093E+01 0. -1.
</event>
<event>
 5   0  0.6218695E-07  0.3405372E+04  0.7818609E-02  0.8136589E-01
        1   -1    0    0  501    0  0.00000000000E+00  0.00000000000E+00  0.10122314285E+04  0.10122314285E+04  0.50400001928E-02 0.  1.
       -1   -1    0    0    0  501  0.00000000000E+00  0.00000000000E+00 -0.28641074914E+04  0.28641074914E+04  0.50400001928E-02 0. -1.
    10030    2    1    2    0    0  0.00000000000E+00  0.00000000000E+00 -0.18518760629E+04  0.38763389199E+04  0.34053720016E+04 0.  0.
        2    1    3    3  502    0 -0.44305997222E+03 -0.74051959143E+02 -0.27954409043E+04  0.28313028240E+04  0.25500000920E-02 0. -1.
       -2    1    3    3    0  502  0.44305997222E+03  0.74051959143E+02  0.94356484143E+03  0.10450360959E+04  0.25500000920E-02 0.  1.
</event>
<event>
 5   0  0.1797075E-06  0.3409147E+04  0.7818609E-02  0.8135665E-01
        2   -1    0    0  501    0  0.00000000000E+00  0.00000000000E+00  0.27038818842E+04  0.27038818842E+04  0.25500000920E-02 0.  1.
       -2   -1    0    0    0  501  0.00000000000E+00  0.00000000000E+00 -0.10745925194E+04  0.10745925194E+04  0.25500000920E-02 0. -1.
    10030    2    1    2    0    0  0.00000000000E+00  0.00000000000E+00  0.16292893648E+04  0.37784744036E+04  0.34091472518E+04 0.  0.
        2    1    3    3  502    0 -0.12842920960E+04 -0.12010558295E+02 -0.42749129499E+03  0.13536244858E+04  0.25500000920E-02 0. -1.
       -2    1    3    3    0  502  0.12842920960E+04  0.12010558295E+02  0.20567806598E+04  0.24248499178E+04  0.25500000920E-02 0.  1.
</event>
<event>
 5   0  0.1339844E-06  0.3165030E+04  0.7818609E-02  0.8198114E-01
        2   -1    0    0  501    0  0.00000000000E+00  0.00000000000E+00  0.12964116517E+04  0.12964116517E+04  0.25500000920E-02 0.  1.
       -2   -1    0    0    0  501  0.00000000000E+00  0.00000000000E+00 -0.19317581202E+04  0.19317581202E+04  0.25500000920E-02 0. -1.
    10030    2    1    2    0    0  0.00000000000E+00  0.00000000000E+00 -0.63534646846E+03  0.32281697720E+04  0.31650300064E+04 0.  0.
        3    1    3    3  502    0  0.12199818760E+04  0.85326457019E+03 -0.86497602828E+03  0.17218013080E+04  0.10100000352E+00 0. -1.
       -3    1    3    3    0  502 -0.12199818760E+04 -0.85326457019E+03  0.22962955981E+03  0.15063684640E+04  0.10100000352E+00 0.  1.
</event>
<event>
 5   0  0.6134625E-07  0.3371338E+04  0.7818609E-02  0.8144977E-01
        1   -1    0    0  501    0  0.00000000000E+00  0.00000000000E+00  0.21517118910E+04  0.21517118910E+04  0.50400001928E-02 0.  1.
       -1   -1    0    0    0  501  0.00000000000E+00  0.00000000000E+00 -0.13205670602E+04  0.13205670602E+04  0.50400001928E-02 0. -1.
    10030    2    1    2    0    0  0.00000000000E+00  0.00000000000E+00  0.83114483080E+03  0.34722789512E+04  0.33713379221E+04 0.  0.
        1    1    3    3  502    0 -0.18690447287E+03  0.16732545826E+04  0.33085599367E+03  0.17158612615E+04  0.50400001928E-02 0.  1.
       -1    1    3    3    0  502  0.18690447287E+03 -0.16732545826E+04  0.50028883714E+03  0.17564176897E+04  0.50400001928E-02 0. -1.
</event>
<event>
 5   0  0.1339844E-06  0.3444512E+04  0.7818609E-02  0.8127067E-01
       -2   -1    0    0    0  501  0.00000000000E+00  0.00000000000E+00  0.16766548236E+04  0.16766548236E+04  0.25500000920E-02 0.  1.
        2   -1    0    0  501    0  0.00000000000E+00  0.00000000000E+00 -0.17690972721E+04  0.17690972721E+04  0.25500000920E-02 0. -1.
    10030    2    1    2    0    0  0.00000000000E+00  0.00000000000E+00 -0.92442448490E+02  0.34457520956E+04  0.34445118519E+04 0.  0.
        3    1    3    3  502    0  0.14023826694E+04  0.60025156446E+03  0.75355796444E+03  0.17014196155E+04  0.10100000352E+00 0.  1.
       -3    1    3    3    0  502 -0.14023826694E+04 -0.60025156446E+03 -0.84600041293E+03  0.17443324801E+04  0.10100000352E+00 0. -1.
</event>
<event>
 5   0  0.6146388E-07  0.3310610E+04  0.7818609E-02  0.8160201E-01
       -1   -1    0    0    0  501  0.00000000000E+00  0.00000000000E+00  0.14928488770E+04  0.14928488770E+04  0.50400001928E-02 0.  1.
        1   -1    0    0  501    0  0.00000000000E+00  0.00000000000E+00 -0.18354400651E+04  0.18354400651E+04  0.50400001928E-02 0. -1.
    10030    2    1    2    0    0  0.00000000000E+00  0.00000000000E+00 -0.34259118810E+03  0.33282889420E+04  0.33106099981E+04 0.  0.
        4    1    3    3  502    0 -0.11612834421E+04 -0.12685135842E+03  0.10077255497E+04  0.15427841380E+04  0.12699999809E+01 0.  1.
       -4    1    3    3    0  502  0.11612834421E+04  0.12685135842E+03 -0.13503167378E+04  0.17855048041E+04  0.12699999809E+01 0. -1.
</event>
<event>
 5   0  0.1339844E-06  0.3380768E+04  0.7818609E-02  0.8142643E-01
        2   -1    0    0  501    0  0.00000000000E+00  0.00000000000E+00  0.21067264654E+04  0.21067264654E+04  0.25500000920E-02 0. -1.
       -2   -1    0    0    0  501  0.00000000000E+00  0.00000000000E+00 -0.13563215099E+04  0.13563215099E+04  0.25500000920E-02 0.  1.
    10030    2    1    2    0    0  0.00000000000E+00  0.00000000000E+00  0.75040495541E+03  0.34630479753E+04  0.33807682089E+04 0.  0.
        3    1    3    3  502    0 -0.64313996410E+03  0.42211378234E+02 -0.12255155611E+04  0.13846657411E+04  0.10100000352E+00 0.  1.
       -3    1    3    3    0  502  0.64313996410E+03 -0.42211378234E+02  0.19759205165E+04  0.20783822342E+04  0.10100000352E+00 0. -1.
</event>
<event>
 5   0  0.6134625E-07  0.3353382E+04  0.7818609E-02  0.8149444E-01
       -1   -1    0    0    0  501  0.00000000000E+00  0.00000000000E+00  0.14426986412E+04  0.14426986412E+04  0.50400001928E-02 0.  1.
        1   -1    0    0  501    0  0.00000000000E+00  0.00000000000E+00 -0.19486350130E+04  0.19486350130E+04  0.50400001928E-02 0. -1.
    10030    2    1    2    0    0  0.00000000000E+00  0.00000000000E+00 -0.50593637179E+03  0.33913336542E+04  0.33533822242E+04 0.  0.
        1    1    3    3  502    0  0.82207756397E+03  0.72149536739E+03  0.10322112712E+04  0.15039372310E+04  0.50400001928E-02 0.  1.
       -1    1    3    3    0  502 -0.82207756397E+03 -0.72149536739E+03 -0.15381476430E+04  0.18873964231E+04  0.50400001928E-02 0. -1.
</event>
<event>
 5   0  0.1797075E-06  0.3469235E+04  0.7818609E-02  0.8121120E-01
        2   -1    0    0  501    0  0.00000000000E+00  0.00000000000E+00  0.20762243288E+04  0.20762243288E+04  0.25500000920E-02 0. -1.
       -2   -1    0    0    0  501  0.00000000000E+00  0.00000000000E+00 -0.14492159537E+04  0.14492159537E+04  0.25500000920E-02 0.  1.
    10030    2    1    2    0    0  0.00000000000E+00  0.00000000000E+00  0.62700837509E+03  0.35254402826E+04  0.34692347403E+04 0.  0.
        2    1    3    3  502    0  0.14549641292E+03 -0.16953912820E+04  0.65567378615E+03  0.18235758605E+04  0.25500000920E-02 0. -1.
       -2    1    3    3    0  502 -0.14549641292E+03  0.16953912820E+04 -0.28665411058E+02  0.17018644221E+04  0.25500000920E-02 0.  1.
</event>
<event>
 5   0  0.6134625E-07  0.2524111E+04  0.7818609E-02  0.8394446E-01
       -1   -1    0    0    0  501  0.00000000000E+00  0.00000000000E+00  0.17338712791E+04  0.17338712791E+04  0.50400001928E-02 0. -1.
        1   -1    0    0  501    0  0.00000000000E+00  0.00000000000E+00 -0.91862851274E+03  0.91862851276E+03  0.50400001928E-02 0.  1.
    10030    2    1    2    0    0  0.00000000000E+00  0.00000000000E+00  0.81524276632E+03  0.26524997918E+04  0.25241106112E+04 0.  0.
        5    1    3    3  502    0  0.10429266397E+04  0.23345520216E+03  0.11130049134E+04  0.15430487143E+04  0.46999998093E+01 0. -1.
       -5    1    3    3    0  502 -0.10429266397E+04 -0.23345520216E+03 -0.29776214711E+03  0.11094510776E+04  0.46999998093E+01 0.  1.
</event>
<event>
 5   0  0.6218695E-07  0.3395220E+04  0.7818609E-02  0.8139080E-01
       -1   -1    0    0    0  501  0.00000000000E+00  0.00000000000E+00  0.14370902395E+04  0.14370902395E+04  0.50400001928E-02 0.  1.
        1   -1    0    0  501    0  0.00000000000E+00  0.00000000000E+00 -0.20053576557E+04  0.20053576557E+04  0.50400001928E-02 0. -1.
    10030    2    1    2    0    0  0.00000000000E+00  0.00000000000E+00 -0.56826741613E+03  0.34424478952E+04  0.33952201188E+04 0.  0.
        2    1    3    3  502    0 -0.35923463869E+03  0.16445552301E+04 -0.61376756646E+02  0.16844519990E+04  0.25500000920E-02 0. -1.
       -2    1    3    3    0  502  0.35923463869E+03 -0.16445552301E+04 -0.50689065949E+03  0.17579958962E+04  0.25500000920E-02 0.  1.
</event>
<event>
 5   0  0.6134625E-07  0.3395794E+04  0.7818609E-02  0.8138939E-01
        1   -1    0    0  501    0  0.00000000000E+00  0.00000000000E+00  0.12298958807E+04  0.12298958807E+04  0.50400001928E-02 0.  1.
       -1   -1    0    0    0  501  0.00000000000E+00  0.00000000000E+00 -0.23439822834E+04  0.23439822835E+04  0.50400001928E-02 0. -1.
    10030    2    1    2    0    0  0.00000000000E+00  0.00000000000E+00 -0.11140864027E+04  0.35738781642E+04  0.33957939601E+04 0.  0.
        5    1    3    3  502    0 -0.12979228363E+04 -0.10436689887E+04 -0.90448224725E+03  0.18952463883E+04  0.46999998093E+01 0.  1.
       -5    1    3    3    0  502  0.12979228363E+04  0.10436689887E+04 -0.20960415548E+03  0.16786317758E+04  0.46999998093E+01 0. -1.
</event>
<event>
 5   0  0.1339844E-06  0.3411659E+04  0.7818609E-02  0.8135051E-01
        2   -1    0    0  501    0  0.00000000000E+00  0.00000000000E+00  0.25447505193E+04  0.25447505193E+04  0.25500000920E-02 0.  1.
       -2   -1    0    0    0  501  0.00000000000E+00  0.00000000000E+00 -0.11434731675E+04  0.11434731675E+04  0.25500000920E-02 0. -1.
    10030    2    1    2    0    0  0.00000000000E+00  0.00000000000E+00  0.14012773517E+04  0.36882236868E+04  0.34116587970E+04 0.  0.
        3    1    3    3  502    0  0.12735926708E+04 -0.11286862047E+04  0.82801675075E+03  0.18925069589E+04  0.10100000352E+00 0. -1.
       -3    1    3    3    0  502 -0.12735926708E+04  0.11286862047E+04  0.57326060096E+03  0.17957167279E+04  0.10100000352E+00 0.  1.
</event>
<event>
 5   0  0.6134625E-07  0.3407019E+04  0.7818609E-02  0.8136186E-01
       -1   -1    0    0    0  501  0.00000000000E+00  0.00000000000E+00  0.16286338453E+04  0.16286338453E+04  0.50400001928E-02 0.  1.
        1   -1    0    0  501    0  0.00000000000E+00  0.00000000000E+00 -0.17818270378E+04  0.17818270378E+04  0.50400001928E-02 0. -1.
    10030    2    1    2    0    0  0.00000000000E+00  0.00000000000E+00 -0.15319319249E+03  0.34104608832E+04  0.34070185326E+04 0.  0.
        5    1    3    3  502    0  0.72971301998E+03  0.15219244091E+03 -0.16099007783E+04  0.17741043477E+04  0.46999998093E+01 0.  1.
       -5    1    3    3    0  502 -0.72971301998E+03 -0.15219244091E+03  0.14567075858E+04  0.16363565355E+04  0.46999998093E+01 0. -1.
</event>
<event>
 5   0  0.1948507E-06  0.3207062E+04  0.7818609E-02  0.8186955E-01
       -2   -1    0    0    0  501  0.00000000000E+00  0.00000000000E+00  0.31876267832E+04  0.31876267832E+04  0.25500000920E-02 0.  1.
        2   -1    0    0  501    0  0.00000000000E+00  0.00000000000E+00 -0.80665384670E+03  0.80665384670E+03  0.25500000920E-02 0. -1.
    10030    2    1    2    0    0  0.00000000000E+00  0.00000000000E+00  0.23809729365E+04  0.39942806299E+04  0.32070618370E+04 0.  0.
        1    1    3    3  502    0 -0.83706023415E+03  0.13653467449E+04  0.10903071859E+04  0.19374238899E+04  0.50400001928E-02 0.  1.
       -1    1    3    3    0  502  0.83706023415E+03 -0.13653467449E+04  0.12906657506E+04  0.20568567401E+04  0.50400001928E-02 0. -1.
</event>
<event>
 5   0  0.1339844E-06  0.3374880E+04  0.7818609E-02  0.8144099E-01
        2   -1    0    0  501    0  0.00000000000E+00  0.00000000000E+00  0.20976374753E+04  0.20976374753E+04  0.25500000920E-02 0. -1.
       -2   -1    0    0    0  501  0.00000000000E+00  0.00000000000E+00 -0.13574576398E+04  0.13574576398E+04  0.25500000920E-02 0.  1.
    10030    2    1    2    0    0  0.00000000000E+00  0.00000000000E+00  0.74017983548E+03  0.34550951151E+04  0.33748801557E+04 0.  0.
        3    1    3    3  502    0 -0.15698093074E+04  0.46358186516E+03  0.79001538851E+03  0.18175075602E+04  0.10100000352E+00 0.  1.
       -3    1    3    3    0  502  0.15698093074E+04 -0.46358186516E+03 -0.49835553026E+02  0.16375875548E+04  0.10100000352E+00 0. -1.
</event>
<event>
 5   0  0.1339844E-06  0.3406093E+04  0.7818609E-02  0.8136412E-01
        2   -1    0    0  501    0  0.00000000000E+00  0.00000000000E+00  0.14685850322E+04  0.14685850322E+04  0.25500000920E-02 0.  1.
       -2   -1    0    0    0  501  0.00000000000E+00  0.00000000000E+00 -0.19749406066E+04  0.19749406066E+04  0.25500000920E-02 0. -1.
    10030    2    1    2    0    0  0.00000000000E+00  0.00000000000E+00 -0.50635557434E+03  0.34435256388E+04  0.34060934892E+04 0.  0.
        3    1    3    3  502    0 -0.23754860621E+03  0.11185684056E+04 -0.15290867526E+04  0.19093797228E+04  0.10100000352E+00 0. -1.
       -3    1    3    3    0  502  0.23754860621E+03 -0.11185684056E+04  0.10227311783E+04  0.15341459160E+04  0.10100000352E+00 0.  1.
</event>
<event>
 5   0  0.6134625E-07  0.2933145E+04  0.7818609E-02  0.8263084E-01
        1   -1    0    0  501    0  0.00000000000E+00  0.00000000000E+00  0.23698805304E+04  0.23698805304E+04  0.50400001928E-02 0.  1.
       -1   -1    0    0    0  501  0.00000000000E+00  0.00000000000E+00 -0.90757100106E+03  0.90757100108E+03  0.50400001928E-02 0. -1.
    10030    2    1    2    0    0  0.00000000000E+00  0.00000000000E+00  0.14623095293E+04  0.32774515315E+04  0.29331449643E+04 0.  0.
        3    1    3    3  502    0 -0.38619311365E+03  0.11280769841E+04 -0.22297147412E+03  0.12130206477E+04  0.10100000352E+00 0. -1.
       -3    1    3    3    0  502  0.38619311365E+03 -0.11280769841E+04  0.16852810035E+04  0.20644308838E+04  0.10100000352E+00 0.  1.
</event>
<event>
 5   0  0.6134625E-07  0.3287379E+04  0.7818609E-02  0.8166114E-01
        1   -1    0    0  501    0  0.00000000000E+00  0.00000000000E+00  0.22447479818E+04  0.22447479818E+04  0.50400001928E-02 0.  1.
       -1   -1    0    0    0  501  0.00000000000E+00  0.00000000000E+00 -0.12035717317E+04  0.12035717317E+04  0.50400001928E-02 0. -1.
    10030    2    1    2    0    0  0.00000000000E+00  0.00000000000E+00  0.10411762501E+04  0.34483197136E+04  0.32873790264E+04 0.  0.
        5    1    3    3  502    0 -0.26873670767E+03  0.12743128602E+04  0.15724784795E+04  0.20417647617E+04  0.46999998093E+01 0.  1.
       -5    1    3    3    0  502  0.26873670767E+03 -0.12743128602E+04 -0.53130222936E+03  0.14065549519E+04  0.46999998093E+01 0. -1.
</event>
<event>
 5   0  0.1339844E-06  0.3268269E+04  0.7818609E-02  0.8171017E-01
        2   -1    0    0  501    0  0.00000000000E+00  0.00000000000E+00  0.23173572346E+04  0.23173572346E+04  0.25500000920E-02 0.  1.
       -2   -1    0    0    0  501  0.00000000000E+00  0.00000000000E+00 -0.11523452554E+04  0.11523452554E+04  0.25500000920E-02 0. -1.
    10030    2    1    2    0    0  0.00000000000E+00  0.00000000000E+00  0.11650119792E+04  0.34697024901E+04  0.32682690308E+04 0.  0.
        3    1    3    3  502    0  0.14761200329E+03 -0.11709486383E+04  0.17824264080E+04  0.21377450567E+04  0.10100000352E+00 0.  1.
       -3    1    3    3    0  502 -0.14761200329E+03  0.11709486383E+04 -0.61741442882E+03  0.13319574334E+04  0.10100000352E+00 0. -1.
</event>
<event>
 5   0  0.6218695E-07  0.3387399E+04  0.7818609E-02  0.8141006E-01
        1   -1    0    0  501    0  0.00000000000E+00  0.00000000000E+00  0.29307999749E+04  0.29307999749E+04  0.50400001928E-02 0.  1.
       -1   -1    0    0    0  501  0.00000000000E+00  0.00000000000E+00 -0.97878301026E+03  0.97878301027E+03  0.50400001928E-02 0. -1.
    10030    2    1    2    0    0  0.00000000000E+00  0.00000000000E+00  0.19520169647E+04  0.39095829852E+04  0.33873985428E+04 0.  0.
        2    1    3    3  502    0 -0.16863673726E+03 -0.15921092965E+04  0.16137946438E+04  0.22732319533E+04  0.25500000920E-02 0.  1.
       -2    1    3    3    0  502  0.16863673726E+03  0.15921092965E+04  0.33822232084E+03  0.16363510319E+04  0.25500000920E-02 0. -1.
</event>
<event>
 5   0  0.1948507E-06  0.3398754E+04  0.7818609E-02  0.8138212E-01
       -2   -1    0    0    0  501  0.00000000000E+00  0.00000000000E+00  0.13427350378E+04  0.13427350378E+04  0.25500000920E-02 0.  1.
        2   -1    0    0  501    0  0.00000000000E+00  0.00000000000E+00 -0.21507459527E+04  0.21507459527E+04  0.25500000920E-02 0. -1.
    10030    2    1    2    0    0  0.00000000000E+00  0.00000000000E+00 -0.80801091490E+03  0.34934809905E+04  0.33987538588E+04 0.  0.
        1    1    3    3  502    0 -0.11953258265E+04  0.20422226698E+03  0.81971015426E+03  0.14637060166E+04  0.50400001928E-02 0.  1.
       -1    1    3    3    0  502  0.11953258265E+04 -0.20422226698E+03 -0.16277210692E+04  0.20297749740E+04  0.50400001928E-02 0. -1.
</event>
<event>
 5   0  0.6134625E-07  0.3404957E+04  0.7818609E-02  0.8136691E-01
        1   -1    0    0  501    0  0.00000000000E+00  0.00000000000E+00  0.19922316767E+04  0.19922316768E+04  0.50400001928E-02 0. -1.
       -1   -1    0    0    0  501  0.00000000000E+00  0.00000000000E+00 -0.14548676394E+04  0.14548676394E+04  0.50400001928E-02 0.  1.
    10030    2    1    2    0    0  0.00000000000E+00  0.00000000000E+00  0.53736403732E+03  0.34470993162E+04  0.34049572078E+04 0.  0.
        3    1    3    3  502    0  0.80425651776E+03  0.12135027958E+04  0.11622246391E+04  0.18628429090E+04  0.10100000352E+00 0. -1.
       -3    1    3    3    0  502 -0.80425651776E+03 -0.12135027958E+04 -0.62486060175E+03  0.15842564072E+04  0.10100000352E+00 0.  1.
</event>
<event>
 5   0  0.6134625E-07  0.3395959E+04  0.7818609E-02  0.8138899E-01
       -1   -1    0    0    0  501  0.00000000000E+00  0.00000000000E+00  0.19265489382E+04  0.19265489382E+04  0.50400001928E-02 0. -1.
        1   -1    0    0  501    0  0.00000000000E+00  0.00000000000E+00 -0.14965280855E+04  0.14965280855E+04  0.50400001928E-02 0.  1.
    10030    2    1    2    0    0  0.00000000000E+00  0.00000000000E+00  0.43002085270E+03  0.34230770237E+04  0.33959591247E+04 0.  0.
        1    1    3    3  502    0 -0.51365973482E+03 -0.14768008664E+04  0.88237549384E+03  0.17953756249E+04  0.50400001928E-02 0. -1.
       -1    1    3    3    0  502  0.51365973482E+03  0.14768008664E+04 -0.45235464114E+03  0.16277013988E+04  0.50400001928E-02 0.  1.
</event>
<event>
 5   0  0.6134625E-07  0.3427383E+04  0.7818609E-02  0.8131218E-01
        1   -1    0    0  501    0  0.00000000000E+00  0.00000000000E+00  0.13601089159E+04  0.13601089159E+04  0.50400001928E-02 0. -1.
       -1   -1    0    0    0  501  0.00000000000E+00  0.00000000000E+00 -0.21591937215E+04  0.21591937215E+04  0.50400001928E-02 0.  1.
    10030    2    1    2    0    0  0.00000000000E+00  0.00000000000E+00 -0.79908480563E+03  0.35193026375E+04  0.34273830436E+04 0.  0.
        1    1    3    3  502    0  0.11167566112E+04  0.12939333555E+04 -0.52667644558E+03  0.17885180836E+04  0.50400001928E-02 0. -1.
       -1    1    3    3    0  502 -0.11167566112E+04 -0.12939333555E+04 -0.27240836005E+03  0.17307845538E+04  0.50400001928E-02 0.  1.
</event>
<event>
 5   0  0.6218695E-07  0.3413437E+04  0.7818609E-02  0.8134616E-01
       -1   -1    0    0    0  501  0.00000000000E+00  0.00000000000E+00  0.16771904303E+04  0.16771904303E+04  0.50400001928E-02 0.  1.
        1   -1    0    0  501    0  0.00000000000E+00  0.00000000000E+00 -0.17367663687E+04  0.17367663687E+04  0.50400001928E-02 0. -1.
    10030    2    1    2    0    0  0.00000000000E+00  0.00000000000E+00 -0.59575938395E+02  0.34139567989E+04  0.34134369384E+04 0.  0.
        2    1    3    3  502    0  0.69303264020E+03  0.55850970540E+03  0.14266826267E+04  0.16815619670E+04  0.25500000920E-02 0.  1.
       -2    1    3    3    0  502 -0.69303264020E+03 -0.55850970540E+03 -0.14862585651E+04  0.17323948320E+04  0.25500000920E-02 0. -1.
</event>
<event>
 5   0  0.1880301E-06  0.3403772E+04  0.7818609E-02  0.8136981E-01
       -2   -1    0    0    0  501  0.00000000000E+00  0.00000000000E+00  0.15529012211E+04  0.15529012211E+04  0.25500000920E-02 0.  1.
        2   -1    0    0  501    0  0.00000000000E+00  0.00000000000E+00 -0.18651648015E+04  0.18651648015E+04  0.25500000920E-02 0. -1.
    10030    2    1    2    0    0  0.00000000000E+00  0.00000000000E+00 -0.31226358045E+03  0.34180660226E+04  0.34037724353E+04 0.  0.
        4    1    3    3  502    0 -0.17250457843E+03 -0.51593152758E+02  0.15433091973E+04  0.15537775177E+04  0.12699999809E+01 0.  1.
       -4    1    3    3    0  502  0.17250457843E+03  0.51593152758E+02 -0.18555727778E+04  0.18642885049E+04  0.12699999809E+01 0. -1.
</event>
<event>
 5   0  0.1948507E-06  0.3394966E+04  0.7818609E-02  0.8139143E-01
       -2   -1    0    0    0  501  0.00000000000E+00  0.00000000000E+00  0.12811011528E+04  0.12811011528E+04  0.25500000920E-02 0. -1.
        2   -1    0    0  501    0  0.00000000000E+00  0.00000000000E+00 -0.22491967114E+04  0.22491967114E+04  0.25500000920E-02 0.  1.
    10030    2    1    2    0    0  0.00000000000E+00  0.00000000000E+00 -0.96809555861E+03  0.35302978642E+04  0.33949659791E+04 0.  0.
        1    1    3    3  502    0 -0.93907949158E+03 -0.13085482654E+04 -0.10413982232E+04  0.19179882987E+04  0.50400001928E-02 0.  1.
       -1    1    3    3    0  502  0.93907949158E+03  0.13085482654E+04  0.73302664603E+02  0.16123095655E+04  0.50400001928E-02 0. -1.
</event>
<event>
 5   0  0.6146388E-07  0.3765008E+04  0.7818609E-02  0.8053706E-01
        1   -1    0    0  501    0  0.00000000000E+00  0.00000000000E+00  0.20954630427E+04  0.20954630427E+04  0.50400001928E-02 0. -1.
       -1   -1    0    0    0  501  0.00000000000E+00  0.00000000000E+00 -0.16911875992E+04  0.16911875992E+04  0.50400001928E-02 0.  1.
    10030    2    1    2    0    0  0.00000000000E+00  0.00000000000E+00  0.40427544345E+03  0.37866506419E+04  0.37650078951E+04 0.  0.
        4    1    3    3  502    0  0.17501459816E+04 -0.55686675514E+03 -0.21340552963E+03  0.18489605385E+04  0.12699999809E+01 0.  1.
       -4    1    3    3    0  502 -0.17501459816E+04  0.55686675514E+03  0.61768097308E+03  0.19376901035E+04  0.12699999809E+01 0. -1.
</event>
<event>
 5   0  0.1339844E-06  0.3377515E+04  0.7818609E-02  0.8143447E-01
       -2   -1    0    0    0  501  0.00000000000E+00  0.00000000000E+00  0.22675102600E+04  0.22675102600E+04  0.25500000920E-02 0. -1.
        2   -1    0    0  501    0  0.00000000000E+00  0.00000000000E+00 -0.12577240965E+04  0.12577240965E+04  0.25500000920E-02 0.  1.
    10030    2    1    2    0    0  0.00000000000E+00  0.00000000000E+00  0.10097861635E+04  0.35252343565E+04  0.33775152364E+04 0.  0.
        3    1    3    3  502    0 -0.34321699554E+03  0.47952247202E+03  0.21565579742E+04  0.22357285196E+04  0.10100000352E+00 0. -1.
       -3    1    3    3    0  502  0.34321699554E+03 -0.47952247202E+03 -0.11467718107E+04  0.12895058368E+04  0.10100000352E+00 0.  1.
</event>
<event>
 5   0  0.1339844E-06  0.2887139E+04  0.7818609E-02  0.8276714E-01
       -2   -1    0    0    0  501  0.00000000000E+00  0.00000000000E+00  0.11265497448E+04  0.11265497448E+04  0.25500000920E-02 0. -1.
        2   -1    0    0  501    0  0.00000000000E+00  0.00000000000E+00 -0.18498007157E+04  0.18498007157E+04  0.25500000920E-02 0.  1.
    10030    2    1    2    0    0  0.00000000000E+00  0.00000000000E+00 -0.72325097091E+03  0.29763504604E+04  0.28871387387E+04 0.  0.
        3    1    3    3  502    0 -0.14385640224E+03  0.38904699372E+03  0.10637924458E+04  0.11417997222E+04  0.10100000352E+00 0. -1.
       -3    1    3    3    0  502  0.14385640224E+03 -0.38904699372E+03 -0.17870434167E+04  0.18345507382E+04  0.10100000352E+00 0.  1.
</event>
<event>
 5   0  0.1797075E-06  0.3418360E+04  0.7818609E-02  0.8133415E-01
        2   -1    0    0  501    0  0.00000000000E+00  0.00000000000E+00  0.23811620589E+04  0.23811620589E+04  0.25500000920E-02 0. -1.
       -2   -1    0    0    0  501  0.00000000000E+00  0.00000000000E+00 -0.12268360453E+04  0.12268360453E+04  0.25500000920E-02 0.  1.
    10030    2    1    2    0    0  0.00000000000E+00  0.00000000000E+00  0.11543260137E+04  0.36079981042E+04  0.34183595151E+04 0.  0.
        2    1    3    3  502    0 -0.95498144502E+03  0.11496151416E+04 -0.29811336762E+03  0.15239672286E+04  0.25500000920E-02 0.  1.
       -2    1    3    3    0  502  0.95498144502E+03 -0.11496151416E+04  0.14524393813E+04  0.20840308756E+04  0.25500000920E-02 0. -1.
</event>
<event>
 5   0  0.1797075E-06  0.3377409E+04  0.7818609E-02  0.8143473E-01
        2   -1    0    0  501    0  0.00000000000E+00  0.00000000000E+00  0.24507832229E+04  0.24507832229E+04  0.25500000920E-02 0. -1.
       -2   -1    0    0    0  501  0.00000000000E+00  0.00000000000E+00 -0.11635967711E+04  0.11635967711E+04  0.25500000920E-02 0.  1.
    10030    2    1    2    0    0  0.00000000000E+00  0.00000000000E+00  0.12871864518E+04  0.36143799939E+04  0.33774093295E+04 0.  0.
        2    1    3    3  502    0  0.75738833755E+03 -0.56739077541E+03 -0.85316494801E+03  0.12741506247E+04  0.25500000920E-02 0.  1.
       -2    1    3    3    0  502 -0.75738833755E+03  0.56739077541E+03  0.21403513998E+04  0.23402293692E+04  0.25500000920E-02 0. -1.
</event>
<event>
 5   0  0.1797075E-06  0.3397313E+04  0.7818609E-02  0.8138566E-01
       -2   -1    0    0    0  501  0.00000000000E+00  0.00000000000E+00  0.15365870295E+04  0.15365870295E+04  0.25500000920E-02 0. -1.
        2   -1    0    0  501    0  0.00000000000E+00  0.00000000000E+00 -0.18778204444E+04  0.18778204444E+04  0.25500000920E-02 0.  1.
    10030    2    1    2    0    0  0.00000000000E+00  0.00000000000E+00 -0.34123341491E+03  0.34144074739E+04  0.33973133730E+04 0.  0.
        2    1    3    3  502    0  0.12751209453E+04 -0.67181854056E+03  0.73288436787E+03  0.16169084926E+04  0.25500000920E-02 0.  1.
       -2    1    3    3    0  502 -0.12751209453E+04  0.67181854056E+03 -0.10741177828E+04  0.17974989813E+04  0.25500000920E-02 0. -1.
</event>
<event>
 5   0  0.1797075E-06  0.3405393E+04  0.7818609E-02  0.8136584E-01
        2   -1    0    0  501    0  0.00000000000E+00  0.00000000000E+00  0.26294727201E+04  0.26294727201E+04  0.25500000920E-02 0. -1.
       -2   -1    0    0    0  501  0.00000000000E+00  0.00000000000E+00 -0.11025694139E+04  0.11025694139E+04  0.25500000920E-02 0.  1.
    10030    2    1    2    0    0  0.00000000000E+00  0.00000000000E+00  0.15269033062E+04  0.37320421340E+04  0.34053934843E+04 0.  0.
        2    1    3    3  502    0  0.67634810521E+03  0.82150712085E+02  0.24735732781E+04  0.25656890422E+04  0.25500000920E-02 0. -1.
       -2    1    3    3    0  502 -0.67634810521E+03 -0.82150712085E+02 -0.94666997192E+03  0.11663530918E+04  0.25500000920E-02 0.  1.
</event>
<event>
 5   0  0.1339844E-06  0.3387255E+04  0.7818609E-02  0.8141041E-01
       -2   -1    0    0    0  501  0.00000000000E+00  0.00000000000E+00  0.17686198755E+04  0.17686198755E+04  0.25500000920E-02 0. -1.
        2   -1    0    0  501    0  0.00000000000E+00  0.00000000000E+00 -0.16218153380E+04  0.16218153380E+04  0.25500000920E-02 0.  1.
    10030    2    1    2    0    0  0.00000000000E+00  0.00000000000E+00  0.14680453756E+03  0.33904352135E+04  0.33872554324E+04 0.  0.
        3    1    3    3  502    0 -0.12391209303E+04 -0.23615402328E+03  0.12045894619E+04  0.17441975761E+04  0.10100000352E+00 0. -1.
       -3    1    3    3    0  502  0.12391209303E+04  0.23615402328E+03 -0.10577849243E+04  0.16462376374E+04  0.10100000352E+00 0.  1.
</event>
<event>
 5   0  0.1880301E-06  0.3285985E+04  0.7818609E-02  0.8166471E-01
       -2   -1    0    0    0  501  0.00000000000E+00  0.00000000000E+00  0.87871174328E+03  0.87871174329E+03  0.25500000920E-02 0. -1.
        2   -1    0    0  501    0  0.00000000000E+00  0.00000000000E+00 -0.30720240722E+04  0.30720240722E+04  0.25500000920E-02 0.  1.
    10030    2    1    2    0    0  0.00000000000E+00  0.00000000000E+00 -0.21933123289E+04  0.39507358155E+04  0.32859845574E+04 0.  0.
        4    1    3    3  502    0 -0.12161375677E+04 -0.17069550705E+03  0.21561031465E+03  0.12468427970E+04  0.12699999809E+01 0. -1.
       -4    1    3    3    0  502  0.12161375677E+04  0.17069550705E+03 -0.24089226436E+04  0.27038930185E+04  0.12699999809E+01 0.  1.
</event>
<event>
 5   0  0.1948507E-06  0.3376911E+04  0.7818609E-02  0.8143597E-01
        2   -1    0    0  501    0  0.00000000000E+00  0.00000000000E+00  0.12964209909E+04  0.12964209909E+04  0.25500000920E-02 0. -1.
       -2   -1    0    0    0  501  0.00000000000E+00  0.00000000000E+00 -0.21990399638E+04  0.21990399638E+04  0.25500000920E-02 0.  1.
    10030    2    1    2    0    0  0.00000000000E+00  0.00000000000E+00 -0.90261897293E+03  0.34954609547E+04  0.33769107592E+04 0.  0.
        1    1    3    3  502    0  0.80348747454E+03 -0.40601392137E+03 -0.19298969304E+04  0.21295402293E+04  0.50400001928E-02 0.  1.
       -1    1    3    3    0  502 -0.80348747454E+03  0.40601392137E+03  0.10272779575E+04  0.13659207254E+04  0.50400001928E-02 0. -1.
</event>
<event>
 5   0  0.6146388E-07  0.3487683E+04  0.7818609E-02  0.8116715E-01
        1   -1    0    0  501    0  0.00000000000E+00  0.00000000000E+00  0.26264890167E+04  0.26264890167E+04  0.50400001928E-02 0. -1.
       -1   -1    0    0    0  501  0.00000000000E+00  0.00000000000E+00 -0.11578131995E+04  0.11578131995E+04  0.50400001928E-02 0.  1.
    10030    2    1    2    0    0  0.00000000000E+00  0.00000000000E+00  0.14686758172E+04  0.37843022162E+04  0.34876832722E+04 0.  0.
        4    1    3    3  502    0  0.26903378346E+03 -0.26936833149E+02 -0.11349308281E+04  0.11666937761E+04  0.12699999809E+01 0.  1.
       -4    1    3    3    0  502 -0.26903378346E+03  0.26936833149E+02  0.26036066453E+04  0.26176084401E+04  0.12699999809E+01 0. -1.
</event>
<event>
 5   0  0.6134625E-07  0.3393639E+04  0.7818609E-02  0.8139469E-01
        1   -1    0    0  501    0  0.00000000000E+00  0.00000000000E+00  0.24350351429E+04  0.24350351429E+04  0.50400001928E-02 0.  1.
       -1   -1    0    0    0  501  0.00000000000E+00  0.00000000000E+00 -0.11824046258E+04  0.11824046258E+04  0.50400001928E-02 0. -1.
    10030    2    1    2    0    0  0.00000000000E+00  0.00000000000E+00  0.12526305171E+04  0.36174397688E+04  0.33936392366E+04 0.  0.
        1    1    3    3  502    0 -0.47434551540E+03  0.15308793119E+04  0.12203851439E+04  0.20144316903E+04  0.50400001928E-02 0.  1.
       -1    1    3    3    0  502  0.47434551540E+03 -0.15308793119E+04  0.32245373187E+02  0.16030080785E+04  0.50400001928E-02 0. -1.
</event>
<event>
 5   0  0.6146388E-07  0.3221503E+04  0.7818609E-02  0.8183161E-01
       -1   -1    0    0    0  501  0.00000000000E+00  0.00000000000E+00  0.11244191883E+04  0.11244191883E+04  0.50400001928E-02 0.  1.
        1   -1    0    0  501    0  0.00000000000E+00  0.00000000000E+00 -0.23074309253E+04  0.23074309253E+04  0.50400001928E-02 0. -1.
    10030    2    1    2    0    0  0.00000000000E+00  0.00000000000E+00 -0.11830117370E+04  0.34318501136E+04  0.32215025116E+04 0.  0.
        4    1    3    3  502    0 -0.88972635030E+03 -0.50019588598E+03 -0.19189458238E+04  0.21735141109E+04  0.12699999809E+01 0. -1.
       -4    1    3    3    0  502  0.88972635030E+03  0.50019588598E+03  0.73593408672E+03  0.12583360027E+04  0.12699999809E+01 0.  1.
</event>
<event>
 5   0  0.1880301E-06  0.3410009E+04  0.7818609E-02  0.8135454E-01
       -2   -1    0    0    0  501  0.00000000000E+00  0.00000000000E+00  0.95218349091E+03  0.95218349092E+03  0.25500000920E-02 0.  1.
        2   -1    0    0  501    0  0.00000000000E+00  0.00000000000E+00 -0.30530245343E+04  0.30530245343E+04  0.25500000920E-02 0. -1.
    10030    2    1    2    0    0  0.00000000000E+00  0.00000000000E+00 -0.21008410434E+04  0.40052080252E+04  0.34100085390E+04 0.  0.
        4    1    3    3  502    0 -0.56167739458E+03  0.13644219322E+04 -0.46951332470E+02  0.14762570051E+04  0.12699999809E+01 0.  1.
       -4    1    3    3    0  502  0.56167739458E+03 -0.13644219322E+04 -0.20538897109E+04  0.25289510201E+04  0.12699999809E+01 0. -1.
</event>
<event>
 5   0  0.1797075E-06  0.3394262E+04  0.7818609E-02  0.8139316E-01
        2   -1    0    0  501    0  0.00000000000E+00  0.00000000000E+00  0.28786359105E+04  0.28786359105E+04  0.25500000920E-02 0. -1.
       -2   -1    0    0    0  501  0.00000000000E+00  0.00000000000E+00 -0.10005622309E+04  0.10005622309E+04  0.25500000920E-02 0.  1.
    10030    2    1    2    0    0  0.00000000000E+00  0.00000000000E+00  0.18780736795E+04  0.38791981414E+04  0.33942624345E+04 0.  0.
        2    1    3    3  502    0  0.10000268902E+04 -0.12575175866E+04  0.31426240101E+03  0.16371209847E+04  0.25500000920E-02 0. -1.
       -2    1    3    3    0  502 -0.10000268902E+04  0.12575175866E+04  0.15638112785E+04  0.22420771567E+04  0.25500000920E-02 0.  1.
</event>
<event>
 5   0  0.1797075E-06  0.3409533E+04  0.7818609E-02  0.8135571E-01
        2   -1    0    0  501    0  0.00000000000E+00  0.00000000000E+00  0.17602531351E+04  0.17602531351E+04  0.25500000920E-02 0.  1.
       -2   -1    0    0    0  501  0.00000000000E+00  0.00000000000E+00 -0.16510288190E+04  0.16510288190E+04  0.25500000920E-02 0. -1.
    10030    2    1    2    0    0  0.00000000000E+00  0.00000000000E+00  0.10922431613E+03  0.34112819542E+04  0.34095329034E+04 0.  0.
        2    1    3    3  502    0 -0.72751862077E+03  0.65202369749E+02  0.15957574840E+04  0.17549862222E+04  0.25500000920E-02 0.  1.
       -2    1    3    3    0  502  0.72751862077E+03 -0.65202369749E+02 -0.14865331678E+04  0.16562957319E+04  0.25500000920E-02 0. -1.
</event>
<event>
 5   0  0.1948507E-06  0.3402074E+04  0.7818609E-02  0.8137397E-01
        2   -1    0    0  501    0  0.00000000000E+00  0.00000000000E+00  0.16894736956E+04  0.16894736956E+04  0.25500000920E-02 0. -1.
       -2   -1    0    0    0  501  0.00000000000E+00  0.00000000000E+00 -0.17126795997E+04  0.17126795997E+04  0.25500000920E-02 0.  1.
    10030    2    1    2    0    0  0.00000000000E+00  0.00000000000E+00 -0.23205904098E+02  0.34021532953E+04  0.34020741513E+04 0.  0.
        1    1    3    3  502    0  0.12487690472E+04  0.11548704936E+04 -0.31023564592E+02  0.17012091146E+04  0.50400001928E-02 0. -1.
       -1    1    3    3    0  502 -0.12487690472E+04 -0.11548704936E+04  0.78176604939E+01  0.17009441807E+04  0.50400001928E-02 0.  1.
</event>
<event>
 5   0  0.1339844E-06  0.3335403E+04  0.7818609E-02  0.8153945E-01
        2   -1    0    0  501    0  0.00000000000E+00  0.00000000000E+00  0.15203501256E+04  0.15203501256E+04  0.25500000920E-02 0.  1.
       -2   -1    0    0    0  501  0.00000000000E+00  0.00000000000E+00 -0.18293339332E+04  0.18293339332E+04  0.25500000920E-02 0. -1.
    10030    2    1    2    0    0  0.00000000000E+00  0.00000000000E+00 -0.30898380755E+03  0.33496840588E+04  0.33354028693E+04 0.  0.
        3    1    3    3  502    0  0.14994262776E+04 -0.43408714613E+03  0.43497718502E+03  0.16204678257E+04  0.10100000352E+00 0.  1.
       -3    1    3    3    0  502 -0.14994262776E+04  0.43408714613E+03 -0.74396099256E+03  0.17292162331E+04  0.10100000352E+00 0. -1.
</event>
<event>
 5   0  0.6218695E-07  0.3377944E+04  0.7818609E-02  0.8143341E-01
        1   -1    0    0  501    0  0.00000000000E+00  0.00000000000E+00  0.19021303118E+04  0.19021303119E+04  0.50400001928E-02 0. -1.
       -1   -1    0    0    0  501  0.00000000000E+00  0.00000000000E+00 -0.14997004602E+04  0.14997004602E+04  0.50400001928E-02 0.  1.
    10030    2    1    2    0    0  0.00000000000E+00  0.00000000000E+00  0.40242985163E+03  0.34018307721E+04  0.33779435780E+04 0.  0.
        2    1    3    3  502    0 -0.67951740938E+03 -0.15095867252E+04  0.53829022354E+03  0.17407907270E+04  0.25500000920E-02 0. -1.
       -2    1    3    3    0  502  0.67951740938E+03  0.15095867252E+04 -0.13586037191E+03  0.16610400450E+04  0.25500000920E-02 0.  1.
</event>
<event>
 5   0  0.6134625E-07  0.3301581E+04  0.7818609E-02  0.8162493E-01
        1   -1    0    0  501    0  0.00000000000E+00  0.00000000000E+00  0.20138549986E+04  0.20138549986E+04  0.50400001928E-02 0.  1.
       -1   -1    0    0    0  501  0.00000000000E+00  0.00000000000E+00 -0.13531804959E+04  0.13531804959E+04  0.50400001928E-02 0. -1.
    10030    2    1    2    0    0  0.00000000000E+00  0.00000000000E+00  0.66067450268E+03  0.33670354945E+04  0.33015810186E+04 0.  0.
        3    1    3    3  502    0 -0.30918257556E+03  0.89257938619E+03 -0.10503183001E+04  0.14126076480E+04  0.10100000352E+00 0. -1.
       -3    1    3    3    0  502  0.30918257556E+03 -0.89257938619E+03  0.17109928027E+04  0.19544278464E+04  0.10100000352E+00 0.  1.
</event>
<event>
 5   0  0.6134625E-07  0.3383969E+04  0.7818609E-02  0.8141852E-01
        1   -1    0    0  501    0  0.00000000000E+00  0.00000000000E+00  0.17359501291E+04  0.17359501291E+04  0.50400001928E-02 0. -1.
       -1   -1    0    0    0  501  0.00000000000E+00  0.00000000000E+00 -0.16491325086E+04  0.16491325086E+04  0.50400001928E-02 0.  1.
    10030    2    1    2    0    0  0.00000000000E+00  0.00000000000E+00  0.86817620500E+02  0.33850826377E+04  0.33839691436E+04 0.  0.
        1    1    3    3  502    0 -0.80160026567E+03 -0.85124585870E+03  0.12667704608E+04  0.17239170219E+04  0.50400001928E-02 0. -1.
       -1    1    3    3    0  502  0.80160026567E+03  0.85124585870E+03 -0.11799528403E+04  0.16611656159E+04  0.50400001928E-02 0.  1.
</event>
<event>
 5   0  0.6218695E-07  0.3526734E+04  0.7818609E-02  0.8107483E-01
       -1   -1    0    0    0  501  0.00000000000E+00  0.00000000000E+00  0.16224252775E+04  0.16224252775E+04  0.50400001928E-02 0.  1.
        1   -1    0    0  501    0  0.00000000000E+00  0.00000000000E+00 -0.19165521940E+04  0.19165521940E+04  0.50400001928E-02 0. -1.
    10030    2    1    2    0    0  0.00000000000E+00  0.00000000000E+00 -0.29412691650E+03  0.35389774715E+04  0.35267337440E+04 0.  0.
        2    1    3    3  502    0 -0.15734103136E+04  0.71465250766E+03 -0.49915835765E+03  0.17987515914E+04  0.25500000920E-02 0. -1.
       -2    1    3    3    0  502  0.15734103136E+04 -0.71465250766E+03  0.20503144115E+03  0.17402258800E+04  0.25500000920E-02 0.  1.
</event>
<event>
 5   0  0.1339844E-06  0.3316719E+04  0.7818609E-02  0.8158654E-01
       -2   -1    0    0    0  501  0.00000000000E+00  0.00000000000E+00  0.30585187600E+04  0.30585187600E+04  0.25500000920E-02 0.  1.
        2   -1    0    0  501    0  0.00000000000E+00  0.00000000000E+00 -0.89917905359E+03  0.89917905360E+03  0.25500000920E-02 0. -1.
    10030    2    1    2    0    0  0.00000000000E+00  0.00000000000E+00  0.21593397064E+04  0.39576978136E+04  0.33167188630E+04 0.  0.
        3    1    3    3  502    0  0.40445828128E+03 -0.41803750270E+03 -0.77346015462E+03  0.96777191318E+03  0.10100000352E+00 0. -1.
       -3    1    3    3    0  502 -0.40445828128E+03  0.41803750270E+03  0.29327998610E+04  0.29899259004E+04  0.10100000352E+00 0.  1.
</event>
<event>
 5   0  0.6218695E-07  0.3057214E+04  0.7818609E-02  0.8227579E-01
        1   -1    0    0  501    0  0.00000000000E+00  0.00000000000E+00  0.13808766878E+04  0.13808766878E+04  0.50400001928E-02 0.  1.
       -1   -1    0    0    0  501  0.00000000000E+00  0.00000000000E+00 -0.16921418433E+04  0.16921418433E+04  0.50400001928E-02 0. -1.
    10030    2    1    2    0    0  0.00000000000E+00  0.00000000000E+00 -0.31126515552E+03  0.30730185312E+04  0.30572139107E+04 0.  0.
        2    1    3    3  502    0 -0.23081673865E+03 -0.18279063033E+03 -0.16633703964E+04  0.16892275918E+04  0.25500000920E-02 0. -1.
       -2    1    3    3    0  502  0.23081673865E+03  0.18279063033E+03  0.13521052409E+04  0.13837909393E+04  0.25500000920E-02 0.  1.
</event>
<event>
 5   0  0.1339844E-06  0.3381776E+04  0.7818609E-02  0.8142394E-01
       -2   -1    0    0    0  501  0.00000000000E+00  0.00000000000E+00  0.11996396038E+04  0.11996396038E+04  0.25500000920E-02 0.  1.
        2   -1    0    0  501    0  0.00000000000E+00  0.00000000000E+00 -0.23833012360E+04  0.23833012360E+04  0.25500000920E-02 0. -1.
    10030    2    1    2    0    0  0.00000000000E+00  0.00000000000E+00 -0.11836616321E+04  0.35829408398E+04  0.33817761904E+04 0.  0.
        3    1    3    3  502    0 -0.14293840134E+04  0.64939864553E+03 -0.12570703144E+04  0.20112391813E+04  0.10100000352E+00 0.  1.
       -3    1    3    3    0  502  0.14293840134E+04 -0.64939864553E+03  0.73408682299E+02  0.15717016585E+04  0.10100000352E+00 0. -1.
</event>
<event>
 5   0  0.1880301E-06  0.3386846E+04  0.7818609E-02  0.8141142E-01
        2   -1    0    0  501    0  0.00000000000E+00  0.00000000000E+00  0.29467814120E+04  0.29467814120E+04  0.25500000920E-02 0. -1.
       -2   -1    0    0    0  501  0.00000000000E+00  0.00000000000E+00 -0.97315715950E+03  0.97315715950E+03  0.25500000920E-02 0.  1.
    10030    2    1    2    0    0  0.00000000000E+00  0.00000000000E+00  0.19736242525E+04  0.39199385715E+04  0.33868459833E+04 0.  0.
        4    1    3    3  502    0 -0.41489505920E+03 -0.61820602814E+02  0.28856975644E+04  0.29160267048E+04  0.12699999809E+01 0. -1.
       -4    1    3    3    0  502  0.41489505920E+03  0.61820602814E+02 -0.91207331185E+03  0.10039118667E+04  0.12699999809E+01 0.  1.
</event>
<event>
 5   0  0.6134625E-07  0.3403732E+04  0.7818609E-02  0.8136991E-01
        1   -1    0    0  501    0  0.00000000000E+00  0.00000000000E+00  0.30201123255E+04  0.30201123255E+04  0.50400001928E-02 0. -1.
       -1   -1    0    0    0  501  0.00000000000E+00  0.00000000000E+00 -0.95902005396E+03  0.95902005397E+03  0.50400001928E-02 0.  1.
    10030    2    1    2    0    0  0.00000000000E+00  0.00000000000E+00  0.20610922715E+04  0.39791323794E+04  0.34037322370E+04 0.  0.
        3    1    3    3  502    0 -0.16137142430E+04 -0.44060244593E+03  0.66430670385E+03  0.17998632116E+04  0.10100000352E+00 0.  1.
       -3    1    3    3    0  502  0.16137142430E+04  0.44060244593E+03  0.13967855677E+04  0.21792691678E+04  0.10100000352E+00 0. -1.
</event>
<event>
 5   0  0.6134625E-07  0.3088316E+04  0.7818609E-02  0.8218952E-01
        1   -1    0    0  501    0  0.00000000000E+00  0.00000000000E+00  0.16251040874E+04  0.16251040874E+04  0.50400001928E-02 0. -1.
       -1   -1    0    0    0  501  0.00000000000E+00  0.00000000000E+00 -0.14672442706E+04  0.14672442706E+04  0.50400001928E-02 0.  1.
    10030    2    1    2    0    0  0.00000000000E+00  0.00000000000E+00  0.15785981683E+03  0.30923483580E+04  0.30883164743E+04 0.  0.
        1    1    3    3  502    0 -0.60206594418E+03 -0.13478938267E+04 -0.37456698327E+03  0.15230238324E+04  0.50400001928E-02 0.  1.
       -1    1    3    3    0  502  0.60206594418E+03  0.13478938267E+04  0.53242680009E+03  0.15693245256E+04  0.50400001928E-02 0. -1.
</event>
<event>
 5   0  0.6146388E-07  0.3412014E+04  0.7818609E-02  0.8134964E-01
       -1   -1    0    0    0  501  0.00000000000E+00  0.00000000000E+00  0.14354145518E+04  0.14354145518E+04  0.50400001928E-02 0. -1.
        1   -1    0    0  501    0  0.00000000000E+00  0.00000000000E+00 -0.20276092637E+04  0.20276092637E+04  0.50400001928E-02 0.  1.
    10030    2    1    2    0    0  0.00000000000E+00  0.00000000000E+00 -0.59219471194E+03  0.34630238155E+04  0.34120139757E+04 0.  0.
        4    1    3    3  502    0 -0.49846652499E+03  0.15712007554E+04 -0.74234949000E+03  0.18078232958E+04  0.12699999809E+01 0. -1.
       -4    1    3    3    0  502  0.49846652499E+03 -0.15712007554E+04  0.15015477806E+03  0.16552005198E+04  0.12699999809E+01 0.  1.
</event>
<event>
 5   0  0.6134625E-07  0.3300110E+04  0.7818609E-02  0.8162867E-01
       -1   -1    0    0    0  501  0.00000000000E+00  0.00000000000E+00  0.87564863007E+03  0.87564863009E+03  0.50400001928E-02 0.  1.
        1   -1    0    0  501    0  0.00000000000E+00  0.00000000000E+00 -0.31093311710E+04  0.31093311710E+04  0.50400001928E-02 0. -1.
    10030    2    1    2    0    0  0.00000000000E+00  0.00000000000E+00 -0.22336825409E+04  0.39849798011E+04  0.33001100469E+04 0.  0.
        5    1    3    3  502    0  0.11611132224E+04  0.11306269731E+04 -0.14912887542E+04  0.22023772397E+04  0.46999998093E+01 0. -1.
       -5    1    3    3    0  502 -0.11611132224E+04 -0.11306269731E+04 -0.74239378672E+03  0.17826025614E+04  0.46999998093E+01 0.  1.
</event>
<event>
 5   0  0.1797075E-06  0.3423021E+04  0.7818609E-02  0.8132279E-01
        2   -1    0    0  501    0  0.00000000000E+00  0.00000000000E+00  0.27489952186E+04  0.27489952186E+04  0.25500000920E-02 0. -1.
       -2   -1    0    0    0  501  0.00000000000E+00  0.00000000000E+00 -0.10655776652E+04  0.10655776652E+04  0.25500000920E-02 0.  1.
    10030    2    1    2    0    0  0.00000000000E+00  0.00000000000E+00  0.16834175535E+04  0.38145728838E+04  0.34230208335E+04 0.  0.
        2    1    3    3  502    0  0.24023813130E+02  0.16388731205E+04  0.13908042823E+04  0.21496089878E+04  0.25500000920E-02 0.  1.
       -2    1    3    3    0  502 -0.24023813130E+02 -0.16388731205E+04  0.29261327113E+03  0.16649638960E+04  0.25500000920E-02 0. -1.
</event>
<event>
 5   0  0.6218695E-07  0.3333156E+04  0.7818609E-02  0.8154510E-01
        1   -1    0    0  501    0  0.00000000000E+00  0.00000000000E+00  0.19773861153E+04  0.19773861153E+04  0.50400001928E-02 0. -1.
       -1   -1    0    0    0  501  0.00000000000E+00  0.00000000000E+00 -0.14046232664E+04  0.14046232664E+04  0.50400001928E-02 0.  1.
    10030    2    1    2    0    0  0.00000000000E+00  0.00000000000E+00  0.57276284896E+03  0.33820093817E+04  0.33331561885E+04 0.  0.
        2    1    3    3  502    0 -0.89400345311E+02  0.96825530056E+03 -0.10869600468E+04  0.14584213699E+04  0.25500000920E-02 0.  1.
       -2    1    3    3    0  502  0.89400345311E+02 -0.96825530056E+03  0.16597228957E+04  0.19235880119E+04  0.25500000920E-02 0. -1.
</event>
<event>
 5   0  0.1339844E-06  0.3291405E+04  0.7818609E-02  0.8165086E-01
       -2   -1    0    0    0  501  0.00000000000E+00  0.00000000000E+00  0.12673060227E+04  0.12673060227E+04  0.25500000920E-02 0.  1.
        2   -1    0    0  501    0  0.00000000000E+00  0.00000000000E+00 -0.21370816957E+04  0.21370816957E+04  0.25500000920E-02 0. -1.
    10030    2    1    2    0    0  0.00000000000E+00  0.00000000000E+00 -0.86977567302E+03  0.34043877184E+04  0.32914048696E+04 0.  0.
        3    1    3    3  502    0  0.15858184285E+04 -0.26453216846E+03 -0.71341317794E+02  0.16093125707E+04  0.10100000352E+00 0. -1.
       -3    1    3    3    0  502 -0.15858184285E+04  0.26453216846E+03 -0.79843435523E+03  0.17950751478E+04  0.10100000352E+00 0.  1.
</event>
<event>
 5   0  0.6134625E-07  0.3405074E+04  0.7818609E-02  0.8136662E-01
        1   -1    0    0  501    0  0.00000000000E+00  0.00000000000E+00  0.25133230599E+04  0.25133230599E+04  0.50400001928E-02 0.  1.
       -1   -1    0    0    0  501  0.00000000000E+00  0.00000000000E+00 -0.11533068654E+04  0.11533068654E+04  0.50400001928E-02 0. -1.
    10030    2    1    2    0    0  0.00000000000E+00  0.00000000000E+00  0.13600161946E+04  0.36666299253E+04  0.34050742958E+04 0.  0.
        1    1    3    3  502    0  0.57291293980E+03  0.18583741908E+03 -0.10347537195E+04  0.11972802692E+04  0.50400001928E-02 0. -1.
       -1    1    3    3    0  502 -0.57291293980E+03 -0.18583741908E+03  0.23947699141E+04  0.24693496561E+04  0.50400001928E-02 0.  1.
</event>
<event>
 5   0  0.1339844E-06  0.3378703E+04  0.7818609E-02  0.8143153E-01
        2   -1    0    0  501    0  0.00000000000E+00  0.00000000000E+00  0.18404721121E+04  0.18404721121E+04  0.25500000920E-02 0.  1.
       -2   -1    0    0    0  501  0.00000000000E+00  0.00000000000E+00 -0.15506394325E+04  0.15506394325E+04  0.25500000920E-02 0. -1.
    10030    2    1    2    0    0  0.00000000000E+00  0.00000000000E+00  0.28983267959E+03  0.33911115446E+04  0.33787030834E+04 0.  0.
        3    1    3    3  502    0 -0.25263040788E+03  0.83878519501E+03 -0.13048697772E+04  0.15716449574E+04  0.10100000352E+00 0. -1.
       -3    1    3    3    0  502  0.25263040788E+03 -0.83878519501E+03  0.15947024568E+04  0.18194665873E+04  0.10100000352E+00 0.  1.
</event>
<event>
 5   0  0.1339844E-06  0.3395827E+04  0.7818609E-02  0.8138931E-01
        2   -1    0    0  501    0  0.00000000000E+00  0.00000000000E+00  0.27193080606E+04  0.27193080606E+04  0.25500000920E-02 0. -1.
       -2   -1    0    0    0  501  0.00000000000E+00  0.00000000000E+00 -0.10601629643E+04  0.10601629643E+04  0.25500000920E-02 0.  1.
    10030    2    1    2    0    0  0.00000000000E+00  0.00000000000E+00  0.16591450963E+04  0.37794710250E+04  0.33958266708E+04 0.  0.
        3    1    3    3  502    0 -0.92884260018E+03 -0.90336253206E+03 -0.39171038041E+03  0.13536060995E+04  0.10100000352E+00 0.  1.
       -3    1    3    3    0  502  0.92884260018E+03  0.90336253206E+03  0.20508554767E+04  0.24258649255E+04  0.10100000352E+00 0. -1.
</event>
<event>
 5   0  0.1911477E-06  0.3535334E+04  0.7818609E-02  0.8105467E-01
       -2   -1    0    0    0  501  0.00000000000E+00  0.00000000000E+00  0.15751586763E+04  0.15751586763E+04  0.25500000920E-02 0.  1.
        2   -1    0    0  501    0  0.00000000000E+00  0.00000000000E+00 -0.19837028549E+04  0.19837028549E+04  0.25500000920E-02 0. -1.
    10030    2    1    2    0    0  0.00000000000E+00  0.00000000000E+00 -0.40854417856E+03  0.35588615311E+04  0.35353340793E+04 0.  0.
        5    1    3    3  502    0  0.10399473710E+04  0.20746453778E+02 -0.16430154127E+04  0.19445931930E+04  0.46999998093E+01 0. -1.
       -5    1    3    3    0  502 -0.10399473710E+04 -0.20746453778E+02  0.12344712341E+04  0.16142683382E+04  0.46999998093E+01 0.  1.
</event>
<event>
 5   0  0.1339844E-06  0.3396716E+04  0.7818609E-02  0.8138713E-01
       -2   -1    0    0    0  501  0.00000000000E+00  0.00000000000E+00  0.15061907333E+04  0.15061907333E+04  0.25500000920E-02 0. -1.
        2   -1    0    0  501    0  0.00000000000E+00  0.00000000000E+00 -0.19150426191E+04  0.19150426191E+04  0.25500000920E-02 0.  1.
    10030    2    1    2    0    0  0.00000000000E+00  0.00000000000E+00 -0.40885188580E+03  0.34212333523E+04  0.33967157353E+04 0.  0.
        3    1    3    3  502    0  0.20275295969E+03  0.10495595317E+04 -0.15337001910E+04  0.18694705827E+04  0.10100000352E+00 0.  1.
       -3    1    3    3    0  502 -0.20275295969E+03 -0.10495595317E+04  0.11248483052E+04  0.15517627697E+04  0.10100000352E+00 0. -1.
</event>
<event>
 5   0  0.6134625E-07  0.3359868E+04  0.7818609E-02  0.8147827E-01
        1   -1    0    0  501    0  0.00000000000E+00  0.00000000000E+00  0.24089478730E+04  0.24089478730E+04  0.50400001928E-02 0.  1.
       -1   -1    0    0    0  501  0.00000000000E+00  0.00000000000E+00 -0.11715399430E+04  0.11715399430E+04  0.50400001928E-02 0. -1.
    10030    2    1    2    0    0  0.00000000000E+00  0.00000000000E+00  0.12374079300E+04  0.35804878160E+04  0.33598682438E+04 0.  0.
        1    1    3    3  502    0  0.47246874103E+03 -0.12023535720E+04  0.17631378042E+04  0.21857574751E+04  0.50400001928E-02 0.  1.
       -1    1    3    3    0  502 -0.47246874103E+03  0.12023535720E+04 -0.52572987420E+03  0.13947303409E+04  0.50400001928E-02 0. -1.
</event>
<event>
 5   0  0.6218695E-07  0.3448548E+04  0.7818609E-02  0.8126093E-01
        1   -1    0    0  501    0  0.00000000000E+00  0.00000000000E+00  0.20396029506E+04  0.20396029506E+04  0.50400001928E-02 0.  1.
       -1   -1    0    0    0  501  0.00000000000E+00  0.00000000000E+00 -0.14576961160E+04  0.14576961160E+04  0.50400001928E-02 0. -1.
    10030    2    1    2    0    0  0.00000000000E+00  0.00000000000E+00  0.58190683457E+03  0.34972990667E+04  0.34485482739E+04 0.  0.
        2    1    3    3  502    0  0.13177621064E+04 -0.10949208818E+04  0.48805261716E+03  0.17814443757E+04  0.25500000920E-02 0.  1.
       -2    1    3    3    0  502 -0.13177621064E+04  0.10949208818E+04  0.93854217409E+02  0.17158546910E+04  0.25500000920E-02 0. -1.
</event>
<event>
 5   0  0.6134625E-07  0.2573148E+04  0.7818609E-02  0.8377380E-01
        1   -1    0    0  501    0  0.00000000000E+00  0.00000000000E+00  0.96375195190E+03  0.96375195191E+03  0.50400001928E-02 0. -1.
       -1   -1    0    0    0  501  0.00000000000E+00  0.00000000000E+00 -0.17175300043E+04  0.17175300043E+04  0.50400001928E-02 0.  1.
    10030    2    1    2    0    0  0.00000000000E+00  0.00000000000E+00 -0.75377805241E+03  0.26812819562E+04  0.25731481839E+04 0.  0.
        5    1    3    3  502    0  0.16101261113E+03  0.12665551504E+04 -0.54218632287E+03  0.13871103448E+04  0.46999998093E+01 0.  1.
       -5    1    3    3    0  502 -0.16101261113E+03 -0.12665551504E+04 -0.21159172953E+03  0.12941716115E+04  0.46999998093E+01 0. -1.
</event>
<event>
 5   0  0.1797075E-06  0.2489095E+04  0.7818609E-02  0.8406881E-01
       -2   -1    0    0    0  501  0.00000000000E+00  0.00000000000E+00  0.97203851102E+03  0.97203851103E+03  0.25500000920E-02 0.  1.
        2   -1    0    0  501    0  0.00000000000E+00  0.00000000000E+00 -0.15934539195E+04  0.15934539195E+04  0.25500000920E-02 0. -1.
    10030    2    1    2    0    0  0.00000000000E+00  0.00000000000E+00 -0.62141540848E+03  0.25654924305E+04  0.24890950768E+04 0.  0.
        2    1    3    3  502    0 -0.44144593208E+03  0.10068587125E+04 -0.91192912235E+03  0.14283744965E+04  0.25500000920E-02 0. -1.
       -2    1    3    3    0  502  0.44144593208E+03 -0.10068587125E+04  0.29051371388E+03  0.11371179341E+04  0.25500000920E-02 0.  1.
</event>
<event>
 5   0  0.6134625E-07  0.3403210E+04  0.7818609E-02  0.8137119E-01
       -1   -1    0    0    0  501  0.00000000000E+00  0.00000000000E+00  0.12768871361E+04  0.12768871361E+04  0.50400001928E-02 0. -1.
        1   -1    0    0  501    0  0.00000000000E+00  0.00000000000E+00 -0.22675917851E+04  0.22675917851E+04  0.50400001928E-02 0.  1.
    10030    2    1    2    0    0  0.00000000000E+00  0.00000000000E+00 -0.99070464902E+03  0.35444789211E+04  0.34032095323E+04 0.  0.
        3    1    3    3  502    0 -0.70888260851E+02  0.13522980875E+04  0.57781990382E+03  0.14722809224E+04  0.10100000352E+00 0. -1.
       -3    1    3    3    0  502  0.70888260851E+02 -0.13522980875E+04 -0.15685245528E+04  0.20721979988E+04  0.10100000352E+00 0.  1.
</event>
<event>
 5   0  0.6146388E-07  0.3415777E+04  0.7818609E-02  0.8134045E-01
       -1   -1    0    0    0  501  0.00000000000E+00  0.00000000000E+00  0.11387461365E+04  0.11387461365E+04  0.50400001928E-02 0. -1.
        1   -1    0    0  501    0  0.00000000000E+00  0.00000000000E+00 -0.25614860256E+04  0.25614860256E+04  0.50400001928E-02 0.  1.
    10030    2    1    2    0    0  0.00000000000E+00  0.00000000000E+00 -0.14227398891E+04  0.37002321621E+04  0.34157765239E+04 0.  0.
        4    1    3    3  502    0  0.12536960507E+03 -0.10624544777E+04 -0.21535341627E+04  0.24046284657E+04  0.12699999809E+01 0.  1.
       -4    1    3    3    0  502 -0.12536960507E+03  0.10624544777E+04  0.73079427361E+03  0.12956036965E+04  0.12699999809E+01 0. -1.
</event>
<event>
 5   0  0.1880301E-06  0.3408301E+04  0.7818609E-02  0.8135872E-01
        2   -1    0    0  501    0  0.00000000000E+00  0.00000000000E+00  0.14414573557E+04  0.14414573557E+04  0.25500000920E-02 0.  1.
       -2   -1    0    0    0  501  0.00000000000E+00  0.00000000000E+00 -0.20147173224E+04  0.20147173224E+04  0.25500000920E-02 0. -1.
    10030    2    1    2    0    0  0.00000000000E+00  0.00000000000E+00 -0.57325996668E+03  0.34561746781E+04  0.34083011041E+04 0.  0.
        4    1    3    3  502    0 -0.12597087331E+04  0.57075489205E+03 -0.12963573874E+04  0.18955662289E+04  0.12699999809E+01 0. -1.
       -4    1    3    3    0  502  0.12597087331E+04 -0.57075489205E+03  0.72309742075E+03  0.15606084493E+04  0.12699999809E+01 0.  1.
</event>
<event>
 5   0  0.6134625E-07  0.3374848E+04  0.7818609E-02  0.8144107E-01
        1   -1    0    0  501    0  0.00000000000E+00  0.00000000000E+00  0.20292932563E+04  0.20292932564E+04  0.50400001928E-02 0. -1.
       -1   -1    0    0    0  501  0.00000000000E+00  0.00000000000E+00 -0.14031488784E+04  0.14031488784E+04  0.50400001928E-02 0.  1.
    10030    2    1    2    0    0  0.00000000000E+00  0.00000000000E+00  0.62614437791E+03  0.34324421348E+04  0.33748484746E+04 0.  0.
        5    1    3    3  502    0  0.80040199915E+03 -0.16598198626E+03  0.18144707839E+04  0.19901054483E+04  0.46999998093E+01 0. -1.
       -5    1    3    3    0  502 -0.80040199915E+03  0.16598198626E+03 -0.11883264060E+04  0.14423366865E+04  0.46999998093E+01 0.  1.
</event>
<event>
 5   0  0.6146388E-07  0.3250041E+04  0.7818609E-02  0.8175725E-01
        1   -1    0    0  501    0  0.00000000000E+00  0.00000000000E+00  0.12075627865E+04  0.12075627865E+04  0.50400001928E-02 0.  1.
       -1   -1    0    0    0  501  0.00000000000E+00  0.00000000000E+00 -0.21867940820E+04  0.21867940820E+04  0.50400001928E-02 0. -1.
    10030    2    1    2    0    0  0.00000000000E+00  0.00000000000E+00 -0.97923129554E+03  0.33943568685E+04  0.32500407106E+04 0.  0.
        4    1    3    3  502    0  0.15212024389E+03 -0.13249782034E+04  0.48004044515E+03  0.14174442670E+04  0.12699999809E+01 0.  1.
       -4    1    3    3    0  502 -0.15212024389E+03  0.13249782034E+04 -0.14592717407E+04  0.19769126015E+04  0.12699999809E+01 0. -1.
</event>
<event>
 5   0  0.6134625E-07  0.3325775E+04  0.7818609E-02  0.8156368E-01
       -3   -1    0    0    0  501  0.00000000000E+00  0.00000000000E+00  0.20907426962E+04  0.20907426987E+04  0.10100000352E+00 0.  1.
        3   -1    0    0  501    0  0.00000000000E+00  0.00000000000E+00 -0.13225898002E+04  0.13225898040E+04  0.10100000352E+00 0. -1.
    10030    2    1    2    0    0  0.00000000000E+00  0.00000000000E+00  0.76815289606E+03  0.34133325027E+04  0.33257750830E+04 0.  0.
        3    1    3    3  502    0  0.10160928942E+04  0.97210279263E+03  0.12950052535E+04  0.19116660864E+04  0.10100000352E+00 0.  1.
       -3    1    3    3    0  502 -0.10160928942E+04 -0.97210279263E+03 -0.52685235745E+03  0.15016664163E+04  0.10100000352E+00 0. -1.
</event>
<event>
 5   0  0.6146388E-07  0.2592342E+04  0.7818609E-02  0.8370807E-01
       -1   -1    0    0    0  501  0.00000000000E+00  0.00000000000E+00  0.79078103463E+03  0.79078103464E+03  0.50400001928E-02 0. -1.
        1   -1    0    0  501    0  0.00000000000E+00  0.00000000000E+00 -0.21245565145E+04  0.21245565145E+04  0.50400001928E-02 0.  1.
    10030    2    1    2    0    0  0.00000000000E+00  0.00000000000E+00 -0.13337754799E+04  0.29153375492E+04  0.25923417975E+04 0.  0.
        4    1    3    3  502    0 -0.14229346064E+03 -0.12044399311E+04 -0.11811792217E+04  0.16929586360E+04  0.12699999809E+01 0.  1.
       -4    1    3    3    0  502  0.14229346064E+03  0.12044399311E+04 -0.15259625826E+03  0.12223789132E+04  0.12699999809E+01 0. -1.
</event>
<event>
 5   0  0.6134625E-07  0.3332016E+04  0.7818609E-02  0.8154796E-01
        1   -1    0    0  501    0  0.00000000000E+00  0.00000000000E+00  0.86155953528E+03  0.86155953529E+03  0.50400001928E-02 0.  1.
       -1   -1    0    0    0  501  0.00000000000E+00  0.00000000000E+00 -0.32215802929E+04  0.32215802929E+04  0.50400001928E-02 0. -1.
    10030    2    1    2    0    0  0.00000000000E+00  0.00000000000E+00 -0.23600207576E+04  0.40831398282E+04  0.33320163385E+04 0.  0.
        1    1    3    3  502    0  0.71706962620E+03  0.49490878964E+03  0.56012044369E+03  0.10357888155E+04  0.50400001928E-02 0.  1.
       -1    1    3    3    0  502 -0.71706962620E+03 -0.49490878964E+03 -0.29201412013E+04  0.30473510127E+04  0.50400001928E-02 0. -1.
</event>
<event>
 5   0  0.1948507E-06  0.3413282E+04  0.7818609E-02  0.8134654E-01
        2   -1    0    0  501    0  0.00000000000E+00  0.00000000000E+00  0.10882085678E+04  0.10882085678E+04  0.25500000920E-02 0. -1.
       -2   -1    0    0    0  501  0.00000000000E+00  0.00000000000E+00 -0.26765303809E+04  0.26765303809E+04  0.25500000920E-02 0.  1.
    10030    2    1    2    0    0  0.00000000000E+00  0.00000000000E+00 -0.15883218131E+04  0.37647389487E+04  0.34132818767E+04 0.  0.
        1    1    3    3  502    0  0.78342709689E+03  0.12609826658E+04  0.13442243476E+03  0.14906054779E+04  0.50400001928E-02 0. -1.
       -1    1    3    3    0  502 -0.78342709689E+03 -0.12609826658E+04 -0.17227442479E+04  0.22741334709E+04  0.50400001928E-02 0.  1.
</event>
<event>
 5   0  0.6134625E-07  0.2819537E+04  0.7818609E-02  0.8297228E-01
        1   -1    0    0  501    0  0.00000000000E+00  0.00000000000E+00  0.92828721240E+03  0.92828721241E+03  0.50400001928E-02 0.  1.
       -1   -1    0    0    0  501  0.00000000000E+00  0.00000000000E+00 -0.21409834712E+04  0.21409834712E+04  0.50400001928E-02 0. -1.
    10030    2    1    2    0    0  0.00000000000E+00  0.00000000000E+00 -0.12126962588E+04  0.30692706836E+04  0.28195372516E+04 0.  0.
        3    1    3    3  502    0 -0.12551423355E+04  0.60954186994E+03 -0.82548400218E+03  0.16212178823E+04  0.10100000352E+00 0. -1.
       -3    1    3    3    0  502  0.12551423355E+04 -0.60954186994E+03 -0.38721225663E+03  0.14480528014E+04  0.10100000352E+00 0.  1.
</event>
<event>
 5   0  0.1797075E-06  0.3394055E+04  0.7818609E-02  0.8139367E-01
       -2   -1    0    0    0  501  0.00000000000E+00  0.00000000000E+00  0.11474709256E+04  0.11474709256E+04  0.25500000920E-02 0.  1.
        2   -1    0    0  501    0  0.00000000000E+00  0.00000000000E+00 -0.25097820189E+04  0.25097820189E+04  0.25500000920E-02 0. -1.
    10030    2    1    2    0    0  0.00000000000E+00  0.00000000000E+00 -0.13623110933E+04  0.36572529445E+04  0.33940547410E+04 0.  0.
        2    1    3    3  502    0 -0.11410344285E+04  0.12134480803E+04 -0.33118318812E+03  0.16982632642E+04  0.25500000920E-02 0. -1.
       -2    1    3    3    0  502  0.11410344285E+04 -0.12134480803E+04 -0.10311279052E+04  0.19589896803E+04  0.25500000920E-02 0.  1.
</event>
<event>
 5   0  0.1339844E-06  0.3384611E+04  0.7818609E-02  0.8141694E-01
        2   -1    0    0  501    0  0.00000000000E+00  0.00000000000E+00  0.25928193113E+04  0.25928193113E+04  0.25500000920E-02 0. -1.
       -2   -1    0    0    0  501  0.00000000000E+00  0.00000000000E+00 -0.11045494624E+04  0.11045494624E+04  0.25500000920E-02 0.  1.
    10030    2    1    2    0    0  0.00000000000E+00  0.00000000000E+00  0.14882698490E+04  0.36973687737E+04  0.33846105692E+04 0.  0.
        3    1    3    3  502    0 -0.11586784642E+03  0.13834965263E+03 -0.10940085158E+04  0.11087924184E+04  0.10100000352E+00 0.  1.
       -3    1    3    3    0  502  0.11586784642E+03 -0.13834965263E+03  0.25822783647E+04  0.25885763553E+04  0.10100000352E+00 0. -1.
</event>
<event>
 5   0  0.6134625E-07  0.3633322E+04  0.7818609E-02  0.8082901E-01
        1   -1    0    0  501    0  0.00000000000E+00  0.00000000000E+00  0.13685294879E+04  0.13685294879E+04  0.50400001928E-02 0. -1.
       -1   -1    0    0    0  501  0.00000000000E+00  0.00000000000E+00 -0.24115356100E+04  0.24115356100E+04  0.50400001928E-02 0.  1.
    10030    2    1    2    0    0  0.00000000000E+00  0.00000000000E+00 -0.10430061221E+04  0.37800650979E+04  0.36333222226E+04 0.  0.
        5    1    3    3  502    0  0.31046673135E+03 -0.12818201334E+04 -0.18212734387E+04  0.22486688227E+04  0.46999998093E+01 0.  1.
       -5    1    3    3    0  502 -0.31046673135E+03  0.12818201334E+04  0.77826731663E+03  0.15313962752E+04  0.46999998093E+01 0. -1.
</event>
<event>
 5   0  0.6134625E-07  0.3368322E+04  0.7818609E-02  0.8145725E-01
       -1   -1    0    0    0  501  0.00000000000E+00  0.00000000000E+00  0.17680427241E+04  0.17680427241E+04  0.50400001928E-02 0.  1.
        1   -1    0    0  501    0  0.00000000000E+00  0.00000000000E+00 -0.16042589868E+04  0.16042589868E+04  0.50400001928E-02 0. -1.
    10030    2    1    2    0    0  0.00000000000E+00  0.00000000000E+00  0.16378373731E+03  0.33723017108E+04  0.33683220921E+04 0.  0.
        5    1    3    3  502    0  0.75587644721E+03  0.14354836704E+04  0.53454745087E+03  0.17081351348E+04  0.46999998093E+01 0.  1.
       -5    1    3    3    0  502 -0.75587644721E+03 -0.14354836704E+04 -0.37076371356E+03  0.16641665760E+04  0.46999998093E+01 0. -1.
</event>
<event>
 5   0  0.1880301E-06  0.3286194E+04  0.7818609E-02  0.8166417E-01
       -2   -1    0    0    0  501  0.00000000000E+00  0.00000000000E+00  0.15561687196E+04  0.15561687197E+04  0.25500000920E-02 0.  1.
        2   -1    0    0  501    0  0.00000000000E+00  0.00000000000E+00 -0.17348810468E+04  0.17348810468E+04  0.25500000920E-02 0. -1.
    10030    2    1    2    0    0  0.00000000000E+00  0.00000000000E+00 -0.17871232720E+03  0.32910497665E+04  0.32861939185E+04 0.  0.
        4    1    3    3  502    0  0.12803124384E+04 -0.10290034762E+04 -0.13086509361E+03  0.16477789231E+04  0.12699999809E+01 0.  1.
       -4    1    3    3    0  502 -0.12803124384E+04  0.10290034762E+04 -0.47847233588E+02  0.16432708434E+04  0.12699999809E+01 0. -1.
</event>
<event>
 5   0  0.1880301E-06  0.3363310E+04  0.7818609E-02  0.8146971E-01
       -2   -1    0    0    0  501  0.00000000000E+00  0.00000000000E+00  0.30430995675E+04  0.30430995675E+04  0.25500000920E-02 0.  1.
        2   -1    0    0  501    0  0.00000000000E+00  0.00000000000E+00 -0.92930342208E+03  0.92930342208E+03  0.25500000920E-02 0. -1.
    10030    2    1    2    0    0  0.00000000000E+00  0.00000000000E+00  0.21137961454E+04  0.39724029896E+04  0.33633095854E+04 0.  0.
        4    1    3    3  502    0  0.10475081024E+04 -0.50509943628E+02  0.26095550096E+04  0.28124017210E+04  0.12699999809E+01 0.  1.
       -4    1    3    3    0  502 -0.10475081024E+04  0.50509943628E+02 -0.49575886418E+03  0.11600012686E+04  0.12699999809E+01 0. -1.
</event>
<event>
 5   0  0.1797075E-06  0.3370290E+04  0.7818609E-02  0.8145237E-01
       -2   -1    0    0    0  501  0.00000000000E+00  0.00000000000E+00  0.16707327128E+04  0.16707327128E+04  0.25500000920E-02 0.  1.
        2   -1    0    0  501    0  0.00000000000E+00  0.00000000000E+00 -0.16996817545E+04  0.16996817545E+04  0.25500000920E-02 0. -1.
    10030    2    1    2    0    0  0.00000000000E+00  0.00000000000E+00 -0.28949041645E+02  0.33704144673E+04  0.33702901410E+04 0.  0.
        2    1    3    3  502    0 -0.70290504155E+02 -0.66088436649E+03  0.15341319271E+04  0.16719059993E+04  0.25500000920E-02 0.  1.
       -2    1    3    3    0  502  0.70290504155E+02  0.66088436649E+03 -0.15630809687E+04  0.16985084680E+04  0.25500000920E-02 0. -1.
</event>
<event>
 5   0  0.6134625E-07  0.3416097E+04  0.7818609E-02  0.8133967E-01
       -1   -1    0    0    0  501  0.00000000000E+00  0.00000000000E+00  0.22666396538E+04  0.22666396538E+04  0.50400001928E-02 0. -1.
        1   -1    0    0  501    0  0.00000000000E+00  0.00000000000E+00 -0.12871164158E+04  0.12871164158E+04  0.50400001928E-02 0.  1.
    10030    2    1    2    0    0  0.00000000000E+00  0.00000000000E+00  0.97952323801E+03  0.35537560696E+04  0.34160966655E+04 0.  0.
        3    1    3    3  502    0  0.14735592367E+03  0.73355415430E+03 -0.11075651869E+04  0.13366061944E+04  0.10100000352E+00 0.  1.
       -3    1    3    3    0  502 -0.14735592367E+03 -0.73355415430E+03  0.20870884249E+04  0.22171498752E+04  0.10100000352E+00 0. -1.
</event>
<event>
 5   0  0.1339844E-06  0.3270343E+04  0.7818609E-02  0.8170483E-01
       -2   -1    0    0    0  501  0.00000000000E+00  0.00000000000E+00  0.14632387679E+04  0.14632387679E+04  0.25500000920E-02 0.  1.
        2   -1    0    0  501    0  0.00000000000E+00  0.00000000000E+00 -0.18273063819E+04  0.18273063819E+04  0.25500000920E-02 0. -1.
    10030    2    1    2    0    0  0.00000000000E+00  0.00000000000E+00 -0.36406761395E+03  0.32905451498E+04  0.32703428192E+04 0.  0.
        3    1    3    3  502    0  0.14602830208E+04 -0.22347963816E+03 -0.88737486728E+03  0.17233118739E+04  0.10100000352E+00 0. -1.
       -3    1    3    3    0  502 -0.14602830208E+04  0.22347963816E+03  0.52330725333E+03  0.15672332759E+04  0.10100000352E+00 0.  1.
</event>
<event>
 5   0  0.6134625E-07  0.3542819E+04  0.7818609E-02  0.8103717E-01
        1   -1    0    0  501    0  0.00000000000E+00  0.00000000000E+00  0.23988417272E+04  0.23988417272E+04  0.50400001928E-02 0.  1.
       -1   -1    0    0    0  501  0.00000000000E+00  0.00000000000E+00 -0.13080860156E+04  0.13080860156E+04  0.50400001928E-02 0. -1.
    10030    2    1    2    0    0  0.00000000000E+00  0.00000000000E+00  0.10907557116E+04  0.37069277429E+04  0.35428188309E+04 0.  0.
        5    1    3    3  502    0 -0.54018898884E+03  0.26234740029E+02  0.23103386838E+04  0.23727998924E+04  0.46999998093E+01 0.  1.
       -5    1    3    3    0  502  0.54018898884E+03 -0.26234740029E+02 -0.12195829723E+04  0.13341278505E+04  0.46999998093E+01 0. -1.
</event>
<event>
 5   0  0.6134625E-07  0.3398930E+04  0.7818609E-02  0.8138169E-01
        1   -1    0    0  501    0  0.00000000000E+00  0.00000000000E+00  0.10345156572E+04  0.10345156573E+04  0.50400001928E-02 0. -1.
       -1   -1    0    0    0  501  0.00000000000E+00  0.00000000000E+00 -0.27918191941E+04  0.27918191941E+04  0.50400001928E-02 0.  1.
    10030    2    1    2    0    0  0.00000000000E+00  0.00000000000E+00 -0.17573035369E+04  0.38263348514E+04  0.33989296366E+04 0.  0.
        3    1    3    3  502    0  0.34745729382E+03 -0.14158955723E+04  0.10448946690E+03  0.14616445880E+04  0.10100000352E+00 0. -1.
       -3    1    3    3    0  502 -0.34745729382E+03  0.14158955723E+04 -0.18617930038E+04  0.23646902634E+04  0.10100000352E+00 0.  1.
</event>
<event>
 5   0  0.6134625E-07  0.3404801E+04  0.7818609E-02  0.8136729E-01
       -1   -1    0    0    0  501  0.00000000000E+00  0.00000000000E+00  0.16881704846E+04  0.16881704846E+04  0.50400001928E-02 0. -1.
        1   -1    0    0  501    0  0.00000000000E+00  0.00000000000E+00 -0.17167508151E+04  0.17167508152E+04  0.50400001928E-02 0.  1.
    10030    2    1    2    0    0  0.00000000000E+00  0.00000000000E+00 -0.28580330586E+02  0.34049212997E+04  0.34048013484E+04 0.  0.
        5    1    3    3  502    0 -0.48949125004E+03  0.10227811869E+04 -0.12841628131E+04  0.17131197450E+04  0.46999998093E+01 0.  1.
       -5    1    3    3    0  502  0.48949125004E+03 -0.10227811869E+04  0.12555824825E+04  0.16918015547E+04  0.46999998093E+01 0. -1.
</event>
<event>
 5   0  0.1880301E-06  0.3341521E+04  0.7818609E-02  0.8152410E-01
       -2   -1    0    0    0  501  0.00000000000E+00  0.00000000000E+00  0.10774443745E+04  0.10774443745E+04  0.25500000920E-02 0.  1.
        2   -1    0    0  501    0  0.00000000000E+00  0.00000000000E+00 -0.25907986930E+04  0.25907986930E+04  0.25500000920E-02 0. -1.
    10030    2    1    2    0    0  0.00000000000E+00  0.00000000000E+00 -0.15133543185E+04  0.36682430675E+04  0.33415214961E+04 0.  0.
        4    1    3    3  502    0  0.21944606621E+03 -0.16282098182E+04 -0.42331433569E+03  0.16965908251E+04  0.12699999809E+01 0. -1.
       -4    1    3    3    0  502 -0.21944606621E+03  0.16282098182E+04 -0.10900399829E+04  0.19716522424E+04  0.12699999809E+01 0.  1.
</event>
<event>
 5   0  0.6218695E-07  0.3432306E+04  0.7818609E-02  0.8130022E-01
        1   -1    0    0  501    0  0.00000000000E+00  0.00000000000E+00  0.18321193103E+04  0.18321193103E+04  0.50400001928E-02 0. -1.
       -1   -1    0    0    0  501  0.00000000000E+00  0.00000000000E+00 -0.16075273807E+04  0.16075273808E+04  0.50400001928E-02 0.  1.
    10030    2    1    2    0    0  0.00000000000E+00  0.00000000000E+00  0.22459192957E+03  0.34396466911E+04  0.34323064876E+04 0.  0.
        2    1    3    3  502    0 -0.16027613047E+04  0.57712582331E+03  0.32074064191E+03  0.17334337528E+04  0.25500000920E-02 0. -1.
       -2    1    3    3    0  502  0.16027613047E+04 -0.57712582331E+03 -0.96148712333E+02  0.17062129383E+04  0.25500000920E-02 0.  1.
</event>
<event>
 5   0  0.6134625E-07  0.3358965E+04  0.7818609E-02  0.8148052E-01
       -1   -1    0    0    0  501  0.00000000000E+00  0.00000000000E+00  0.15839507483E+04  0.15839507483E+04  0.50400001928E-02 0. -1.
        1   -1    0    0  501    0  0.00000000000E+00  0.00000000000E+00 -0.17807756227E+04  0.17807756227E+04  0.50400001928E-02 0.  1.
    10030    2    1    2    0    0  0.00000000000E+00  0.00000000000E+00 -0.19682487441E+03  0.33647263710E+04  0.33589646501E+04 0.  0.
        3    1    3    3  502    0  0.27542220184E+03 -0.37498688800E+03 -0.17149303131E+04  0.17769238994E+04  0.10100000352E+00 0.  1.
       -3    1    3    3    0  502 -0.27542220184E+03  0.37498688800E+03  0.15181054387E+04  0.15878024715E+04  0.10100000352E+00 0. -1.
</event>
<event>
 5   0  0.1797075E-06  0.3426913E+04  0.7818609E-02  0.8131332E-01
       -2   -1    0    0    0  501  0.00000000000E+00  0.00000000000E+00  0.23574397254E+04  0.23574397254E+04  0.25500000920E-02 0. -1.
        2   -1    0    0  501    0  0.00000000000E+00  0.00000000000E+00 -0.12453908519E+04  0.12453908519E+04  0.25500000920E-02 0.  1.
    10030    2    1    2    0    0  0.00000000000E+00  0.00000000000E+00  0.11120488735E+04  0.36028305774E+04  0.34269134031E+04 0.  0.
        2    1    3    3  502    0 -0.96318002083E+02  0.65289883354E+03 -0.11064068466E+04  0.12882896237E+04  0.25500000920E-02 0.  1.
       -2    1    3    3    0  502  0.96318002083E+02 -0.65289883354E+03  0.22184557201E+04  0.23145409537E+04  0.25500000920E-02 0. -1.
</event>
<event>
 5   0  0.6134625E-07  0.3423080E+04  0.7818609E-02  0.8132265E-01
       -1   -1    0    0    0  501  0.00000000000E+00  0.00000000000E+00  0.19386409212E+04  0.19386409213E+04  0.50400001928E-02 0. -1.
        1   -1    0    0  501    0  0.00000000000E+00  0.00000000000E+00 -0.15110429246E+04  0.15110429246E+04  0.50400001928E-02 0.  1.
    10030    2    1    2    0    0  0.00000000000E+00  0.00000000000E+00  0.42759799664E+03  0.34496838459E+04  0.34230802780E+04 0.  0.
        3    1    3    3  502    0  0.41350675105E+03  0.13964486911E+04 -0.69225056227E+03  0.16125345364E+04  0.10100000352E+00 0.  1.
       -3    1    3    3    0  502 -0.41350675105E+03 -0.13964486911E+04  0.11198485589E+04  0.18371493094E+04  0.10100000352E+00 0. -1.
</event>
<event>
 5   0  0.1880301E-06  0.2613899E+04  0.7818609E-02  0.8363495E-01
       -2   -1    0    0    0  501  0.00000000000E+00  0.00000000000E+00  0.98553614647E+03  0.98553614647E+03  0.25500000920E-02 0.  1.
        2   -1    0    0  501    0  0.00000000000E+00  0.00000000000E+00 -0.17331849710E+04  0.17331849710E+04  0.25500000920E-02 0. -1.
    10030    2    1    2    0    0  0.00000000000E+00  0.00000000000E+00 -0.74764882453E+03  0.27187211175E+04  0.26138985730E+04 0.  0.
        4    1    3    3  502    0  0.45165976895E+03 -0.97203621067E+03 -0.11516537430E+04  0.15732637727E+04  0.12699999809E+01 0. -1.
       -4    1    3    3    0  502 -0.45165976895E+03  0.97203621067E+03  0.40400491845E+03  0.11454573448E+04  0.12699999809E+01 0.  1.
</event>
<event>
 5   0  0.1948507E-06  0.2941751E+04  0.7818609E-02  0.8260563E-01
        2   -1    0    0  501    0  0.00000000000E+00  0.00000000000E+00  0.20009832516E+04  0.20009832516E+04  0.25500000920E-02 0.  1.
       -2   -1    0    0    0  501  0.00000000000E+00  0.00000000000E+00 -0.10812059187E+04  0.10812059187E+04  0.25500000920E-02 0. -1.
    10030    2    1    2    0    0  0.00000000000E+00  0.00000000000E+00  0.91977733290E+03  0.30821891702E+04  0.29417511348E+04 0.  0.
        1    1    3    3  502    0  0.65153666000E+03 -0.13097567947E+04  0.62054529406E+03  0.15890372377E+04  0.50400001928E-02 0. -1.
       -1    1    3    3    0  502 -0.65153666000E+03  0.13097567947E+04  0.29923203884E+03  0.14931519326E+04  0.50400001928E-02 0.  1.
</event>
<event>
 5   0  0.1948507E-06  0.3312290E+04  0.7818609E-02  0.8159775E-01
       -2   -1    0    0    0  501  0.00000000000E+00  0.00000000000E+00  0.11947641860E+04  0.11947641860E+04  0.25500000920E-02 0. -1.
        2   -1    0    0  501    0  0.00000000000E+00  0.00000000000E+00 -0.22956966637E+04  0.22956966637E+04  0.25500000920E-02 0.  1.
    10030    2    1    2    0    0  0.00000000000E+00  0.00000000000E+00 -0.11009324777E+04  0.34904608497E+04  0.33122899364E+04 0.  0.
        1    1    3    3  502    0 -0.77736521262E+03 -0.14620871562E+04 -0.58065379469E+03  0.17547519356E+04  0.50400001928E-02 0.  1.
       -1    1    3    3    0  502  0.77736521262E+03  0.14620871562E+04 -0.52027868298E+03  0.17357089140E+04  0.50400001928E-02 0. -1.
</event>
<event>
 5   0  0.1339844E-06  0.3425413E+04  0.7818609E-02  0.8131697E-01
        2   -1    0    0  501    0  0.00000000000E+00  0.00000000000E+00  0.20523490853E+04  0.20523490854E+04  0.25500000920E-02 0. -1.
       -2   -1    0    0    0  501  0.00000000000E+00  0.00000000000E+00 -0.14292709615E+04  0.14292709615E+04  0.25500000920E-02 0.  1.
    10030    2    1    2    0    0  0.00000000000E+00  0.00000000000E+00  0.62307812383E+03  0.34816200469E+04  0.34254126470E+04 0.  0.
        3    1    3    3  502    0 -0.19980600905E+03 -0.12644088482E+04 -0.84498548964E+03  0.15338359315E+04  0.10100000352E+00 0.  1.
       -3    1    3    3    0  502  0.19980600905E+03  0.12644088482E+04  0.14680636135E+04  0.19477841154E+04  0.10100000352E+00 0. -1.
</event>
<event>
 5   0  0.1339844E-06  0.3417331E+04  0.7818609E-02  0.8133666E-01
       -2   -1    0    0    0  501  0.00000000000E+00  0.00000000000E+00  0.14529795493E+04  0.14529795493E+04  0.25500000920E-02 0.  1.
        2   -1    0    0  501    0  0.00000000000E+00  0.00000000000E+00 -0.20093454375E+04  0.20093454375E+04  0.25500000920E-02 0. -1.
    10030    2    1    2    0    0  0.00000000000E+00  0.00000000000E+00 -0.55636588820E+03  0.34623249868E+04  0.34173310218E+04 0.  0.
        3    1    3    3  502    0  0.11217223422E+04  0.26421560973E+03  0.99996047536E+03  0.15257758236E+04  0.10100000352E+00 0.  1.
       -3    1    3    3    0  502 -0.11217223422E+04 -0.26421560973E+03 -0.15563263636E+04  0.19365491632E+04  0.10100000352E+00 0. -1.
</event>
<event>
 5   0  0.6134625E-07  0.3442024E+04  0.7818609E-02  0.8127669E-01
       -1   -1    0    0    0  501  0.00000000000E+00  0.00000000000E+00  0.15250420494E+04  0.15250420494E+04  0.50400001928E-02 0. -1.
        1   -1    0    0  501    0  0.00000000000E+00  0.00000000000E+00 -0.19421648170E+04  0.19421648170E+04  0.50400001928E-02 0.  1.
    10030    2    1    2    0    0  0.00000000000E+00  0.00000000000E+00 -0.41712276763E+03  0.34672068665E+04  0.34420244118E+04 0.  0.
        3    1    3    3  502    0 -0.13669212065E+03  0.95540975005E+02 -0.19340061334E+04  0.19411832856E+04  0.10100000352E+00 0.  1.
       -3    1    3    3    0  502  0.13669212065E+03 -0.95540975005E+02  0.15168833658E+04  0.15260235809E+04  0.10100000352E+00 0. -1.
</event>
<event>
 5   0  0.6146388E-07  0.3405716E+04  0.7818609E-02  0.8136505E-01
       -1   -1    0    0    0  501  0.00000000000E+00  0.00000000000E+00  0.99911517072E+03  0.99911517073E+03  0.50400001928E-02 0.  1.
        1   -1    0    0  501    0  0.00000000000E+00  0.00000000000E+00 -0.29022931864E+04  0.29022931864E+04  0.50400001928E-02 0. -1.
    10030    2    1    2    0    0  0.00000000000E+00  0.00000000000E+00 -0.19031780156E+04  0.39014083571E+04  0.34057158733E+04 0.  0.
        4    1    3    3  502    0 -0.13196577748E+04  0.34199824174E+03 -0.21205323023E+04  0.25209359964E+04  0.12699999809E+01 0. -1.
       -4    1    3    3    0  502  0.13196577748E+04 -0.34199824174E+03  0.21735428665E+03  0.13804723607E+04  0.12699999809E+01 0.  1.
</event>
<event>
 5   0  0.1880301E-06  0.3423858E+04  0.7818609E-02  0.8132075E-01
       -2   -1    0    0    0  501  0.00000000000E+00  0.00000000000E+00  0.12287040984E+04  0.12287040984E+04  0.25500000920E-02 0.  1.
        2   -1    0    0  501    0  0.00000000000E+00  0.00000000000E+00 -0.23851970190E+04  0.23851970190E+04  0.25500000920E-02 0. -1.
    10030    2    1    2    0    0  0.00000000000E+00  0.00000000000E+00 -0.11564929207E+04  0.36139011174E+04  0.34238582639E+04 0.  0.
        4    1    3    3  502    0 -0.34396376753E+03 -0.93776711710E+03 -0.20457337086E+04  0.22765645738E+04  0.12699999809E+01 0. -1.
       -4    1    3    3    0  502  0.34396376753E+03  0.93776711710E+03  0.88924078791E+03  0.13373365437E+04  0.12699999809E+01 0.  1.
</event>
<event>
 5   0  0.6134625E-07  0.3385590E+04  0.7818609E-02  0.8141452E-01
       -1   -1    0    0    0  501  0.00000000000E+00  0.00000000000E+00  0.20689579774E+04  0.20689579774E+04  0.50400001928E-02 0.  1.
        1   -1    0    0  501    0  0.00000000000E+00  0.00000000000E+00 -0.13850232505E+04  0.13850232505E+04  0.50400001928E-02 0. -1.
    10030    2    1    2    0    0  0.00000000000E+00  0.00000000000E+00  0.68393472688E+03  0.34539812280E+04  0.33855899947E+04 0.  0.
        1    1    3    3  502    0 -0.32111619295E+03  0.65383243490E+02  0.20362883053E+04  0.20624889430E+04  0.50400001928E-02 0.  1.
       -1    1    3    3    0  502  0.32111619295E+03 -0.65383243490E+02 -0.13523535784E+04  0.13914922849E+04  0.50400001928E-02 0. -1.
</event>
<event>
 5   0  0.6218695E-07  0.3376988E+04  0.7818609E-02  0.8143577E-01
       -1   -1    0    0    0  501  0.00000000000E+00  0.00000000000E+00  0.18109772929E+04  0.18109772929E+04  0.50400001928E-02 0. -1.
        1   -1    0    0  501    0  0.00000000000E+00  0.00000000000E+00 -0.15742943800E+04  0.15742943800E+04  0.50400001928E-02 0.  1.
    10030    2    1    2    0    0  0.00000000000E+00  0.00000000000E+00  0.23668291288E+03  0.33852716729E+04  0.33769876366E+04 0.  0.
        2    1    3    3  502    0 -0.20515462838E+03  0.89657412586E+03  0.15378227372E+04  0.17918795595E+04  0.25500000920E-02 0. -1.
       -2    1    3    3    0  502  0.20515462838E+03 -0.89657412586E+03 -0.13011398243E+04  0.15933921134E+04  0.25500000920E-02 0.  1.
</event>
<event>
 5   0  0.6134625E-07  0.3396698E+04  0.7818609E-02  0.8138717E-01
        1   -1    0    0  501    0  0.00000000000E+00  0.00000000000E+00  0.14534760467E+04  0.14534760467E+04  0.50400001928E-02 0. -1.
       -1   -1    0    0    0  501  0.00000000000E+00  0.00000000000E+00 -0.19844771661E+04  0.19844771661E+04  0.50400001928E-02 0.  1.
    10030    2    1    2    0    0  0.00000000000E+00  0.00000000000E+00 -0.53100111934E+03  0.34379532128E+04  0.33966984124E+04 0.  0.
        3    1    3    3  502    0  0.14156167703E+04 -0.92341854770E+03 -0.43400793541E+03  0.17450030237E+04  0.10100000352E+00 0.  1.
       -3    1    3    3    0  502 -0.14156167703E+04  0.92341854770E+03 -0.96993183935E+02  0.16929501891E+04  0.10100000352E+00 0. -1.
</event>
<event>
 5   0  0.6134625E-07  0.3417558E+04  0.7818609E-02  0.8133610E-01
        1   -1    0    0  501    0  0.00000000000E+00  0.00000000000E+00  0.22424842356E+04  0.22424842356E+04  0.50400001928E-02 0.  1.
       -1   -1    0    0    0  501  0.00000000000E+00  0.00000000000E+00 -0.13020944123E+04  0.13020944123E+04  0.50400001928E-02 0. -1.
    10030    2    1    2    0    0  0.00000000000E+00  0.00000000000E+00  0.94038982335E+03  0.35445786479E+04  0.34175583055E+04 0.  0.
        1    1    3    3  502    0  0.48758667697E+03  0.62632456277E+03  0.20396801103E+04  0.21886795512E+04  0.50400001928E-02 0.  1.
       -1    1    3    3    0  502 -0.48758667697E+03 -0.62632456277E+03 -0.10992902869E+04  0.13558990967E+04  0.50400001928E-02 0. -1.
</event>
<event>
 5   0  0.6134625E-07  0.3403313E+04  0.7818609E-02  0.8137094E-01
       -1   -1    0    0    0  501  0.00000000000E+00  0.00000000000E+00  0.11202042092E+04  0.11202042092E+04  0.50400001928E-02 0. -1.
        1   -1    0    0  501    0  0.00000000000E+00  0.00000000000E+00 -0.25849169866E+04  0.25849169866E+04  0.50400001928E-02 0.  1.
    10030    2    1    2    0    0  0.00000000000E+00  0.00000000000E+00 -0.14647127774E+04  0.37051211957E+04  0.34033130263E+04 0.  0.
        3    1    3    3  502    0 -0.72332364802E+03 -0.99345665238E+03  0.54909139082E+03  0.13459771861E+04  0.10100000352E+00 0.  1.
       -3    1    3    3    0  502  0.72332364802E+03  0.99345665238E+03 -0.20138041682E+04  0.23591440096E+04  0.10100000352E+00 0. -1.
</event>
<event>
 5   0  0.1911477E-06  0.3355896E+04  0.7818609E-02  0.8148817E-01
        2   -1    0    0  501    0  0.00000000000E+00  0.00000000000E+00  0.24141721824E+04  0.24141721824E+04  0.25500000920E-02 0. -1.
       -2   -1    0    0    0  501  0.00000000000E+00  0.00000000000E+00 -0.11662418844E+04  0.11662418844E+04  0.25500000920E-02 0.  1.
    10030    2    1    2    0    0  0.00000000000E+00  0.00000000000E+00  0.12479302980E+04  0.35804140669E+04  0.33558955379E+04 0.  0.
        5    1    3    3  502    0  0.45612914656E+03 -0.31676633286E+03 -0.10653471714E+04  0.12014080878E+04  0.46999998093E+01 0.  1.
       -5    1    3    3    0  502 -0.45612914656E+03  0.31676633286E+03  0.23132774694E+04  0.23790059790E+04  0.46999998093E+01 0. -1.
</event>
<event>
 5   0  0.6134625E-07  0.3046091E+04  0.7818609E-02  0.8230690E-01
        1   -1    0    0  501    0  0.00000000000E+00  0.00000000000E+00  0.25617503144E+04  0.25617503144E+04  0.50400001928E-02 0.  1.
       -1   -1    0    0    0  501  0.00000000000E+00  0.00000000000E+00 -0.90550093524E+03  0.90550093525E+03  0.50400001928E-02 0. -1.
    10030    2    1    2    0    0  0.00000000000E+00  0.00000000000E+00  0.16562493792E+04  0.34672512497E+04  0.30460908099E+04 0.  0.
        5    1    3    3  502    0 -0.78910609303E+03 -0.11860407908E+04  0.14413768389E+04  0.20265661758E+04  0.46999998093E+01 0.  1.
       -5    1    3    3    0  502  0.78910609303E+03  0.11860407908E+04  0.21487254032E+03  0.14406850738E+04  0.46999998093E+01 0. -1.
</event>
<event>
 5   0  0.1911477E-06  0.3334478E+04  0.7818609E-02  0.8154177E-01
        2   -1    0    0  501    0  0.00000000000E+00  0.00000000000E+00  0.18469595957E+04  0.18469595957E+04  0.25500000920E-02 0. -1.
       -2   -1    0    0    0  501  0.00000000000E+00  0.00000000000E+00 -0.15050064132E+04  0.15050064132E+04  0.25500000920E-02 0.  1.
    10030    2    1    2    0    0  0.00000000000E+00  0.00000000000E+00  0.34195318256E+03  0.33519660089E+04  0.33344780920E+04 0.  0.
        5    1    3    3  502    0 -0.11904390789E+04 -0.90493925888E+03  0.91213823040E+03  0.17515931331E+04  0.46999998093E+01 0. -1.
       -5    1    3    3    0  502  0.11904390789E+04  0.90493925888E+03 -0.57018504783E+03  0.16003728758E+04  0.46999998093E+01 0.  1.
</event>
<event>
 5   0  0.1911477E-06  0.3447282E+04  0.7818609E-02  0.8126398E-01
       -2   -1    0    0    0  501  0.00000000000E+00  0.00000000000E+00  0.15983858496E+04  0.15983858496E+04  0.25500000920E-02 0. -1.
        2   -1    0    0  501    0  0.00000000000E+00  0.00000000000E+00 -0.18587112996E+04  0.18587112996E+04  0.25500000920E-02 0.  1.
    10030    2    1    2    0    0  0.00000000000E+00  0.00000000000E+00 -0.26032545006E+03  0.34570971492E+04  0.34472817348E+04 0.  0.
        5    1    3    3  502    0 -0.19183368788E+03  0.16161443573E+04  0.43907392945E+03  0.16856840608E+04  0.46999998093E+01 0. -1.
       -5    1    3    3    0  502  0.19183368788E+03 -0.16161443573E+04 -0.69939937951E+03  0.17714130883E+04  0.46999998093E+01 0.  1.
</event>
<event>
 5   0  0.6134625E-07  0.3433107E+04  0.7818609E-02  0.8129828E-01
        1   -1    0    0  501    0  0.00000000000E+00  0.00000000000E+00  0.17514636216E+04  0.17514636216E+04  0.50400001928E-02 0. -1.
       -1   -1    0    0    0  501  0.00000000000E+00  0.00000000000E+00 -0.16823395981E+04  0.16823395981E+04  0.50400001928E-02 0.  1.
    10030    2    1    2    0    0  0.00000000000E+00  0.00000000000E+00  0.69124023555E+02  0.34338032197E+04  0.34331074002E+04 0.  0.
        1    1    3    3  502    0 -0.78322024567E+03  0.11864230039E+04 -0.92767408946E+03  0.16975313587E+04  0.50400001928E-02 0.  1.
       -1    1    3    3    0  502  0.78322024567E+03 -0.11864230039E+04  0.99679811301E+03  0.17362718611E+04  0.50400001928E-02 0. -1.
</event>
<event>
 5   0  0.1911477E-06  0.3348703E+04  0.7818609E-02  0.8150612E-01
       -2   -1    0    0    0  501  0.00000000000E+00  0.00000000000E+00  0.11654521693E+04  0.11654521693E+04  0.25500000920E-02 0. -1.
        2   -1    0    0  501    0  0.00000000000E+00  0.00000000000E+00 -0.24054644607E+04  0.24054644607E+04  0.25500000920E-02 0.  1.
    10030    2    1    2    0    0  0.00000000000E+00  0.00000000000E+00 -0.12400122914E+04  0.35709166300E+04  0.33487034947E+04 0.  0.
        5    1    3    3  502    0 -0.52665234597E+03 -0.15523952250E+04 -0.25660165388E+03  0.16592649357E+04  0.46999998093E+01 0. -1.
       -5    1    3    3    0  502  0.52665234597E+03  0.15523952250E+04 -0.98341063753E+03  0.19116516943E+04  0.46999998093E+01 0.  1.
</event>
<event>
 5   0  0.6134625E-07  0.3299901E+04  0.7818609E-02  0.8162921E-01
        1   -1    0    0  501    0  0.00000000000E+00  0.00000000000E+00  0.18414687178E+04  0.18414687178E+04  0.50400001928E-02 0.  1.
       -1   -1    0    0    0  501  0.00000000000E+00  0.00000000000E+00 -0.14783509084E+04  0.14783509084E+04  0.50400001928E-02 0. -1.
    10030    2    1    2    0    0  0.00000000000E+00  0.00000000000E+00  0.36311780937E+03  0.33198196261E+04  0.32999011813E+04 0.  0.
        3    1    3    3  502    0 -0.15730168152E+04 -0.48950790156E+03  0.27341751740E+03  0.16699571958E+04  0.10100000352E+00 0.  1.
       -3    1    3    3    0  502  0.15730168152E+04  0.48950790156E+03  0.89700291975E+02  0.16498624304E+04  0.10100000352E+00 0. -1.
</event>
<event>
 5   0  0.1880301E-06  0.3222429E+04  0.7818609E-02  0.8182919E-01
       -2   -1    0    0    0  501  0.00000000000E+00  0.00000000000E+00  0.18094722584E+04  0.18094722584E+04  0.25500000920E-02 0. -1.
        2   -1    0    0  501    0  0.00000000000E+00  0.00000000000E+00 -0.14346793307E+04  0.14346793307E+04  0.25500000920E-02 0.  1.
    10030    2    1    2    0    0  0.00000000000E+00  0.00000000000E+00  0.37479292770E+03  0.32441515892E+04  0.32224291761E+04 0.  0.
        4    1    3    3  502    0 -0.34469630199E+03  0.52798600855E+03  0.16801004445E+04  0.17945260885E+04  0.12699999809E+01 0. -1.
       -4    1    3    3    0  502  0.34469630199E+03 -0.52798600855E+03 -0.13053075168E+04  0.14496255007E+04  0.12699999809E+01 0.  1.
</event>
<event>
 5   0  0.6218695E-07  0.3389848E+04  0.7818609E-02  0.8140402E-01
       -1   -1    0    0    0  501  0.00000000000E+00  0.00000000000E+00  0.14656934999E+04  0.14656934999E+04  0.50400001928E-02 0.  1.
        1   -1    0    0  501    0  0.00000000000E+00  0.00000000000E+00 -0.19600059960E+04  0.19600059960E+04  0.50400001928E-02 0. -1.
    10030    2    1    2    0    0  0.00000000000E+00  0.00000000000E+00 -0.49431249614E+03  0.34256994959E+04  0.33898484026E+04 0.  0.
        2    1    3    3  502    0 -0.78008634070E+03  0.58102668920E+03 -0.16498711929E+04  0.19152549871E+04  0.25500000920E-02 0. -1.
       -2    1    3    3    0  502  0.78008634070E+03 -0.58102668920E+03  0.11555586968E+04  0.15104445088E+04  0.25500000920E-02 0.  1.
</event>
<event>
 5   0  0.1880301E-06  0.3166495E+04  0.7818609E-02  0.8197722E-01
        2   -1    0    0  501    0  0.00000000000E+00  0.00000000000E+00  0.19744676906E+04  0.19744676906E+04  0.25500000920E-02 0.  1.
       -2   -1    0    0    0  501  0.00000000000E+00  0.00000000000E+00 -0.12695438594E+04  0.12695438594E+04  0.25500000920E-02 0. -1.
    10030    2    1    2    0    0  0.00000000000E+00  0.00000000000E+00  0.70492383115E+03  0.32440115500E+04  0.31664954333E+04 0.  0.
        4    1    3    3  502    0 -0.14526931552E+04 -0.34952819514E+03  0.88890649652E+03  0.17385752025E+04  0.12699999809E+01 0.  1.
       -4    1    3    3    0  502  0.14526931552E+04  0.34952819514E+03 -0.18398266538E+03  0.15054363475E+04  0.12699999809E+01 0. -1.
</event>
<event>
 5   0  0.1797075E-06  0.3373047E+04  0.7818609E-02  0.8144553E-01
       -2   -1    0    0    0  501  0.00000000000E+00  0.00000000000E+00  0.22848758853E+04  0.22848758853E+04  0.25500000920E-02 0.  1.
        2   -1    0    0  501    0  0.00000000000E+00  0.00000000000E+00 -0.12448650403E+04  0.12448650403E+04  0.25500000920E-02 0. -1.
    10030    2    1    2    0    0  0.00000000000E+00  0.00000000000E+00  0.10400108450E+04  0.35297409257E+04  0.33730473529E+04 0.  0.
        2    1    3    3  502    0 -0.10925519392E+03  0.16255481323E+04  0.63844010240E+02  0.16304660332E+04  0.25500000920E-02 0. -1.
       -2    1    3    3    0  502  0.10925519392E+03 -0.16255481323E+04  0.97616683474E+03  0.18992748924E+04  0.25500000920E-02 0.  1.
</event>
<event>
 5   0  0.6146388E-07  0.3416223E+04  0.7818609E-02  0.8133936E-01
       -1   -1    0    0    0  501  0.00000000000E+00  0.00000000000E+00  0.28289498560E+04  0.28289498560E+04  0.50400001928E-02 0. -1.
        1   -1    0    0  501    0  0.00000000000E+00  0.00000000000E+00 -0.10313525197E+04  0.10313525198E+04  0.50400001928E-02 0.  1.
    10030    2    1    2    0    0  0.00000000000E+00  0.00000000000E+00  0.17975973362E+04  0.38603023757E+04  0.34162228043E+04 0.  0.
        4    1    3    3  502    0  0.16194749852E+04 -0.54285428025E+03  0.88082676134E+03  0.19217823482E+04  0.12699999809E+01 0.  1.
       -4    1    3    3    0  502 -0.16194749852E+04  0.54285428025E+03  0.91677057491E+03  0.19385200276E+04  0.12699999809E+01 0. -1.
</event>
<event>
 5   0  0.6134625E-07  0.3404810E+04  0.7818609E-02  0.8136727E-01
       -1   -1    0    0    0  501  0.00000000000E+00  0.00000000000E+00  0.11811094995E+04  0.11811094995E+04  0.50400001928E-02 0. -1.
        1   -1    0    0  501    0  0.00000000000E+00  0.00000000000E+00 -0.24537800779E+04  0.24537800779E+04  0.50400001928E-02 0.  1.
    10030    2    1    2    0    0  0.00000000000E+00  0.00000000000E+00 -0.12726705784E+04  0.36348895774E+04  0.34048101032E+04 0.  0.
        5    1    3    3  502    0  0.49851790872E+03 -0.78870862638E+03 -0.21564881791E+04  0.23496903539E+04  0.46999998093E+01 0.  1.
       -5    1    3    3    0  502 -0.49851790872E+03  0.78870862638E+03  0.88381760072E+03  0.12851992235E+04  0.46999998093E+01 0. -1.
</event>
<event>
 5   0  0.6134625E-07  0.3468340E+04  0.7818609E-02  0.8121334E-01
       -1   -1    0    0    0  501  0.00000000000E+00  0.00000000000E+00  0.15251798299E+04  0.15251798299E+04  0.50400001928E-02 0. -1.
        1   -1    0    0  501    0  0.00000000000E+00  0.00000000000E+00 -0.19717977234E+04  0.19717977234E+04  0.50400001928E-02 0.  1.
    10030    2    1    2    0    0  0.00000000000E+00  0.00000000000E+00 -0.44661789344E+03  0.34969775533E+04  0.34683403042E+04 0.  0.
        1    1    3    3  502    0  0.41321834797E+03  0.15966166158E+04  0.31722585703E+03  0.16794541570E+04  0.50400001928E-02 0. -1.
       -1    1    3    3    0  502 -0.41321834797E+03 -0.15966166158E+04 -0.76384375047E+03  0.18175233963E+04  0.50400001928E-02 0.  1.
</event>
<event>
 5   0  0.1339844E-06  0.3547950E+04  0.7818609E-02  0.8102520E-01
       -2   -1    0    0    0  501  0.00000000000E+00  0.00000000000E+00  0.14843439665E+04  0.14843439665E+04  0.25500000920E-02 0. -1.
        2   -1    0    0  501    0  0.00000000000E+00  0.00000000000E+00 -0.21201197957E+04  0.21201197957E+04  0.25500000920E-02 0.  1.
    10030    2    1    2    0    0  0.00000000000E+00  0.00000000000E+00 -0.63577582920E+03  0.36044637622E+04  0.35479498458E+04 0.  0.
        3    1    3    3  502    0  0.12165345933E+04  0.11173841715E+04 -0.97509496320E+03  0.19181538001E+04  0.10100000352E+00 0.  1.
       -3    1    3    3    0  502 -0.12165345933E+04 -0.11173841715E+04  0.33931913400E+03  0.16863099621E+04  0.10100000352E+00 0. -1.
</event>
<event>
 5   0  0.1339844E-06  0.3426465E+04  0.7818609E-02  0.8131441E-01
        2   -1    0    0  501    0  0.00000000000E+00  0.00000000000E+00  0.24714896489E+04  0.24714896489E+04  0.25500000920E-02 0. -1.
       -2   -1    0    0    0  501  0.00000000000E+00  0.00000000000E+00 -0.11876095695E+04  0.11876095695E+04  0.25500000920E-02 0.  1.
    10030    2    1    2    0    0  0.00000000000E+00  0.00000000000E+00  0.12838800794E+04  0.36590992185E+04  0.34264645091E+04 0.  0.
        3    1    3    3  502    0  0.32553866100E+03 -0.16630179789E+04  0.91116895561E+03  0.19240148372E+04  0.10100000352E+00 0. -1.
       -3    1    3    3    0  502 -0.32553866100E+03  0.16630179789E+04  0.37271112376E+03  0.17350843812E+04  0.10100000352E+00 0.  1.
</event>
<event>
 5   0  0.1339844E-06  0.3471154E+04  0.7818609E-02  0.8120660E-01
        2   -1    0    0  501    0  0.00000000000E+00  0.00000000000E+00  0.21711082383E+04  0.21711082383E+04  0.25500000920E-02 0.  1.
       -2   -1    0    0    0  501  0.00000000000E+00  0.00000000000E+00 -0.13874144151E+04  0.13874144151E+04  0.25500000920E-02 0. -1.
    10030    2    1    2    0    0  0.00000000000E+00  0.00000000000E+00  0.78369382321E+03  0.35585226534E+04  0.34711536218E+04 0.  0.
        3    1    3    3  502    0  0.10516794545E+04  0.17724893980E+03 -0.10118426025E+04  0.14701266354E+04  0.10100000352E+00 0. -1.
       -3    1    3    3    0  502 -0.10516794545E+04 -0.17724893980E+03  0.17955364257E+04  0.20883960180E+04  0.10100000352E+00 0.  1.
</event>
<event>
 5   0  0.6218695E-07  0.3394489E+04  0.7818609E-02  0.8139260E-01
        1   -1    0    0  501    0  0.00000000000E+00  0.00000000000E+00  0.23998462119E+04  0.23998462119E+04  0.50400001928E-02 0. -1.
       -1   -1    0    0    0  501  0.00000000000E+00  0.00000000000E+00 -0.12003432308E+04  0.12003432308E+04  0.50400001928E-02 0.  1.
    10030    2    1    2    0    0  0.00000000000E+00  0.00000000000E+00  0.11995029812E+04  0.36001894427E+04  0.33944891547E+04 0.  0.
        2    1    3    3  502    0  0.27238390212E+03  0.16752413571E+04  0.60351035695E+03  0.18013470920E+04  0.25500000920E-02 0. -1.
       -2    1    3    3    0  502 -0.27238390212E+03 -0.16752413571E+04  0.59599262421E+03  0.17988423508E+04  0.25500000920E-02 0.  1.
</event>
<event>
 5   0  0.1880301E-06  0.3399028E+04  0.7818609E-02  0.8138145E-01
        2   -1    0    0  501    0  0.00000000000E+00  0.00000000000E+00  0.13431908399E+04  0.13431908400E+04  0.25500000920E-02 0. -1.
       -2   -1    0    0    0  501  0.00000000000E+00  0.00000000000E+00 -0.21503633120E+04  0.21503633120E+04  0.25500000920E-02 0.  1.
    10030    2    1    2    0    0  0.00000000000E+00  0.00000000000E+00 -0.80717247206E+03  0.34935541520E+04  0.33990282748E+04 0.  0.
        4    1    3    3  502    0  0.77095801213E+03 -0.15039502016E+04 -0.58774559639E+03  0.17893263996E+04  0.12699999809E+01 0. -1.
       -4    1    3    3    0  502 -0.77095801213E+03  0.15039502016E+04 -0.21942687567E+03  0.17042277524E+04  0.12699999809E+01 0.  1.
</event>
<event>
 5   0  0.6134625E-07  0.3374395E+04  0.7818609E-02  0.8144219E-01
        1   -1    0    0  501    0  0.00000000000E+00  0.00000000000E+00  0.13272504746E+04  0.13272504746E+04  0.50400001928E-02 0.  1.
       -1   -1    0    0    0  501  0.00000000000E+00  0.00000000000E+00 -0.21447607921E+04  0.21447607921E+04  0.50400001928E-02 0. -1.
    10030    2    1    2    0    0  0.00000000000E+00  0.00000000000E+00 -0.81751031746E+03  0.34720112667E+04  0.33743946297E+04 0.  0.
        1    1    3    3  502    0 -0.15461087984E+04 -0.41168587777E+03  0.14217545451E+03  0.16062850115E+04  0.50400001928E-02 0.  1.
       -1    1    3    3    0  502  0.15461087984E+04  0.41168587777E+03 -0.95968577196E+03  0.18657262552E+04  0.50400001928E-02 0. -1.
</event>
<event>
 5   0  0.1339844E-06  0.3227165E+04  0.7818609E-02  0.8181680E-01
        2   -1    0    0  501    0  0.00000000000E+00  0.00000000000E+00  0.20542269311E+04  0.20542269311E+04  0.25500000920E-02 0.  1.
       -2   -1    0    0    0  501  0.00000000000E+00  0.00000000000E+00 -0.12674588780E+04  0.12674588780E+04  0.25500000920E-02 0. -1.
    10030    2    1    2    0    0  0.00000000000E+00  0.00000000000E+00  0.78676805311E+03  0.33216858091E+04  0.32271647997E+04 0.  0.
        3    1    3    3  502    0  0.17567762140E+03  0.95998253161E+02 -0.12546265163E+04  0.12704983262E+04  0.10100000352E+00 0. -1.
       -3    1    3    3    0  502 -0.17567762140E+03 -0.95998253161E+02  0.20413945695E+04  0.20511874828E+04  0.10100000352E+00 0.  1.
</event>
<event>
 5   0  0.6134625E-07  0.3408887E+04  0.7818609E-02  0.8135729E-01
       -1   -1    0    0    0  501  0.00000000000E+00  0.00000000000E+00  0.27071506967E+04  0.27071506967E+04  0.50400001928E-02 0.  1.
        1   -1    0    0  501    0  0.00000000000E+00  0.00000000000E+00 -0.10731310844E+04  0.10731310844E+04  0.50400001928E-02 0. -1.
    10030    2    1    2    0    0  0.00000000000E+00  0.00000000000E+00  0.16340196122E+04  0.37802817811E+04  0.34088869519E+04 0.  0.
        1    1    3    3  502    0  0.88855152882E+03  0.14666936967E+03  0.24217673884E+04  0.25837943043E+04  0.50400001928E-02 0.  1.
       -1    1    3    3    0  502 -0.88855152882E+03 -0.14666936967E+03 -0.78774777612E+03  0.11964874768E+04  0.50400001928E-02 0. -1.
</event>
<event>
 5   0  0.6134625E-07  0.3425455E+04  0.7818609E-02  0.8131687E-01
        3   -1    0    0  501    0  0.00000000000E+00  0.00000000000E+00  0.11361601086E+04  0.11361601131E+04  0.10100000352E+00 0.  1.
       -3   -1    0    0    0  501  0.00000000000E+00  0.00000000000E+00 -0.25818856316E+04  0.25818856336E+04  0.10100000352E+00 0. -1.
    10030    2    1    2    0    0  0.00000000000E+00  0.00000000000E+00 -0.14457255231E+04  0.37180457467E+04  0.34254549897E+04 0.  0.
        5    1    3    3  502    0  0.12193293181E+03 -0.86534925736E+02 -0.25747811832E+04  0.25791231387E+04  0.46999998093E+01 0. -1.
       -5    1    3    3    0  502 -0.12193293181E+03  0.86534925736E+02  0.11290556601E+04  0.11389226080E+04  0.46999998093E+01 0.  1.
</event>
<event>
 5   0  0.1911477E-06  0.3381879E+04  0.7818609E-02  0.8142368E-01
        2   -1    0    0  501    0  0.00000000000E+00  0.00000000000E+00  0.79772408508E+03  0.79772408508E+03  0.25500000920E-02 0. -1.
       -2   -1    0    0    0  501  0.00000000000E+00  0.00000000000E+00 -0.35842926300E+04  0.35842926300E+04  0.25500000920E-02 0.  1.
    10030    2    1    2    0    0  0.00000000000E+00  0.00000000000E+00 -0.27865685450E+04  0.43820167151E+04  0.33818790984E+04 0.  0.
        5    1    3    3  502    0  0.11617347549E+04  0.65196851678E+03 -0.43875525737E+02  0.13329057504E+04  0.46999998093E+01 0. -1.
       -5    1    3    3    0  502 -0.11617347549E+04 -0.65196851678E+03 -0.27426930192E+04  0.30491109647E+04  0.46999998093E+01 0.  1.
</event>
<event>
 5   0  0.6134625E-07  0.3385489E+04  0.7818609E-02  0.8141477E-01
       -1   -1    0    0    0  501  0.00000000000E+00  0.00000000000E+00  0.15516686419E+04  0.15516686419E+04  0.50400001928E-02 0.  1.
        1   -1    0    0  501    0  0.00000000000E+00  0.00000000000E+00 -0.18466468121E+04  0.18466468122E+04  0.50400001928E-02 0. -1.
    10030    2    1    2    0    0  0.00000000000E+00  0.00000000000E+00 -0.29497817027E+03  0.33983154540E+04  0.33854890052E+04 0.  0.
        5    1    3    3  502    0 -0.21098598467E+02  0.78746991574E+03  0.13564556171E+04  0.15686133846E+04  0.46999998093E+01 0.  1.
       -5    1    3    3    0  502  0.21098598467E+02 -0.78746991574E+03 -0.16514337874E+04  0.18297020695E+04  0.46999998093E+01 0. -1.
</event>
<event>
 5   0  0.6218695E-07  0.3389803E+04  0.7818609E-02  0.8140414E-01
        1   -1    0    0  501    0  0.00000000000E+00  0.00000000000E+00  0.21980926127E+04  0.21980926127E+04  0.50400001928E-02 0. -1.
       -1   -1    0    0    0  501  0.00000000000E+00  0.00000000000E+00 -0.13069014704E+04  0.13069014704E+04  0.50400001928E-02 0.  1.
    10030    2    1    2    0    0  0.00000000000E+00  0.00000000000E+00  0.89119114237E+03  0.35049940831E+04  0.33898026300E+04 0.  0.
        2    1    3    3  502    0 -0.87597465289E+03 -0.83607303982E+03 -0.78059552132E+03  0.14407217248E+04  0.25500000920E-02 0.  1.
       -2    1    3    3    0  502  0.87597465289E+03  0.83607303982E+03  0.16717866637E+04  0.20642723583E+04  0.25500000920E-02 0. -1.
</event>
<event>
 5   0  0.1797075E-06  0.3373229E+04  0.7818609E-02  0.8144508E-01
        2   -1    0    0  501    0  0.00000000000E+00  0.00000000000E+00  0.20521217033E+04  0.20521217033E+04  0.25500000920E-02 0.  1.
       -2   -1    0    0    0  501  0.00000000000E+00  0.00000000000E+00 -0.13862085279E+04  0.13862085279E+04  0.25500000920E-02 0. -1.
    10030    2    1    2    0    0  0.00000000000E+00  0.00000000000E+00  0.66591317537E+03  0.34383302312E+04  0.33732290793E+04 0.  0.
        2    1    3    3  502    0 -0.11337892239E+04  0.42292819482E+02 -0.93908732175E+03  0.14728040211E+04  0.25500000920E-02 0. -1.
       -2    1    3    3    0  502  0.11337892239E+04 -0.42292819482E+02  0.16050004971E+04  0.19655262101E+04  0.25500000920E-02 0.  1.
</event>
<event>
 5   0  0.1339844E-06  0.3446629E+04  0.7818609E-02  0.8126556E-01
        2   -1    0    0  501    0  0.00000000000E+00  0.00000000000E+00  0.21205914604E+04  0.21205914604E+04  0.25500000920E-02 0.  1.
       -2   -1    0    0    0  501  0.00000000000E+00  0.00000000000E+00 -0.14004643581E+04  0.14004643581E+04  0.25500000920E-02 0. -1.
    10030    2    1    2    0    0  0.00000000000E+00  0.00000000000E+00  0.72012710222E+03  0.35210558185E+04  0.34466289376E+04 0.  0.
        3    1    3    3  502    0 -0.43556664316E+03 -0.52344978236E+03 -0.12571863201E+04  0.14297676137E+04  0.10100000352E+00 0. -1.
       -3    1    3    3    0  502  0.43556664316E+03  0.52344978236E+03  0.19773134224E+04  0.20912882049E+04  0.10100000352E+00 0.  1.
</event>
<event>
 5   0  0.6134625E-07  0.2887090E+04  0.7818609E-02  0.8276729E-01
        1   -1    0    0  501    0  0.00000000000E+00  0.00000000000E+00  0.12803754995E+04  0.12803754995E+04  0.50400001928E-02 0. -1.
       -1   -1    0    0    0  501  0.00000000000E+00  0.00000000000E+00 -0.16275090898E+04  0.16275090899E+04  0.50400001928E-02 0.  1.
    10030    2    1    2    0    0  0.00000000000E+00  0.00000000000E+00 -0.34713359039E+03  0.29078845893E+04  0.28870904134E+04 0.  0.
        3    1    3    3  502    0  0.72860662356E+03  0.89494807107E+03 -0.10470053721E+04  0.15582104868E+04  0.10100000352E+00 0.  1.
       -3    1    3    3    0  502 -0.72860662356E+03 -0.89494807107E+03  0.69987178175E+03  0.13496741025E+04  0.10100000352E+00 0. -1.
</event>
<event>
 5   0  0.1911477E-06  0.3411175E+04  0.7818609E-02  0.8135169E-01
       -2   -1    0    0    0  501  0.00000000000E+00  0.00000000000E+00  0.13489008516E+04  0.13489008516E+04  0.25500000920E-02 0.  1.
        2   -1    0    0  501    0  0.00000000000E+00  0.00000000000E+00 -0.21565915195E+04  0.21565915195E+04  0.25500000920E-02 0. -1.
    10030    2    1    2    0    0  0.00000000000E+00  0.00000000000E+00 -0.80769066787E+03  0.35054923711E+04  0.34111746582E+04 0.  0.
        5    1    3    3  502    0 -0.33308311999E+03  0.30589086783E+03  0.12861595400E+04  0.13633569013E+04  0.46999998093E+01 0.  1.
       -5    1    3    3    0  502  0.33308311999E+03 -0.30589086783E+03 -0.20938502079E+04  0.21421354698E+04  0.46999998093E+01 0. -1.
</event>
<event>
 5   0  0.1880301E-06  0.3381498E+04  0.7818609E-02  0.8142462E-01
        2   -1    0    0  501    0  0.00000000000E+00  0.00000000000E+00  0.23791750421E+04  0.23791750421E+04  0.25500000920E-02 0. -1.
       -2   -1    0    0    0  501  0.00000000000E+00  0.00000000000E+00 -0.12015221990E+04  0.12015221990E+04  0.25500000920E-02 0.  1.
    10030    2    1    2    0    0  0.00000000000E+00  0.00000000000E+00  0.11776528431E+04  0.35806972410E+04  0.33814976731E+04 0.  0.
        4    1    3    3  502    0 -0.78689895894E+03 -0.14912462013E+04  0.45654837761E+03  0.17468437934E+04  0.12699999809E+01 0.  1.
       -4    1    3    3    0  502  0.78689895894E+03  0.14912462013E+04  0.72110446549E+03  0.18338534477E+04  0.12699999809E+01 0. -1.
</event>
<event>
 5   0  0.1797075E-06  0.3365217E+04  0.7818609E-02  0.8146496E-01
       -2   -1    0    0    0  501  0.00000000000E+00  0.00000000000E+00  0.95881738090E+03  0.95881738090E+03  0.25500000920E-02 0.  1.
        2   -1    0    0  501    0  0.00000000000E+00  0.00000000000E+00 -0.29527739640E+04  0.29527739640E+04  0.25500000920E-02 0. -1.
    10030    2    1    2    0    0  0.00000000000E+00  0.00000000000E+00 -0.19939565831E+04  0.39115913450E+04  0.33652167827E+04 0.  0.
        2    1    3    3  502    0 -0.22054806128E+03  0.96929019526E+03 -0.25749667159E+04  0.27601845079E+04  0.25500000920E-02 0. -1.
       -2    1    3    3    0  502  0.22054806128E+03 -0.96929019526E+03  0.58101013274E+03  0.11514068370E+04  0.25500000920E-02 0.  1.
</event>
<event>
 5   0  0.1911477E-06  0.3367953E+04  0.7818609E-02  0.8145817E-01
        2   -1    0    0  501    0  0.00000000000E+00  0.00000000000E+00  0.16768109985E+04  0.16768109985E+04  0.25500000920E-02 0.  1.
       -2   -1    0    0    0  501  0.00000000000E+00  0.00000000000E+00 -0.16911727540E+04  0.16911727540E+04  0.25500000920E-02 0. -1.
    10030    2    1    2    0    0  0.00000000000E+00  0.00000000000E+00 -0.14361755423E+02  0.33679837525E+04  0.33679531317E+04 0.  0.
        5    1    3    3  502    0 -0.35850029654E+03  0.16413392033E+04 -0.12223904622E+03  0.16844825073E+04  0.46999998093E+01 0.  1.
       -5    1    3    3    0  502  0.35850029654E+03 -0.16413392033E+04  0.10787729080E+03  0.16835012452E+04  0.46999998093E+01 0. -1.
</event>
<event>
 5   0  0.1797075E-06  0.3440990E+04  0.7818609E-02  0.8127919E-01
        2   -1    0    0  501    0  0.00000000000E+00  0.00000000000E+00  0.25104297819E+04  0.25104297819E+04  0.25500000920E-02 0. -1.
       -2   -1    0    0    0  501  0.00000000000E+00  0.00000000000E+00 -0.11791221821E+04  0.11791221821E+04  0.25500000920E-02 0.  1.
    10030    2    1    2    0    0  0.00000000000E+00  0.00000000000E+00  0.13313075998E+04  0.36895519640E+04  0.34409902310E+04 0.  0.
        2    1    3    3  502    0 -0.10796491819E+04  0.10376022902E+04  0.15741116827E+04  0.21725764562E+04  0.25500000920E-02 0. -1.
       -2    1    3    3    0  502  0.10796491819E+04 -0.10376022902E+04 -0.24280408290E+03  0.15169755078E+04  0.25500000920E-02 0.  1.
</event>
<event>
 5   0  0.1911477E-06  0.3344217E+04  0.7818609E-02  0.8151735E-01
       -2   -1    0    0    0  501  0.00000000000E+00  0.00000000000E+00  0.25438146883E+04  0.25438146883E+04  0.25500000920E-02 0. -1.
        2   -1    0    0  501    0  0.00000000000E+00  0.00000000000E+00 -0.10991160444E+04  0.10991160444E+04  0.25500000920E-02 0.  1.
    10030    2    1    2    0    0  0.00000000000E+00  0.00000000000E+00  0.14446986439E+04  0.36429307327E+04  0.33442174200E+04 0.  0.
        5    1    3    3  502    0  0.15761633481E+04  0.33090578523E+03  0.23259514875E+03  0.16272406496E+04  0.46999998093E+01 0.  1.
       -5    1    3    3    0  502 -0.15761633481E+04 -0.33090578523E+03  0.12121034951E+04  0.20156900832E+04  0.46999998093E+01 0. -1.
</event>
<event>
 5   0  0.1880301E-06  0.3416226E+04  0.7818609E-02  0.8133935E-01
       -2   -1    0    0    0  501  0.00000000000E+00  0.00000000000E+00  0.15036974315E+04  0.15036974315E+04  0.25500000920E-02 0. -1.
        2   -1    0    0  501    0  0.00000000000E+00  0.00000000000E+00 -0.19403177839E+04  0.19403177839E+04  0.25500000920E-02 0.  1.
    10030    2    1    2    0    0  0.00000000000E+00  0.00000000000E+00 -0.43662035240E+03  0.34440152154E+04  0.34162264959E+04 0.  0.
        4    1    3    3  502    0 -0.21505825127E+03 -0.16868606632E+04 -0.56065350231E+02  0.17014387691E+04  0.12699999809E+01 0. -1.
       -4    1    3    3    0  502  0.21505825127E+03  0.16868606632E+04 -0.38055500217E+03  0.17425764463E+04  0.12699999809E+01 0.  1.
</event>
<event>
 5   0  0.1797075E-06  0.3499937E+04  0.7818609E-02  0.8113805E-01
       -2   -1    0    0    0  501  0.00000000000E+00  0.00000000000E+00  0.23791745903E+04  0.23791745903E+04  0.25500000920E-02 0.  1.
        2   -1    0    0  501    0  0.00000000000E+00  0.00000000000E+00 -0.12871649792E+04  0.12871649792E+04  0.25500000920E-02 0. -1.
    10030    2    1    2    0    0  0.00000000000E+00  0.00000000000E+00  0.10920096111E+04  0.36663395696E+04  0.34999372635E+04 0.  0.
        2    1    3    3  502    0 -0.43573435190E+03 -0.43656469895E+03 -0.11695188713E+04  0.13222055635E+04  0.25500000920E-02 0. -1.
       -2    1    3    3    0  502  0.43573435190E+03  0.43656469895E+03  0.22615284824E+04  0.23441340061E+04  0.25500000920E-02 0.  1.
</event>
<event>
 5   0  0.1911477E-06  0.3321682E+04  0.7818609E-02  0.8157400E-01
       -2   -1    0    0    0  501  0.00000000000E+00  0.00000000000E+00  0.20999478001E+04  0.20999478001E+04  0.25500000920E-02 0.  1.
        2   -1    0    0  501    0  0.00000000000E+00  0.00000000000E+00 -0.13135530457E+04  0.13135530457E+04  0.25500000920E-02 0. -1.
    10030    2    1    2    0    0  0.00000000000E+00  0.00000000000E+00  0.78639475437E+03  0.34135008458E+04  0.33216820008E+04 0.  0.
        5    1    3    3  502    0 -0.52132380883E+03 -0.61721774867E+03 -0.10979942378E+04  0.13632130058E+04  0.46999998093E+01 0. -1.
       -5    1    3    3    0  502  0.52132380883E+03  0.61721774867E+03  0.18843889922E+04  0.20502878400E+04  0.46999998093E+01 0.  1.
</event>
<event>
 5   0  0.6146388E-07  0.3302544E+04  0.7818609E-02  0.8162248E-01
        1   -1    0    0  501    0  0.00000000000E+00  0.00000000000E+00  0.12543632849E+04  0.12543632849E+04  0.50400001928E-02 0. -1.
       -1   -1    0    0    0  501  0.00000000000E+00  0.00000000000E+00 -0.21737714016E+04  0.21737714016E+04  0.50400001928E-02 0.  1.
    10030    2    1    2    0    0  0.00000000000E+00  0.00000000000E+00 -0.91940811671E+03  0.34281346866E+04  0.33025438898E+04 0.  0.
        4    1    3    3  502    0  0.13474846728E+03 -0.15818704823E+04 -0.93109479191E+03  0.18404919170E+04  0.12699999809E+01 0.  1.
       -4    1    3    3    0  502 -0.13474846728E+03  0.15818704823E+04  0.11686675198E+02  0.15876427695E+04  0.12699999809E+01 0. -1.
</event>
<event>
 5   0  0.1339844E-06  0.3365992E+04  0.7818609E-02  0.8146304E-01
        2   -1    0    0  501    0  0.00000000000E+00  0.00000000000E+00  0.11709199969E+04  0.11709199969E+04  0.25500000920E-02 0.  1.
       -2   -1    0    0    0  501  0.00000000000E+00  0.00000000000E+00 -0.24190177773E+04  0.24190177773E+04  0.25500000920E-02 0. -1.
    10030    2    1    2    0    0  0.00000000000E+00  0.00000000000E+00 -0.12480977804E+04  0.35899377742E+04  0.33659924470E+04 0.  0.
        3    1    3    3  502    0 -0.13818457937E+04 -0.94871794622E+03 -0.78548931432E+03  0.18510961650E+04  0.10100000352E+00 0. -1.
       -3    1    3    3    0  502  0.13818457937E+04  0.94871794622E+03 -0.46260846606E+03  0.17388416092E+04  0.10100000352E+00 0.  1.
</event>
<event>
 5   0  0.6146388E-07  0.3406259E+04  0.7818609E-02  0.8136372E-01
       -1   -1    0    0    0  501  0.00000000000E+00  0.00000000000E+00  0.17864170419E+04  0.17864170419E+04  0.50400001928E-02 0.  1.
        1   -1    0    0  501    0  0.00000000000E+00  0.00000000000E+00 -0.16237246938E+04  0.16237246938E+04  0.50400001928E-02 0. -1.
    10030    2    1    2    0    0  0.00000000000E+00  0.00000000000E+00  0.16269234810E+03  0.34101417357E+04  0.34062586305E+04 0.  0.
        4    1    3    3  502    0 -0.76510474542E+03 -0.14884645245E+04 -0.23482382018E+03  0.16899869087E+04  0.12699999809E+01 0.  1.
       -4    1    3    3    0  502  0.76510474542E+03  0.14884645245E+04  0.39751616828E+03  0.17201548270E+04  0.12699999809E+01 0. -1.
</event>
<event>
 5   0  0.1797075E-06  0.3549147E+04  0.7818609E-02  0.8102241E-01
        2   -1    0    0  501    0  0.00000000000E+00  0.00000000000E+00  0.28591382604E+04  0.28591382604E+04  0.25500000920E-02 0.  1.
       -2   -1    0    0    0  501  0.00000000000E+00  0.00000000000E+00 -0.11014194934E+04  0.11014194934E+04  0.25500000920E-02 0. -1.
    10030    2    1    2    0    0  0.00000000000E+00  0.00000000000E+00  0.17577187670E+04  0.39605577538E+04  0.35491467225E+04 0.  0.
        2    1    3    3  502    0 -0.16565948930E+03  0.74453692929E+03  0.26668837803E+04  0.27738145942E+04  0.25500000920E-02 0.  1.
       -2    1    3    3    0  502  0.16565948930E+03 -0.74453692929E+03 -0.90916501331E+03  0.11867431596E+04  0.25500000920E-02 0. -1.
</event>
<event>
 5   0  0.1911477E-06  0.3390726E+04  0.7818609E-02  0.8140186E-01
        2   -1    0    0  501    0  0.00000000000E+00  0.00000000000E+00  0.22760190681E+04  0.22760190681E+04  0.25500000920E-02 0. -1.
       -2   -1    0    0    0  501  0.00000000000E+00  0.00000000000E+00 -0.12628432788E+04  0.12628432788E+04  0.25500000920E-02 0.  1.
    10030    2    1    2    0    0  0.00000000000E+00  0.00000000000E+00  0.10131757894E+04  0.35388623469E+04  0.33907258117E+04 0.  0.
        5    1    3    3  502    0 -0.47406694951E+03  0.94837212017E+03 -0.87411572172E+03  0.13741359234E+04  0.46999998093E+01 0.  1.
       -5    1    3    3    0  502  0.47406694951E+03 -0.94837212017E+03  0.18872915111E+04  0.21647264235E+04  0.46999998093E+01 0. -1.
</event>
<event>
 5   0  0.6134625E-07  0.3471849E+04  0.7818609E-02  0.8120494E-01
       -1   -1    0    0    0  501  0.00000000000E+00  0.00000000000E+00  0.13980664988E+04  0.13980664988E+04  0.50400001928E-02 0. -1.
        1   -1    0    0  501    0  0.00000000000E+00  0.00000000000E+00 -0.21554291475E+04  0.21554291475E+04  0.50400001928E-02 0.  1.
    10030    2    1    2    0    0  0.00000000000E+00  0.00000000000E+00 -0.75736264873E+03  0.35534956463E+04  0.34718486613E+04 0.  0.
        1    1    3    3  502    0  0.10963443859E+04 -0.11361391455E+04  0.35984840855E+03  0.16193437089E+04  0.50400001928E-02 0. -1.
       -1    1    3    3    0  502 -0.10963443859E+04  0.11361391455E+04 -0.11172110573E+04  0.19341519374E+04  0.50400001928E-02 0.  1.
</event>
<event>
 5   0  0.6146388E-07  0.3385263E+04  0.7818609E-02  0.8141533E-01
        1   -1    0    0  501    0  0.00000000000E+00  0.00000000000E+00  0.20834378777E+04  0.20834378777E+04  0.50400001928E-02 0.  1.
       -1   -1    0    0    0  501  0.00000000000E+00  0.00000000000E+00 -0.13751314569E+04  0.13751314569E+04  0.50400001928E-02 0. -1.
    10030    2    1    2    0    0  0.00000000000E+00  0.00000000000E+00  0.70830642081E+03  0.34585693347E+04  0.33852627456E+04 0.  0.
        4    1    3    3  502    0  0.99006403647E+03  0.11543571411E+04 -0.40506208050E+03  0.15737992590E+04  0.12699999809E+01 0. -1.
       -4    1    3    3    0  502 -0.99006403647E+03 -0.11543571411E+04  0.11133685013E+04  0.18847700757E+04  0.12699999809E+01 0.  1.
</event>
<event>
 5   0  0.6134625E-07  0.2929732E+04  0.7818609E-02  0.8264086E-01
        1   -1    0    0  501    0  0.00000000000E+00  0.00000000000E+00  0.19773681156E+04  0.19773681156E+04  0.50400001928E-02 0.  1.
       -1   -1    0    0    0  501  0.00000000000E+00  0.00000000000E+00 -0.10851959807E+04  0.10851959807E+04  0.50400001928E-02 0. -1.
    10030    2    1    2    0    0  0.00000000000E+00  0.00000000000E+00  0.89217213497E+03  0.30625640963E+04  0.29297316815E+04 0.  0.
        3    1    3    3  502    0  0.78387138185E+02  0.23331949743E+03  0.19555972712E+04  0.19710259330E+04  0.10100000352E+00 0.  1.
       -3    1    3    3    0  502 -0.78387138185E+02 -0.23331949743E+03 -0.10634251363E+04  0.10915381633E+04  0.10100000352E+00 0. -1.
</event>
<event>
 5   0  0.6134625E-07  0.3359281E+04  0.7818609E-02  0.8147973E-01
        1   -1    0    0  501    0  0.00000000000E+00  0.00000000000E+00  0.16164528107E+04  0.16164528107E+04  0.50400001928E-02 0. -1.
       -1   -1    0    0    0  501  0.00000000000E+00  0.00000000000E+00 -0.17452986961E+04  0.17452986961E+04  0.50400001928E-02 0.  1.
    10030    2    1    2    0    0  0.00000000000E+00  0.00000000000E+00 -0.12884588544E+03  0.33617515069E+04  0.33592814606E+04 0.  0.
        5    1    3    3  502    0 -0.20632790594E+03 -0.14112329601E+04  0.82337152879E+03  0.16468492454E+04  0.46999998093E+01 0. -1.
       -5    1    3    3    0  502  0.20632790594E+03  0.14112329601E+04 -0.95221741423E+03  0.17149022615E+04  0.46999998093E+01 0.  1.
</event>
<event>
 5   0  0.6134625E-07  0.3362434E+04  0.7818609E-02  0.8147188E-01
        1   -1    0    0  501    0  0.00000000000E+00  0.00000000000E+00  0.19696827649E+04  0.19696827649E+04  0.50400001928E-02 0. -1.
       -1   -1    0    0    0  501  0.00000000000E+00  0.00000000000E+00 -0.14349978903E+04  0.14349978903E+04  0.50400001928E-02 0.  1.
    10030    2    1    2    0    0  0.00000000000E+00  0.00000000000E+00  0.53468487466E+03  0.34046806552E+04  0.33624340066E+04 0.  0.
        5    1    3    3  502    0  0.93673824269E+03  0.48766086401E+03 -0.10572127697E+04  0.14943267996E+04  0.46999998093E+01 0.  1.
       -5    1    3    3    0  502 -0.93673824269E+03 -0.48766086401E+03  0.15918976443E+04  0.19103538556E+04  0.46999998093E+01 0. -1.
</event>
<event>
 5   0  0.6134625E-07  0.3415714E+04  0.7818609E-02  0.8134060E-01
       -1   -1    0    0    0  501  0.00000000000E+00  0.00000000000E+00  0.12737761338E+04  0.12737761338E+04  0.50400001928E-02 0. -1.
        1   -1    0    0  501    0  0.00000000000E+00  0.00000000000E+00 -0.22898648354E+04  0.22898648354E+04  0.50400001928E-02 0.  1.
    10030    2    1    2    0    0  0.00000000000E+00  0.00000000000E+00 -0.10160887016E+04  0.35636409693E+04  0.34157137919E+04 0.  0.
        1    1    3    3  502    0 -0.34618608030E+02  0.13667390717E+04 -0.15758947886E+04  0.20862930098E+04  0.50400001928E-02 0.  1.
       -1    1    3    3    0  502  0.34618608030E+02 -0.13667390717E+04  0.55980608696E+03  0.14773479594E+04  0.50400001928E-02 0. -1.
</event>
<event>
 5   0  0.1339844E-06  0.3407627E+04  0.7818609E-02  0.8136037E-01
        2   -1    0    0  501    0  0.00000000000E+00  0.00000000000E+00  0.12946049645E+04  0.12946049645E+04  0.25500000920E-02 0. -1.
       -2   -1    0    0    0  501  0.00000000000E+00  0.00000000000E+00 -0.22423671258E+04  0.22423671258E+04  0.25500000920E-02 0.  1.
    10030    2    1    2    0    0  0.00000000000E+00  0.00000000000E+00 -0.94776216128E+03  0.35369720902E+04  0.34076265131E+04 0.  0.
        3    1    3    3  502    0  0.15467297048E+03 -0.15837431376E+04 -0.11059398214E+04  0.19378516332E+04  0.10100000352E+00 0. -1.
       -3    1    3    3    0  502 -0.15467297048E+03  0.15837431376E+04  0.15817766017E+03  0.15991204570E+04  0.10100000352E+00 0.  1.
</event>
<event>
 5   0  0.6134625E-07  0.3380914E+04  0.7818609E-02  0.8142607E-01
        3   -1    0    0  501    0  0.00000000000E+00  0.00000000000E+00  0.19038178647E+04  0.19038178674E+04  0.10100000352E+00 0.  1.
       -3   -1    0    0    0  501  0.00000000000E+00  0.00000000000E+00 -0.15010076886E+04  0.15010076920E+04  0.10100000352E+00 0. -1.
    10030    2    1    2    0    0  0.00000000000E+00  0.00000000000E+00  0.40281017608E+03  0.34048255594E+04  0.33809142331E+04 0.  0.
        2    1    3    3  502    0  0.49776105108E+03  0.56343561857E+03  0.17261871003E+04  0.18828031404E+04  0.25500000920E-02 0.  1.
       -2    1    3    3    0  502 -0.49776105108E+03 -0.56343561857E+03 -0.13233769242E+04  0.15220224190E+04  0.25500000920E-02 0. -1.
</event>
<event>
 5   0  0.6134625E-07  0.3397347E+04  0.7818609E-02  0.8138558E-01
       -1   -1    0    0    0  501  0.00000000000E+00  0.00000000000E+00  0.13535944333E+04  0.13535944333E+04  0.50400001928E-02 0. -1.
        1   -1    0    0  501    0  0.00000000000E+00  0.00000000000E+00 -0.21317250253E+04  0.21317250253E+04  0.50400001928E-02 0.  1.
    10030    2    1    2    0    0  0.00000000000E+00  0.00000000000E+00 -0.77813059203E+03  0.34853194586E+04  0.33973466868E+04 0.  0.
        5    1    3    3  502    0 -0.14140810589E+04 -0.83097476578E+03 -0.84246511850E+03  0.18438855356E+04  0.46999998093E+01 0. -1.
       -5    1    3    3    0  502  0.14140810589E+04  0.83097476578E+03  0.64334526466E+02  0.16414339230E+04  0.46999998093E+01 0.  1.
</event>
<event>
 5   0  0.1911477E-06  0.3222804E+04  0.7818609E-02  0.8182821E-01
        2   -1    0    0  501    0  0.00000000000E+00  0.00000000000E+00  0.16375356930E+04  0.16375356930E+04  0.25500000920E-02 0. -1.
       -2   -1    0    0    0  501  0.00000000000E+00  0.00000000000E+00 -0.15856851942E+04  0.15856851942E+04  0.25500000920E-02 0.  1.
    10030    2    1    2    0    0  0.00000000000E+00  0.00000000000E+00  0.51850498776E+02  0.32232208872E+04  0.32228038125E+04 0.  0.
        5    1    3    3  502    0  0.72061553509E+03  0.10952139512E+04 -0.91111310735E+03  0.15965367307E+04  0.46999998093E+01 0. -1.
       -5    1    3    3    0  502 -0.72061553509E+03 -0.10952139512E+04  0.96296360613E+03  0.16266841565E+04  0.46999998093E+01 0.  1.
</event>
<event>
 5   0  0.6146388E-07  0.3387385E+04  0.7818609E-02  0.8141009E-01
       -1   -1    0    0    0  501  0.00000000000E+00  0.00000000000E+00  0.15631481984E+04  0.15631481984E+04  0.50400001928E-02 0. -1.
        1   -1    0    0  501    0  0.00000000000E+00  0.00000000000E+00 -0.18351387240E+04  0.18351387240E+04  0.50400001928E-02 0.  1.
    10030    2    1    2    0    0  0.00000000000E+00  0.00000000000E+00 -0.27199052561E+03  0.33982869223E+04  0.33873847081E+04 0.  0.
        4    1    3    3  502    0  0.14182486927E+03 -0.13708083622E+04 -0.11237260442E+04  0.17781990031E+04  0.12699999809E+01 0.  1.
       -4    1    3    3    0  502 -0.14182486927E+03  0.13708083622E+04  0.85173551857E+03  0.16200879192E+04  0.12699999809E+01 0. -1.
</event>
<event>
 5   0  0.6134625E-07  0.3306624E+04  0.7818609E-02  0.8161212E-01
       -1   -1    0    0    0  501  0.00000000000E+00  0.00000000000E+00  0.15025784837E+04  0.15025784837E+04  0.50400001928E-02 0. -1.
        1   -1    0    0  501    0  0.00000000000E+00  0.00000000000E+00 -0.18191668356E+04  0.18191668356E+04  0.50400001928E-02 0.  1.
    10030    2    1    2    0    0  0.00000000000E+00  0.00000000000E+00 -0.31658835199E+03  0.33217453193E+04  0.33066242275E+04 0.  0.
        5    1    3    3  502    0 -0.81468799075E+03  0.99656861773E+03  0.88402148030E+03  0.15615318119E+04  0.46999998093E+01 0. -1.
       -5    1    3    3    0  502  0.81468799075E+03 -0.99656861773E+03 -0.12006098323E+04  0.17602135074E+04  0.46999998093E+01 0.  1.
</event>
<event>
 5   0  0.1339844E-06  0.3429862E+04  0.7818609E-02  0.8130616E-01
       -2   -1    0    0    0  501  0.00000000000E+00  0.00000000000E+00  0.14824930900E+04  0.14824930900E+04  0.25500000920E-02 0.  1.
        2   -1    0    0  501    0  0.00000000000E+00  0.00000000000E+00 -0.19838125369E+04  0.19838125369E+04  0.25500000920E-02 0. -1.
    10030    2    1    2    0    0  0.00000000000E+00  0.00000000000E+00 -0.50131944688E+03  0.34663056269E+04  0.34298620251E+04 0.  0.
        3    1    3    3  502    0 -0.17174763841E+03 -0.66993399417E+03  0.13353073085E+04  0.15037800458E+04  0.10100000352E+00 0.  1.
       -3    1    3    3    0  502  0.17174763841E+03  0.66993399417E+03 -0.18366267554E+04  0.19625255811E+04  0.10100000352E+00 0. -1.
</event>
<event>
 5   0  0.1911477E-06  0.3397765E+04  0.7818609E-02  0.8138455E-01
       -2   -1    0    0    0  501  0.00000000000E+00  0.00000000000E+00  0.18034020723E+04  0.18034020723E+04  0.25500000920E-02 0. -1.
        2   -1    0    0  501    0  0.00000000000E+00  0.00000000000E+00 -0.16004206960E+04  0.16004206960E+04  0.25500000920E-02 0.  1.
    10030    2    1    2    0    0  0.00000000000E+00  0.00000000000E+00  0.20298137629E+03  0.34038227682E+04  0.33977651476E+04 0.  0.
        5    1    3    3  502    0 -0.36184995414E+03  0.16479620476E+04  0.30050439583E+03  0.17137792395E+04  0.46999998093E+01 0. -1.
       -5    1    3    3    0  502  0.36184995414E+03 -0.16479620476E+04 -0.97523019534E+02  0.16900435288E+04  0.46999998093E+01 0.  1.
</event>
<event>
 5   0  0.6134625E-07  0.3412971E+04  0.7818609E-02  0.8134730E-01
        1   -1    0    0  501    0  0.00000000000E+00  0.00000000000E+00  0.22291375149E+04  0.22291375149E+04  0.50400001928E-02 0. -1.
       -1   -1    0    0    0  501  0.00000000000E+00  0.00000000000E+00 -0.13063760941E+04  0.13063760941E+04  0.50400001928E-02 0.  1.
    10030    2    1    2    0    0  0.00000000000E+00  0.00000000000E+00  0.92276142082E+03  0.35355136090E+04  0.34129705301E+04 0.  0.
        5    1    3    3  502    0 -0.63553171139E+03  0.73166567356E+03 -0.99362708175E+03  0.13880029112E+04  0.46999998093E+01 0.  1.
       -5    1    3    3    0  502  0.63553171139E+03 -0.73166567356E+03  0.19163885026E+04  0.21475106977E+04  0.46999998093E+01 0. -1.
</event>
<event>
 5   0  0.1880301E-06  0.3398695E+04  0.7818609E-02  0.8138227E-01
       -2   -1    0    0    0  501  0.00000000000E+00  0.00000000000E+00  0.28949539799E+04  0.28949539799E+04  0.25500000920E-02 0. -1.
        2   -1    0    0  501    0  0.00000000000E+00  0.00000000000E+00 -0.99752237820E+03  0.99752237820E+03  0.25500000920E-02 0.  1.
    10030    2    1    2    0    0  0.00000000000E+00  0.00000000000E+00  0.18974316017E+04  0.38924763581E+04  0.33986946781E+04 0.  0.
        4    1    3    3  502    0  0.13987086453E+04  0.93215664344E+03  0.12349865578E+04  0.20857840956E+04  0.12699999809E+01 0. -1.
       -4    1    3    3    0  502 -0.13987086453E+04 -0.93215664344E+03  0.66244504387E+03  0.18066922625E+04  0.12699999809E+01 0.  1.
</event>
<event>
 5   0  0.6134625E-07  0.3335644E+04  0.7818609E-02  0.8153885E-01
        1   -1    0    0  501    0  0.00000000000E+00  0.00000000000E+00  0.15255421296E+04  0.15255421296E+04  0.50400001928E-02 0.  1.
       -1   -1    0    0    0  501  0.00000000000E+00  0.00000000000E+00 -0.18233712083E+04  0.18233712083E+04  0.50400001928E-02 0. -1.
    10030    2    1    2    0    0  0.00000000000E+00  0.00000000000E+00 -0.29782907877E+03  0.33489133379E+04  0.33356436238E+04 0.  0.
        1    1    3    3  502    0  0.27217855762E+03  0.15105575040E+04  0.50618752122E+03  0.16161964444E+04  0.50400001928E-02 0.  1.
       -1    1    3    3    0  502 -0.27217855762E+03 -0.15105575040E+04 -0.80401659999E+03  0.17327168936E+04  0.50400001928E-02 0. -1.
</event>
<event>
 5   0  0.6218695E-07  0.3308497E+04  0.7818609E-02  0.8160737E-01
       -1   -1    0    0    0  501  0.00000000000E+00  0.00000000000E+00  0.14005051936E+04  0.14005051936E+04  0.50400001928E-02 0.  1.
        1   -1    0    0  501    0  0.00000000000E+00  0.00000000000E+00 -0.19539648405E+04  0.19539648405E+04  0.50400001928E-02 0. -1.
    10030    2    1    2    0    0  0.00000000000E+00  0.00000000000E+00 -0.55345964685E+03  0.33544700341E+04  0.33084968836E+04 0.  0.
        2    1    3    3  502    0 -0.86141496916E+03 -0.16722850220E+03 -0.16985485308E+04  0.19118232744E+04  0.25500000920E-02 0. -1.
       -2    1    3    3    0  502  0.86141496916E+03  0.16722850220E+03  0.11450888840E+04  0.14426467597E+04  0.25500000920E-02 0.  1.
</event>
<event>
 5   0  0.6218695E-07  0.3427137E+04  0.7818609E-02  0.8131278E-01
       -1   -1    0    0    0  501  0.00000000000E+00  0.00000000000E+00  0.11032647022E+04  0.11032647022E+04  0.50400001928E-02 0. -1.
        1   -1    0    0  501    0  0.00000000000E+00  0.00000000000E+00 -0.26614794085E+04  0.26614794085E+04  0.50400001928E-02 0.  1.
    10030    2    1    2    0    0  0.00000000000E+00  0.00000000000E+00 -0.15582147063E+04  0.37647441108E+04  0.34271365816E+04 0.  0.
        2    1    3    3  502    0  0.14768244685E+04  0.83888719196E+03 -0.10285781369E+04  0.19856271592E+04  0.25500000920E-02 0.  1.
       -2    1    3    3    0  502 -0.14768244685E+04 -0.83888719196E+03 -0.52963656937E+03  0.17791169516E+04  0.25500000920E-02 0. -1.
</event>
<event>
 5   0  0.6146388E-07  0.3391395E+04  0.7818609E-02  0.8140022E-01
       -1   -1    0    0    0  501  0.00000000000E+00  0.00000000000E+00  0.17133423067E+04  0.17133423067E+04  0.50400001928E-02 0. -1.
        1   -1    0    0  501    0  0.00000000000E+00  0.00000000000E+00 -0.16782343549E+04  0.16782343549E+04  0.50400001928E-02 0.  1.
    10030    2    1    2    0    0  0.00000000000E+00  0.00000000000E+00  0.35107951730E+02  0.33915766616E+04  0.33913949465E+04 0.  0.
        4    1    3    3  502    0  0.10060832061E+04 -0.77656869491E+03  0.11401674420E+04  0.17074090793E+04  0.12699999809E+01 0. -1.
       -4    1    3    3    0  502 -0.10060832061E+04  0.77656869491E+03 -0.11050594902E+04  0.16841675823E+04  0.12699999809E+01 0.  1.
</event>
<event>
 5   0  0.6146388E-07  0.3517467E+04  0.7818609E-02  0.8109663E-01
        1   -1    0    0  501    0  0.00000000000E+00  0.00000000000E+00  0.20141138910E+04  0.20141138910E+04  0.50400001928E-02 0.  1.
       -1   -1    0    0    0  501  0.00000000000E+00  0.00000000000E+00 -0.15357337887E+04  0.15357337887E+04  0.50400001928E-02 0. -1.
    10030    2    1    2    0    0  0.00000000000E+00  0.00000000000E+00  0.47838010233E+03  0.35498476797E+04  0.35174665637E+04 0.  0.
        4    1    3    3  502    0  0.10623363399E+04 -0.89926419533E+03  0.13242184448E+04  0.19211430697E+04  0.12699999809E+01 0.  1.
       -4    1    3    3    0  502 -0.10623363399E+04  0.89926419533E+03 -0.84583834244E+03  0.16287046099E+04  0.12699999809E+01 0. -1.
</event>
<event>
 5   0  0.6134625E-07  0.3412130E+04  0.7818609E-02  0.8134936E-01
       -1   -1    0    0    0  501  0.00000000000E+00  0.00000000000E+00  0.16581902092E+04  0.16581902092E+04  0.50400001928E-02 0. -1.
        1   -1    0    0  501    0  0.00000000000E+00  0.00000000000E+00 -0.17553219861E+04  0.17553219862E+04  0.50400001928E-02 0.  1.
    10030    2    1    2    0    0  0.00000000000E+00  0.00000000000E+00 -0.97131776993E+02  0.34135121953E+04  0.34121299690E+04 0.  0.
        3    1    3    3  502    0 -0.14647183109E+03 -0.33033975479E+02  0.16515672993E+04  0.16583786646E+04  0.10100000352E+00 0. -1.
       -3    1    3    3    0  502  0.14647183109E+03  0.33033975479E+02 -0.17486990763E+04  0.17551335307E+04  0.10100000352E+00 0.  1.
</event>
<event>
 5   0  0.1880301E-06  0.3697266E+04  0.7818609E-02  0.8068568E-01
       -2   -1    0    0    0  501  0.00000000000E+00  0.00000000000E+00  0.15461196473E+04  0.15461196473E+04  0.25500000920E-02 0. -1.
        2   -1    0    0  501    0  0.00000000000E+00  0.00000000000E+00 -0.22103360746E+04  0.22103360746E+04  0.25500000920E-02 0.  1.
    10030    2    1    2    0    0  0.00000000000E+00  0.00000000000E+00 -0.66421642727E+03  0.37564557219E+04  0.36972660343E+04 0.  0.
        4    1    3    3  502    0 -0.77830960315E+03 -0.57950705703E+03 -0.19307809756E+04  0.21609051474E+04  0.12699999809E+01 0.  1.
       -4    1    3    3    0  502  0.77830960315E+03  0.57950705703E+03  0.12665645483E+04  0.15955505744E+04  0.12699999809E+01 0. -1.
</event>
<event>
 5   0  0.6134625E-07  0.3396234E+04  0.7818609E-02  0.8138831E-01
        1   -1    0    0  501    0  0.00000000000E+00  0.00000000000E+00  0.23956321282E+04  0.23956321282E+04  0.50400001928E-02 0. -1.
       -1   -1    0    0    0  501  0.00000000000E+00  0.00000000000E+00 -0.12036909874E+04  0.12036909874E+04  0.50400001928E-02 0.  1.
    10030    2    1    2    0    0  0.00000000000E+00  0.00000000000E+00  0.11919411408E+04  0.35993231155E+04  0.33962336797E+04 0.  0.
        5    1    3    3  502    0 -0.49313563245E+03 -0.96357325378E+03 -0.79067454669E+03  0.13404642838E+04  0.46999998093E+01 0.  1.
       -5    1    3    3    0  502  0.49313563245E+03  0.96357325378E+03  0.19826156875E+04  0.22588588317E+04  0.46999998093E+01 0. -1.
</event>
<event>
 5   0  0.1880301E-06  0.3788481E+04  0.7818609E-02  0.8048631E-01
       -2   -1    0    0    0  501  0.00000000000E+00  0.00000000000E+00  0.16326615005E+04  0.16326615005E+04  0.25500000920E-02 0.  1.
        2   -1    0    0  501    0  0.00000000000E+00  0.00000000000E+00 -0.21977292086E+04  0.21977292086E+04  0.25500000920E-02 0. -1.
    10030    2    1    2    0    0  0.00000000000E+00  0.00000000000E+00 -0.56506770803E+03  0.38303907091E+04  0.37884814200E+04 0.  0.
        4    1    3    3  502    0 -0.14853494972E+04  0.55306098971E+03  0.76624855597E+03  0.17604766541E+04  0.12699999809E+01 0.  1.
       -4    1    3    3    0  502  0.14853494972E+04 -0.55306098971E+03 -0.13313162640E+04  0.20699140550E+04  0.12699999809E+01 0. -1.
</event>
<event>
 5   0  0.6134625E-07  0.2861041E+04  0.7818609E-02  0.8284564E-01
        1   -1    0    0  501    0  0.00000000000E+00  0.00000000000E+00  0.16577598179E+04  0.16577598179E+04  0.50400001928E-02 0. -1.
       -1   -1    0    0    0  501  0.00000000000E+00  0.00000000000E+00 -0.12344302264E+04  0.12344302264E+04  0.50400001928E-02 0.  1.
    10030    2    1    2    0    0  0.00000000000E+00  0.00000000000E+00  0.42332959150E+03  0.28921900444E+04  0.28610409486E+04 0.  0.
        1    1    3    3  502    0 -0.14273231499E+04  0.94418124870E+02  0.19658016969E+03  0.14438870868E+04  0.50400001928E-02 0.  1.
       -1    1    3    3    0  502  0.14273231499E+04 -0.94418124870E+02  0.22674942181E+03  0.14483029575E+04  0.50400001928E-02 0. -1.
</event>
<event>
 5   0  0.6134625E-07  0.3393946E+04  0.7818609E-02  0.8139394E-01
       -1   -1    0    0    0  501  0.00000000000E+00  0.00000000000E+00  0.28312937322E+04  0.28312937322E+04  0.50400001928E-02 0. -1.
        1   -1    0    0  501    0  0.00000000000E+00  0.00000000000E+00 -0.10171031713E+04  0.10171031713E+04  0.50400001928E-02 0.  1.
    10030    2    1    2    0    0  0.00000000000E+00  0.00000000000E+00  0.18141905609E+04  0.38483969035E+04  0.33939462777E+04 0.  0.
        5    1    3    3  502    0  0.97764959581E+03 -0.42058670118E+02  0.24791441931E+04  0.26652852913E+04  0.46999998093E+01 0. -1.
       -5    1    3    3    0  502 -0.97764959581E+03  0.42058670118E+02 -0.66495363221E+03  0.11831116122E+04  0.46999998093E+01 0.  1.
</event>
<event>
 5   0  0.1948507E-06  0.3414196E+04  0.7818609E-02  0.8134431E-01
       -2   -1    0    0    0  501  0.00000000000E+00  0.00000000000E+00  0.18948368761E+04  0.18948368761E+04  0.25500000920E-02 0.  1.
        2   -1    0    0  501    0  0.00000000000E+00  0.00000000000E+00 -0.15379601195E+04  0.15379601195E+04  0.25500000920E-02 0. -1.
    10030    2    1    2    0    0  0.00000000000E+00  0.00000000000E+00  0.35687675658E+03  0.34327969956E+04  0.34141959806E+04 0.  0.
        1    1    3    3  502    0  0.70419462805E+03 -0.13977652229E+04 -0.50685095157E+03  0.16451551841E+04  0.50400001928E-02 0. -1.
       -1    1    3    3    0  502 -0.70419462805E+03  0.13977652229E+04  0.86372770815E+03  0.17876418116E+04  0.50400001928E-02 0.  1.
</event>
<event>
 5   0  0.6134625E-07  0.3294690E+04  0.7818609E-02  0.8164248E-01
       -1   -1    0    0    0  501  0.00000000000E+00  0.00000000000E+00  0.14701982250E+04  0.14701982250E+04  0.50400001928E-02 0. -1.
        1   -1    0    0  501    0  0.00000000000E+00  0.00000000000E+00 -0.18458361526E+04  0.18458361526E+04  0.50400001928E-02 0.  1.
    10030    2    1    2    0    0  0.00000000000E+00  0.00000000000E+00 -0.37563792759E+03  0.33160343776E+04  0.32946896880E+04 0.  0.
        1    1    3    3  502    0 -0.12119021421E+03 -0.95130144992E+03  0.11602926059E+04  0.15053041049E+04  0.50400001928E-02 0. -1.
       -1    1    3    3    0  502  0.12119021421E+03  0.95130144992E+03 -0.15359305335E+04  0.18107302727E+04  0.50400001928E-02 0.  1.
</event>
<event>
 5   0  0.1797075E-06  0.3362430E+04  0.7818609E-02  0.8147189E-01
        2   -1    0    0  501    0  0.00000000000E+00  0.00000000000E+00  0.22546267789E+04  0.22546267789E+04  0.25500000920E-02 0.  1.
       -2   -1    0    0    0  501  0.00000000000E+00  0.00000000000E+00 -0.12536368807E+04  0.12536368807E+04  0.25500000920E-02 0. -1.
    10030    2    1    2    0    0  0.00000000000E+00  0.00000000000E+00  0.10009898982E+04  0.35082636597E+04  0.33624296468E+04 0.  0.
        2    1    3    3  502    0  0.87348957820E+03  0.12910776510E+04 -0.15659539515E+03  0.15666485445E+04  0.25500000920E-02 0. -1.
       -2    1    3    3    0  502 -0.87348957820E+03 -0.12910776510E+04  0.11575852933E+04  0.19416151152E+04  0.25500000920E-02 0.  1.
</event>
<event>
 5   0  0.6134625E-07  0.3428485E+04  0.7818609E-02  0.8130950E-01
       -1   -1    0    0    0  501  0.00000000000E+00  0.00000000000E+00  0.12629497125E+04  0.12629497125E+04  0.50400001928E-02 0. -1.
        1   -1    0    0  501    0  0.00000000000E+00  0.00000000000E+00 -0.23267961979E+04  0.23267961979E+04  0.50400001928E-02 0.  1.
    10030    2    1    2    0    0  0.00000000000E+00  0.00000000000E+00 -0.10638464853E+04  0.35897459104E+04  0.34284845569E+04 0.  0.
        1    1    3    3  502    0  0.85801475374E+03 -0.41443297462E+03 -0.20239703450E+04  0.22370516234E+04  0.50400001928E-02 0.  1.
       -1    1    3    3    0  502 -0.85801475374E+03  0.41443297462E+03  0.96012385973E+03  0.13526942870E+04  0.50400001928E-02 0. -1.
</event>
<event>
 5   0  0.6134625E-07  0.3364698E+04  0.7818609E-02  0.8146625E-01
        1   -1    0    0  501    0  0.00000000000E+00  0.00000000000E+00  0.30615379128E+04  0.30615379128E+04  0.50400001928E-02 0.  1.
       -1   -1    0    0    0  501  0.00000000000E+00  0.00000000000E+00 -0.92446961668E+03  0.92446961669E+03  0.50400001928E-02 0. -1.
    10030    2    1    2    0    0  0.00000000000E+00  0.00000000000E+00  0.21370682962E+04  0.39860075295E+04  0.33646983703E+04 0.  0.
        3    1    3    3  502    0  0.11437449558E+04  0.46944075013E+03  0.24201689891E+04  0.27176727337E+04  0.10100000352E+00 0.  1.
       -3    1    3    3    0  502 -0.11437449558E+04 -0.46944075013E+03 -0.28310069290E+03  0.12683347958E+04  0.10100000352E+00 0. -1.
</event>
<event>
 5   0  0.6146388E-07  0.3422842E+04  0.7818609E-02  0.8132323E-01
        1   -1    0    0  501    0  0.00000000000E+00  0.00000000000E+00  0.18755798762E+04  0.18755798762E+04  0.50400001928E-02 0.  1.
       -1   -1    0    0    0  501  0.00000000000E+00  0.00000000000E+00 -0.15616300714E+04  0.15616300714E+04  0.50400001928E-02 0. -1.
    10030    2    1    2    0    0  0.00000000000E+00  0.00000000000E+00  0.31394980476E+03  0.34372099476E+04  0.34228420565E+04 0.  0.
        4    1    3    3  502    0  0.66788700974E+03  0.42974131615E+03  0.16793231932E+04  0.18576540735E+04  0.12699999809E+01 0.  1.
       -4    1    3    3    0  502 -0.66788700974E+03 -0.42974131615E+03 -0.13653733885E+04  0.15795558741E+04  0.12699999809E+01 0. -1.
</event>
<event>
 5   0  0.1911477E-06  0.3396380E+04  0.7818609E-02  0.8138795E-01
       -2   -1    0    0    0  501  0.00000000000E+00  0.00000000000E+00  0.10326503634E+04  0.10326503634E+04  0.25500000920E-02 0. -1.
        2   -1    0    0  501    0  0.00000000000E+00  0.00000000000E+00 -0.27926670927E+04  0.27926670927E+04  0.25500000920E-02 0.  1.
    10030    2    1    2    0    0  0.00000000000E+00  0.00000000000E+00 -0.17600167293E+04  0.38253174561E+04  0.33963796538E+04 0.  0.
        5    1    3    3  502    0 -0.63320446974E+03 -0.54892133265E+03  0.78353925677E+03  0.11472656130E+04  0.46999998093E+01 0. -1.
       -5    1    3    3    0  502  0.63320446974E+03  0.54892133265E+03 -0.25435559861E+04  0.26780518431E+04  0.46999998093E+01 0.  1.
</event>
<event>
 5   0  0.1339844E-06  0.3385064E+04  0.7818609E-02  0.8141582E-01
        2   -1    0    0  501    0  0.00000000000E+00  0.00000000000E+00  0.15466567537E+04  0.15466567537E+04  0.25500000920E-02 0. -1.
       -2   -1    0    0    0  501  0.00000000000E+00  0.00000000000E+00 -0.18521657851E+04  0.18521657851E+04  0.25500000920E-02 0.  1.
    10030    2    1    2    0    0  0.00000000000E+00  0.00000000000E+00 -0.30550903148E+03  0.33988225388E+04  0.33850640883E+04 0.  0.
        3    1    3    3  502    0 -0.15413203366E+03  0.16561450279E+04  0.16171435779E+03  0.16711446918E+04  0.10100000352E+00 0. -1.
       -3    1    3    3    0  502  0.15413203366E+03 -0.16561450279E+04 -0.46722338926E+03  0.17276778470E+04  0.10100000352E+00 0.  1.
</event>
<event>
 5   0  0.1948507E-06  0.3432836E+04  0.7818609E-02  0.8129894E-01
        2   -1    0    0  501    0  0.00000000000E+00  0.00000000000E+00  0.24279517494E+04  0.24279517494E+04  0.25500000920E-02 0.  1.
       -2   -1    0    0    0  501  0.00000000000E+00  0.00000000000E+00 -0.12134055644E+04  0.12134055644E+04  0.25500000920E-02 0. -1.
    10030    2    1    2    0    0  0.00000000000E+00  0.00000000000E+00  0.12145461850E+04  0.36413573138E+04  0.34328356574E+04 0.  0.
        1    1    3    3  502    0  0.11559453111E+04  0.45974492415E+03  0.18616957234E+04  0.22390814912E+04  0.50400001928E-02 0.  1.
       -1    1    3    3    0  502 -0.11559453111E+04 -0.45974492415E+03 -0.64714953839E+03  0.14022758226E+04  0.50400001928E-02 0. -1.
</event>
<event>
 5   0  0.6218695E-07  0.3351198E+04  0.7818609E-02  0.8149989E-01
        1   -1    0    0  501    0  0.00000000000E+00  0.00000000000E+00  0.89617629305E+03  0.89617629306E+03  0.50400001928E-02 0.  1.
       -1   -1    0    0    0  501  0.00000000000E+00  0.00000000000E+00 -0.31329005634E+04  0.31329005634E+04  0.50400001928E-02 0. -1.
    10030    2    1    2    0    0  0.00000000000E+00  0.00000000000E+00 -0.22367242704E+04  0.40290768565E+04  0.33511975253E+04 0.  0.
        2    1    3    3  502    0 -0.70743439493E+03 -0.10072778672E+04 -0.24852432023E+04  0.27733564320E+04  0.25500000920E-02 0. -1.
       -2    1    3    3    0  502  0.70743439493E+03  0.10072778672E+04  0.24851893190E+03  0.12557204244E+04  0.25500000920E-02 0.  1.
</event>
<event>
 5   0  0.6134625E-07  0.2790521E+04  0.7818609E-02  0.8306217E-01
        1   -1    0    0  501    0  0.00000000000E+00  0.00000000000E+00  0.11312669009E+04  0.11312669009E+04  0.50400001928E-02 0.  1.
       -1   -1    0    0    0  501  0.00000000000E+00  0.00000000000E+00 -0.17208595235E+04  0.17208595235E+04  0.50400001928E-02 0. -1.
    10030    2    1    2    0    0  0.00000000000E+00  0.00000000000E+00 -0.58959262263E+03  0.28521264244E+04  0.27905206826E+04 0.  0.
        1    1    3    3  502    0  0.16567487494E+03 -0.13752798744E+04 -0.46554286738E+03  0.14613600030E+04  0.50400001928E-02 0. -1.
       -1    1    3    3    0  502 -0.16567487494E+03  0.13752798744E+04 -0.12404975525E+03  0.13907664214E+04  0.50400001928E-02 0.  1.
</event>
<event>
 5   0  0.1911477E-06  0.3361433E+04  0.7818609E-02  0.8147437E-01
        2   -1    0    0  501    0  0.00000000000E+00  0.00000000000E+00  0.97507387072E+03  0.97507387072E+03  0.25500000920E-02 0.  1.
       -2   -1    0    0    0  501  0.00000000000E+00  0.00000000000E+00 -0.28970190637E+04  0.28970190637E+04  0.25500000920E-02 0. -1.
    10030    2    1    2    0    0  0.00000000000E+00  0.00000000000E+00 -0.19219451930E+04  0.38720929345E+04  0.33614327850E+04 0.  0.
        5    1    3    3  502    0 -0.11826726357E+04  0.10181411064E+04 -0.16798462416E+04  0.22928653169E+04  0.46999998093E+01 0. -1.
       -5    1    3    3    0  502  0.11826726357E+04 -0.10181411064E+04 -0.24209895140E+03  0.15792276176E+04  0.46999998093E+01 0.  1.
</event>
<event>
 5   0  0.6134625E-07  0.2641782E+04  0.7818609E-02  0.8354146E-01
        1   -1    0    0  501    0  0.00000000000E+00  0.00000000000E+00  0.16990505063E+04  0.16990505063E+04  0.50400001928E-02 0. -1.
       -1   -1    0    0    0  501  0.00000000000E+00  0.00000000000E+00 -0.10268990681E+04  0.10268990681E+04  0.50400001928E-02 0.  1.
    10030    2    1    2    0    0  0.00000000000E+00  0.00000000000E+00  0.67215143818E+03  0.27259495744E+04  0.26417822632E+04 0.  0.
        3    1    3    3  502    0  0.50773437898E+03 -0.65221049034E+03  0.13992324531E+04  0.16251228234E+04  0.10100000352E+00 0. -1.
       -3    1    3    3    0  502 -0.50773437898E+03  0.65221049034E+03 -0.72708101488E+03  0.11008267510E+04  0.10100000352E+00 0.  1.
</event>
<event>
 5   0  0.6146388E-07  0.3380338E+04  0.7818609E-02  0.8142749E-01
        1   -1    0    0  501    0  0.00000000000E+00  0.00000000000E+00  0.11741486645E+04  0.11741486645E+04  0.50400001928E-02 0.  1.
       -1   -1    0    0    0  501  0.00000000000E+00  0.00000000000E+00 -0.24329716902E+04  0.24329716902E+04  0.50400001928E-02 0. -1.
    10030    2    1    2    0    0  0.00000000000E+00  0.00000000000E+00 -0.12588230258E+04  0.36071203547E+04  0.33803375339E+04 0.  0.
        4    1    3    3  502    0  0.60321857475E+03 -0.14007461941E+04  0.14795832612E+03  0.15322714604E+04  0.12699999809E+01 0. -1.
       -4    1    3    3    0  502 -0.60321857475E+03  0.14007461941E+04 -0.14067813519E+04  0.20748488943E+04  0.12699999809E+01 0.  1.
</event>
<event>
 5   0  0.1339844E-06  0.3351289E+04  0.7818609E-02  0.8149966E-01
        2   -1    0    0  501    0  0.00000000000E+00  0.00000000000E+00  0.23340092178E+04  0.23340092178E+04  0.25500000920E-02 0. -1.
       -2   -1    0    0    0  501  0.00000000000E+00  0.00000000000E+00 -0.12029880740E+04  0.12029880741E+04  0.25500000920E-02 0.  1.
    10030    2    1    2    0    0  0.00000000000E+00  0.00000000000E+00  0.11310211438E+04  0.35369972919E+04  0.33512894556E+04 0.  0.
        3    1    3    3  502    0  0.10427986688E+04  0.10528908483E+04 -0.25999379437E+03  0.15045281604E+04  0.10100000352E+00 0.  1.
       -3    1    3    3    0  502 -0.10427986688E+04 -0.10528908483E+04  0.13910149381E+04  0.20324691315E+04  0.10100000352E+00 0. -1.
</event>
<event>
 5   0  0.6134625E-07  0.3413136E+04  0.7818609E-02  0.8134690E-01
       -1   -1    0    0    0  501  0.00000000000E+00  0.00000000000E+00  0.13347546418E+04  0.13347546419E+04  0.50400001928E-02 0.  1.
        1   -1    0    0  501    0  0.00000000000E+00  0.00000000000E+00 -0.21819554580E+04  0.21819554580E+04  0.50400001928E-02 0. -1.
    10030    2    1    2    0    0  0.00000000000E+00  0.00000000000E+00 -0.84720081618E+03  0.35167100999E+04  0.34131364906E+04 0.  0.
        5    1    3    3  502    0  0.16683122403E+04  0.26722445279E+03 -0.17614913642E+03  0.16987422546E+04  0.46999998093E+01 0.  1.
       -5    1    3    3    0  502 -0.16683122403E+04 -0.26722445279E+03 -0.67105167976E+03  0.18179678452E+04  0.46999998093E+01 0. -1.
</event>
<event>
 5   0  0.1911477E-06  0.3078970E+04  0.7818609E-02  0.8221533E-01
        2   -1    0    0  501    0  0.00000000000E+00  0.00000000000E+00  0.22849544281E+04  0.22849544281E+04  0.25500000920E-02 0. -1.
       -2   -1    0    0    0  501  0.00000000000E+00  0.00000000000E+00 -0.10372257944E+04  0.10372257944E+04  0.25500000920E-02 0.  1.
    10030    2    1    2    0    0  0.00000000000E+00  0.00000000000E+00  0.12477286337E+04  0.33221802225E+04  0.30789697445E+04 0.  0.
        5    1    3    3  502    0 -0.71972651587E+03 -0.10702585032E+04  0.15308150664E+04  0.20017183565E+04  0.46999998093E+01 0. -1.
       -5    1    3    3    0  502  0.71972651587E+03  0.10702585032E+04 -0.28308643265E+03  0.13204618660E+04  0.46999998093E+01 0.  1.
</event>
<event>
 5   0  0.1880301E-06  0.3397195E+04  0.7818609E-02  0.8138595E-01
        2   -1    0    0  501    0  0.00000000000E+00  0.00000000000E+00  0.20460608798E+04  0.20460608798E+04  0.25500000920E-02 0. -1.
       -2   -1    0    0    0  501  0.00000000000E+00  0.00000000000E+00 -0.14101406346E+04  0.14101406346E+04  0.25500000920E-02 0.  1.
    10030    2    1    2    0    0  0.00000000000E+00  0.00000000000E+00  0.63592024516E+03  0.34562015145E+04  0.33971950710E+04 0.  0.
        4    1    3    3  502    0 -0.80316407478E+02 -0.17968084508E+03 -0.13985005727E+04  0.14122823359E+04  0.12699999809E+01 0.  1.
       -4    1    3    3    0  502  0.80316407478E+02  0.17968084508E+03  0.20344208179E+04  0.20439191786E+04  0.12699999809E+01 0. -1.
</event>
<event>
 5   0  0.1948507E-06  0.2524818E+04  0.7818609E-02  0.8394197E-01
       -2   -1    0    0    0  501  0.00000000000E+00  0.00000000000E+00  0.85781835253E+03  0.85781835253E+03  0.25500000920E-02 0. -1.
        2   -1    0    0  501    0  0.00000000000E+00  0.00000000000E+00 -0.18578252309E+04  0.18578252309E+04  0.25500000920E-02 0.  1.
    10030    2    1    2    0    0  0.00000000000E+00  0.00000000000E+00 -0.10000068784E+04  0.27156435834E+04  0.25248180757E+04 0.  0.
        1    1    3    3  502    0 -0.53174015830E+03 -0.91894282025E+03 -0.12346119751E+04  0.16283335751E+04  0.50400001928E-02 0.  1.
       -1    1    3    3    0  502  0.53174015830E+03  0.91894282025E+03  0.23460509667E+03  0.10873100083E+04  0.50400001928E-02 0. -1.
</event>
<event>
 5   0  0.1948507E-06  0.3409482E+04  0.7818609E-02  0.8135583E-01
        2   -1    0    0  501    0  0.00000000000E+00  0.00000000000E+00  0.14804670522E+04  0.14804670522E+04  0.25500000920E-02 0. -1.
       -2   -1    0    0    0  501  0.00000000000E+00  0.00000000000E+00 -0.19629893850E+04  0.19629893850E+04  0.25500000920E-02 0.  1.
    10030    2    1    2    0    0  0.00000000000E+00  0.00000000000E+00 -0.48252233275E+03  0.34434564372E+04  0.34094815490E+04 0.  0.
        1    1    3    3  502    0  0.15712410992E+04 -0.64885982581E+03 -0.11222479803E+03  0.17036466977E+04  0.50400001928E-02 0. -1.
       -1    1    3    3    0  502 -0.15712410992E+04  0.64885982581E+03 -0.37029753472E+03  0.17398097395E+04  0.50400001928E-02 0.  1.
</event>
<event>
 5   0  0.6134625E-07  0.3387263E+04  0.7818609E-02  0.8141040E-01
        3   -1    0    0  501    0  0.00000000000E+00  0.00000000000E+00  0.17928153640E+04  0.17928153668E+04  0.10100000352E+00 0. -1.
       -3   -1    0    0    0  501  0.00000000000E+00  0.00000000000E+00 -0.15999344104E+04  0.15999344136E+04  0.10100000352E+00 0.  1.
    10030    2    1    2    0    0  0.00000000000E+00  0.00000000000E+00  0.19288095354E+03  0.33927497804E+04  0.33872626131E+04 0.  0.
        5    1    3    3  502    0  0.10546261305E+04 -0.52019104962E+03 -0.11243571112E+04  0.16269714216E+04  0.46999998093E+01 0.  1.
       -5    1    3    3    0  502 -0.10546261305E+04  0.52019104962E+03  0.13172380648E+04  0.17657783588E+04  0.46999998093E+01 0. -1.
</event>
<event>
 5   0  0.6218695E-07  0.3405308E+04  0.7818609E-02  0.8136605E-01
       -1   -1    0    0    0  501  0.00000000000E+00  0.00000000000E+00  0.13909761172E+04  0.13909761172E+04  0.50400001928E-02 0. -1.
        1   -1    0    0  501    0  0.00000000000E+00  0.00000000000E+00 -0.20841696751E+04  0.20841696751E+04  0.50400001928E-02 0.  1.
    10030    2    1    2    0    0  0.00000000000E+00  0.00000000000E+00 -0.69319355786E+03  0.34751457923E+04  0.34053077643E+04 0.  0.
        2    1    3    3  502    0 -0.15054073388E+04  0.29385926801E+03 -0.11009629874E+04  0.18880476754E+04  0.25500000920E-02 0.  1.
       -2    1    3    3    0  502  0.15054073388E+04 -0.29385926801E+03  0.40776942951E+03  0.15870981169E+04  0.25500000920E-02 0. -1.
</event>
<event>
 5   0  0.1880301E-06  0.3427411E+04  0.7818609E-02  0.8131211E-01
        2   -1    0    0  501    0  0.00000000000E+00  0.00000000000E+00  0.15641106957E+04  0.15641106957E+04  0.25500000920E-02 0.  1.
       -2   -1    0    0    0  501  0.00000000000E+00  0.00000000000E+00 -0.18776083790E+04  0.18776083790E+04  0.25500000920E-02 0. -1.
    10030    2    1    2    0    0  0.00000000000E+00  0.00000000000E+00 -0.31349768323E+03  0.34417190747E+04  0.34274114711E+04 0.  0.
        4    1    3    3  502    0 -0.79098132015E+02 -0.18999417155E+03  0.15516560490E+04  0.15652451587E+04  0.12699999809E+01 0.  1.
       -4    1    3    3    0  502  0.79098132015E+02  0.18999417155E+03 -0.18651537322E+04  0.18764739160E+04  0.12699999809E+01 0. -1.
</event>
<event>
 5   0  0.6134625E-07  0.3356999E+04  0.7818609E-02  0.8148541E-01
        1   -1    0    0  501    0  0.00000000000E+00  0.00000000000E+00  0.15992192371E+04  0.15992192371E+04  0.50400001928E-02 0.  1.
       -1   -1    0    0    0  501  0.00000000000E+00  0.00000000000E+00 -0.17617103155E+04  0.17617103155E+04  0.50400001928E-02 0. -1.
    10030    2    1    2    0    0  0.00000000000E+00  0.00000000000E+00 -0.16249107848E+03  0.33609295526E+04  0.33569992712E+04 0.  0.
        3    1    3    3  502    0  0.27817733018E+03  0.16436628455E+04  0.11481744210E+03  0.16709857067E+04  0.10100000352E+00 0. -1.
       -3    1    3    3    0  502 -0.27817733018E+03 -0.16436628455E+04 -0.27730852058E+03  0.16899438459E+04  0.10100000352E+00 0.  1.
</event>
<event>
 5   0  0.6134625E-07  0.3345715E+04  0.7818609E-02  0.8151360E-01
       -1   -1    0    0    0  501  0.00000000000E+00  0.00000000000E+00  0.10791667534E+04  0.10791667534E+04  0.50400001928E-02 0. -1.
        1   -1    0    0  501    0  0.00000000000E+00  0.00000000000E+00 -0.25931604063E+04  0.25931604063E+04  0.50400001928E-02 0.  1.
    10030    2    1    2    0    0  0.00000000000E+00  0.00000000000E+00 -0.15139936529E+04  0.36723271597E+04  0.33457151683E+04 0.  0.
        3    1    3    3  502    0  0.20113506098E+03  0.80152233698E+03 -0.23534823403E+04  0.24943481124E+04  0.10100000352E+00 0.  1.
       -3    1    3    3    0  502 -0.20113506098E+03 -0.80152233698E+03  0.83948868744E+03  0.11779790473E+04  0.10100000352E+00 0. -1.
</event>
<event>
 5   0  0.1880301E-06  0.3335798E+04  0.7818609E-02  0.8153846E-01
        2   -1    0    0  501    0  0.00000000000E+00  0.00000000000E+00  0.24984846819E+04  0.24984846819E+04  0.25500000920E-02 0.  1.
       -2   -1    0    0    0  501  0.00000000000E+00  0.00000000000E+00 -0.11134296442E+04  0.11134296442E+04  0.25500000920E-02 0. -1.
    10030    2    1    2    0    0  0.00000000000E+00  0.00000000000E+00  0.13850550377E+04  0.36119143261E+04  0.33357979018E+04 0.  0.
        4    1    3    3  502    0 -0.15169718960E+04 -0.67137556477E+03  0.50518446022E+03  0.17341170186E+04  0.12699999809E+01 0. -1.
       -4    1    3    3    0  502  0.15169718960E+04  0.67137556477E+03  0.87987057746E+03  0.18777973076E+04  0.12699999809E+01 0.  1.
</event>
<event>
 5   0  0.6146388E-07  0.3384810E+04  0.7818609E-02  0.8141644E-01
        1   -1    0    0  501    0  0.00000000000E+00  0.00000000000E+00  0.28734932377E+04  0.28734932377E+04  0.50400001928E-02 0.  1.
       -1   -1    0    0    0  501  0.00000000000E+00  0.00000000000E+00 -0.99677806049E+03  0.99677806050E+03  0.50400001928E-02 0. -1.
    10030    2    1    2    0    0  0.00000000000E+00  0.00000000000E+00  0.18767151772E+04  0.38702712982E+04  0.33848101964E+04 0.  0.
        4    1    3    3  502    0  0.32193559338E+03 -0.15239087985E+04  0.16953460892E+04  0.23022034070E+04  0.12699999809E+01 0.  1.
       -4    1    3    3    0  502 -0.32193559338E+03  0.15239087985E+04  0.18136908799E+03  0.15680678912E+04  0.12699999809E+01 0. -1.
</event>
<event>
 5   0  0.1339844E-06  0.3326877E+04  0.7818609E-02  0.8156090E-01
       -2   -1    0    0    0  501  0.00000000000E+00  0.00000000000E+00  0.10598251678E+04  0.10598251678E+04  0.25500000920E-02 0. -1.
        2   -1    0    0  501    0  0.00000000000E+00  0.00000000000E+00 -0.26108346995E+04  0.26108346995E+04  0.25500000920E-02 0.  1.
    10030    2    1    2    0    0  0.00000000000E+00  0.00000000000E+00 -0.15510095317E+04  0.36706598672E+04  0.33268774089E+04 0.  0.
        3    1    3    3  502    0 -0.12934913144E+04  0.23048981684E+03 -0.19011134518E+04  0.23109473604E+04  0.10100000352E+00 0.  1.
       -3    1    3    3    0  502  0.12934913144E+04 -0.23048981684E+03  0.35010392008E+03  0.13597125068E+04  0.10100000352E+00 0. -1.
</event>
<event>
 5   0  0.1339844E-06  0.3417147E+04  0.7818609E-02  0.8133711E-01
       -2   -1    0    0    0  501  0.00000000000E+00  0.00000000000E+00  0.19536592095E+04  0.19536592095E+04  0.25500000920E-02 0.  1.
        2   -1    0    0  501    0  0.00000000000E+00  0.00000000000E+00 -0.14942335811E+04  0.14942335811E+04  0.25500000920E-02 0. -1.
    10030    2    1    2    0    0  0.00000000000E+00  0.00000000000E+00  0.45942562842E+03  0.34478927906E+04  0.34171468782E+04 0.  0.
        3    1    3    3  502    0  0.46427226044E+03  0.58243977736E+03  0.17812211217E+04  0.19306821387E+04  0.10100000352E+00 0.  1.
       -3    1    3    3    0  502 -0.46427226044E+03 -0.58243977736E+03 -0.13217954932E+04  0.15172106519E+04  0.10100000352E+00 0. -1.
</event>
<event>
 5   0  0.1339844E-06  0.2590188E+04  0.7818609E-02  0.8371542E-01
       -2   -1    0    0    0  501  0.00000000000E+00  0.00000000000E+00  0.14854938620E+04  0.14854938621E+04  0.25500000920E-02 0. -1.
        2   -1    0    0  501    0  0.00000000000E+00  0.00000000000E+00 -0.11290985364E+04  0.11290985364E+04  0.25500000920E-02 0.  1.
    10030    2    1    2    0    0  0.00000000000E+00  0.00000000000E+00  0.35639532563E+03  0.26145923985E+04  0.25901883681E+04 0.  0.
        3    1    3    3  502    0 -0.19480715563E+03  0.10544094711E+04  0.91136017430E+03  0.14072336473E+04  0.10100000352E+00 0. -1.
       -3    1    3    3    0  502  0.19480715563E+03 -0.10544094711E+04 -0.55496484867E+03  0.12073587512E+04  0.10100000352E+00 0.  1.
</event>
<event>
 5   0  0.6218695E-07  0.3385789E+04  0.7818609E-02  0.8141403E-01
       -1   -1    0    0    0  501  0.00000000000E+00  0.00000000000E+00  0.97702765433E+03  0.97702765435E+03  0.50400001928E-02 0.  1.
        1   -1    0    0  501    0  0.00000000000E+00  0.00000000000E+00 -0.29332764901E+04  0.29332764901E+04  0.50400001928E-02 0. -1.
    10030    2    1    2    0    0  0.00000000000E+00  0.00000000000E+00 -0.19562488358E+04  0.39103041444E+04  0.33857892720E+04 0.  0.
        2    1    3    3  502    0  0.49686142565E+03  0.57541147866E+03  0.76878858740E+03  0.10812055948E+04  0.25500000920E-02 0.  1.
       -2    1    3    3    0  502 -0.49686142565E+03 -0.57541147866E+03 -0.27250374232E+04  0.28290985497E+04  0.25500000920E-02 0. -1.
</event>
<event>
 5   0  0.1911477E-06  0.3425528E+04  0.7818609E-02  0.8131669E-01
        2   -1    0    0  501    0  0.00000000000E+00  0.00000000000E+00  0.13859441837E+04  0.13859441837E+04  0.25500000920E-02 0.  1.
       -2   -1    0    0    0  501  0.00000000000E+00  0.00000000000E+00 -0.21166506978E+04  0.21166506978E+04  0.25500000920E-02 0. -1.
    10030    2    1    2    0    0  0.00000000000E+00  0.00000000000E+00 -0.73070651412E+03  0.35025948815E+04  0.34255275352E+04 0.  0.
        5    1    3    3  502    0 -0.39947780019E+03  0.12893995822E+04 -0.14433026989E+04  0.19761777668E+04  0.46999998093E+01 0. -1.
       -5    1    3    3    0  502  0.39947780019E+03 -0.12893995822E+04  0.71259618481E+03  0.15264171147E+04  0.46999998093E+01 0.  1.
</event>
<event>
 5   0  0.1911477E-06  0.3340667E+04  0.7818609E-02  0.8152624E-01
        2   -1    0    0  501    0  0.00000000000E+00  0.00000000000E+00  0.18121338637E+04  0.18121338637E+04  0.25500000920E-02 0.  1.
       -2   -1    0    0    0  501  0.00000000000E+00  0.00000000000E+00 -0.15396287438E+04  0.15396287438E+04  0.25500000920E-02 0. -1.
    10030    2    1    2    0    0  0.00000000000E+00  0.00000000000E+00  0.27250511987E+03  0.33517626075E+04  0.33406666306E+04 0.  0.
        5    1    3    3  502    0 -0.12427117777E+04 -0.11094791724E+04  0.14545496086E+02  0.16659862718E+04  0.46999998093E+01 0. -1.
       -5    1    3    3    0  502  0.12427117777E+04  0.11094791724E+04  0.25795962379E+03  0.16857763357E+04  0.46999998093E+01 0.  1.
</event>
<event>
 5   0  0.1880301E-06  0.3380947E+04  0.7818609E-02  0.8142598E-01
       -2   -1    0    0    0  501  0.00000000000E+00  0.00000000000E+00  0.17170592082E+04  0.17170592082E+04  0.25500000920E-02 0. -1.
        2   -1    0    0  501    0  0.00000000000E+00  0.00000000000E+00 -0.16642997773E+04  0.16642997773E+04  0.25500000920E-02 0.  1.
    10030    2    1    2    0    0  0.00000000000E+00  0.00000000000E+00  0.52759430858E+02  0.33813589855E+04  0.33809473570E+04 0.  0.
        4    1    3    3  502    0 -0.87525569983E+03  0.89397066673E+03  0.11633750011E+04  0.17084200593E+04  0.12699999809E+01 0. -1.
       -4    1    3    3    0  502  0.87525569983E+03 -0.89397066673E+03 -0.11106155702E+04  0.16729389262E+04  0.12699999809E+01 0.  1.
</event>
<event>
 5   0  0.1880301E-06  0.3468202E+04  0.7818609E-02  0.8121367E-01
       -2   -1    0    0    0  501  0.00000000000E+00  0.00000000000E+00  0.97480205317E+03  0.97480205317E+03  0.25500000920E-02 0.  1.
        2   -1    0    0  501    0  0.00000000000E+00  0.00000000000E+00 -0.30848375402E+04  0.30848375402E+04  0.25500000920E-02 0. -1.
    10030    2    1    2    0    0  0.00000000000E+00  0.00000000000E+00 -0.21100354870E+04  0.40596395934E+04  0.34682018211E+04 0.  0.
        4    1    3    3  502    0  0.10323468508E+04 -0.85989071081E+03 -0.23383134286E+04  0.26968246806E+04  0.12699999809E+01 0. -1.
       -4    1    3    3    0  502 -0.10323468508E+04  0.85989071081E+03  0.22827794155E+03  0.13628149127E+04  0.12699999809E+01 0.  1.
</event>
<event>
 5   0  0.6218695E-07  0.3417740E+04  0.7818609E-02  0.8133566E-01
       -1   -1    0    0    0  501  0.00000000000E+00  0.00000000000E+00  0.10947375586E+04  0.10947375586E+04  0.50400001928E-02 0. -1.
        1   -1    0    0  501    0  0.00000000000E+00  0.00000000000E+00 -0.26675215736E+04  0.26675215737E+04  0.50400001928E-02 0.  1.
    10030    2    1    2    0    0  0.00000000000E+00  0.00000000000E+00 -0.15727840151E+04  0.37622591323E+04  0.34177396361E+04 0.  0.
        2    1    3    3  502    0 -0.11225399674E+03  0.96031982751E+03 -0.23374785409E+04  0.25295495765E+04  0.25500000920E-02 0.  1.
       -2    1    3    3    0  502  0.11225399674E+03 -0.96031982751E+03  0.76469452586E+03  0.12327095557E+04  0.25500000920E-02 0. -1.
</event>
<event>
 5   0  0.1339844E-06  0.3425796E+04  0.7818609E-02  0.8131604E-01
       -2   -1    0    0    0  501  0.00000000000E+00  0.00000000000E+00  0.10944874936E+04  0.10944874936E+04  0.25500000920E-02 0. -1.
        2   -1    0    0  501    0  0.00000000000E+00  0.00000000000E+00 -0.26807252866E+04  0.26807252866E+04  0.25500000920E-02 0.  1.
    10030    2    1    2    0    0  0.00000000000E+00  0.00000000000E+00 -0.15862377930E+04  0.37752127801E+04  0.34257964329E+04 0.  0.
        3    1    3    3  502    0 -0.56983035125E+03  0.15504208572E+04 -0.12926874821E+04  0.20975110012E+04  0.10100000352E+00 0.  1.
       -3    1    3    3    0  502  0.56983035125E+03 -0.15504208572E+04 -0.29355031091E+03  0.16777017789E+04  0.10100000352E+00 0. -1.
</event>
<event>
 5   0  0.6146388E-07  0.3387938E+04  0.7818609E-02  0.8140873E-01
        1   -1    0    0  501    0  0.00000000000E+00  0.00000000000E+00  0.13569655010E+04  0.13569655010E+04  0.50400001928E-02 0.  1.
       -1   -1    0    0    0  501  0.00000000000E+00  0.00000000000E+00 -0.21146676351E+04  0.21146676351E+04  0.50400001928E-02 0. -1.
    10030    2    1    2    0    0  0.00000000000E+00  0.00000000000E+00 -0.75770213405E+03  0.34716331361E+04  0.33879380319E+04 0.  0.
        4    1    3    3  502    0  0.83241872701E+03 -0.13723438106E+04  0.17608159678E+03  0.16146996046E+04  0.12699999809E+01 0.  1.
       -4    1    3    3    0  502 -0.83241872701E+03  0.13723438106E+04 -0.93378373083E+03  0.18569335315E+04  0.12699999809E+01 0. -1.
</event>
<event>
 5   0  0.1948507E-06  0.3400929E+04  0.7818609E-02  0.8137678E-01
       -2   -1    0    0    0  501  0.00000000000E+00  0.00000000000E+00  0.28873423586E+04  0.28873423586E+04  0.25500000920E-02 0.  1.
        2   -1    0    0  501    0  0.00000000000E+00  0.00000000000E+00 -0.10014673155E+04  0.10014673155E+04  0.25500000920E-02 0. -1.
    10030    2    1    2    0    0  0.00000000000E+00  0.00000000000E+00  0.18858750431E+04  0.38888096741E+04  0.34009286972E+04 0.  0.
        1    1    3    3  502    0  0.96807141689E+03  0.66282014680E+03 -0.46452821411E+03  0.12618554897E+04  0.50400001928E-02 0.  1.
       -1    1    3    3    0  502 -0.96807141689E+03 -0.66282014680E+03  0.23504032572E+04  0.26269541844E+04  0.50400001928E-02 0. -1.
</event>
<event>
 5   0  0.1797075E-06  0.3403858E+04  0.7818609E-02  0.8136960E-01
        2   -1    0    0  501    0  0.00000000000E+00  0.00000000000E+00  0.23061301292E+04  0.23061301292E+04  0.25500000920E-02 0.  1.
       -2   -1    0    0    0  501  0.00000000000E+00  0.00000000000E+00 -0.12560272034E+04  0.12560272034E+04  0.25500000920E-02 0. -1.
    10030    2    1    2    0    0  0.00000000000E+00  0.00000000000E+00  0.10501029259E+04  0.35621573326E+04  0.34038579153E+04 0.  0.
        2    1    3    3  502    0  0.45929967344E+03  0.72113255587E+03 -0.10149749542E+04  0.13270879816E+04  0.25500000920E-02 0. -1.
       -2    1    3    3    0  502 -0.45929967344E+03 -0.72113255587E+03  0.20650778801E+04  0.22350693510E+04  0.25500000920E-02 0.  1.
</event>
<event>
 5   0  0.6146388E-07  0.2969170E+04  0.7818609E-02  0.8252590E-01
        1   -1    0    0  501    0  0.00000000000E+00  0.00000000000E+00  0.18814490432E+04  0.18814490432E+04  0.50400001928E-02 0.  1.
       -1   -1    0    0    0  501  0.00000000000E+00  0.00000000000E+00 -0.11714337001E+04  0.11714337001E+04  0.50400001928E-02 0. -1.
    10030    2    1    2    0    0  0.00000000000E+00  0.00000000000E+00  0.71001534309E+03  0.30528827433E+04  0.29691701294E+04 0.  0.
        4    1    3    3  502    0  0.12104073383E+04  0.76646682142E+01 -0.52878858997E+03  0.13208950214E+04  0.12699999809E+01 0. -1.
       -4    1    3    3    0  502 -0.12104073383E+04 -0.76646682142E+01  0.12388039331E+04  0.17319877220E+04  0.12699999809E+01 0.  1.
</event>
<event>
 5   0  0.6218695E-07  0.3392789E+04  0.7818609E-02  0.8139679E-01
        1   -1    0    0  501    0  0.00000000000E+00  0.00000000000E+00  0.14975393271E+04  0.14975393271E+04  0.50400001928E-02 0. -1.
       -1   -1    0    0    0  501  0.00000000000E+00  0.00000000000E+00 -0.19216547551E+04  0.19216547551E+04  0.50400001928E-02 0.  1.
    10030    2    1    2    0    0  0.00000000000E+00  0.00000000000E+00 -0.42411542793E+03  0.34191940822E+04  0.33927885692E+04 0.  0.
        2    1    3    3  502    0 -0.80227229478E+02 -0.16716831497E+04 -0.49132924375E+03  0.17442377668E+04  0.25500000920E-02 0.  1.
       -2    1    3    3    0  502  0.80227229478E+02  0.16716831497E+04  0.67213815821E+02  0.16749563154E+04  0.25500000920E-02 0. -1.
</event>
<event>
 5   0  0.1880301E-06  0.3371122E+04  0.7818609E-02  0.8145030E-01
       -2   -1    0    0    0  501  0.00000000000E+00  0.00000000000E+00  0.11146372702E+04  0.11146372702E+04  0.25500000920E-02 0. -1.
        2   -1    0    0  501    0  0.00000000000E+00  0.00000000000E+00 -0.25489156951E+04  0.25489156951E+04  0.25500000920E-02 0.  1.
    10030    2    1    2    0    0  0.00000000000E+00  0.00000000000E+00 -0.14342784250E+04  0.36635529653E+04  0.33711223249E+04 0.  0.
        4    1    3    3  502    0  0.74643268297E+03 -0.26473117992E+03 -0.23341170478E+04  0.24648221749E+04  0.12699999809E+01 0.  1.
       -4    1    3    3    0  502 -0.74643268297E+03  0.26473117992E+03  0.89983862286E+03  0.11987307904E+04  0.12699999809E+01 0. -1.
</event>
<event>
 5   0  0.1880301E-06  0.3446373E+04  0.7818609E-02  0.8126618E-01
       -2   -1    0    0    0  501  0.00000000000E+00  0.00000000000E+00  0.14999830374E+04  0.14999830374E+04  0.25500000920E-02 0.  1.
        2   -1    0    0  501    0  0.00000000000E+00  0.00000000000E+00 -0.19796029806E+04  0.19796029806E+04  0.25500000920E-02 0. -1.
    10030    2    1    2    0    0  0.00000000000E+00  0.00000000000E+00 -0.47961994317E+03  0.34795860180E+04  0.34463725229E+04 0.  0.
        4    1    3    3  502    0 -0.27057259953E+03  0.76586814142E+03  0.12945748113E+04  0.15282961417E+04  0.12699999809E+01 0.  1.
       -4    1    3    3    0  502  0.27057259953E+03 -0.76586814142E+03 -0.17741947545E+04  0.19512898763E+04  0.12699999809E+01 0. -1.
</event>
<event>
 5   0  0.6146388E-07  0.3409354E+04  0.7818609E-02  0.8135614E-01
        1   -1    0    0  501    0  0.00000000000E+00  0.00000000000E+00  0.24047034381E+04  0.24047034381E+04  0.50400001928E-02 0.  1.
       -1   -1    0    0    0  501  0.00000000000E+00  0.00000000000E+00 -0.12084334754E+04  0.12084334754E+04  0.50400001928E-02 0. -1.
    10030    2    1    2    0    0  0.00000000000E+00  0.00000000000E+00  0.11962699627E+04  0.36131369135E+04  0.34093542691E+04 0.  0.
        4    1    3    3  502    0 -0.34787244822E+03  0.10948463477E+04  0.19328662275E+04  0.22484833180E+04  0.12699999809E+01 0.  1.
       -4    1    3    3    0  502  0.34787244822E+03 -0.10948463477E+04 -0.73659626484E+03  0.13646535954E+04  0.12699999809E+01 0. -1.
</event>
<event>
 5   0  0.6218695E-07  0.2730604E+04  0.7818609E-02  0.8325143E-01
        1   -1    0    0  501    0  0.00000000000E+00  0.00000000000E+00  0.27083943749E+04  0.27083943749E+04  0.50400001928E-02 0.  1.
       -1   -1    0    0    0  501  0.00000000000E+00  0.00000000000E+00 -0.68824910979E+03  0.68824910981E+03  0.50400001928E-02 0. -1.
    10030    2    1    2    0    0  0.00000000000E+00  0.00000000000E+00  0.20201452651E+04  0.33966434847E+04  0.27306043416E+04 0.  0.
        2    1    3    3  502    0  0.59544792395E+02  0.44150317342E+03  0.26154378793E+04  0.26531087304E+04  0.25500000920E-02 0.  1.
       -2    1    3    3    0  502 -0.59544792395E+02 -0.44150317342E+03 -0.59529261420E+03  0.74353475438E+03  0.25500000920E-02 0. -1.
</event>
<event>
 5   0  0.1911477E-06  0.3182336E+04  0.7818609E-02  0.8193498E-01
       -2   -1    0    0    0  501  0.00000000000E+00  0.00000000000E+00  0.13011640755E+04  0.13011640755E+04  0.25500000920E-02 0. -1.
        2   -1    0    0  501    0  0.00000000000E+00  0.00000000000E+00 -0.19458083851E+04  0.19458083851E+04  0.25500000920E-02 0.  1.
    10030    2    1    2    0    0  0.00000000000E+00  0.00000000000E+00 -0.64464430953E+03  0.32469724606E+04  0.31823362289E+04 0.  0.
        5    1    3    3  502    0 -0.35781144055E+03  0.15042251762E+04  0.60901350888E+02  0.15474021689E+04  0.46999998093E+01 0. -1.
       -5    1    3    3    0  502  0.35781144055E+03 -0.15042251762E+04 -0.70554566042E+03  0.16995702917E+04  0.46999998093E+01 0.  1.
</event>
<event>
 5   0  0.1911477E-06  0.3387961E+04  0.7818609E-02  0.8140868E-01
       -2   -1    0    0    0  501  0.00000000000E+00  0.00000000000E+00  0.10535144516E+04  0.10535144516E+04  0.25500000920E-02 0.  1.
        2   -1    0    0  501    0  0.00000000000E+00  0.00000000000E+00 -0.27238062905E+04  0.27238062905E+04  0.25500000920E-02 0. -1.
    10030    2    1    2    0    0  0.00000000000E+00  0.00000000000E+00 -0.16702918390E+04  0.37773207421E+04  0.33879606198E+04 0.  0.
        5    1    3    3  502    0 -0.84925288690E+03 -0.74464994962E+03 -0.22426971725E+04  0.25110648560E+04  0.46999998093E+01 0. -1.
       -5    1    3    3    0  502  0.84925288690E+03  0.74464994962E+03  0.57240533352E+03  0.12662558861E+04  0.46999998093E+01 0.  1.
</event>
<event>
 5   0  0.6134625E-07  0.3277589E+04  0.7818609E-02  0.8168621E-01
        1   -1    0    0  501    0  0.00000000000E+00  0.00000000000E+00  0.22053637651E+04  0.22053637651E+04  0.50400001928E-02 0.  1.
       -1   -1    0    0    0  501  0.00000000000E+00  0.00000000000E+00 -0.12177799490E+04  0.12177799490E+04  0.50400001928E-02 0. -1.
    10030    2    1    2    0    0  0.00000000000E+00  0.00000000000E+00  0.98758381609E+03  0.34231437141E+04  0.32775892197E+04 0.  0.
        3    1    3    3  502    0  0.10827226010E+04 -0.94442176490E+03  0.13171062696E+04  0.19490996990E+04  0.10100000352E+00 0.  1.
       -3    1    3    3    0  502 -0.10827226010E+04  0.94442176490E+03 -0.32952245354E+03  0.14740440151E+04  0.10100000352E+00 0. -1.
</event>
<event>
 5   0  0.1797075E-06  0.3378648E+04  0.7818609E-02  0.8143167E-01
       -2   -1    0    0    0  501  0.00000000000E+00  0.00000000000E+00  0.15572108329E+04  0.15572108329E+04  0.25500000920E-02 0.  1.
        2   -1    0    0  501    0  0.00000000000E+00  0.00000000000E+00 -0.18326455742E+04  0.18326455742E+04  0.25500000920E-02 0. -1.
    10030    2    1    2    0    0  0.00000000000E+00  0.00000000000E+00 -0.27543474137E+03  0.33898564071E+04  0.33786479787E+04 0.  0.
        2    1    3    3  502    0 -0.13435261878E+04  0.92943496129E+03  0.29371329664E+03  0.16598733281E+04  0.25500000920E-02 0. -1.
       -2    1    3    3    0  502  0.13435261878E+04 -0.92943496129E+03 -0.56914803800E+03  0.17299830791E+04  0.25500000920E-02 0.  1.
</event>
<event>
 5   0  0.6146388E-07  0.3240305E+04  0.7818609E-02  0.8178253E-01
        1   -1    0    0  501    0  0.00000000000E+00  0.00000000000E+00  0.23215661740E+04  0.23215661740E+04  0.50400001928E-02 0. -1.
       -1   -1    0    0    0  501  0.00000000000E+00  0.00000000000E+00 -0.11306564507E+04  0.11306564508E+04  0.50400001928E-02 0.  1.
    10030    2    1    2    0    0  0.00000000000E+00  0.00000000000E+00  0.11909097232E+04  0.34522226248E+04  0.32403047823E+04 0.  0.
        4    1    3    3  502    0  0.11340942601E+04  0.41560476027E+03 -0.55497801964E+03  0.13292476529E+04  0.12699999809E+01 0.  1.
       -4    1    3    3    0  502 -0.11340942601E+04 -0.41560476027E+03  0.17458877429E+04  0.21229749719E+04  0.12699999809E+01 0. -1.
</event>
<event>
 5   0  0.1339844E-06  0.3265574E+04  0.7818609E-02  0.8171711E-01
       -2   -1    0    0    0  501  0.00000000000E+00  0.00000000000E+00  0.11808376183E+04  0.11808376183E+04  0.25500000920E-02 0.  1.
        2   -1    0    0  501    0  0.00000000000E+00  0.00000000000E+00 -0.22577133174E+04  0.22577133174E+04  0.25500000920E-02 0. -1.
    10030    2    1    2    0    0  0.00000000000E+00  0.00000000000E+00 -0.10768756991E+04  0.34385509356E+04  0.32655736503E+04 0.  0.
        3    1    3    3  502    0 -0.72905342549E+03 -0.33306157555E+03  0.95942584284E+03  0.12501787346E+04  0.10100000352E+00 0.  1.
       -3    1    3    3    0  502  0.72905342549E+03  0.33306157555E+03 -0.20363015419E+04  0.21883722010E+04  0.10100000352E+00 0. -1.
</event>
<event>
 5   0  0.1911477E-06  0.3457705E+04  0.7818609E-02  0.8123887E-01
       -2   -1    0    0    0  501  0.00000000000E+00  0.00000000000E+00  0.10002181440E+04  0.10002181440E+04  0.25500000920E-02 0. -1.
        2   -1    0    0  501    0  0.00000000000E+00  0.00000000000E+00 -0.29882782832E+04  0.29882782832E+04  0.25500000920E-02 0.  1.
    10030    2    1    2    0    0  0.00000000000E+00  0.00000000000E+00 -0.19880601392E+04  0.39884964272E+04  0.34577045324E+04 0.  0.
        5    1    3    3  502    0 -0.18744587049E+02  0.54724138021E+03 -0.28856046910E+04  0.29371007832E+04  0.46999998093E+01 0.  1.
       -5    1    3    3    0  502  0.18744587049E+02 -0.54724138021E+03  0.89754455185E+03  0.10513956440E+04  0.46999998093E+01 0. -1.
</event>
<event>
 5   0  0.1797075E-06  0.3331018E+04  0.7818609E-02  0.8155047E-01
        2   -1    0    0  501    0  0.00000000000E+00  0.00000000000E+00  0.20261081291E+04  0.20261081291E+04  0.25500000920E-02 0.  1.
       -2   -1    0    0    0  501  0.00000000000E+00  0.00000000000E+00 -0.13690878812E+04  0.13690878812E+04  0.25500000920E-02 0. -1.
    10030    2    1    2    0    0  0.00000000000E+00  0.00000000000E+00  0.65702024788E+03  0.33951960103E+04  0.33310179138E+04 0.  0.
        2    1    3    3  502    0 -0.11655029357E+04 -0.90256740246E+03  0.11186194833E+04  0.18504957600E+04  0.25500000920E-02 0.  1.
       -2    1    3    3    0  502  0.11655029357E+04  0.90256740246E+03 -0.46159923544E+03  0.15447002503E+04  0.25500000920E-02 0. -1.
</event>
<event>
 5   0  0.6134625E-07  0.3354680E+04  0.7818609E-02  0.8149120E-01
       -1   -1    0    0    0  501  0.00000000000E+00  0.00000000000E+00  0.16894322363E+04  0.16894322363E+04  0.50400001928E-02 0. -1.
        1   -1    0    0  501    0  0.00000000000E+00  0.00000000000E+00 -0.16653341098E+04  0.16653341098E+04  0.50400001928E-02 0.  1.
    10030    2    1    2    0    0  0.00000000000E+00  0.00000000000E+00  0.24098126436E+02  0.33547663461E+04  0.33546797935E+04 0.  0.
        1    1    3    3  502    0 -0.10561157070E+04  0.25624290280E+03 -0.12656490833E+04  0.16682051474E+04  0.50400001928E-02 0.  1.
       -1    1    3    3    0  502  0.10561157070E+04 -0.25624290280E+03  0.12897472097E+04  0.16865611987E+04  0.50400001928E-02 0. -1.
</event>
<event>
 5   0  0.1797075E-06  0.3342885E+04  0.7818609E-02  0.8152068E-01
       -2   -1    0    0    0  501  0.00000000000E+00  0.00000000000E+00  0.17486420039E+04  0.17486420039E+04  0.25500000920E-02 0.  1.
        2   -1    0    0  501    0  0.00000000000E+00  0.00000000000E+00 -0.15976508075E+04  0.15976508075E+04  0.25500000920E-02 0. -1.
    10030    2    1    2    0    0  0.00000000000E+00  0.00000000000E+00  0.15099119634E+03  0.33462928114E+04  0.33428845685E+04 0.  0.
        2    1    3    3  502    0  0.96647062919E+03 -0.13497135734E+04  0.27044297275E+03  0.16819428079E+04  0.25500000920E-02 0.  1.
       -2    1    3    3    0  502 -0.96647062919E+03  0.13497135734E+04 -0.11945177641E+03  0.16643500035E+04  0.25500000920E-02 0. -1.
</event>
<event>
 5   0  0.6134625E-07  0.3509437E+04  0.7818609E-02  0.8111557E-01
        1   -1    0    0  501    0  0.00000000000E+00  0.00000000000E+00  0.19152490208E+04  0.19152490208E+04  0.50400001928E-02 0.  1.
       -1   -1    0    0    0  501  0.00000000000E+00  0.00000000000E+00 -0.16076431628E+04  0.16076431628E+04  0.50400001928E-02 0. -1.
    10030    2    1    2    0    0  0.00000000000E+00  0.00000000000E+00  0.30760585805E+03  0.35228921836E+04  0.35094369881E+04 0.  0.
        3    1    3    3  502    0  0.63069353010E+03 -0.43278985241E+03 -0.14314780964E+04  0.16230252419E+04  0.10100000352E+00 0. -1.
       -3    1    3    3    0  502 -0.63069353010E+03  0.43278985241E+03  0.17390839545E+04  0.18998669417E+04  0.10100000352E+00 0.  1.
</event>
<event>
 5   0  0.6146388E-07  0.3291954E+04  0.7818609E-02  0.8164946E-01
       -1   -1    0    0    0  501  0.00000000000E+00  0.00000000000E+00  0.23308024571E+04  0.23308024571E+04  0.50400001928E-02 0.  1.
        1   -1    0    0  501    0  0.00000000000E+00  0.00000000000E+00 -0.11623637937E+04  0.11623637937E+04  0.50400001928E-02 0. -1.
    10030    2    1    2    0    0  0.00000000000E+00  0.00000000000E+00  0.11684386634E+04  0.34931662508E+04  0.32919540619E+04 0.  0.
        4    1    3    3  502    0  0.39991059248E+03 -0.46890636453E+03 -0.10353180795E+04  0.12048596596E+04  0.12699999809E+01 0. -1.
       -4    1    3    3    0  502 -0.39991059248E+03  0.46890636453E+03  0.22037567429E+04  0.22883065912E+04  0.12699999809E+01 0.  1.
</event>
<event>
 5   0  0.1339844E-06  0.3363831E+04  0.7818609E-02  0.8146841E-01
        2   -1    0    0  501    0  0.00000000000E+00  0.00000000000E+00  0.20016047159E+04  0.20016047159E+04  0.25500000920E-02 0. -1.
       -2   -1    0    0    0  501  0.00000000000E+00  0.00000000000E+00 -0.14132860176E+04  0.14132860176E+04  0.25500000920E-02 0.  1.
    10030    2    1    2    0    0  0.00000000000E+00  0.00000000000E+00  0.58831869830E+03  0.34148907335E+04  0.33638311240E+04 0.  0.
        3    1    3    3  502    0 -0.12783533442E+04 -0.27718212647E+03 -0.77916034532E+03  0.15225334340E+04  0.10100000352E+00 0.  1.
       -3    1    3    3    0  502  0.12783533442E+04  0.27718212647E+03  0.13674790436E+04  0.18923572995E+04  0.10100000352E+00 0. -1.
</event>
<event>
 5   0  0.6134625E-07  0.3128086E+04  0.7818609E-02  0.8208072E-01
       -1   -1    0    0    0  501  0.00000000000E+00  0.00000000000E+00  0.12742751194E+04  0.12742751194E+04  0.50400001928E-02 0.  1.
        1   -1    0    0  501    0  0.00000000000E+00  0.00000000000E+00 -0.19197039650E+04  0.19197039650E+04  0.50400001928E-02 0. -1.
    10030    2    1    2    0    0  0.00000000000E+00  0.00000000000E+00 -0.64542884565E+03  0.31939790844E+04  0.31280863154E+04 0.  0.
        1    1    3    3  502    0 -0.10959109194E+04  0.14796152145E+03 -0.14520498688E+04  0.18252019550E+04  0.50400001928E-02 0. -1.
       -1    1    3    3    0  502  0.10959109194E+04 -0.14796152145E+03  0.80662102311E+03  0.13687771294E+04  0.50400001928E-02 0.  1.
</event>
<event>
 5   0  0.6218695E-07  0.3444849E+04  0.7818609E-02  0.8126986E-01
       -1   -1    0    0    0  501  0.00000000000E+00  0.00000000000E+00  0.30243593648E+04  0.30243593648E+04  0.50400001928E-02 0. -1.
        1   -1    0    0  501    0  0.00000000000E+00  0.00000000000E+00 -0.98095052015E+03  0.98095052016E+03  0.50400001928E-02 0.  1.
    10030    2    1    2    0    0  0.00000000000E+00  0.00000000000E+00  0.20434088447E+04  0.40053098850E+04  0.34448494261E+04 0.  0.
        2    1    3    3  502    0  0.28291264961E+03 -0.16704867552E+04  0.66111643213E+03  0.18186919759E+04  0.25500000920E-02 0.  1.
       -2    1    3    3    0  502 -0.28291264961E+03  0.16704867552E+04  0.13822924126E+04  0.21866179091E+04  0.25500000920E-02 0. -1.
</event>
<event>
 5   0  0.6218695E-07  0.3421211E+04  0.7818609E-02  0.8132720E-01
       -1   -1    0    0    0  501  0.00000000000E+00  0.00000000000E+00  0.10551665376E+04  0.10551665376E+04  0.50400001928E-02 0. -1.
        1   -1    0    0  501    0  0.00000000000E+00  0.00000000000E+00 -0.27731839927E+04  0.27731839927E+04  0.50400001928E-02 0.  1.
    10030    2    1    2    0    0  0.00000000000E+00  0.00000000000E+00 -0.17180174551E+04  0.38283505303E+04  0.34212108686E+04 0.  0.
        2    1    3    3  502    0 -0.93826272984E+03 -0.48106151579E+03  0.64829240397E+03  0.12377561041E+04  0.25500000920E-02 0. -1.
       -2    1    3    3    0  502  0.93826272984E+03  0.48106151579E+03 -0.23663098591E+04  0.25905944262E+04  0.25500000920E-02 0.  1.
</event>
<event>
 5   0  0.1880301E-06  0.3375414E+04  0.7818609E-02  0.8143967E-01
        2   -1    0    0  501    0  0.00000000000E+00  0.00000000000E+00  0.14287298040E+04  0.14287298040E+04  0.25500000920E-02 0.  1.
       -2   -1    0    0    0  501  0.00000000000E+00  0.00000000000E+00 -0.19936276446E+04  0.19936276446E+04  0.25500000920E-02 0. -1.
    10030    2    1    2    0    0  0.00000000000E+00  0.00000000000E+00 -0.56489784064E+03  0.34223574486E+04  0.33754141873E+04 0.  0.
        4    1    3    3  502    0  0.86407819296E+02  0.13715012640E+04  0.71090695672E+03  0.15472143815E+04  0.12699999809E+01 0.  1.
       -4    1    3    3    0  502 -0.86407819296E+02 -0.13715012640E+04 -0.12758047974E+04  0.18751430671E+04  0.12699999809E+01 0. -1.
</event>
<event>
 5   0  0.6146388E-07  0.3420847E+04  0.7818609E-02  0.8132809E-01
        1   -1    0    0  501    0  0.00000000000E+00  0.00000000000E+00  0.16138574432E+04  0.16138574432E+04  0.50400001928E-02 0. -1.
       -1   -1    0    0    0  501  0.00000000000E+00  0.00000000000E+00 -0.18127672042E+04  0.18127672042E+04  0.50400001928E-02 0.  1.
    10030    2    1    2    0    0  0.00000000000E+00  0.00000000000E+00 -0.19890976101E+03  0.34266246474E+04  0.34208465883E+04 0.  0.
        4    1    3    3  502    0 -0.13832222087E+04 -0.79404105282E+03  0.51944093242E+03  0.16773864693E+04  0.12699999809E+01 0. -1.
       -4    1    3    3    0  502  0.13832222087E+04  0.79404105282E+03 -0.71835069343E+03  0.17492381781E+04  0.12699999809E+01 0.  1.
</event>
<event>
 5   0  0.6146388E-07  0.3416331E+04  0.7818609E-02  0.8133910E-01
       -1   -1    0    0    0  501  0.00000000000E+00  0.00000000000E+00  0.11698662708E+04  0.11698662708E+04  0.50400001928E-02 0. -1.
        1   -1    0    0  501    0  0.00000000000E+00  0.00000000000E+00 -0.24941570497E+04  0.24941570497E+04  0.50400001928E-02 0.  1.
    10030    2    1    2    0    0  0.00000000000E+00  0.00000000000E+00 -0.13242907789E+04  0.36640233205E+04  0.34163314866E+04 0.  0.
        4    1    3    3  502    0  0.25365998029E+03  0.14175234903E+04  0.32322238726E+03  0.14758694236E+04  0.12699999809E+01 0. -1.
       -4    1    3    3    0  502 -0.25365998029E+03 -0.14175234903E+04 -0.16475131661E+04  0.21881538969E+04  0.12699999809E+01 0.  1.
</event>
<event>
 5   0  0.1339844E-06  0.3067633E+04  0.7818609E-02  0.8224677E-01
        2   -1    0    0  501    0  0.00000000000E+00  0.00000000000E+00  0.22601808419E+04  0.22601808419E+04  0.25500000920E-02 0. -1.
       -2   -1    0    0    0  501  0.00000000000E+00  0.00000000000E+00 -0.10408868133E+04  0.10408868133E+04  0.25500000920E-02 0.  1.
    10030    2    1    2    0    0  0.00000000000E+00  0.00000000000E+00  0.12192940286E+04  0.33010676552E+04  0.30676325947E+04 0.  0.
        3    1    3    3  502    0 -0.28319989056E+03 -0.12247889711E+04  0.15553159004E+04  0.19998294333E+04  0.10100000352E+00 0. -1.
       -3    1    3    3    0  502  0.28319989056E+03  0.12247889711E+04 -0.33602187179E+03  0.13012382220E+04  0.10100000352E+00 0.  1.
</event>
<event>
 5   0  0.1948507E-06  0.3321242E+04  0.7818609E-02  0.8157511E-01
       -2   -1    0    0    0  501  0.00000000000E+00  0.00000000000E+00  0.13666980126E+04  0.13666980126E+04  0.25500000920E-02 0. -1.
        2   -1    0    0  501    0  0.00000000000E+00  0.00000000000E+00 -0.20177552979E+04  0.20177552979E+04  0.25500000920E-02 0.  1.
    10030    2    1    2    0    0  0.00000000000E+00  0.00000000000E+00 -0.65105728536E+03  0.33844533105E+04  0.33212420300E+04 0.  0.
        1    1    3    3  502    0  0.10637283017E+04 -0.76925715106E+03 -0.13619340591E+04  0.18915969036E+04  0.50400001928E-02 0.  1.
       -1    1    3    3    0  502 -0.10637283017E+04  0.76925715106E+03  0.71087677374E+03  0.14928564069E+04  0.50400001928E-02 0. -1.
</event>
<event>
 5   0  0.1948507E-06  0.3337914E+04  0.7818609E-02  0.8153315E-01
       -2   -1    0    0    0  501  0.00000000000E+00  0.00000000000E+00  0.12388598316E+04  0.12388598316E+04  0.25500000920E-02 0. -1.
        2   -1    0    0  501    0  0.00000000000E+00  0.00000000000E+00 -0.22483714686E+04  0.22483714686E+04  0.25500000920E-02 0.  1.
    10030    2    1    2    0    0  0.00000000000E+00  0.00000000000E+00 -0.10095116370E+04  0.34872313002E+04  0.33379137789E+04 0.  0.
        1    1    3    3  502    0  0.15014875259E+04  0.70303989679E+03 -0.30464849012E+03  0.16856869785E+04  0.50400001928E-02 0. -1.
       -1    1    3    3    0  502 -0.15014875259E+04 -0.70303989679E+03 -0.70486314690E+03  0.18015443216E+04  0.50400001928E-02 0.  1.
</event>
<event>
 5   0  0.6134625E-07  0.3326614E+04  0.7818609E-02  0.8156156E-01
       -1   -1    0    0    0  501  0.00000000000E+00  0.00000000000E+00  0.10350058155E+04  0.10350058156E+04  0.50400001928E-02 0.  1.
        1   -1    0    0  501    0  0.00000000000E+00  0.00000000000E+00 -0.26730186671E+04  0.26730186671E+04  0.50400001928E-02 0. -1.
    10030    2    1    2    0    0  0.00000000000E+00  0.00000000000E+00 -0.16380128516E+04  0.37080244827E+04  0.33266138132E+04 0.  0.
        5    1    3    3  502    0  0.11493175112E+04  0.11965803675E+04 -0.68791029014E+03  0.17961007696E+04  0.46999998093E+01 0. -1.
       -5    1    3    3    0  502 -0.11493175112E+04 -0.11965803675E+04 -0.95010256145E+03  0.19119237131E+04  0.46999998093E+01 0.  1.
</event>
<event>
 5   0  0.6134625E-07  0.2673234E+04  0.7818609E-02  0.8343742E-01
        1   -1    0    0  501    0  0.00000000000E+00  0.00000000000E+00  0.21399484714E+04  0.21399484714E+04  0.50400001928E-02 0. -1.
       -1   -1    0    0    0  501  0.00000000000E+00  0.00000000000E+00 -0.83485391843E+03  0.83485391844E+03  0.50400001928E-02 0.  1.
    10030    2    1    2    0    0  0.00000000000E+00  0.00000000000E+00  0.13050945530E+04  0.29748023899E+04  0.26732335226E+04 0.  0.
        1    1    3    3  502    0 -0.10705222996E+03  0.11898716784E+04 -0.14479904542E+02  0.11947654408E+04  0.50400001928E-02 0.  1.
       -1    1    3    3    0  502  0.10705222996E+03 -0.11898716784E+04  0.13195744575E+04  0.17800369491E+04  0.50400001928E-02 0. -1.
</event>
<event>
 5   0  0.1911477E-06  0.2658121E+04  0.7818609E-02  0.8348723E-01
        2   -1    0    0  501    0  0.00000000000E+00  0.00000000000E+00  0.17016270005E+04  0.17016270005E+04  0.25500000920E-02 0.  1.
       -2   -1    0    0    0  501  0.00000000000E+00  0.00000000000E+00 -0.10380661647E+04  0.10380661647E+04  0.25500000920E-02 0. -1.
    10030    2    1    2    0    0  0.00000000000E+00  0.00000000000E+00  0.66356083576E+03  0.27396931652E+04  0.26581207001E+04 0.  0.
        5    1    3    3  502    0  0.87314115212E+03 -0.69527932281E+03  0.10754420145E+04  0.15499633624E+04  0.46999998093E+01 0. -1.
       -5    1    3    3    0  502 -0.87314115212E+03  0.69527932281E+03 -0.41188117870E+03  0.11897298028E+04  0.46999998093E+01 0.  1.
</event>
<event>
 5   0  0.1797075E-06  0.3389825E+04  0.7818609E-02  0.8140408E-01
       -2   -1    0    0    0  501  0.00000000000E+00  0.00000000000E+00  0.19245181280E+04  0.19245181280E+04  0.25500000920E-02 0.  1.
        2   -1    0    0  501    0  0.00000000000E+00  0.00000000000E+00 -0.14926997484E+04  0.14926997484E+04  0.25500000920E-02 0. -1.
    10030    2    1    2    0    0  0.00000000000E+00  0.00000000000E+00  0.43181837964E+03  0.34172178764E+04  0.33898246123E+04 0.  0.
        2    1    3    3  502    0  0.61656897154E+03 -0.12820493664E+04  0.11447232597E+04  0.18259789746E+04  0.25500000920E-02 0.  1.
       -2    1    3    3    0  502 -0.61656897154E+03  0.12820493664E+04 -0.71290488002E+03  0.15912389018E+04  0.25500000920E-02 0. -1.
</event>
<event>
 5   0  0.6134625E-07  0.3483758E+04  0.7818609E-02  0.8117650E-01
        1   -1    0    0  501    0  0.00000000000E+00  0.00000000000E+00  0.28582222513E+04  0.28582222513E+04  0.50400001928E-02 0. -1.
       -1   -1    0    0    0  501  0.00000000000E+00  0.00000000000E+00 -0.10615486265E+04  0.10615486265E+04  0.50400001928E-02 0.  1.
    10030    2    1    2    0    0  0.00000000000E+00  0.00000000000E+00  0.17966736248E+04  0.39197708779E+04  0.34837576869E+04 0.  0.
        5    1    3    3  502    0 -0.25764792040E+03 -0.40980052992E+03 -0.98434234902E+03  0.10969370425E+04  0.46999998093E+01 0.  1.
       -5    1    3    3    0  502  0.25764792040E+03  0.40980052992E+03  0.27810159738E+04  0.28228338353E+04  0.46999998093E+01 0. -1.
</event>
<event>
 5   0  0.1948507E-06  0.3401422E+04  0.7818609E-02  0.8137557E-01
        2   -1    0    0  501    0  0.00000000000E+00  0.00000000000E+00  0.25935826054E+04  0.25935826054E+04  0.25500000920E-02 0. -1.
       -2   -1    0    0    0  501  0.00000000000E+00  0.00000000000E+00 -0.11152212248E+04  0.11152212248E+04  0.25500000920E-02 0.  1.
    10030    2    1    2    0    0  0.00000000000E+00  0.00000000000E+00  0.14783613806E+04  0.37088038302E+04  0.34014222730E+04 0.  0.
        1    1    3    3  502    0  0.42492998823E+03  0.68944923868E+03 -0.89146267719E+03  0.12044133229E+04  0.50400001928E-02 0.  1.
       -1    1    3    3    0  502 -0.42492998823E+03 -0.68944923868E+03  0.23698240578E+04  0.25043905072E+04  0.50400001928E-02 0. -1.
</event>
<event>
 5   0  0.1880301E-06  0.3404958E+04  0.7818609E-02  0.8136691E-01
        2   -1    0    0  501    0  0.00000000000E+00  0.00000000000E+00  0.23808957917E+04  0.23808957917E+04  0.25500000920E-02 0. -1.
       -2   -1    0    0    0  501  0.00000000000E+00  0.00000000000E+00 -0.12173714981E+04  0.12173714981E+04  0.25500000920E-02 0.  1.
    10030    2    1    2    0    0  0.00000000000E+00  0.00000000000E+00  0.11635242935E+04  0.35982672898E+04  0.34049579597E+04 0.  0.
        4    1    3    3  502    0  0.13265916357E+04 -0.80140536599E+02 -0.54267857608E+03  0.14355380606E+04  0.12699999809E+01 0.  1.
       -4    1    3    3    0  502 -0.13265916357E+04  0.80140536599E+02  0.17062028696E+04  0.21627292292E+04  0.12699999809E+01 0. -1.
</event>
<event>
 5   0  0.1948507E-06  0.3407856E+04  0.7818609E-02  0.8135981E-01
       -2   -1    0    0    0  501  0.00000000000E+00  0.00000000000E+00  0.12790827748E+04  0.12790827748E+04  0.25500000920E-02 0.  1.
        2   -1    0    0  501    0  0.00000000000E+00  0.00000000000E+00 -0.22698854751E+04  0.22698854751E+04  0.25500000920E-02 0. -1.
    10030    2    1    2    0    0  0.00000000000E+00  0.00000000000E+00 -0.99080270030E+03  0.35489682498E+04  0.34078564593E+04 0.  0.
        1    1    3    3  502    0 -0.62025927255E+03  0.13632374551E+04 -0.13415946738E+04  0.20107247929E+04  0.50400001928E-02 0. -1.
       -1    1    3    3    0  502  0.62025927255E+03 -0.13632374551E+04  0.35079197348E+03  0.15382434569E+04  0.50400001928E-02 0.  1.
</event>
<event>
 5   0  0.1797075E-06  0.2558718E+04  0.7818609E-02  0.8382361E-01
        2   -1    0    0  501    0  0.00000000000E+00  0.00000000000E+00  0.17428264535E+04  0.17428264535E+04  0.25500000920E-02 0. -1.
       -2   -1    0    0    0  501  0.00000000000E+00  0.00000000000E+00 -0.93914066144E+03  0.93914066145E+03  0.25500000920E-02 0.  1.
    10030    2    1    2    0    0  0.00000000000E+00  0.00000000000E+00  0.80368579205E+03  0.26819671149E+04  0.25587177948E+04 0.  0.
        2    1    3    3  502    0  0.60644886071E+03 -0.36607913629E+03 -0.71482055036E+03  0.10063610554E+04  0.25500000920E-02 0.  1.
       -2    1    3    3    0  502 -0.60644886071E+03  0.36607913629E+03  0.15185063424E+04  0.16756060595E+04  0.25500000920E-02 0. -1.
</event>
<event>
 5   0  0.6218695E-07  0.3367910E+04  0.7818609E-02  0.8145827E-01
        1   -1    0    0  501    0  0.00000000000E+00  0.00000000000E+00  0.12467844796E+04  0.12467844796E+04  0.50400001928E-02 0.  1.
       -1   -1    0    0    0  501  0.00000000000E+00  0.00000000000E+00 -0.22744146644E+04  0.22744146644E+04  0.50400001928E-02 0. -1.
    10030    2    1    2    0    0  0.00000000000E+00  0.00000000000E+00 -0.10276301848E+04  0.35211991440E+04  0.33679102743E+04 0.  0.
        2    1    3    3  502    0 -0.13250885540E+04 -0.59199261080E+02  0.57087319657E+03  0.14440430862E+04  0.25500000920E-02 0.  1.
       -2    1    3    3    0  502  0.13250885540E+04  0.59199261080E+02 -0.15985033813E+04  0.20771560578E+04  0.25500000920E-02 0. -1.
</event>
<event>
 5   0  0.6218695E-07  0.3410794E+04  0.7818609E-02  0.8135262E-01
       -1   -1    0    0    0  501  0.00000000000E+00  0.00000000000E+00  0.12883881450E+04  0.12883881450E+04  0.50400001928E-02 0. -1.
        1   -1    0    0  501    0  0.00000000000E+00  0.00000000000E+00 -0.22573780585E+04  0.22573780585E+04  0.50400001928E-02 0.  1.
    10030    2    1    2    0    0  0.00000000000E+00  0.00000000000E+00 -0.96898991353E+03  0.35457662036E+04  0.34107941183E+04 0.  0.
        2    1    3    3  502    0 -0.17092055950E+03 -0.15472026232E+04 -0.12087188718E+04  0.19707996108E+04  0.25500000920E-02 0.  1.
       -2    1    3    3    0  502  0.17092055950E+03  0.15472026232E+04  0.23972895822E+03  0.15749665928E+04  0.25500000920E-02 0. -1.
</event>
<event>
 5   0  0.1948507E-06  0.3463955E+04  0.7818609E-02  0.8122386E-01
       -2   -1    0    0    0  501  0.00000000000E+00  0.00000000000E+00  0.14680684099E+04  0.14680684099E+04  0.25500000920E-02 0.  1.
        2   -1    0    0  501    0  0.00000000000E+00  0.00000000000E+00 -0.20433286257E+04  0.20433286257E+04  0.25500000920E-02 0. -1.
    10030    2    1    2    0    0  0.00000000000E+00  0.00000000000E+00 -0.57526021572E+03  0.35113970356E+04  0.34639550843E+04 0.  0.
        1    1    3    3  502    0  0.78717181703E+03  0.63520688079E+03  0.11375480705E+04  0.15222164313E+04  0.50400001928E-02 0.  1.
       -1    1    3    3    0  502 -0.78717181703E+03 -0.63520688079E+03 -0.17128082863E+04  0.19891806043E+04  0.50400001928E-02 0. -1.
</event>
<event>
 5   0  0.6134625E-07  0.3429825E+04  0.7818609E-02  0.8130625E-01
       -1   -1    0    0    0  501  0.00000000000E+00  0.00000000000E+00  0.15824497093E+04  0.15824497093E+04  0.50400001928E-02 0. -1.
        1   -1    0    0  501    0  0.00000000000E+00  0.00000000000E+00 -0.18584638615E+04  0.18584638615E+04  0.50400001928E-02 0.  1.
    10030    2    1    2    0    0  0.00000000000E+00  0.00000000000E+00 -0.27601415221E+03  0.34409135709E+04  0.34298254168E+04 0.  0.
        1    1    3    3  502    0 -0.15745801895E+04  0.67942740423E+03 -0.13911821966E+03  0.17205459162E+04  0.50400001928E-02 0.  1.
       -1    1    3    3    0  502  0.15745801895E+04 -0.67942740423E+03 -0.13689593255E+03  0.17203676547E+04  0.50400001928E-02 0. -1.
</event>
<event>
 5   0  0.6134625E-07  0.2883232E+04  0.7818609E-02  0.8277884E-01
       -1   -1    0    0    0  501  0.00000000000E+00  0.00000000000E+00  0.13654555538E+04  0.13654555538E+04  0.50400001928E-02 0.  1.
        1   -1    0    0  501    0  0.00000000000E+00  0.00000000000E+00 -0.15220239914E+04  0.15220239914E+04  0.50400001928E-02 0. -1.
    10030    2    1    2    0    0  0.00000000000E+00  0.00000000000E+00 -0.15656843761E+03  0.28874795453E+04  0.28832315982E+04 0.  0.
        5    1    3    3  502    0  0.98931585971E+03  0.27230507463E+01  0.97182192631E+03  0.13867996365E+04  0.46999998093E+01 0.  1.
       -5    1    3    3    0  502 -0.98931585971E+03 -0.27230507463E+01 -0.11283903639E+04  0.15006799088E+04  0.46999998093E+01 0. -1.
</event>
<event>
 5   0  0.1948507E-06  0.3356020E+04  0.7818609E-02  0.8148786E-01
        2   -1    0    0  501    0  0.00000000000E+00  0.00000000000E+00  0.24654380491E+04  0.24654380491E+04  0.25500000920E-02 0. -1.
       -2   -1    0    0    0  501  0.00000000000E+00  0.00000000000E+00 -0.11420758799E+04  0.11420758799E+04  0.25500000920E-02 0.  1.
    10030    2    1    2    0    0  0.00000000000E+00  0.00000000000E+00  0.13233621692E+04  0.36075139290E+04  0.33560198625E+04 0.  0.
        1    1    3    3  502    0  0.15456226735E+04  0.40205498566E+03  0.12151643168E+04  0.20067939549E+04  0.50400001928E-02 0. -1.
       -1    1    3    3    0  502 -0.15456226735E+04 -0.40205498566E+03  0.10819785240E+03  0.16007199742E+04  0.50400001928E-02 0.  1.
</event>
<event>
 5   0  0.6218695E-07  0.3385661E+04  0.7818609E-02  0.8141435E-01
        1   -1    0    0  501    0  0.00000000000E+00  0.00000000000E+00  0.14036712044E+04  0.14036712044E+04  0.50400001928E-02 0. -1.
       -1   -1    0    0    0  501  0.00000000000E+00  0.00000000000E+00 -0.20415573854E+04  0.20415573854E+04  0.50400001928E-02 0.  1.
    10030    2    1    2    0    0  0.00000000000E+00  0.00000000000E+00 -0.63788618109E+03  0.34452285898E+04  0.33856611254E+04 0.  0.
        2    1    3    3  502    0 -0.92692993851E+03  0.13313184004E+04 -0.81126043053E+03  0.18137671516E+04  0.25500000920E-02 0.  1.
       -2    1    3    3    0  502  0.92692993851E+03 -0.13313184004E+04  0.17337424944E+03  0.16314614382E+04  0.25500000920E-02 0. -1.
</event>
<event>
 5   0  0.1797075E-06  0.3414239E+04  0.7818609E-02  0.8134420E-01
       -2   -1    0    0    0  501  0.00000000000E+00  0.00000000000E+00  0.13833426072E+04  0.13833426072E+04  0.25500000920E-02 0. -1.
        2   -1    0    0  501    0  0.00000000000E+00  0.00000000000E+00 -0.21066782637E+04  0.21066782637E+04  0.25500000920E-02 0.  1.
    10030    2    1    2    0    0  0.00000000000E+00  0.00000000000E+00 -0.72333565646E+03  0.34900208709E+04  0.34142394772E+04 0.  0.
        2    1    3    3  502    0  0.37155562607E+03 -0.10338790001E+04  0.97397016760E+03  0.14681884271E+04  0.25500000920E-02 0. -1.
       -2    1    3    3    0  502 -0.37155562607E+03  0.10338790001E+04 -0.16973058241E+04  0.20218324437E+04  0.25500000920E-02 0.  1.
</event>
<event>
 5   0  0.6146388E-07  0.3402511E+04  0.7818609E-02  0.8137290E-01
        1   -1    0    0  501    0  0.00000000000E+00  0.00000000000E+00  0.13295738089E+04  0.13295738089E+04  0.50400001928E-02 0. -1.
       -1   -1    0    0    0  501  0.00000000000E+00  0.00000000000E+00 -0.21768401744E+04  0.21768401744E+04  0.50400001928E-02 0.  1.
    10030    2    1    2    0    0  0.00000000000E+00  0.00000000000E+00 -0.84726636548E+03  0.35064139833E+04  0.34025106507E+04 0.  0.
        4    1    3    3  502    0 -0.13890967438E+04  0.61407829335E+03  0.36631658074E+03  0.15623288272E+04  0.12699999809E+01 0.  1.
       -4    1    3    3    0  502  0.13890967438E+04 -0.61407829335E+03 -0.12135829462E+04  0.19440851561E+04  0.12699999809E+01 0. -1.
</event>
<event>
 5   0  0.6146388E-07  0.3077607E+04  0.7818609E-02  0.8221910E-01
        1   -1    0    0  501    0  0.00000000000E+00  0.00000000000E+00  0.12396699671E+04  0.12396699671E+04  0.50400001928E-02 0. -1.
       -1   -1    0    0    0  501  0.00000000000E+00  0.00000000000E+00 -0.19101185573E+04  0.19101185573E+04  0.50400001928E-02 0.  1.
    10030    2    1    2    0    0  0.00000000000E+00  0.00000000000E+00 -0.67044859012E+03  0.31497885244E+04  0.30776072583E+04 0.  0.
        4    1    3    3  502    0  0.96935923150E+03  0.81105557270E+03  0.56311304510E+03  0.13836785668E+04  0.12699999809E+01 0.  1.
       -4    1    3    3    0  502 -0.96935923150E+03 -0.81105557270E+03 -0.12335616352E+04  0.17661099576E+04  0.12699999809E+01 0. -1.
</event>
<event>
 5   0  0.1911477E-06  0.3454916E+04  0.7818609E-02  0.8124558E-01
        2   -1    0    0  501    0  0.00000000000E+00  0.00000000000E+00  0.22279199865E+04  0.22279199865E+04  0.25500000920E-02 0. -1.
       -2   -1    0    0    0  501  0.00000000000E+00  0.00000000000E+00 -0.13394154489E+04  0.13394154489E+04  0.25500000920E-02 0.  1.
    10030    2    1    2    0    0  0.00000000000E+00  0.00000000000E+00  0.88850453755E+03  0.35673354354E+04  0.34549155989E+04 0.  0.
        5    1    3    3  502    0 -0.67422046926E+03 -0.15167223281E+04 -0.49932309885E+02  0.16605827854E+04  0.46999998093E+01 0.  1.
       -5    1    3    3    0  502  0.67422046926E+03  0.15167223281E+04  0.93843684743E+03  0.19067526500E+04  0.46999998093E+01 0. -1.
</event>
<event>
 5   0  0.6134625E-07  0.3365110E+04  0.7818609E-02  0.8146523E-01
        1   -1    0    0  501    0  0.00000000000E+00  0.00000000000E+00  0.17088061314E+04  0.17088061314E+04  0.50400001928E-02 0.  1.
       -1   -1    0    0    0  501  0.00000000000E+00  0.00000000000E+00 -0.16567066728E+04  0.16567066728E+04  0.50400001928E-02 0. -1.
    10030    2    1    2    0    0  0.00000000000E+00  0.00000000000E+00  0.52099458603E+02  0.33655128042E+04  0.33651095200E+04 0.  0.
        1    1    3    3  502    0  0.10293644868E+04  0.11214354036E+04  0.74292144909E+03  0.16938538576E+04  0.50400001928E-02 0.  1.
       -1    1    3    3    0  502 -0.10293644868E+04 -0.11214354036E+04 -0.69082199049E+03  0.16716589466E+04  0.50400001928E-02 0. -1.
</event>
<event>
 5   0  0.6134625E-07  0.3192081E+04  0.7818609E-02  0.8190912E-01
       -3   -1    0    0    0  501  0.00000000000E+00  0.00000000000E+00  0.11720803815E+04  0.11720803859E+04  0.10100000352E+00 0. -1.
        3   -1    0    0  501    0  0.00000000000E+00  0.00000000000E+00 -0.21733534099E+04  0.21733534123E+04  0.10100000352E+00 0.  1.
    10030    2    1    2    0    0  0.00000000000E+00  0.00000000000E+00 -0.10012730284E+04  0.33454337981E+04  0.31920807666E+04 0.  0.
        1    1    3    3  502    0  0.78077330748E+03  0.25986430633E+03  0.93261886634E+03  0.12437501217E+04  0.50400001928E-02 0. -1.
       -1    1    3    3    0  502 -0.78077330748E+03 -0.25986430633E+03 -0.19338918947E+04  0.21016836764E+04  0.50400001928E-02 0.  1.
</event>
<event>
 5   0  0.6134625E-07  0.3397162E+04  0.7818609E-02  0.8138603E-01
        1   -1    0    0  501    0  0.00000000000E+00  0.00000000000E+00  0.16738303534E+04  0.16738303534E+04  0.50400001928E-02 0. -1.
       -1   -1    0    0    0  501  0.00000000000E+00  0.00000000000E+00 -0.17236981226E+04  0.17236981226E+04  0.50400001928E-02 0.  1.
    10030    2    1    2    0    0  0.00000000000E+00  0.00000000000E+00 -0.49867769228E+02  0.33975284760E+04  0.33971624852E+04 0.  0.
        3    1    3    3  502    0 -0.13712810627E+03 -0.67157185932E+02 -0.17168206117E+04  0.17235971769E+04  0.10100000352E+00 0.  1.
       -3    1    3    3    0  502  0.13712810627E+03  0.67157185932E+02  0.16669528425E+04  0.16739312992E+04  0.10100000352E+00 0. -1.
</event>
<event>
 5   0  0.1797075E-06  0.3245472E+04  0.7818609E-02  0.8176910E-01
       -2   -1    0    0    0  501  0.00000000000E+00  0.00000000000E+00  0.98608097118E+03  0.98608097118E+03  0.25500000920E-02 0. -1.
        2   -1    0    0  501    0  0.00000000000E+00  0.00000000000E+00 -0.26704420453E+04  0.26704420453E+04  0.25500000920E-02 0.  1.
    10030    2    1    2    0    0  0.00000000000E+00  0.00000000000E+00 -0.16843610741E+04  0.36565230165E+04  0.32454719753E+04 0.  0.
        2    1    3    3  502    0  0.13238914154E+02  0.63539543511E+03 -0.25243954228E+04  0.26031663178E+04  0.25500000920E-02 0.  1.
       -2    1    3    3    0  502 -0.13238914154E+02 -0.63539543511E+03  0.84003434861E+03  0.10533566987E+04  0.25500000920E-02 0. -1.
</event>
<event>
 5   0  0.1880301E-06  0.3442065E+04  0.7818609E-02  0.8127659E-01
        2   -1    0    0  501    0  0.00000000000E+00  0.00000000000E+00  0.21262385836E+04  0.21262385836E+04  0.25500000920E-02 0. -1.
       -2   -1    0    0    0  501  0.00000000000E+00  0.00000000000E+00 -0.13930479585E+04  0.13930479585E+04  0.25500000920E-02 0.  1.
    10030    2    1    2    0    0  0.00000000000E+00  0.00000000000E+00  0.73319062516E+03  0.35192865421E+04  0.34420646817E+04 0.  0.
        4    1    3    3  502    0 -0.46715354477E+03 -0.11027368635E+04 -0.89713142473E+03  0.14963647385E+04  0.12699999809E+01 0.  1.
       -4    1    3    3    0  502  0.46715354477E+03  0.11027368635E+04  0.16303220499E+04  0.20229218036E+04  0.12699999809E+01 0. -1.
</event>
<event>
 5   0  0.6134625E-07  0.3292321E+04  0.7818609E-02  0.8164852E-01
        1   -1    0    0  501    0  0.00000000000E+00  0.00000000000E+00  0.11116691761E+04  0.11116691761E+04  0.50400001928E-02 0.  1.
       -1   -1    0    0    0  501  0.00000000000E+00  0.00000000000E+00 -0.24376360622E+04  0.24376360622E+04  0.50400001928E-02 0. -1.
    10030    2    1    2    0    0  0.00000000000E+00  0.00000000000E+00 -0.13259668860E+04  0.35493052383E+04  0.32923212923E+04 0.  0.
        3    1    3    3  502    0  0.91737328529E+03  0.67744048677E+03 -0.19428063427E+04  0.22527751448E+04  0.10100000352E+00 0. -1.
       -3    1    3    3    0  502 -0.91737328529E+03 -0.67744048677E+03  0.61683945669E+03  0.12965300934E+04  0.10100000352E+00 0.  1.
</event>
<event>
 5   0  0.1797075E-06  0.3368971E+04  0.7818609E-02  0.8145564E-01
       -2   -1    0    0    0  501  0.00000000000E+00  0.00000000000E+00  0.19249201882E+04  0.19249201882E+04  0.25500000920E-02 0. -1.
        2   -1    0    0  501    0  0.00000000000E+00  0.00000000000E+00 -0.14740823844E+04  0.14740823844E+04  0.25500000920E-02 0.  1.
    10030    2    1    2    0    0  0.00000000000E+00  0.00000000000E+00  0.45083780387E+03  0.33990025726E+04  0.33689707276E+04 0.  0.
        2    1    3    3  502    0 -0.14753312736E+04 -0.37479529076E+03 -0.50241121099E+03  0.16029631629E+04  0.25500000920E-02 0.  1.
       -2    1    3    3    0  502  0.14753312736E+04  0.37479529076E+03  0.95324901486E+03  0.17960394097E+04  0.25500000920E-02 0. -1.
</event>
<event>
 5   0  0.1880301E-06  0.3402029E+04  0.7818609E-02  0.8137409E-01
        2   -1    0    0  501    0  0.00000000000E+00  0.00000000000E+00  0.21125928042E+04  0.21125928042E+04  0.25500000920E-02 0. -1.
       -2   -1    0    0    0  501  0.00000000000E+00  0.00000000000E+00 -0.13696203970E+04  0.13696203970E+04  0.25500000920E-02 0.  1.
    10030    2    1    2    0    0  0.00000000000E+00  0.00000000000E+00  0.74297240716E+03  0.34822132013E+04  0.34020289213E+04 0.  0.
        4    1    3    3  502    0  0.42334699965E+03  0.21705222956E+03 -0.13001361288E+04  0.13844457082E+04  0.12699999809E+01 0.  1.
       -4    1    3    3    0  502 -0.42334699965E+03 -0.21705222956E+03  0.20431085360E+04  0.20977674931E+04  0.12699999809E+01 0. -1.
</event>
<event>
 5   0  0.1339844E-06  0.3408064E+04  0.7818609E-02  0.8135930E-01
       -2   -1    0    0    0  501  0.00000000000E+00  0.00000000000E+00  0.12273039626E+04  0.12273039626E+04  0.25500000920E-02 0. -1.
        2   -1    0    0  501    0  0.00000000000E+00  0.00000000000E+00 -0.23659386450E+04  0.23659386450E+04  0.25500000920E-02 0.  1.
    10030    2    1    2    0    0  0.00000000000E+00  0.00000000000E+00 -0.11386346824E+04  0.35932426076E+04  0.34080644796E+04 0.  0.
        3    1    3    3  502    0 -0.53148110185E+03  0.94176828677E+02  0.11347913091E+04  0.12566195773E+04  0.10100000352E+00 0. -1.
       -3    1    3    3    0  502  0.53148110185E+03 -0.94176828677E+02 -0.22734259915E+04  0.23366230303E+04  0.10100000352E+00 0.  1.
</event>
<event>
 5   0  0.6134625E-07  0.3084309E+04  0.7818609E-02  0.8220057E-01
       -1   -1    0    0    0  501  0.00000000000E+00  0.00000000000E+00  0.10468961048E+04  0.10468961048E+04  0.50400001928E-02 0. -1.
        1   -1    0    0  501    0  0.00000000000E+00  0.00000000000E+00 -0.22717063821E+04  0.22717063821E+04  0.50400001928E-02 0.  1.
    10030    2    1    2    0    0  0.00000000000E+00  0.00000000000E+00 -0.12248102773E+04  0.33186024869E+04  0.30843090395E+04 0.  0.
        3    1    3    3  502    0 -0.11763824954E+04  0.95788117720E+03 -0.91063993932E+03  0.17693719887E+04  0.10100000352E+00 0. -1.
       -3    1    3    3    0  502  0.11763824954E+04 -0.95788117720E+03 -0.31417033795E+03  0.15492304982E+04  0.10100000352E+00 0.  1.
</event>
<event>
 5   0  0.1797075E-06  0.2963921E+04  0.7818609E-02  0.8254109E-01
       -2   -1    0    0    0  501  0.00000000000E+00  0.00000000000E+00  0.10665960824E+04  0.10665960824E+04  0.25500000920E-02 0. -1.
        2   -1    0    0  501    0  0.00000000000E+00  0.00000000000E+00 -0.20590807150E+04  0.20590807150E+04  0.25500000920E-02 0.  1.
    10030    2    1    2    0    0  0.00000000000E+00  0.00000000000E+00 -0.99248463259E+03  0.31256767974E+04  0.29639213376E+04 0.  0.
        2    1    3    3  502    0 -0.14133697513E+04  0.75952171100E+02 -0.33159508648E+02  0.14157974216E+04  0.25500000920E-02 0. -1.
       -2    1    3    3    0  502  0.14133697513E+04 -0.75952171100E+02 -0.95932512394E+03  0.17098793757E+04  0.25500000920E-02 0.  1.
</event>
<event>
 5   0  0.6134625E-07  0.3399467E+04  0.7818609E-02  0.8138037E-01
        1   -1    0    0  501    0  0.00000000000E+00  0.00000000000E+00  0.14907728546E+04  0.14907728546E+04  0.50400001928E-02 0. -1.
       -1   -1    0    0    0  501  0.00000000000E+00  0.00000000000E+00 -0.19379843722E+04  0.19379843722E+04  0.50400001928E-02 0.  1.
    10030    2    1    2    0    0  0.00000000000E+00  0.00000000000E+00 -0.44721151754E+03  0.34287572268E+04  0.33994673081E+04 0.  0.
        5    1    3    3  502    0  0.34509379948E+03  0.89862894232E+03 -0.16365499982E+04  0.18986684000E+04  0.46999998093E+01 0.  1.
       -5    1    3    3    0  502 -0.34509379948E+03 -0.89862894232E+03  0.11893384807E+04  0.15300888268E+04  0.46999998093E+01 0. -1.
</event>
<event>
 5   0  0.6218695E-07  0.3433346E+04  0.7818609E-02  0.8129770E-01
       -1   -1    0    0    0  501  0.00000000000E+00  0.00000000000E+00  0.18977181790E+04  0.18977181790E+04  0.50400001928E-02 0. -1.
        1   -1    0    0  501    0  0.00000000000E+00  0.00000000000E+00 -0.15528994950E+04  0.15528994950E+04  0.50400001928E-02 0.  1.
    10030    2    1    2    0    0  0.00000000000E+00  0.00000000000E+00  0.34481868400E+03  0.34506176740E+04  0.34333456580E+04 0.  0.
        2    1    3    3  502    0  0.14467092118E+04  0.51391231945E+03 -0.59949882368E+03  0.16481723985E+04  0.25500000920E-02 0. -1.
       -2    1    3    3    0  502 -0.14467092118E+04 -0.51391231945E+03  0.94431750768E+03  0.18024452754E+04  0.25500000920E-02 0.  1.
</event>
<event>
 5   0  0.1797075E-06  0.3425812E+04  0.7818609E-02  0.8131600E-01
        2   -1    0    0  501    0  0.00000000000E+00  0.00000000000E+00  0.95034805809E+03  0.95034805809E+03  0.25500000920E-02 0. -1.
       -2   -1    0    0    0  501  0.00000000000E+00  0.00000000000E+00 -0.30873384624E+04  0.30873384624E+04  0.25500000920E-02 0.  1.
    10030    2    1    2    0    0  0.00000000000E+00  0.00000000000E+00 -0.21369904044E+04  0.40376865205E+04  0.34258115024E+04 0.  0.
        2    1    3    3  502    0 -0.63958366855E+03 -0.48854280682E+03 -0.28506121320E+04  0.29620484247E+04  0.25500000920E-02 0.  1.
       -2    1    3    3    0  502  0.63958366855E+03  0.48854280682E+03  0.71362172760E+03  0.10756380959E+04  0.25500000920E-02 0. -1.
</event>
<event>
 5   0  0.6134625E-07  0.3468704E+04  0.7818609E-02  0.8121247E-01
       -1   -1    0    0    0  501  0.00000000000E+00  0.00000000000E+00  0.30863215583E+04  0.30863215584E+04  0.50400001928E-02 0.  1.
        1   -1    0    0  501    0  0.00000000000E+00  0.00000000000E+00 -0.97461554107E+03  0.97461554108E+03  0.50400001928E-02 0. -1.
    10030    2    1    2    0    0  0.00000000000E+00  0.00000000000E+00  0.21117060173E+04  0.40609370994E+04  0.34687040551E+04 0.  0.
        3    1    3    3  502    0  0.35123218185E+02 -0.16745099335E+04  0.15830220869E+04  0.23045989013E+04  0.10100000352E+00 0.  1.
       -3    1    3    3    0  502 -0.35123218185E+02  0.16745099335E+04  0.52868393041E+03  0.17563381982E+04  0.10100000352E+00 0. -1.
</event>
<event>
 5   0  0.6134625E-07  0.3405218E+04  0.7818609E-02  0.8136627E-01
       -1   -1    0    0    0  501  0.00000000000E+00  0.00000000000E+00  0.15236889482E+04  0.15236889482E+04  0.50400001928E-02 0.  1.
        1   -1    0    0  501    0  0.00000000000E+00  0.00000000000E+00 -0.19025390384E+04  0.19025390384E+04  0.50400001928E-02 0. -1.
    10030    2    1    2    0    0  0.00000000000E+00  0.00000000000E+00 -0.37885009017E+03  0.34262279866E+04  0.34052181758E+04 0.  0.
        3    1    3    3  502    0  0.48831706515E+03 -0.22886703190E+03  0.14354829450E+04  0.15334421965E+04  0.10100000352E+00 0.  1.
       -3    1    3    3    0  502 -0.48831706515E+03  0.22886703190E+03 -0.18143330352E+04  0.18927857901E+04  0.10100000352E+00 0. -1.
</event>
<event>
 5   0  0.6134625E-07  0.3392101E+04  0.7818609E-02  0.8139848E-01
       -1   -1    0    0    0  501  0.00000000000E+00  0.00000000000E+00  0.19678691622E+04  0.19678691622E+04  0.50400001928E-02 0. -1.
        1   -1    0    0  501    0  0.00000000000E+00  0.00000000000E+00 -0.14617780932E+04  0.14617780932E+04  0.50400001928E-02 0.  1.
    10030    2    1    2    0    0  0.00000000000E+00  0.00000000000E+00  0.50609106895E+03  0.34296472554E+04  0.33921014322E+04 0.  0.
        3    1    3    3  502    0 -0.12164293679E+03  0.13092194092E+04  0.13362278033E+04  0.18746618943E+04  0.10100000352E+00 0. -1.
       -3    1    3    3    0  502  0.12164293679E+03 -0.13092194092E+04 -0.83013673432E+03  0.15549853611E+04  0.10100000352E+00 0.  1.
</event>
<event>
 5   0  0.1911477E-06  0.3446408E+04  0.7818609E-02  0.8126609E-01
       -2   -1    0    0    0  501  0.00000000000E+00  0.00000000000E+00  0.11054429371E+04  0.11054429371E+04  0.25500000920E-02 0. -1.
        2   -1    0    0  501    0  0.00000000000E+00  0.00000000000E+00 -0.26861914467E+04  0.26861914467E+04  0.25500000920E-02 0.  1.
    10030    2    1    2    0    0  0.00000000000E+00  0.00000000000E+00 -0.15807485096E+04  0.37916343838E+04  0.34464076152E+04 0.  0.
        5    1    3    3  502    0  0.38089861378E+02  0.66119247113E+03  0.95982406173E+03  0.11661520659E+04  0.46999998093E+01 0. -1.
       -5    1    3    3    0  502 -0.38089861378E+02 -0.66119247113E+03 -0.25405725713E+04  0.26254823179E+04  0.46999998093E+01 0.  1.
</event>
<event>
 5   0  0.1339844E-06  0.3522231E+04  0.7818609E-02  0.8108542E-01
        2   -1    0    0  501    0  0.00000000000E+00  0.00000000000E+00  0.22939589555E+04  0.22939589555E+04  0.25500000920E-02 0.  1.
       -2   -1    0    0    0  501  0.00000000000E+00  0.00000000000E+00 -0.13520414046E+04  0.13520414046E+04  0.25500000920E-02 0. -1.
    10030    2    1    2    0    0  0.00000000000E+00  0.00000000000E+00  0.94191755092E+03  0.36460003601E+04  0.35222308206E+04 0.  0.
        3    1    3    3  502    0 -0.17531805061E+04  0.12160818199E+03  0.35249502080E+03  0.17923959347E+04  0.10100000352E+00 0. -1.
       -3    1    3    3    0  502  0.17531805061E+04 -0.12160818199E+03  0.58942253012E+03  0.18536044255E+04  0.10100000352E+00 0.  1.
</event>
<event>
 5   0  0.6146388E-07  0.3404860E+04  0.7818609E-02  0.8136715E-01
        1   -1    0    0  501    0  0.00000000000E+00  0.00000000000E+00  0.18298087687E+04  0.18298087687E+04  0.50400001928E-02 0. -1.
       -1   -1    0    0    0  501  0.00000000000E+00  0.00000000000E+00 -0.15839182931E+04  0.15839182931E+04  0.50400001928E-02 0.  1.
    10030    2    1    2    0    0  0.00000000000E+00  0.00000000000E+00  0.24589047562E+03  0.34137270618E+04  0.34048598101E+04 0.  0.
        4    1    3    3  502    0  0.14584596892E+04  0.82563443498E+03  0.42287156545E+03  0.17284671992E+04  0.12699999809E+01 0. -1.
       -4    1    3    3    0  502 -0.14584596892E+04 -0.82563443498E+03 -0.17698108983E+03  0.16852598625E+04  0.12699999809E+01 0.  1.
</event>
<event>
 5   0  0.6134625E-07  0.3491574E+04  0.7818609E-02  0.8115790E-01
        1   -1    0    0  501    0  0.00000000000E+00  0.00000000000E+00  0.19039400463E+04  0.19039400463E+04  0.50400001928E-02 0.  1.
       -1   -1    0    0    0  501  0.00000000000E+00  0.00000000000E+00 -0.16007709939E+04  0.16007709939E+04  0.50400001928E-02 0. -1.
    10030    2    1    2    0    0  0.00000000000E+00  0.00000000000E+00  0.30316905239E+03  0.35047110402E+04  0.34915738573E+04 0.  0.
        3    1    3    3  502    0 -0.12555658978E+04 -0.64769797804E+03 -0.87785389605E+03  0.16633057048E+04  0.10100000352E+00 0. -1.
       -3    1    3    3    0  502  0.12555658978E+04  0.64769797804E+03  0.11810229484E+04  0.18414053355E+04  0.10100000352E+00 0.  1.
</event>
<event>
 5   0  0.1797075E-06  0.2627768E+04  0.7818609E-02  0.8358830E-01
        2   -1    0    0  501    0  0.00000000000E+00  0.00000000000E+00  0.11653640549E+04  0.11653640549E+04  0.25500000920E-02 0.  1.
       -2   -1    0    0    0  501  0.00000000000E+00  0.00000000000E+00 -0.14813317796E+04  0.14813317796E+04  0.25500000920E-02 0. -1.
    10030    2    1    2    0    0  0.00000000000E+00  0.00000000000E+00 -0.31596772471E+03  0.26466958344E+04  0.26277677289E+04 0.  0.
        2    1    3    3  502    0  0.50572729408E+03 -0.10018682726E+04 -0.84612599020E+03  0.14054996702E+04  0.25500000920E-02 0. -1.
       -2    1    3    3    0  502 -0.50572729408E+03  0.10018682726E+04  0.53015826548E+03  0.12411961642E+04  0.25500000920E-02 0.  1.
</event>
<event>
 5   0  0.1911477E-06  0.3569115E+04  0.7818609E-02  0.8097603E-01
        2   -1    0    0  501    0  0.00000000000E+00  0.00000000000E+00  0.29676060155E+04  0.29676060155E+04  0.25500000920E-02 0.  1.
       -2   -1    0    0    0  501  0.00000000000E+00  0.00000000000E+00 -0.10731364302E+04  0.10731364302E+04  0.25500000920E-02 0. -1.
    10030    2    1    2    0    0  0.00000000000E+00  0.00000000000E+00  0.18944695853E+04  0.40407424457E+04  0.35691153670E+04 0.  0.
        5    1    3    3  502    0 -0.14297832245E+04 -0.31841880977E+03 -0.20674611539E+03  0.14793365587E+04  0.46999998093E+01 0.  1.
       -5    1    3    3    0  502  0.14297832245E+04  0.31841880977E+03  0.21012157007E+04  0.25614058871E+04  0.46999998093E+01 0. -1.
</event>
<event>
 5   0  0.1911477E-06  0.3411807E+04  0.7818609E-02  0.8135014E-01
       -2   -1    0    0    0  501  0.00000000000E+00  0.00000000000E+00  0.15112547016E+04  0.15112547016E+04  0.25500000920E-02 0. -1.
        2   -1    0    0  501    0  0.00000000000E+00  0.00000000000E+00 -0.19256232817E+04  0.19256232817E+04  0.25500000920E-02 0.  1.
    10030    2    1    2    0    0  0.00000000000E+00  0.00000000000E+00 -0.41436858004E+03  0.34368779833E+04  0.34118072853E+04 0.  0.
        5    1    3    3  502    0 -0.37874527572E+03 -0.73069329723E+03  0.12980260319E+04  0.15369627022E+04  0.46999998093E+01 0. -1.
       -5    1    3    3    0  502  0.37874527572E+03  0.73069329723E+03 -0.17123946119E+04  0.18999152811E+04  0.46999998093E+01 0.  1.
</event>
<event>
 5   0  0.6146388E-07  0.3434823E+04  0.7818609E-02  0.8129412E-01
        1   -1    0    0  501    0  0.00000000000E+00  0.00000000000E+00  0.17749507241E+04  0.17749507241E+04  0.50400001928E-02 0.  1.
       -1   -1    0    0    0  501  0.00000000000E+00  0.00000000000E+00 -0.16617375619E+04  0.16617375619E+04  0.50400001928E-02 0. -1.
    10030    2    1    2    0    0  0.00000000000E+00  0.00000000000E+00  0.11321316223E+03  0.34366882860E+04  0.34348230165E+04 0.  0.
        4    1    3    3  502    0  0.12770396692E+03  0.27216643317E+03 -0.16352042587E+04  0.16626116357E+04  0.12699999809E+01 0. -1.
       -4    1    3    3    0  502 -0.12770396692E+03 -0.27216643317E+03  0.17484174209E+04  0.17740766503E+04  0.12699999809E+01 0.  1.
</event>
<event>
 5   0  0.1339844E-06  0.3211008E+04  0.7818609E-02  0.8185916E-01
        2   -1    0    0  501    0  0.00000000000E+00  0.00000000000E+00  0.17684659110E+04  0.17684659110E+04  0.25500000920E-02 0.  1.
       -2   -1    0    0    0  501  0.00000000000E+00  0.00000000000E+00 -0.14575591339E+04  0.14575591339E+04  0.25500000920E-02 0. -1.
    10030    2    1    2    0    0  0.00000000000E+00  0.00000000000E+00  0.31090677707E+03  0.32260250449E+04  0.32110083410E+04 0.  0.
        3    1    3    3  502    0  0.15996195027E+04 -0.13560295725E+03  0.17730171733E+03  0.16151181457E+04  0.10100000352E+00 0.  1.
       -3    1    3    3    0  502 -0.15996195027E+04  0.13560295725E+03  0.13360505975E+03  0.16109068991E+04  0.10100000352E+00 0. -1.
</event>
<event>
 5   0  0.1911477E-06  0.3361798E+04  0.7818609E-02  0.8147346E-01
        2   -1    0    0  501    0  0.00000000000E+00  0.00000000000E+00  0.16103963557E+04  0.16103963557E+04  0.25500000920E-02 0.  1.
       -2   -1    0    0    0  501  0.00000000000E+00  0.00000000000E+00 -0.17544881895E+04  0.17544881895E+04  0.25500000920E-02 0. -1.
    10030    2    1    2    0    0  0.00000000000E+00  0.00000000000E+00 -0.14409183389E+03  0.33648845452E+04  0.33617979633E+04 0.  0.
        5    1    3    3  502    0  0.91074222918E+03  0.13126621025E+04  0.45079954650E+03  0.16600528680E+04  0.46999998093E+01 0.  1.
       -5    1    3    3    0  502 -0.91074222918E+03 -0.13126621025E+04 -0.59489138039E+03  0.17048316773E+04  0.46999998093E+01 0. -1.
</event>
<event>
 5   0  0.6134625E-07  0.3440660E+04  0.7818609E-02  0.8127998E-01
       -1   -1    0    0    0  501  0.00000000000E+00  0.00000000000E+00  0.15895370667E+04  0.15895370667E+04  0.50400001928E-02 0.  1.
        1   -1    0    0  501    0  0.00000000000E+00  0.00000000000E+00 -0.18618852383E+04  0.18618852383E+04  0.50400001928E-02 0. -1.
    10030    2    1    2    0    0  0.00000000000E+00  0.00000000000E+00 -0.27234817155E+03  0.34514223050E+04  0.34406601694E+04 0.  0.
        1    1    3    3  502    0  0.15073537886E+03  0.17673039079E+03 -0.18460823100E+04  0.18606382455E+04  0.50400001928E-02 0. -1.
       -1    1    3    3    0  502 -0.15073537886E+03 -0.17673039079E+03  0.15737341384E+04  0.15907840595E+04  0.50400001928E-02 0.  1.
</event>
<event>
 5   0  0.1797075E-06  0.3338031E+04  0.7818609E-02  0.8153285E-01
       -2   -1    0    0    0  501  0.00000000000E+00  0.00000000000E+00  0.10502436317E+04  0.10502436317E+04  0.25500000920E-02 0.  1.
        2   -1    0    0  501    0  0.00000000000E+00  0.00000000000E+00 -0.26523498254E+04  0.26523498254E+04  0.25500000920E-02 0. -1.
    10030    2    1    2    0    0  0.00000000000E+00  0.00000000000E+00 -0.16021061937E+04  0.37025934571E+04  0.33380314636E+04 0.  0.
        2    1    3    3  502    0  0.29101525866E+03 -0.61489759788E+03  0.88948051346E+03  0.11198055726E+04  0.25500000920E-02 0.  1.
       -2    1    3    3    0  502 -0.29101525866E+03  0.61489759788E+03 -0.24915867072E+04  0.25827878844E+04  0.25500000920E-02 0. -1.
</event>
<event>
 5   0  0.1339844E-06  0.3390901E+04  0.7818609E-02  0.8140143E-01
        2   -1    0    0  501    0  0.00000000000E+00  0.00000000000E+00  0.21059280516E+04  0.21059280516E+04  0.25500000920E-02 0. -1.
       -2   -1    0    0    0  501  0.00000000000E+00  0.00000000000E+00 -0.13649810574E+04  0.13649810574E+04  0.25500000920E-02 0.  1.
    10030    2    1    2    0    0  0.00000000000E+00  0.00000000000E+00  0.74094699414E+03  0.34709091090E+04  0.33909007055E+04 0.  0.
        3    1    3    3  502    0  0.16073342910E+04  0.53490032092E+03  0.44219831505E+03  0.17507658999E+04  0.10100000352E+00 0. -1.
       -3    1    3    3    0  502 -0.16073342910E+04 -0.53490032092E+03  0.29874867909E+03  0.17201432091E+04  0.10100000352E+00 0.  1.
</event>
<event>
 5   0  0.6218695E-07  0.3632164E+04  0.7818609E-02  0.8083164E-01
        1   -1    0    0  501    0  0.00000000000E+00  0.00000000000E+00  0.24528179779E+04  0.24528179779E+04  0.50400001928E-02 0. -1.
       -1   -1    0    0    0  501  0.00000000000E+00  0.00000000000E+00 -0.13446384706E+04  0.13446384706E+04  0.50400001928E-02 0.  1.
    10030    2    1    2    0    0  0.00000000000E+00  0.00000000000E+00  0.11081795073E+04  0.37974564485E+04  0.36321637708E+04 0.  0.
        2    1    3    3  502    0  0.16304752873E+04  0.75169018633E+03  0.26840457821E+03  0.18153591425E+04  0.25500000920E-02 0.  1.
       -2    1    3    3    0  502 -0.16304752873E+04 -0.75169018633E+03  0.83977492913E+03  0.19820973060E+04  0.25500000920E-02 0. -1.
</event>
<event>
 5   0  0.1339844E-06  0.3404777E+04  0.7818609E-02  0.8136735E-01
       -2   -1    0    0    0  501  0.00000000000E+00  0.00000000000E+00  0.13425655847E+04  0.13425655847E+04  0.25500000920E-02 0.  1.
        2   -1    0    0  501    0  0.00000000000E+00  0.00000000000E+00 -0.21586483377E+04  0.21586483377E+04  0.25500000920E-02 0. -1.
    10030    2    1    2    0    0  0.00000000000E+00  0.00000000000E+00 -0.81608275298E+03  0.35012139225E+04  0.34047772131E+04 0.  0.
        3    1    3    3  502    0 -0.79663077689E+03  0.41009666497E+03 -0.18965654433E+04  0.20975605737E+04  0.10100000352E+00 0. -1.
       -3    1    3    3    0  502  0.79663077689E+03 -0.41009666497E+03  0.10804826903E+04  0.14036533488E+04  0.10100000352E+00 0.  1.
</event>
<event>
 5   0  0.6146388E-07  0.2761531E+04  0.7818609E-02  0.8315312E-01
       -1   -1    0    0    0  501  0.00000000000E+00  0.00000000000E+00  0.13707692855E+04  0.13707692855E+04  0.50400001928E-02 0. -1.
        1   -1    0    0  501    0  0.00000000000E+00  0.00000000000E+00 -0.13908342797E+04  0.13908342797E+04  0.50400001928E-02 0.  1.
    10030    2    1    2    0    0  0.00000000000E+00  0.00000000000E+00 -0.20064994190E+02  0.27616035652E+04  0.27615306711E+04 0.  0.
        4    1    3    3  502    0  0.40639353537E+03  0.62390608589E+03  0.11527951646E+04  0.13723530209E+04  0.12699999809E+01 0. -1.
       -4    1    3    3    0  502 -0.40639353537E+03 -0.62390608589E+03 -0.11728601588E+04  0.13892505442E+04  0.12699999809E+01 0.  1.
</event>
<event>
 5   0  0.6134625E-07  0.2972546E+04  0.7818609E-02  0.8251614E-01
       -1   -1    0    0    0  501  0.00000000000E+00  0.00000000000E+00  0.11242491972E+04  0.11242491972E+04  0.50400001928E-02 0.  1.
        1   -1    0    0  501    0  0.00000000000E+00  0.00000000000E+00 -0.19648733761E+04  0.19648733761E+04  0.50400001928E-02 0. -1.
    10030    2    1    2    0    0  0.00000000000E+00  0.00000000000E+00 -0.84062417885E+03  0.30891225733E+04  0.29725459227E+04 0.  0.
        5    1    3    3  502    0  0.14394964219E+03 -0.13609226728E+04 -0.10228372627E+04  0.17085228055E+04  0.46999998093E+01 0. -1.
       -5    1    3    3    0  502 -0.14394964219E+03  0.13609226728E+04  0.18221308383E+03  0.13805997678E+04  0.46999998093E+01 0.  1.
</event>
<event>
 5   0  0.6134625E-07  0.3415328E+04  0.7818609E-02  0.8134155E-01
       -1   -1    0    0    0  501  0.00000000000E+00  0.00000000000E+00  0.17916826979E+04  0.17916826979E+04  0.50400001928E-02 0. -1.
        1   -1    0    0  501    0  0.00000000000E+00  0.00000000000E+00 -0.16275853719E+04  0.16275853719E+04  0.50400001928E-02 0.  1.
    10030    2    1    2    0    0  0.00000000000E+00  0.00000000000E+00  0.16409732599E+03  0.34192680699E+04  0.34153281250E+04 0.  0.
        3    1    3    3  502    0  0.24337681994E+02  0.62317633739E+03  0.16735918027E+04  0.17860152862E+04  0.10100000352E+00 0. -1.
       -3    1    3    3    0  502 -0.24337681994E+02 -0.62317633739E+03 -0.15094944767E+04  0.16332527837E+04  0.10100000352E+00 0.  1.
</event>
<event>
 5   0  0.6134625E-07  0.2649723E+04  0.7818609E-02  0.8351505E-01
       -1   -1    0    0    0  501  0.00000000000E+00  0.00000000000E+00  0.83029581942E+03  0.83029581944E+03  0.50400001928E-02 0.  1.
        1   -1    0    0  501    0  0.00000000000E+00  0.00000000000E+00 -0.21140149832E+04  0.21140149832E+04  0.50400001928E-02 0. -1.
    10030    2    1    2    0    0  0.00000000000E+00  0.00000000000E+00 -0.12837191638E+04  0.29443108027E+04  0.26497228555E+04 0.  0.
        5    1    3    3  502    0  0.99499662638E+03 -0.46116018088E+03 -0.14678375947E+04  0.18322817178E+04  0.46999998093E+01 0. -1.
       -5    1    3    3    0  502 -0.99499662638E+03  0.46116018088E+03  0.18411843093E+03  0.11120290848E+04  0.46999998093E+01 0.  1.
</event>
<event>
 5   0  0.1339844E-06  0.3441438E+04  0.7818609E-02  0.8127810E-01
       -2   -1    0    0    0  501  0.00000000000E+00  0.00000000000E+00  0.11630076739E+04  0.11630076739E+04  0.25500000920E-02 0. -1.
        2   -1    0    0  501    0  0.00000000000E+00  0.00000000000E+00 -0.25458761901E+04  0.25458761901E+04  0.25500000920E-02 0.  1.
    10030    2    1    2    0    0  0.00000000000E+00  0.00000000000E+00 -0.13828685162E+04  0.37088838640E+04  0.34414378076E+04 0.  0.
        3    1    3    3  502    0 -0.16758319167E+03 -0.13232632320E+04  0.48013685623E+03  0.14176181144E+04  0.10100000352E+00 0. -1.
       -3    1    3    3    0  502  0.16758319167E+03  0.13232632320E+04 -0.18630053725E+04  0.22912657496E+04  0.10100000352E+00 0.  1.
</event>
<event>
 5   0  0.6134625E-07  0.3381135E+04  0.7818609E-02  0.8142552E-01
       -1   -1    0    0    0  501  0.00000000000E+00  0.00000000000E+00  0.19098443539E+04  0.19098443539E+04  0.50400001928E-02 0.  1.
        1   -1    0    0  501    0  0.00000000000E+00  0.00000000000E+00 -0.14964666864E+04  0.14964666864E+04  0.50400001928E-02 0. -1.
    10030    2    1    2    0    0  0.00000000000E+00  0.00000000000E+00  0.41337766750E+03  0.34063110404E+04  0.33811349881E+04 0.  0.
        3    1    3    3  502    0 -0.78603792841E+03  0.13379085987E+04 -0.46924919794E+03  0.16211261096E+04  0.10100000352E+00 0. -1.
       -3    1    3    3    0  502  0.78603792841E+03 -0.13379085987E+04  0.88262686544E+03  0.17851849308E+04  0.10100000352E+00 0.  1.
</event>
<event>
 5   0  0.6134625E-07  0.3322050E+04  0.7818609E-02  0.8157307E-01
        1   -1    0    0  501    0  0.00000000000E+00  0.00000000000E+00  0.12151315227E+04  0.12151315228E+04  0.50400001928E-02 0. -1.
       -1   -1    0    0    0  501  0.00000000000E+00  0.00000000000E+00 -0.22705398503E+04  0.22705398503E+04  0.50400001928E-02 0.  1.
    10030    2    1    2    0    0  0.00000000000E+00  0.00000000000E+00 -0.10554083275E+04  0.34856713730E+04  0.33220502981E+04 0.  0.
        3    1    3    3  502    0 -0.10955671261E+04  0.97355399404E+03 -0.13478213273E+04  0.19911547021E+04  0.10100000352E+00 0.  1.
       -3    1    3    3    0  502  0.10955671261E+04 -0.97355399404E+03  0.29241299971E+03  0.14945166710E+04  0.10100000352E+00 0. -1.
</event>
<event>
 5   0  0.1339844E-06  0.3416733E+04  0.7818609E-02  0.8133812E-01
       -2   -1    0    0    0  501  0.00000000000E+00  0.00000000000E+00  0.13828895380E+04  0.13828895380E+04  0.25500000920E-02 0. -1.
        2   -1    0    0  501    0  0.00000000000E+00  0.00000000000E+00 -0.21104477391E+04  0.21104477391E+04  0.25500000920E-02 0.  1.
    10030    2    1    2    0    0  0.00000000000E+00  0.00000000000E+00 -0.72755820114E+03  0.34933372771E+04  0.34167330003E+04 0.  0.
        3    1    3    3  502    0  0.45252584885E+02  0.21069711801E+02 -0.21097019539E+04  0.21102924142E+04  0.10100000352E+00 0.  1.
       -3    1    3    3    0  502 -0.45252584885E+02 -0.21069711801E+02  0.13821437527E+04  0.13830448628E+04  0.10100000352E+00 0. -1.
</event>
<event>
 5   0  0.1948507E-06  0.3454294E+04  0.7818609E-02  0.8124708E-01
       -2   -1    0    0    0  501  0.00000000000E+00  0.00000000000E+00  0.16346011942E+04  0.16346011942E+04  0.25500000920E-02 0. -1.
        2   -1    0    0  501    0  0.00000000000E+00  0.00000000000E+00 -0.18249325704E+04  0.18249325704E+04  0.25500000920E-02 0.  1.
    10030    2    1    2    0    0  0.00000000000E+00  0.00000000000E+00 -0.19033137622E+03  0.34595337646E+04  0.34542941154E+04 0.  0.
        1    1    3    3  502    0  0.95002999955E+03 -0.77618139719E+03 -0.13127492284E+04  0.17967540449E+04  0.50400001928E-02 0.  1.
       -1    1    3    3    0  502 -0.95002999955E+03  0.77618139719E+03  0.11224178521E+04  0.16627797197E+04  0.50400001928E-02 0. -1.
</event>
<event>
 5   0  0.1880301E-06  0.3160971E+04  0.7818609E-02  0.8199201E-01
       -2   -1    0    0    0  501  0.00000000000E+00  0.00000000000E+00  0.83759266642E+03  0.83759266642E+03  0.25500000920E-02 0. -1.
        2   -1    0    0  501    0  0.00000000000E+00  0.00000000000E+00 -0.29822787180E+04  0.29822787180E+04  0.25500000920E-02 0.  1.
    10030    2    1    2    0    0  0.00000000000E+00  0.00000000000E+00 -0.21446860515E+04  0.38198713844E+04  0.31609712326E+04 0.  0.
        4    1    3    3  502    0  0.41957856578E+03  0.15086134851E+04 -0.81323757458E+03  0.17644596300E+04  0.12699999809E+01 0. -1.
       -4    1    3    3    0  502 -0.41957856578E+03 -0.15086134851E+04 -0.13314484770E+04  0.20554117544E+04  0.12699999809E+01 0.  1.
</event>
<event>
 5   0  0.6218695E-07  0.3456360E+04  0.7818609E-02  0.8124211E-01
       -1   -1    0    0    0  501  0.00000000000E+00  0.00000000000E+00  0.16386921916E+04  0.16386921916E+04  0.50400001928E-02 0. -1.
        1   -1    0    0  501    0  0.00000000000E+00  0.00000000000E+00 -0.18225544472E+04  0.18225544472E+04  0.50400001928E-02 0.  1.
    10030    2    1    2    0    0  0.00000000000E+00  0.00000000000E+00 -0.18386225551E+03  0.34612466388E+04  0.34563597853E+04 0.  0.
        2    1    3    3  502    0 -0.13257511860E+04  0.64512438581E+03 -0.99476227988E+03  0.17785819278E+04  0.25500000920E-02 0.  1.
       -2    1    3    3    0  502  0.13257511860E+04 -0.64512438581E+03  0.81090002436E+03  0.16826647110E+04  0.25500000920E-02 0. -1.
</event>
<event>
 5   0  0.1911477E-06  0.3352878E+04  0.7818609E-02  0.8149569E-01
        2   -1    0    0  501    0  0.00000000000E+00  0.00000000000E+00  0.18241428241E+04  0.18241428241E+04  0.25500000920E-02 0. -1.
       -2   -1    0    0    0  501  0.00000000000E+00  0.00000000000E+00 -0.15406952244E+04  0.15406952244E+04  0.25500000920E-02 0.  1.
    10030    2    1    2    0    0  0.00000000000E+00  0.00000000000E+00  0.28344759970E+03  0.33648380485E+04  0.33528782488E+04 0.  0.
        5    1    3    3  502    0  0.43953554786E+03 -0.60373455243E+03 -0.13645427622E+04  0.15555339750E+04  0.46999998093E+01 0.  1.
       -5    1    3    3    0  502 -0.43953554786E+03  0.60373455243E+03  0.16479903619E+04  0.18093040735E+04  0.46999998093E+01 0. -1.
</event>
<event>
 5   0  0.6146388E-07  0.3425236E+04  0.7818609E-02  0.8131740E-01
       -1   -1    0    0    0  501  0.00000000000E+00  0.00000000000E+00  0.12154475685E+04  0.12154475685E+04  0.50400001928E-02 0.  1.
        1   -1    0    0  501    0  0.00000000000E+00  0.00000000000E+00 -0.24131520418E+04  0.24131520418E+04  0.50400001928E-02 0. -1.
    10030    2    1    2    0    0  0.00000000000E+00  0.00000000000E+00 -0.11977044733E+04  0.36285996103E+04  0.34252356308E+04 0.  0.
        4    1    3    3  502    0  0.11285949986E+04 -0.12863054419E+04 -0.67186295384E+03  0.18383987061E+04  0.12699999809E+01 0.  1.
       -4    1    3    3    0  502 -0.11285949986E+04  0.12863054419E+04 -0.52584151946E+03  0.17902009042E+04  0.12699999809E+01 0. -1.
</event>
<event>
 5   0  0.1948507E-06  0.3361550E+04  0.7818609E-02  0.8147408E-01
        2   -1    0    0  501    0  0.00000000000E+00  0.00000000000E+00  0.12593649477E+04  0.12593649477E+04  0.25500000920E-02 0. -1.
       -2   -1    0    0    0  501  0.00000000000E+00  0.00000000000E+00 -0.22431979609E+04  0.22431979609E+04  0.25500000920E-02 0.  1.
    10030    2    1    2    0    0  0.00000000000E+00  0.00000000000E+00 -0.98383301322E+03  0.35025629086E+04  0.33615501678E+04 0.  0.
        1    1    3    3  502    0 -0.32663297176E+03 -0.11452350450E+04 -0.17277364268E+04  0.20984102476E+04  0.50400001928E-02 0.  1.
       -1    1    3    3    0  502  0.32663297176E+03  0.11452350450E+04  0.74390341358E+03  0.14041526610E+04  0.50400001928E-02 0. -1.
</event>
<event>
 5   0  0.1911477E-06  0.3424306E+04  0.7818609E-02  0.8131966E-01
       -2   -1    0    0    0  501  0.00000000000E+00  0.00000000000E+00  0.33927441704E+04  0.33927441704E+04  0.25500000920E-02 0.  1.
        2   -1    0    0  501    0  0.00000000000E+00  0.00000000000E+00 -0.86404045934E+03  0.86404045934E+03  0.25500000920E-02 0. -1.
    10030    2    1    2    0    0  0.00000000000E+00  0.00000000000E+00  0.25287037110E+04  0.42567846297E+04  0.34243061962E+04 0.  0.
        5    1    3    3  502    0 -0.81033766416E+03 -0.13550554564E+04  0.20876462221E+04  0.26174627521E+04  0.46999998093E+01 0.  1.
       -5    1    3    3    0  502  0.81033766416E+03  0.13550554564E+04  0.44105748893E+03  0.16393218776E+04  0.46999998093E+01 0. -1.
</event>
<event>
 5   0  0.1797075E-06  0.3241393E+04  0.7818609E-02  0.8177970E-01
        2   -1    0    0  501    0  0.00000000000E+00  0.00000000000E+00  0.21933780229E+04  0.21933780229E+04  0.25500000920E-02 0. -1.
       -2   -1    0    0    0  501  0.00000000000E+00  0.00000000000E+00 -0.11975398168E+04  0.11975398168E+04  0.25500000920E-02 0.  1.
    10030    2    1    2    0    0  0.00000000000E+00  0.00000000000E+00  0.99583820613E+03  0.33909178397E+04  0.32413932287E+04 0.  0.
        2    1    3    3  502    0 -0.84674368972E+02 -0.16441310626E+03  0.21823036634E+04  0.21901257264E+04  0.25500000920E-02 0. -1.
       -2    1    3    3    0  502  0.84674368972E+02  0.16441310626E+03 -0.11864654572E+04  0.12007921133E+04  0.25500000920E-02 0.  1.
</event>
<event>
 5   0  0.6134625E-07  0.3413316E+04  0.7818609E-02  0.8134646E-01
        1   -1    0    0  501    0  0.00000000000E+00  0.00000000000E+00  0.19210519795E+04  0.19210519795E+04  0.50400001928E-02 0. -1.
       -1   -1    0    0    0  501  0.00000000000E+00  0.00000000000E+00 -0.15161908570E+04  0.15161908570E+04  0.50400001928E-02 0.  1.
    10030    2    1    2    0    0  0.00000000000E+00  0.00000000000E+00  0.40486112251E+03  0.34372428365E+04  0.34133159520E+04 0.  0.
        1    1    3    3  502    0 -0.55884308828E+02 -0.78204196423E+03  0.17289621127E+04  0.18984263685E+04  0.50400001928E-02 0. -1.
       -1    1    3    3    0  502  0.55884308828E+02  0.78204196423E+03 -0.13241009901E+04  0.15388164679E+04  0.50400001928E-02 0.  1.
</event>
<event>
 5   0  0.6218695E-07  0.3402600E+04  0.7818609E-02  0.8137268E-01
       -1   -1    0    0    0  501  0.00000000000E+00  0.00000000000E+00  0.15807177651E+04  0.15807177651E+04  0.50400001928E-02 0. -1.
        1   -1    0    0  501    0  0.00000000000E+00  0.00000000000E+00 -0.18310805921E+04  0.18310805921E+04  0.50400001928E-02 0.  1.
    10030    2    1    2    0    0  0.00000000000E+00  0.00000000000E+00 -0.25036282702E+03  0.34117983572E+04  0.34025999596E+04 0.  0.
        2    1    3    3  502    0  0.19551942094E+03  0.11063501243E+04  0.11558415420E+04  0.16118958129E+04  0.25500000920E-02 0. -1.
       -2    1    3    3    0  502 -0.19551942094E+03 -0.11063501243E+04 -0.14062043690E+04  0.17999025443E+04  0.25500000920E-02 0.  1.
</event>
<event>
 5   0  0.1797075E-06  0.3368543E+04  0.7818609E-02  0.8145670E-01
       -2   -1    0    0    0  501  0.00000000000E+00  0.00000000000E+00  0.10798606555E+04  0.10798606555E+04  0.25500000920E-02 0. -1.
        2   -1    0    0  501    0  0.00000000000E+00  0.00000000000E+00 -0.26269781652E+04  0.26269781652E+04  0.25500000920E-02 0.  1.
    10030    2    1    2    0    0  0.00000000000E+00  0.00000000000E+00 -0.15471175097E+04  0.37068388207E+04  0.33685429274E+04 0.  0.
        2    1    3    3  502    0 -0.52818276246E+02  0.25195201006E+03  0.10580839249E+04  0.10889495754E+04  0.25500000920E-02 0. -1.
       -2    1    3    3    0  502  0.52818276246E+02 -0.25195201006E+03 -0.26052014346E+04  0.26178892453E+04  0.25500000920E-02 0.  1.
</event>
<event>
 5   0  0.1911477E-06  0.3412837E+04  0.7818609E-02  0.8134763E-01
       -2   -1    0    0    0  501  0.00000000000E+00  0.00000000000E+00  0.21802842713E+04  0.21802842713E+04  0.25500000920E-02 0. -1.
        2   -1    0    0  501    0  0.00000000000E+00  0.00000000000E+00 -0.13355432824E+04  0.13355432824E+04  0.25500000920E-02 0.  1.
    10030    2    1    2    0    0  0.00000000000E+00  0.00000000000E+00  0.84474098889E+03  0.35158275537E+04  0.34128369503E+04 0.  0.
        5    1    3    3  502    0 -0.95005903782E+03  0.35170371333E+03 -0.99221512075E+03  0.14180340663E+04  0.46999998093E+01 0.  1.
       -5    1    3    3    0  502  0.95005903782E+03 -0.35170371333E+03  0.18369561096E+04  0.20977934875E+04  0.46999998093E+01 0. -1.
</event>
<event>
 5   0  0.6146388E-07  0.3455450E+04  0.7818609E-02  0.8124430E-01
        1   -1    0    0  501    0  0.00000000000E+00  0.00000000000E+00  0.20687125372E+04  0.20687125372E+04  0.50400001928E-02 0.  1.
       -1   -1    0    0    0  501  0.00000000000E+00  0.00000000000E+00 -0.14429427899E+04  0.14429427899E+04  0.50400001928E-02 0. -1.
    10030    2    1    2    0    0  0.00000000000E+00  0.00000000000E+00  0.62576974730E+03  0.35116553272E+04  0.34554500952E+04 0.  0.
        4    1    3    3  502    0 -0.96359673752E+03  0.13988563804E+04 -0.80272746752E+01  0.16986417797E+04  0.12699999809E+01 0.  1.
       -4    1    3    3    0  502  0.96359673752E+03 -0.13988563804E+04  0.63379702198E+03  0.18130135475E+04  0.12699999809E+01 0. -1.
</event>
<event>
 5   0  0.6218695E-07  0.3515785E+04  0.7818609E-02  0.8110059E-01
       -1   -1    0    0    0  501  0.00000000000E+00  0.00000000000E+00  0.13856343950E+04  0.13856343950E+04  0.50400001928E-02 0. -1.
        1   -1    0    0  501    0  0.00000000000E+00  0.00000000000E+00 -0.22301595505E+04  0.22301595505E+04  0.50400001928E-02 0.  1.
    10030    2    1    2    0    0  0.00000000000E+00  0.00000000000E+00 -0.84452515554E+03  0.36157939455E+04  0.35157848509E+04 0.  0.
        2    1    3    3  502    0  0.11551178955E+04 -0.12785203111E+04 -0.64111992104E+02  0.17242453091E+04  0.25500000920E-02 0. -1.
       -2    1    3    3    0  502 -0.11551178955E+04  0.12785203111E+04 -0.78041316344E+03  0.18915486364E+04  0.25500000920E-02 0.  1.
</event>
<event>
 5   0  0.6134625E-07  0.2433860E+04  0.7818609E-02  0.8426935E-01
       -1   -1    0    0    0  501  0.00000000000E+00  0.00000000000E+00  0.70344184941E+03  0.70344184943E+03  0.50400001928E-02 0. -1.
        1   -1    0    0  501    0  0.00000000000E+00  0.00000000000E+00 -0.21052468545E+04  0.21052468545E+04  0.50400001928E-02 0.  1.
    10030    2    1    2    0    0  0.00000000000E+00  0.00000000000E+00 -0.14018050051E+04  0.28086887039E+04  0.24338600952E+04 0.  0.
        5    1    3    3  502    0  0.66944487925E+03 -0.80484675401E+03  0.15103850766E+02  0.10469885196E+04  0.46999998093E+01 0. -1.
       -5    1    3    3    0  502 -0.66944487925E+03  0.80484675401E+03 -0.14169088558E+04  0.17617001844E+04  0.46999998093E+01 0.  1.
</event>
<event>
 5   0  0.1880301E-06  0.3295588E+04  0.7818609E-02  0.8164019E-01
       -2   -1    0    0    0  501  0.00000000000E+00  0.00000000000E+00  0.10169165909E+04  0.10169165909E+04  0.25500000920E-02 0.  1.
        2   -1    0    0  501    0  0.00000000000E+00  0.00000000000E+00 -0.26700560409E+04  0.26700560409E+04  0.25500000920E-02 0. -1.
    10030    2    1    2    0    0  0.00000000000E+00  0.00000000000E+00 -0.16531394500E+04  0.36869726318E+04  0.32955875268E+04 0.  0.
        4    1    3    3  502    0  0.92757923768E+03 -0.10545770121E+04  0.13756983607E+03  0.14111920456E+04  0.12699999809E+01 0.  1.
       -4    1    3    3    0  502 -0.92757923768E+03  0.10545770121E+04 -0.17907092860E+04  0.22757805862E+04  0.12699999809E+01 0. -1.
</event>
<event>
 5   0  0.6134625E-07  0.3317915E+04  0.7818609E-02  0.8158352E-01
       -1   -1    0    0    0  501  0.00000000000E+00  0.00000000000E+00  0.13291329558E+04  0.13291329559E+04  0.50400001928E-02 0.  1.
        1   -1    0    0  501    0  0.00000000000E+00  0.00000000000E+00 -0.20706286281E+04  0.20706286281E+04  0.50400001928E-02 0. -1.
    10030    2    1    2    0    0  0.00000000000E+00  0.00000000000E+00 -0.74149567221E+03  0.33997615839E+04  0.33179154594E+04 0.  0.
        5    1    3    3  502    0  0.74071028382E+03  0.14685518780E+04 -0.59247024673E+03  0.17482389500E+04  0.46999998093E+01 0.  1.
       -5    1    3    3    0  502 -0.74071028382E+03 -0.14685518780E+04 -0.14902542548E+03  0.16515226339E+04  0.46999998093E+01 0. -1.
</event>
<event>
 5   0  0.1880301E-06  0.3519678E+04  0.7818609E-02  0.8109142E-01
       -2   -1    0    0    0  501  0.00000000000E+00  0.00000000000E+00  0.15233385388E+04  0.15233385388E+04  0.25500000920E-02 0.  1.
        2   -1    0    0  501    0  0.00000000000E+00  0.00000000000E+00 -0.20330566004E+04  0.20330566004E+04  0.25500000920E-02 0. -1.
    10030    2    1    2    0    0  0.00000000000E+00  0.00000000000E+00 -0.50971806163E+03  0.35563951392E+04  0.35196780938E+04 0.  0.
        4    1    3    3  502    0  0.70539834144E+03  0.13199802463E+04 -0.11903123015E+04  0.19122708121E+04  0.12699999809E+01 0. -1.
       -4    1    3    3    0  502 -0.70539834144E+03 -0.13199802463E+04  0.68059423991E+03  0.16441243271E+04  0.12699999809E+01 0.  1.
</event>
<event>
 5   0  0.1880301E-06  0.3436447E+04  0.7818609E-02  0.8129019E-01
       -2   -1    0    0    0  501  0.00000000000E+00  0.00000000000E+00  0.15121923699E+04  0.15121923699E+04  0.25500000920E-02 0.  1.
        2   -1    0    0  501    0  0.00000000000E+00  0.00000000000E+00 -0.19523256210E+04  0.19523256210E+04  0.25500000920E-02 0. -1.
    10030    2    1    2    0    0  0.00000000000E+00  0.00000000000E+00 -0.44013325110E+03  0.34645179909E+04  0.34364469486E+04 0.  0.
        4    1    3    3  502    0  0.65235423927E+03 -0.26257344943E+03  0.13604702372E+04  0.15314671884E+04  0.12699999809E+01 0.  1.
       -4    1    3    3    0  502 -0.65235423927E+03  0.26257344943E+03 -0.18006034883E+04  0.19330508025E+04  0.12699999809E+01 0. -1.
</event>
<event>
 5   0  0.1339844E-06  0.3328835E+04  0.7818609E-02  0.8155597E-01
       -2   -1    0    0    0  501  0.00000000000E+00  0.00000000000E+00  0.20429278760E+04  0.20429278760E+04  0.25500000920E-02 0.  1.
        2   -1    0    0  501    0  0.00000000000E+00  0.00000000000E+00 -0.13560370984E+04  0.13560370984E+04  0.25500000920E-02 0. -1.
    10030    2    1    2    0    0  0.00000000000E+00  0.00000000000E+00  0.68689077765E+03  0.33989649744E+04  0.33288352253E+04 0.  0.
        3    1    3    3  502    0 -0.10239766927E+04  0.40147828573E+02  0.16826194494E+04  0.19701137879E+04  0.10100000352E+00 0.  1.
       -3    1    3    3    0  502  0.10239766927E+04 -0.40147828573E+02 -0.99572867177E+03  0.14288511866E+04  0.10100000352E+00 0. -1.
</event>
<event>
 5   0  0.6218695E-07  0.3385549E+04  0.7818609E-02  0.8141462E-01
       -1   -1    0    0    0  501  0.00000000000E+00  0.00000000000E+00  0.11567632607E+04  0.11567632607E+04  0.50400001928E-02 0.  1.
        1   -1    0    0  501    0  0.00000000000E+00  0.00000000000E+00 -0.24771581587E+04  0.24771581587E+04  0.50400001928E-02 0. -1.
    10030    2    1    2    0    0  0.00000000000E+00  0.00000000000E+00 -0.13203948980E+04  0.36339214194E+04  0.33855490242E+04 0.  0.
        2    1    3    3  502    0  0.23101989976E+03 -0.87353419532E+03 -0.21966638207E+04  0.23752398038E+04  0.25500000920E-02 0. -1.
       -2    1    3    3    0  502 -0.23101989976E+03  0.87353419532E+03  0.87626892268E+03  0.12586816156E+04  0.25500000920E-02 0.  1.
</event>
<event>
 5   0  0.6146388E-07  0.2687583E+04  0.7818609E-02  0.8339045E-01
       -1   -1    0    0    0  501  0.00000000000E+00  0.00000000000E+00  0.76697480218E+03  0.76697480220E+03  0.50400001928E-02 0.  1.
        1   -1    0    0  501    0  0.00000000000E+00  0.00000000000E+00 -0.23544135033E+04  0.23544135033E+04  0.50400001928E-02 0. -1.
    10030    2    1    2    0    0  0.00000000000E+00  0.00000000000E+00 -0.15874387011E+04  0.31213883055E+04  0.26875831753E+04 0.  0.
        4    1    3    3  502    0  0.11416187400E+04  0.13207978193E+03  0.15139577134E+02  0.11493342578E+04  0.12699999809E+01 0.  1.
       -4    1    3    3    0  502 -0.11416187400E+04 -0.13207978193E+03 -0.16025782783E+04  0.19720540478E+04  0.12699999809E+01 0. -1.
</event>
<event>
 5   0  0.6134625E-07  0.2427630E+04  0.7818609E-02  0.8429231E-01
       -1   -1    0    0    0  501  0.00000000000E+00  0.00000000000E+00  0.10868828661E+04  0.10868828661E+04  0.50400001928E-02 0.  1.
        1   -1    0    0  501    0  0.00000000000E+00  0.00000000000E+00 -0.13555708880E+04  0.13555708880E+04  0.50400001928E-02 0. -1.
    10030    2    1    2    0    0  0.00000000000E+00  0.00000000000E+00 -0.26868802195E+03  0.24424537541E+04  0.24276299322E+04 0.  0.
        5    1    3    3  502    0  0.56932887876E+02  0.11636886048E+04  0.20819367839E+03  0.11835451916E+04  0.46999998093E+01 0.  1.
       -5    1    3    3    0  502 -0.56932887876E+02 -0.11636886048E+04 -0.47688170034E+03  0.12589085626E+04  0.46999998093E+01 0. -1.
</event>
<event>
 5   0  0.1948507E-06  0.3267496E+04  0.7818609E-02  0.8171216E-01
       -2   -1    0    0    0  501  0.00000000000E+00  0.00000000000E+00  0.16378264946E+04  0.16378264946E+04  0.25500000920E-02 0. -1.
        2   -1    0    0  501    0  0.00000000000E+00  0.00000000000E+00 -0.16296792116E+04  0.16296792116E+04  0.25500000920E-02 0.  1.
    10030    2    1    2    0    0  0.00000000000E+00  0.00000000000E+00  0.81472829434E+01  0.32675057062E+04  0.32674955489E+04 0.  0.
        1    1    3    3  502    0  0.17021703718E+02 -0.16063761890E+04 -0.29324460756E+03  0.16330115121E+04  0.50400001928E-02 0. -1.
       -1    1    3    3    0  502 -0.17021703718E+02  0.16063761890E+04  0.30139189051E+03  0.16344941941E+04  0.50400001928E-02 0.  1.
</event>
<event>
 5   0  0.1911477E-06  0.3564786E+04  0.7818609E-02  0.8098606E-01
        2   -1    0    0  501    0  0.00000000000E+00  0.00000000000E+00  0.20084922805E+04  0.20084922805E+04  0.25500000920E-02 0.  1.
       -2   -1    0    0    0  501  0.00000000000E+00  0.00000000000E+00 -0.15817463053E+04  0.15817463053E+04  0.25500000920E-02 0. -1.
    10030    2    1    2    0    0  0.00000000000E+00  0.00000000000E+00  0.42674597520E+03  0.35902385858E+04  0.35647862454E+04 0.  0.
        5    1    3    3  502    0 -0.17966480458E+03  0.11361916015E+04 -0.11578517713E+04  0.16321316159E+04  0.46999998093E+01 0. -1.
       -5    1    3    3    0  502  0.17966480458E+03 -0.11361916015E+04  0.15845977465E+04  0.19581069699E+04  0.46999998093E+01 0.  1.
</event>
<event>
 5   0  0.1880301E-06  0.3373087E+04  0.7818609E-02  0.8144543E-01
       -2   -1    0    0    0  501  0.00000000000E+00  0.00000000000E+00  0.10437217468E+04  0.10437217468E+04  0.25500000920E-02 0.  1.
        2   -1    0    0  501    0  0.00000000000E+00  0.00000000000E+00 -0.27252755975E+04  0.27252755975E+04  0.25500000920E-02 0. -1.
    10030    2    1    2    0    0  0.00000000000E+00  0.00000000000E+00 -0.16815538507E+04  0.37689973443E+04  0.33730872549E+04 0.  0.
        4    1    3    3  502    0  0.12160892488E+04 -0.78412618101E+03  0.12734869661E+03  0.14525653969E+04  0.12699999809E+01 0. -1.
       -4    1    3    3    0  502 -0.12160892488E+04  0.78412618101E+03 -0.18089025473E+04  0.23164319475E+04  0.12699999809E+01 0.  1.
</event>
<event>
 5   0  0.6134625E-07  0.2809904E+04  0.7818609E-02  0.8300200E-01
        1   -1    0    0  501    0  0.00000000000E+00  0.00000000000E+00  0.21774621178E+04  0.21774621178E+04  0.50400001928E-02 0. -1.
       -1   -1    0    0    0  501  0.00000000000E+00  0.00000000000E+00 -0.90650979338E+03  0.90650979339E+03  0.50400001928E-02 0.  1.
    10030    2    1    2    0    0  0.00000000000E+00  0.00000000000E+00  0.12709523245E+04  0.30839719112E+04  0.28099044358E+04 0.  0.
        5    1    3    3  502    0 -0.12231328725E+04 -0.44687072303E+03  0.12142859864E+04  0.17805223991E+04  0.46999998093E+01 0. -1.
       -5    1    3    3    0  502  0.12231328725E+04  0.44687072303E+03  0.56666338038E+02  0.13034495121E+04  0.46999998093E+01 0.  1.
</event>
<event>
 5   0  0.6134625E-07  0.3316407E+04  0.7818609E-02  0.8158733E-01
        1   -1    0    0  501    0  0.00000000000E+00  0.00000000000E+00  0.18843704589E+04  0.18843704589E+04  0.50400001928E-02 0.  1.
       -1   -1    0    0    0  501  0.00000000000E+00  0.00000000000E+00 -0.14591812444E+04  0.14591812444E+04  0.50400001928E-02 0. -1.
    10030    2    1    2    0    0  0.00000000000E+00  0.00000000000E+00  0.42518921451E+03  0.33435517033E+04  0.33164065077E+04 0.  0.
        1    1    3    3  502    0  0.14924239099E+04 -0.67753564546E+03  0.46615738168E+03  0.17040206519E+04  0.50400001928E-02 0.  1.
       -1    1    3    3    0  502 -0.14924239099E+04  0.67753564546E+03 -0.40968167177E+02  0.16395310514E+04  0.50400001928E-02 0. -1.
</event>
<event>
 5   0  0.1911477E-06  0.3385078E+04  0.7818609E-02  0.8141578E-01
        2   -1    0    0  501    0  0.00000000000E+00  0.00000000000E+00  0.28002919518E+04  0.28002919518E+04  0.25500000920E-02 0.  1.
       -2   -1    0    0    0  501  0.00000000000E+00  0.00000000000E+00 -0.10229961816E+04  0.10229961816E+04  0.25500000920E-02 0. -1.
    10030    2    1    2    0    0  0.00000000000E+00  0.00000000000E+00  0.17772957702E+04  0.38232881334E+04  0.33850778273E+04 0.  0.
        5    1    3    3  502    0 -0.51119242124E+02 -0.21850430001E+03 -0.10061122028E+04  0.10308448771E+04  0.46999998093E+01 0. -1.
       -5    1    3    3    0  502  0.51119242124E+02  0.21850430001E+03  0.27834079729E+04  0.27924432563E+04  0.46999998093E+01 0.  1.
</event>
<event>
 5   0  0.6218695E-07  0.3189950E+04  0.7818609E-02  0.8191476E-01
        1   -1    0    0  501    0  0.00000000000E+00  0.00000000000E+00  0.26943599082E+04  0.26943599082E+04  0.50400001928E-02 0.  1.
       -1   -1    0    0    0  501  0.00000000000E+00  0.00000000000E+00 -0.94417431738E+03  0.94417431739E+03  0.50400001928E-02 0. -1.
    10030    2    1    2    0    0  0.00000000000E+00  0.00000000000E+00  0.17501855909E+04  0.36385342256E+04  0.31899501107E+04 0.  0.
        2    1    3    3  502    0 -0.16827251515E+03 -0.55997549744E+03 -0.81751709555E+03  0.10050982035E+04  0.25500000920E-02 0. -1.
       -2    1    3    3    0  502  0.16827251515E+03  0.55997549744E+03  0.25677026864E+04  0.26334360222E+04  0.25500000920E-02 0.  1.
</event>
<event>
 5   0  0.6134625E-07  0.2444406E+04  0.7818609E-02  0.8423063E-01
        1   -1    0    0  501    0  0.00000000000E+00  0.00000000000E+00  0.13727401537E+04  0.13727401537E+04  0.50400001928E-02 0. -1.
       -1   -1    0    0    0  501  0.00000000000E+00  0.00000000000E+00 -0.10881737890E+04  0.10881737890E+04  0.50400001928E-02 0.  1.
    10030    2    1    2    0    0  0.00000000000E+00  0.00000000000E+00  0.28456636470E+03  0.24609139428E+04  0.24444057392E+04 0.  0.
        3    1    3    3  502    0  0.12808834935E+03 -0.84987360813E+03  0.10171096948E+04  0.13316170307E+04  0.10100000352E+00 0. -1.
       -3    1    3    3    0  502 -0.12808834935E+03  0.84987360813E+03 -0.73254333005E+03  0.11292969121E+04  0.10100000352E+00 0.  1.
</event>
<event>
 5   0  0.1948507E-06  0.3387356E+04  0.7818609E-02  0.8141016E-01
        2   -1    0    0  501    0  0.00000000000E+00  0.00000000000E+00  0.27059480842E+04  0.27059480842E+04  0.25500000920E-02 0. -1.
       -2   -1    0    0    0  501  0.00000000000E+00  0.00000000000E+00 -0.10600889135E+04  0.10600889135E+04  0.25500000920E-02 0.  1.
    10030    2    1    2    0    0  0.00000000000E+00  0.00000000000E+00  0.16458591707E+04  0.37660369978E+04  0.33873562344E+04 0.  0.
        1    1    3    3  502    0  0.46265768009E+03  0.14373452129E+04 -0.29991430215E+02  0.15102691403E+04  0.50400001928E-02 0.  1.
       -1    1    3    3    0  502 -0.46265768009E+03 -0.14373452129E+04  0.16758506010E+04  0.22557678575E+04  0.50400001928E-02 0. -1.
</event>
<event>
 5   0  0.6218695E-07  0.3359073E+04  0.7818609E-02  0.8148025E-01
       -1   -1    0    0    0  501  0.00000000000E+00  0.00000000000E+00  0.21773865725E+04  0.21773865725E+04  0.50400001928E-02 0.  1.
        1   -1    0    0  501    0  0.00000000000E+00  0.00000000000E+00 -0.12955175845E+04  0.12955175845E+04  0.50400001928E-02 0. -1.
    10030    2    1    2    0    0  0.00000000000E+00  0.00000000000E+00  0.88186898800E+03  0.34729041571E+04  0.33590728441E+04 0.  0.
        2    1    3    3  502    0 -0.78472183990E+03  0.13757058989E+04 -0.13701475750E+03  0.15896943511E+04  0.25500000920E-02 0. -1.
       -2    1    3    3    0  502  0.78472183990E+03 -0.13757058989E+04  0.10188837455E+04  0.18832098059E+04  0.25500000920E-02 0.  1.
</event>
<event>
 5   0  0.6146388E-07  0.3396685E+04  0.7818609E-02  0.8138720E-01
        1   -1    0    0  501    0  0.00000000000E+00  0.00000000000E+00  0.26405974717E+04  0.26405974717E+04  0.50400001928E-02 0. -1.
       -1   -1    0    0    0  501  0.00000000000E+00  0.00000000000E+00 -0.10923160739E+04  0.10923160739E+04  0.50400001928E-02 0.  1.
    10030    2    1    2    0    0  0.00000000000E+00  0.00000000000E+00  0.15482813978E+04  0.37329135455E+04  0.33966848914E+04 0.  0.
        4    1    3    3  502    0 -0.11724107599E+04 -0.29455043915E+03 -0.53686339827E+03  0.13226983301E+04  0.12699999809E+01 0.  1.
       -4    1    3    3    0  502  0.11724107599E+04  0.29455043915E+03  0.20851447960E+04  0.24102152154E+04  0.12699999809E+01 0. -1.
</event>
<event>
 5   0  0.1880301E-06  0.3392360E+04  0.7818609E-02  0.8139784E-01
       -2   -1    0    0    0  501  0.00000000000E+00  0.00000000000E+00  0.13140642343E+04  0.13140642343E+04  0.25500000920E-02 0. -1.
        2   -1    0    0  501    0  0.00000000000E+00  0.00000000000E+00 -0.21894104054E+04  0.21894104054E+04  0.25500000920E-02 0.  1.
    10030    2    1    2    0    0  0.00000000000E+00  0.00000000000E+00 -0.87534617112E+03  0.35034746397E+04  0.33923595964E+04 0.  0.
        4    1    3    3  502    0 -0.86281618287E+03 -0.12254760665E+04 -0.12579044595E+04  0.19566728386E+04  0.12699999809E+01 0.  1.
       -4    1    3    3    0  502  0.86281618287E+03  0.12254760665E+04  0.38255828841E+03  0.15468018011E+04  0.12699999809E+01 0. -1.
</event>
<event>
 5   0  0.6134625E-07  0.3327850E+04  0.7818609E-02  0.8155845E-01
       -1   -1    0    0    0  501  0.00000000000E+00  0.00000000000E+00  0.14025194422E+04  0.14025194422E+04  0.50400001928E-02 0.  1.
        1   -1    0    0  501    0  0.00000000000E+00  0.00000000000E+00 -0.19740524643E+04  0.19740524643E+04  0.50400001928E-02 0. -1.
    10030    2    1    2    0    0  0.00000000000E+00  0.00000000000E+00 -0.57153302205E+03  0.33765719065E+04  0.33278503339E+04 0.  0.
        5    1    3    3  502    0  0.14992510932E+04 -0.71872620727E+03 -0.35232932706E+03  0.16995526606E+04  0.46999998093E+01 0. -1.
       -5    1    3    3    0  502 -0.14992510932E+04  0.71872620727E+03 -0.21920369499E+03  0.16770192460E+04  0.46999998093E+01 0.  1.
</event>
<event>
 5   0  0.6134625E-07  0.3383213E+04  0.7818609E-02  0.8142039E-01
        1   -1    0    0  501    0  0.00000000000E+00  0.00000000000E+00  0.17206817674E+04  0.17206817674E+04  0.50400001928E-02 0.  1.
       -1   -1    0    0    0  501  0.00000000000E+00  0.00000000000E+00 -0.16630227749E+04  0.16630227750E+04  0.50400001928E-02 0. -1.
    10030    2    1    2    0    0  0.00000000000E+00  0.00000000000E+00  0.57658992481E+02  0.33837045424E+04  0.33832132464E+04 0.  0.
        5    1    3    3  502    0 -0.17651861264E+03  0.60049745346E+03 -0.15429440919E+04  0.16650689394E+04  0.46999998093E+01 0. -1.
       -5    1    3    3    0  502  0.17651861264E+03 -0.60049745346E+03  0.16006030844E+04  0.17186356030E+04  0.46999998093E+01 0.  1.
</event>
<event>
 5   0  0.6134625E-07  0.3200782E+04  0.7818609E-02  0.8188611E-01
       -1   -1    0    0    0  501  0.00000000000E+00  0.00000000000E+00  0.19914096717E+04  0.19914096717E+04  0.50400001928E-02 0.  1.
        1   -1    0    0  501    0  0.00000000000E+00  0.00000000000E+00 -0.12861500376E+04  0.12861500376E+04  0.50400001928E-02 0. -1.
    10030    2    1    2    0    0  0.00000000000E+00  0.00000000000E+00  0.70525963410E+03  0.32775597092E+04  0.32007821694E+04 0.  0.
        5    1    3    3  502    0  0.76356339798E+03 -0.13582546339E+04  0.72655315281E+03  0.17192400318E+04  0.46999998093E+01 0.  1.
       -5    1    3    3    0  502 -0.76356339798E+03  0.13582546339E+04 -0.21293518711E+02  0.15583196774E+04  0.46999998093E+01 0. -1.
</event>
<event>
 5   0  0.6218695E-07  0.3476718E+04  0.7818609E-02  0.8119330E-01
        1   -1    0    0  501    0  0.00000000000E+00  0.00000000000E+00  0.99736206418E+03  0.99736206419E+03  0.50400001928E-02 0. -1.
       -1   -1    0    0    0  501  0.00000000000E+00  0.00000000000E+00 -0.30298848444E+04  0.30298848444E+04  0.50400001928E-02 0.  1.
    10030    2    1    2    0    0  0.00000000000E+00  0.00000000000E+00 -0.20325227803E+04  0.40272469086E+04  0.34767181092E+04 0.  0.
        2    1    3    3  502    0 -0.13180469189E+03 -0.47313637142E+03  0.91531929781E+03  0.10387684630E+04  0.25500000920E-02 0. -1.
       -2    1    3    3    0  502  0.13180469189E+03  0.47313637142E+03 -0.29478420781E+04  0.29884784456E+04  0.25500000920E-02 0.  1.
</event>
<event>
 5   0  0.1948507E-06  0.3416713E+04  0.7818609E-02  0.8133817E-01
        2   -1    0    0  501    0  0.00000000000E+00  0.00000000000E+00  0.25097620188E+04  0.25097620188E+04  0.25500000920E-02 0.  1.
       -2   -1    0    0    0  501  0.00000000000E+00  0.00000000000E+00 -0.11628519498E+04  0.11628519498E+04  0.25500000920E-02 0. -1.
    10030    2    1    2    0    0  0.00000000000E+00  0.00000000000E+00  0.13469100690E+04  0.36726139686E+04  0.34167128396E+04 0.  0.
        1    1    3    3  502    0  0.12644072607E+04  0.85031994386E+03  0.15037820381E+04  0.21408246415E+04  0.50400001928E-02 0.  1.
       -1    1    3    3    0  502 -0.12644072607E+04 -0.85031994386E+03 -0.15687196905E+03  0.15317893271E+04  0.50400001928E-02 0. -1.
</event>
<event>
 5   0  0.6218695E-07  0.2977088E+04  0.7818609E-02  0.8250304E-01
       -1   -1    0    0    0  501  0.00000000000E+00  0.00000000000E+00  0.13224486550E+04  0.13224486550E+04  0.50400001928E-02 0. -1.
        1   -1    0    0  501    0  0.00000000000E+00  0.00000000000E+00 -0.16755007004E+04  0.16755007004E+04  0.50400001928E-02 0.  1.
    10030    2    1    2    0    0  0.00000000000E+00  0.00000000000E+00 -0.35305204539E+03  0.29979493554E+04  0.29770882739E+04 0.  0.
        2    1    3    3  502    0  0.10890148099E+04 -0.94786194662E+03 -0.54151317297E+03  0.15419572116E+04  0.25500000920E-02 0.  1.
       -2    1    3    3    0  502 -0.10890148099E+04  0.94786194662E+03  0.18846112758E+03  0.14559921437E+04  0.25500000920E-02 0. -1.
</event>
<event>
 5   0  0.1948507E-06  0.3380872E+04  0.7818609E-02  0.8142617E-01
        2   -1    0    0  501    0  0.00000000000E+00  0.00000000000E+00  0.19577856875E+04  0.19577856875E+04  0.25500000920E-02 0. -1.
       -2   -1    0    0    0  501  0.00000000000E+00  0.00000000000E+00 -0.14595947241E+04  0.14595947241E+04  0.25500000920E-02 0.  1.
    10030    2    1    2    0    0  0.00000000000E+00  0.00000000000E+00  0.49819096334E+03  0.34173804116E+04  0.33808718760E+04 0.  0.
        1    1    3    3  502    0  0.82383734465E+03  0.10612485635E+04 -0.78795486075E+03  0.15575074146E+04  0.50400001928E-02 0.  1.
       -1    1    3    3    0  502 -0.82383734465E+03 -0.10612485635E+04  0.12861458241E+04  0.18598729970E+04  0.50400001928E-02 0. -1.
</event>
<event>
 5   0  0.1339844E-06  0.3385452E+04  0.7818609E-02  0.8141486E-01
       -2   -1    0    0    0  501  0.00000000000E+00  0.00000000000E+00  0.11271288812E+04  0.11271288812E+04  0.25500000920E-02 0.  1.
        2   -1    0    0  501    0  0.00000000000E+00  0.00000000000E+00 -0.25421411637E+04  0.25421411637E+04  0.25500000920E-02 0. -1.
    10030    2    1    2    0    0  0.00000000000E+00  0.00000000000E+00 -0.14150122825E+04  0.36692700449E+04  0.33854516542E+04 0.  0.
        3    1    3    3  502    0  0.32181675852E+03  0.12016954117E+04  0.53663170709E+03  0.13548474039E+04  0.10100000352E+00 0.  1.
       -3    1    3    3    0  502 -0.32181675852E+03 -0.12016954117E+04 -0.19516439896E+04  0.23144226410E+04  0.10100000352E+00 0. -1.
</event>
<event>
 5   0  0.1339844E-06  0.3366517E+04  0.7818609E-02  0.8146173E-01
       -2   -1    0    0    0  501  0.00000000000E+00  0.00000000000E+00  0.88192601658E+03  0.88192601658E+03  0.25500000920E-02 0. -1.
        2   -1    0    0  501    0  0.00000000000E+00  0.00000000000E+00 -0.32126942949E+04  0.32126942949E+04  0.25500000920E-02 0.  1.
    10030    2    1    2    0    0  0.00000000000E+00  0.00000000000E+00 -0.23307682784E+04  0.40946203115E+04  0.33665167055E+04 0.  0.
        3    1    3    3  502    0 -0.89176050210E+03  0.14276273284E+04 -0.11636257623E+04  0.20463092402E+04  0.10100000352E+00 0.  1.
       -3    1    3    3    0  502  0.89176050210E+03 -0.14276273284E+04 -0.11671425161E+04  0.20483110713E+04  0.10100000352E+00 0. -1.
</event>
<event>
 5   0  0.6146388E-07  0.3456764E+04  0.7818609E-02  0.8124113E-01
       -1   -1    0    0    0  501  0.00000000000E+00  0.00000000000E+00  0.11913876142E+04  0.11913876142E+04  0.50400001928E-02 0. -1.
        1   -1    0    0  501    0  0.00000000000E+00  0.00000000000E+00 -0.25074160999E+04  0.25074160999E+04  0.50400001928E-02 0.  1.
    10030    2    1    2    0    0  0.00000000000E+00  0.00000000000E+00 -0.13160284857E+04  0.36988037141E+04  0.34567640851E+04 0.  0.
        4    1    3    3  502    0  0.32111561876E+03 -0.12001264067E+04  0.62773930652E+03  0.13919327867E+04  0.12699999809E+01 0. -1.
       -4    1    3    3    0  502 -0.32111561876E+03  0.12001264067E+04 -0.19437677923E+04  0.23068709274E+04  0.12699999809E+01 0.  1.
</event>
<event>
 5   0  0.6134625E-07  0.3375515E+04  0.7818609E-02  0.8143942E-01
        1   -1    0    0  501    0  0.00000000000E+00  0.00000000000E+00  0.26470285152E+04  0.26470285152E+04  0.50400001928E-02 0. -1.
       -1   -1    0    0    0  501  0.00000000000E+00  0.00000000000E+00 -0.10761217473E+04  0.10761217474E+04  0.50400001928E-02 0.  1.
    10030    2    1    2    0    0  0.00000000000E+00  0.00000000000E+00  0.15709067679E+04  0.37231502626E+04  0.33755147466E+04 0.  0.
        3    1    3    3  502    0 -0.12979754082E+04  0.56781420210E+03  0.17971831645E+04  0.22884537280E+04  0.10100000352E+00 0. -1.
       -3    1    3    3    0  502  0.12979754082E+04 -0.56781420210E+03 -0.22627639658E+03  0.14346965346E+04  0.10100000352E+00 0.  1.
</event>
<event>
 5   0  0.1339844E-06  0.3390113E+04  0.7818609E-02  0.8140337E-01
        2   -1    0    0  501    0  0.00000000000E+00  0.00000000000E+00  0.15317696180E+04  0.15317696180E+04  0.25500000920E-02 0.  1.
       -2   -1    0    0    0  501  0.00000000000E+00  0.00000000000E+00 -0.18757493790E+04  0.18757493790E+04  0.25500000920E-02 0. -1.
    10030    2    1    2    0    0  0.00000000000E+00  0.00000000000E+00 -0.34397976101E+03  0.34075189969E+04  0.33901126292E+04 0.  0.
        3    1    3    3  502    0  0.51049253720E+03 -0.90110677644E+03 -0.15207514253E+04  0.18399133025E+04  0.10100000352E+00 0. -1.
       -3    1    3    3    0  502 -0.51049253720E+03  0.90110677644E+03  0.11767716643E+04  0.15676056944E+04  0.10100000352E+00 0.  1.
</event>
<event>
 5   0  0.6134625E-07  0.3389993E+04  0.7818609E-02  0.8140367E-01
        1   -1    0    0  501    0  0.00000000000E+00  0.00000000000E+00  0.27004842396E+04  0.27004842396E+04  0.50400001928E-02 0. -1.
       -1   -1    0    0    0  501  0.00000000000E+00  0.00000000000E+00 -0.10638881178E+04  0.10638881178E+04  0.50400001928E-02 0.  1.
    10030    2    1    2    0    0  0.00000000000E+00  0.00000000000E+00  0.16365961219E+04  0.37643723574E+04  0.33899929763E+04 0.  0.
        3    1    3    3  502    0  0.16937766127E+04  0.47435644056E+02  0.77010293149E+03  0.18612328950E+04  0.10100000352E+00 0. -1.
       -3    1    3    3    0  502 -0.16937766127E+04 -0.47435644056E+02  0.86649319037E+03  0.19031394624E+04  0.10100000352E+00 0.  1.
</event>
<event>
 5   0  0.1797075E-06  0.3364197E+04  0.7818609E-02  0.8146750E-01
       -2   -1    0    0    0  501  0.00000000000E+00  0.00000000000E+00  0.14178563468E+04  0.14178563468E+04  0.25500000920E-02 0. -1.
        2   -1    0    0  501    0  0.00000000000E+00  0.00000000000E+00 -0.19955862312E+04  0.19955862312E+04  0.25500000920E-02 0.  1.
    10030    2    1    2    0    0  0.00000000000E+00  0.00000000000E+00 -0.57772988433E+03  0.34134425780E+04  0.33641965481E+04 0.  0.
        2    1    3    3  502    0  0.12738513910E+04  0.21868756326E+03  0.80343120740E+03  0.15218486527E+04  0.25500000920E-02 0. -1.
       -2    1    3    3    0  502 -0.12738513910E+04 -0.21868756326E+03 -0.13811610917E+04  0.18915939253E+04  0.25500000920E-02 0.  1.
</event>
<event>
 5   0  0.6134625E-07  0.3418391E+04  0.7818609E-02  0.8133407E-01
       -1   -1    0    0    0  501  0.00000000000E+00  0.00000000000E+00  0.16640752519E+04  0.16640752519E+04  0.50400001928E-02 0.  1.
        1   -1    0    0  501    0  0.00000000000E+00  0.00000000000E+00 -0.17555394043E+04  0.17555394043E+04  0.50400001928E-02 0. -1.
    10030    2    1    2    0    0  0.00000000000E+00  0.00000000000E+00 -0.91464152391E+02  0.34196146563E+04  0.34183912453E+04 0.  0.
        1    1    3    3  502    0 -0.12716264031E+04 -0.28274152330E+03 -0.11526420722E+04  0.17394137589E+04  0.50400001928E-02 0. -1.
       -1    1    3    3    0  502  0.12716264031E+04  0.28274152330E+03  0.10611779198E+04  0.16802008974E+04  0.50400001928E-02 0.  1.
</event>
<event>
 5   0  0.6134625E-07  0.3423346E+04  0.7818609E-02  0.8132200E-01
       -1   -1    0    0    0  501  0.00000000000E+00  0.00000000000E+00  0.20987648113E+04  0.20987648113E+04  0.50400001928E-02 0.  1.
        1   -1    0    0  501    0  0.00000000000E+00  0.00000000000E+00 -0.13959755909E+04  0.13959755909E+04  0.50400001928E-02 0. -1.
    10030    2    1    2    0    0  0.00000000000E+00  0.00000000000E+00  0.70278922044E+03  0.34947404022E+04  0.34233459934E+04 0.  0.
        1    1    3    3  502    0 -0.10900427621E+04  0.10234474897E+04 -0.49915998488E+03  0.15763244203E+04  0.50400001928E-02 0. -1.
       -1    1    3    3    0  502  0.10900427621E+04 -0.10234474897E+04  0.12019492053E+04  0.19184159819E+04  0.50400001928E-02 0.  1.
</event>
<event>
 5   0  0.6218695E-07  0.3423316E+04  0.7818609E-02  0.8132207E-01
       -1   -1    0    0    0  501  0.00000000000E+00  0.00000000000E+00  0.23279207489E+04  0.23279207489E+04  0.50400001928E-02 0.  1.
        1   -1    0    0  501    0  0.00000000000E+00  0.00000000000E+00 -0.12585367641E+04  0.12585367641E+04  0.50400001928E-02 0. -1.
    10030    2    1    2    0    0  0.00000000000E+00  0.00000000000E+00  0.10693839848E+04  0.35864575130E+04  0.34233164308E+04 0.  0.
        2    1    3    3  502    0 -0.23059171873E+03 -0.81128690125E+03 -0.10257226953E+04  0.13279555808E+04  0.25500000920E-02 0. -1.
       -2    1    3    3    0  502  0.23059171873E+03  0.81128690125E+03  0.20951066801E+04  0.22585019322E+04  0.25500000920E-02 0.  1.
</event>
<event>
 5   0  0.1797075E-06  0.3403243E+04  0.7818609E-02  0.8137111E-01
       -2   -1    0    0    0  501  0.00000000000E+00  0.00000000000E+00  0.13080506606E+04  0.13080506606E+04  0.25500000920E-02 0.  1.
        2   -1    0    0  501    0  0.00000000000E+00  0.00000000000E+00 -0.22136118395E+04  0.22136118395E+04  0.25500000920E-02 0. -1.
    10030    2    1    2    0    0  0.00000000000E+00  0.00000000000E+00 -0.90556117890E+03  0.35216625002E+04  0.34032434113E+04 0.  0.
        2    1    3    3  502    0  0.11954557951E+04  0.12101037862E+04 -0.40592023826E+03  0.17487815676E+04  0.25500000920E-02 0. -1.
       -2    1    3    3    0  502 -0.11954557951E+04 -0.12101037862E+04 -0.49964094064E+03  0.17728809325E+04  0.25500000920E-02 0.  1.
</event>
<event>
 5   0  0.6134625E-07  0.3427817E+04  0.7818609E-02  0.8131113E-01
       -1   -1    0    0    0  501  0.00000000000E+00  0.00000000000E+00  0.15545044151E+04  0.15545044151E+04  0.50400001928E-02 0.  1.
        1   -1    0    0  501    0  0.00000000000E+00  0.00000000000E+00 -0.18896586755E+04  0.18896586755E+04  0.50400001928E-02 0. -1.
    10030    2    1    2    0    0  0.00000000000E+00  0.00000000000E+00 -0.33515426040E+03  0.34441630906E+04  0.34278172379E+04 0.  0.
        3    1    3    3  502    0  0.46542232903E+03  0.97850457607E+03  0.11666835237E+04  0.15922435757E+04  0.10100000352E+00 0.  1.
       -3    1    3    3    0  502 -0.46542232903E+03 -0.97850457607E+03 -0.15018377841E+04  0.18519195149E+04  0.10100000352E+00 0. -1.
</event>
<event>
 5   0  0.6134625E-07  0.3332675E+04  0.7818609E-02  0.8154631E-01
        1   -1    0    0  501    0  0.00000000000E+00  0.00000000000E+00  0.17943491979E+04  0.17943491979E+04  0.50400001928E-02 0. -1.
       -1   -1    0    0    0  501  0.00000000000E+00  0.00000000000E+00 -0.15474583901E+04  0.15474583901E+04  0.50400001928E-02 0.  1.
    10030    2    1    2    0    0  0.00000000000E+00  0.00000000000E+00  0.24689080784E+03  0.33418075880E+04  0.33326750343E+04 0.  0.
        5    1    3    3  502    0  0.82425496233E+02  0.61797407848E+03 -0.14260958821E+04  0.15564245818E+04  0.46999998093E+01 0.  1.
       -5    1    3    3    0  502 -0.82425496233E+02 -0.61797407848E+03  0.16729866899E+04  0.17853830062E+04  0.46999998093E+01 0. -1.
</event>
<event>
 5   0  0.6218695E-07  0.2849409E+04  0.7818609E-02  0.8288091E-01
       -1   -1    0    0    0  501  0.00000000000E+00  0.00000000000E+00  0.14660348187E+04  0.14660348187E+04  0.50400001928E-02 0. -1.
        1   -1    0    0  501    0  0.00000000000E+00  0.00000000000E+00 -0.13845391777E+04  0.13845391777E+04  0.50400001928E-02 0.  1.
    10030    2    1    2    0    0  0.00000000000E+00  0.00000000000E+00  0.81495641027E+02  0.28505739964E+04  0.28494088105E+04 0.  0.
        2    1    3    3  502    0  0.96005986109E+03 -0.72655851858E+03  0.80275505055E+03  0.14470721782E+04  0.25500000920E-02 0. -1.
       -2    1    3    3    0  502 -0.96005986109E+03  0.72655851858E+03 -0.72125940952E+03  0.14035018182E+04  0.25500000920E-02 0.  1.
</event>
<event>
 5   0  0.1797075E-06  0.3372445E+04  0.7818609E-02  0.8144703E-01
       -2   -1    0    0    0  501  0.00000000000E+00  0.00000000000E+00  0.12268691385E+04  0.12268691385E+04  0.25500000920E-02 0. -1.
        2   -1    0    0  501    0  0.00000000000E+00  0.00000000000E+00 -0.23175625802E+04  0.23175625802E+04  0.25500000920E-02 0.  1.
    10030    2    1    2    0    0  0.00000000000E+00  0.00000000000E+00 -0.10906934417E+04  0.35444317186E+04  0.33724448141E+04 0.  0.
        2    1    3    3  502    0 -0.96148278230E+03  0.63018160961E+03 -0.18418570675E+04  0.21711783573E+04  0.25500000920E-02 0.  1.
       -2    1    3    3    0  502  0.96148278230E+03 -0.63018160961E+03  0.75116362583E+03  0.13732533614E+04  0.25500000920E-02 0. -1.
</event>
<event>
 5   0  0.6134625E-07  0.3439667E+04  0.7818609E-02  0.8128239E-01
        1   -1    0    0  501    0  0.00000000000E+00  0.00000000000E+00  0.21250718582E+04  0.21250718582E+04  0.50400001928E-02 0.  1.
       -1   -1    0    0    0  501  0.00000000000E+00  0.00000000000E+00 -0.13918718396E+04  0.13918718396E+04  0.50400001928E-02 0. -1.
    10030    2    1    2    0    0  0.00000000000E+00  0.00000000000E+00  0.73320001863E+03  0.35169436978E+04  0.34396672377E+04 0.  0.
        5    1    3    3  502    0  0.88266777060E+03 -0.13216991666E+04  0.10384891160E+04  0.18985449203E+04  0.46999998093E+01 0.  1.
       -5    1    3    3    0  502 -0.88266777060E+03  0.13216991666E+04 -0.30528909734E+03  0.16183987776E+04  0.46999998093E+01 0. -1.
</event>
<event>
 5   0  0.1880301E-06  0.3727117E+04  0.7818609E-02  0.8061979E-01
       -2   -1    0    0    0  501  0.00000000000E+00  0.00000000000E+00  0.15909881036E+04  0.15909881036E+04  0.25500000920E-02 0. -1.
        2   -1    0    0  501    0  0.00000000000E+00  0.00000000000E+00 -0.21828257711E+04  0.21828257711E+04  0.25500000920E-02 0.  1.
    10030    2    1    2    0    0  0.00000000000E+00  0.00000000000E+00 -0.59183766742E+03  0.37738138747E+04  0.37271167591E+04 0.  0.
        4    1    3    3  502    0 -0.77798430395E+03  0.14730087340E+04  0.54991200352E+03  0.17542574304E+04  0.12699999809E+01 0. -1.
       -4    1    3    3    0  502  0.77798430395E+03 -0.14730087340E+04 -0.11417496709E+04  0.20195564443E+04  0.12699999809E+01 0.  1.
</event>
<event>
 5   0  0.1880301E-06  0.3421938E+04  0.7818609E-02  0.8132543E-01
       -2   -1    0    0    0  501  0.00000000000E+00  0.00000000000E+00  0.11723180167E+04  0.11723180167E+04  0.25500000920E-02 0.  1.
        2   -1    0    0  501    0  0.00000000000E+00  0.00000000000E+00 -0.24971168815E+04  0.24971168815E+04  0.25500000920E-02 0. -1.
    10030    2    1    2    0    0  0.00000000000E+00  0.00000000000E+00 -0.13247988649E+04  0.36694348982E+04  0.34219381116E+04 0.  0.
        4    1    3    3  502    0 -0.11216014690E+03  0.10353810310E+04 -0.21180879679E+04  0.23602737195E+04  0.12699999809E+01 0. -1.
       -4    1    3    3    0  502  0.11216014690E+03 -0.10353810310E+04  0.79328910307E+03  0.13091611787E+04  0.12699999809E+01 0.  1.
</event>
<event>
 5   0  0.6146388E-07  0.3398621E+04  0.7818609E-02  0.8138245E-01
        1   -1    0    0  501    0  0.00000000000E+00  0.00000000000E+00  0.14219592798E+04  0.14219592799E+04  0.50400001928E-02 0.  1.
       -1   -1    0    0    0  501  0.00000000000E+00  0.00000000000E+00 -0.20307585123E+04  0.20307585123E+04  0.50400001928E-02 0. -1.
    10030    2    1    2    0    0  0.00000000000E+00  0.00000000000E+00 -0.60879923247E+03  0.34527177922E+04  0.33986208448E+04 0.  0.
        4    1    3    3  502    0 -0.23706165503E+03 -0.11271179336E+03 -0.20100374040E+04  0.20271048703E+04  0.12699999809E+01 0. -1.
       -4    1    3    3    0  502  0.23706165503E+03  0.11271179336E+03  0.14012381716E+04  0.14256129219E+04  0.12699999809E+01 0.  1.
</event>
<event>
 5   0  0.1797075E-06  0.3195786E+04  0.7818609E-02  0.8189931E-01
       -2   -1    0    0    0  501  0.00000000000E+00  0.00000000000E+00  0.13037405219E+04  0.13037405219E+04  0.25500000920E-02 0. -1.
        2   -1    0    0  501    0  0.00000000000E+00  0.00000000000E+00 -0.19584126791E+04  0.19584126791E+04  0.25500000920E-02 0.  1.
    10030    2    1    2    0    0  0.00000000000E+00  0.00000000000E+00 -0.65467215719E+03  0.32621532011E+04  0.31957859556E+04 0.  0.
        2    1    3    3  502    0 -0.44683315837E+03  0.39338541919E+02 -0.18928263265E+04  0.19452503424E+04  0.25500000920E-02 0.  1.
       -2    1    3    3    0  502  0.44683315837E+03 -0.39338541919E+02  0.12381541693E+04  0.13169028587E+04  0.25500000920E-02 0. -1.
</event>
<event>
 5   0  0.6134625E-07  0.3333141E+04  0.7818609E-02  0.8154513E-01
       -1   -1    0    0    0  501  0.00000000000E+00  0.00000000000E+00  0.16077841448E+04  0.16077841448E+04  0.50400001928E-02 0.  1.
        1   -1    0    0  501    0  0.00000000000E+00  0.00000000000E+00 -0.17275068019E+04  0.17275068019E+04  0.50400001928E-02 0. -1.
    10030    2    1    2    0    0  0.00000000000E+00  0.00000000000E+00 -0.11972265716E+03  0.33352909467E+04  0.33331414888E+04 0.  0.
        5    1    3    3  502    0  0.50748888408E+03 -0.17060416208E+03 -0.16391012508E+04  0.17243334214E+04  0.46999998093E+01 0. -1.
       -5    1    3    3    0  502 -0.50748888408E+03  0.17060416208E+03  0.15193785937E+04  0.16109575253E+04  0.46999998093E+01 0.  1.
</event>
<event>
 5   0  0.1880301E-06  0.3393869E+04  0.7818609E-02  0.8139413E-01
       -2   -1    0    0    0  501  0.00000000000E+00  0.00000000000E+00  0.10473701293E+04  0.10473701293E+04  0.25500000920E-02 0.  1.
        2   -1    0    0  501    0  0.00000000000E+00  0.00000000000E+00 -0.27493499172E+04  0.27493499172E+04  0.25500000920E-02 0. -1.
    10030    2    1    2    0    0  0.00000000000E+00  0.00000000000E+00 -0.17019797879E+04  0.37967200465E+04  0.33938691656E+04 0.  0.
        4    1    3    3  502    0  0.15368155279E+04 -0.11079896293E+03 -0.16463742797E+04  0.22549120291E+04  0.12699999809E+01 0. -1.
       -4    1    3    3    0  502 -0.15368155279E+04  0.11079896293E+03 -0.55605508199E+02  0.15418080174E+04  0.12699999809E+01 0.  1.
</event>
<event>
 5   0  0.1339844E-06  0.3416417E+04  0.7818609E-02  0.8133889E-01
        2   -1    0    0  501    0  0.00000000000E+00  0.00000000000E+00  0.20712272193E+04  0.20712272193E+04  0.25500000920E-02 0.  1.
       -2   -1    0    0    0  501  0.00000000000E+00  0.00000000000E+00 -0.14088152256E+04  0.14088152256E+04  0.25500000920E-02 0. -1.
    10030    2    1    2    0    0  0.00000000000E+00  0.00000000000E+00  0.66241199373E+03  0.34800424449E+04  0.34164170953E+04 0.  0.
        3    1    3    3  502    0  0.76397955269E+03  0.64505638305E+03  0.17419953572E+04  0.20085592670E+04  0.10100000352E+00 0.  1.
       -3    1    3    3    0  502 -0.76397955269E+03 -0.64505638305E+03 -0.10795833634E+04  0.14714831780E+04  0.10100000352E+00 0. -1.
</event>
<event>
 5   0  0.1911477E-06  0.3413551E+04  0.7818609E-02  0.8134588E-01
       -2   -1    0    0    0  501  0.00000000000E+00  0.00000000000E+00  0.10107271028E+04  0.10107271028E+04  0.25500000920E-02 0. -1.
        2   -1    0    0  501    0  0.00000000000E+00  0.00000000000E+00 -0.28821657397E+04  0.28821657397E+04  0.25500000920E-02 0.  1.
    10030    2    1    2    0    0  0.00000000000E+00  0.00000000000E+00 -0.18714386369E+04  0.38928928425E+04  0.34135512463E+04 0.  0.
        5    1    3    3  502    0 -0.14409352815E+04  0.81655282220E+03 -0.14059388080E+04  0.21724960343E+04  0.46999998093E+01 0.  1.
       -5    1    3    3    0  502  0.14409352815E+04 -0.81655282220E+03 -0.46549982887E+03  0.17203968082E+04  0.46999998093E+01 0. -1.
</event>
<event>
 5   0  0.1339844E-06  0.3020552E+04  0.7818609E-02  0.8237886E-01
        2   -1    0    0  501    0  0.00000000000E+00  0.00000000000E+00  0.11184048255E+04  0.11184048255E+04  0.25500000920E-02 0. -1.
       -2   -1    0    0    0  501  0.00000000000E+00  0.00000000000E+00 -0.20394529562E+04  0.20394529562E+04  0.25500000920E-02 0.  1.
    10030    2    1    2    0    0  0.00000000000E+00  0.00000000000E+00 -0.92104813066E+03  0.31578577817E+04  0.30205522856E+04 0.  0.
        3    1    3    3  502    0 -0.12134051380E+04  0.89309021472E+03 -0.35101595814E+03  0.15469888085E+04  0.10100000352E+00 0.  1.
       -3    1    3    3    0  502  0.12134051380E+04 -0.89309021472E+03 -0.57003217252E+03  0.16108689731E+04  0.10100000352E+00 0. -1.
</event>
<event>
 5   0  0.6134625E-07  0.3341706E+04  0.7818609E-02  0.8152364E-01
        1   -1    0    0  501    0  0.00000000000E+00  0.00000000000E+00  0.18900463928E+04  0.18900463928E+04  0.50400001928E-02 0. -1.
       -1   -1    0    0    0  501  0.00000000000E+00  0.00000000000E+00 -0.14770801562E+04  0.14770801562E+04  0.50400001928E-02 0.  1.
    10030    2    1    2    0    0  0.00000000000E+00  0.00000000000E+00  0.41296623660E+03  0.33671265490E+04  0.33417061636E+04 0.  0.
        5    1    3    3  502    0  0.89650798345E+03  0.72058628715E+02 -0.12123509613E+04  0.15095482615E+04  0.46999998093E+01 0.  1.
       -5    1    3    3    0  502 -0.89650798345E+03 -0.72058628715E+02  0.16253171979E+04  0.18575782875E+04  0.46999998093E+01 0. -1.
</event>
<event>
 5   0  0.1911477E-06  0.3403588E+04  0.7818609E-02  0.8137026E-01
       -2   -1    0    0    0  501  0.00000000000E+00  0.00000000000E+00  0.23435524275E+04  0.23435524275E+04  0.25500000920E-02 0.  1.
        2   -1    0    0  501    0  0.00000000000E+00  0.00000000000E+00 -0.12357743961E+04  0.12357743961E+04  0.25500000920E-02 0. -1.
    10030    2    1    2    0    0  0.00000000000E+00  0.00000000000E+00  0.11077780313E+04  0.35793268236E+04  0.34035875695E+04 0.  0.
        5    1    3    3  502    0 -0.12262309902E+04 -0.11799264230E+04  0.56917178489E+03  0.17943933280E+04  0.46999998093E+01 0.  1.
       -5    1    3    3    0  502  0.12262309902E+04  0.11799264230E+04  0.53860624645E+03  0.17849334956E+04  0.46999998093E+01 0. -1.
</event>
<event>
 5   0  0.1948507E-06  0.3348100E+04  0.7818609E-02  0.8150763E-01
        2   -1    0    0  501    0  0.00000000000E+00  0.00000000000E+00  0.28237531715E+04  0.28237531715E+04  0.25500000920E-02 0.  1.
       -2   -1    0    0    0  501  0.00000000000E+00  0.00000000000E+00 -0.99245358920E+03  0.99245358921E+03  0.25500000920E-02 0. -1.
    10030    2    1    2    0    0  0.00000000000E+00  0.00000000000E+00  0.18312995823E+04  0.38162067608E+04  0.33481003391E+04 0.  0.
        1    1    3    3  502    0  0.12426328223E+03  0.14201178635E+04 -0.84705607705E+02  0.14280585246E+04  0.50400001928E-02 0. -1.
       -1    1    3    3    0  502 -0.12426328223E+03 -0.14201178635E+04  0.19160051901E+04  0.23881482362E+04  0.50400001928E-02 0.  1.
</event>
<event>
 5   0  0.6146388E-07  0.2710982E+04  0.7818609E-02  0.8331450E-01
        1   -1    0    0  501    0  0.00000000000E+00  0.00000000000E+00  0.12530336119E+04  0.12530336119E+04  0.50400001928E-02 0. -1.
       -1   -1    0    0    0  501  0.00000000000E+00  0.00000000000E+00 -0.14663266037E+04  0.14663266037E+04  0.50400001928E-02 0.  1.
    10030    2    1    2    0    0  0.00000000000E+00  0.00000000000E+00 -0.21329299180E+03  0.27193602156E+04  0.27109824938E+04 0.  0.
        4    1    3    3  502    0  0.57975868771E+02  0.13537800811E+04 -0.70854326324E+02  0.13568727493E+04  0.12699999809E+01 0.  1.
       -4    1    3    3    0  502 -0.57975868771E+02 -0.13537800811E+04 -0.14243866548E+03  0.13624874662E+04  0.12699999809E+01 0. -1.
</event>
<event>
 5   0  0.1339844E-06  0.3363874E+04  0.7818609E-02  0.8146830E-01
        2   -1    0    0  501    0  0.00000000000E+00  0.00000000000E+00  0.24772875940E+04  0.24772875940E+04  0.25500000920E-02 0.  1.
       -2   -1    0    0    0  501  0.00000000000E+00  0.00000000000E+00 -0.11419389907E+04  0.11419389907E+04  0.25500000920E-02 0. -1.
    10030    2    1    2    0    0  0.00000000000E+00  0.00000000000E+00  0.13353486033E+04  0.36192265847E+04  0.33638735379E+04 0.  0.
        3    1    3    3  502    0 -0.88268758674E+03 -0.93577122230E+03  0.18334897081E+04  0.22397521461E+04  0.10100000352E+00 0.  1.
       -3    1    3    3    0  502  0.88268758674E+03  0.93577122230E+03 -0.49814110475E+03  0.13794744386E+04  0.10100000352E+00 0. -1.
</event>
<event>
 5   0  0.6134625E-07  0.3128234E+04  0.7818609E-02  0.8208032E-01
       -1   -1    0    0    0  501  0.00000000000E+00  0.00000000000E+00  0.10265088769E+04  0.10265088769E+04  0.50400001928E-02 0.  1.
        1   -1    0    0  501    0  0.00000000000E+00  0.00000000000E+00 -0.23832844266E+04  0.23832844266E+04  0.50400001928E-02 0. -1.
    10030    2    1    2    0    0  0.00000000000E+00  0.00000000000E+00 -0.13567755497E+04  0.34097933035E+04  0.31282344031E+04 0.  0.
        3    1    3    3  502    0  0.16693613010E+03 -0.14965314285E+04 -0.11395369940E+04  0.18883904679E+04  0.10100000352E+00 0.  1.
       -3    1    3    3    0  502 -0.16693613010E+03  0.14965314285E+04 -0.21723855563E+03  0.15214028357E+04  0.10100000352E+00 0. -1.
</event>
<event>
 5   0  0.6134625E-07  0.3298118E+04  0.7818609E-02  0.8163374E-01
       -1   -1    0    0    0  501  0.00000000000E+00  0.00000000000E+00  0.13556005179E+04  0.13556005179E+04  0.50400001928E-02 0.  1.
        1   -1    0    0  501    0  0.00000000000E+00  0.00000000000E+00 -0.20060451668E+04  0.20060451668E+04  0.50400001928E-02 0. -1.
    10030    2    1    2    0    0  0.00000000000E+00  0.00000000000E+00 -0.65044464882E+03  0.33616456847E+04  0.32981181708E+04 0.  0.
        1    1    3    3  502    0  0.15333834386E+04  0.35896815310E+03 -0.82379966671E+03  0.17772925464E+04  0.50400001928E-02 0. -1.
       -1    1    3    3    0  502 -0.15333834386E+04 -0.35896815310E+03  0.17335501789E+03  0.15843531383E+04  0.50400001928E-02 0.  1.
</event>
<event>
 5   0  0.6134625E-07  0.3348271E+04  0.7818609E-02  0.8150720E-01
       -1   -1    0    0    0  501  0.00000000000E+00  0.00000000000E+00  0.15774731745E+04  0.15774731745E+04  0.50400001928E-02 0. -1.
        1   -1    0    0  501    0  0.00000000000E+00  0.00000000000E+00 -0.17767213730E+04  0.17767213730E+04  0.50400001928E-02 0.  1.
    10030    2    1    2    0    0  0.00000000000E+00  0.00000000000E+00 -0.19924819853E+03  0.33541945475E+04  0.33482713776E+04 0.  0.
        5    1    3    3  502    0 -0.68468583324E+03 -0.10591903155E+04  0.10032455255E+04  0.16115838449E+04  0.46999998093E+01 0. -1.
       -5    1    3    3    0  502  0.68468583324E+03  0.10591903155E+04 -0.12024937240E+04  0.17426107026E+04  0.46999998093E+01 0.  1.
</event>
<event>
 5   0  0.1797075E-06  0.3322893E+04  0.7818609E-02  0.8157095E-01
       -2   -1    0    0    0  501  0.00000000000E+00  0.00000000000E+00  0.10128772277E+04  0.10128772277E+04  0.25500000920E-02 0. -1.
        2   -1    0    0  501    0  0.00000000000E+00  0.00000000000E+00 -0.27253094498E+04  0.27253094498E+04  0.25500000920E-02 0.  1.
    10030    2    1    2    0    0  0.00000000000E+00  0.00000000000E+00 -0.17124322221E+04  0.37381866775E+04  0.33228926436E+04 0.  0.
        2    1    3    3  502    0 -0.80578837487E+03  0.68490661523E+03  0.58534422940E+03  0.12087265380E+04  0.25500000920E-02 0. -1.
       -2    1    3    3    0  502  0.80578837487E+03 -0.68490661523E+03 -0.22977764515E+04  0.25294601396E+04  0.25500000920E-02 0.  1.
</event>
<event>
 5   0  0.1911477E-06  0.2709722E+04  0.7818609E-02  0.8331858E-01
       -2   -1    0    0    0  501  0.00000000000E+00  0.00000000000E+00  0.17051670305E+04  0.17051670305E+04  0.25500000920E-02 0.  1.
        2   -1    0    0  501    0  0.00000000000E+00  0.00000000000E+00 -0.10765207358E+04  0.10765207358E+04  0.25500000920E-02 0. -1.
    10030    2    1    2    0    0  0.00000000000E+00  0.00000000000E+00  0.62864629470E+03  0.27816877663E+04  0.27097215106E+04 0.  0.
        5    1    3    3  502    0  0.73435539345E+03 -0.12588210464E+03  0.14759690239E+04  0.16533695285E+04  0.46999998093E+01 0.  1.
       -5    1    3    3    0  502 -0.73435539345E+03  0.12588210464E+03 -0.84732272924E+03  0.11283182378E+04  0.46999998093E+01 0. -1.
</event>
<event>
 5   0  0.6146388E-07  0.3408779E+04  0.7818609E-02  0.8135755E-01
       -1   -1    0    0    0  501  0.00000000000E+00  0.00000000000E+00  0.20225272256E+04  0.20225272256E+04  0.50400001928E-02 0.  1.
        1   -1    0    0  501    0  0.00000000000E+00  0.00000000000E+00 -0.14362937120E+04  0.14362937120E+04  0.50400001928E-02 0. -1.
    10030    2    1    2    0    0  0.00000000000E+00  0.00000000000E+00  0.58623351357E+03  0.34588209376E+04  0.34087787470E+04 0.  0.
        4    1    3    3  502    0  0.70498652907E+03  0.49700484828E+03 -0.11984709005E+04  0.14766021596E+04  0.12699999809E+01 0. -1.
       -4    1    3    3    0  502 -0.70498652907E+03 -0.49700484828E+03  0.17847044141E+04  0.19822187780E+04  0.12699999809E+01 0.  1.
</event>
<event>
 5   0  0.1880301E-06  0.3600300E+04  0.7818609E-02  0.8090423E-01
        2   -1    0    0  501    0  0.00000000000E+00  0.00000000000E+00  0.18092788888E+04  0.18092788888E+04  0.25500000920E-02 0. -1.
       -2   -1    0    0    0  501  0.00000000000E+00  0.00000000000E+00 -0.17910675572E+04  0.17910675572E+04  0.25500000920E-02 0.  1.
    10030    2    1    2    0    0  0.00000000000E+00  0.00000000000E+00  0.18211331578E+02  0.36003464460E+04  0.36003003873E+04 0.  0.
        4    1    3    3  502    0 -0.14899273881E+04  0.10038333120E+04  0.12301132264E+03  0.18007493825E+04  0.12699999809E+01 0.  1.
       -4    1    3    3    0  502  0.14899273881E+04 -0.10038333120E+04 -0.10479999106E+03  0.17995970635E+04  0.12699999809E+01 0. -1.
</event>
<event>
 5   0  0.6134625E-07  0.3398284E+04  0.7818609E-02  0.8138328E-01
        1   -1    0    0  501    0  0.00000000000E+00  0.00000000000E+00  0.19407316847E+04  0.19407316847E+04  0.50400001928E-02 0. -1.
       -1   -1    0    0    0  501  0.00000000000E+00  0.00000000000E+00 -0.14876266084E+04  0.14876266084E+04  0.50400001928E-02 0.  1.
    10030    2    1    2    0    0  0.00000000000E+00  0.00000000000E+00  0.45310507634E+03  0.34283582931E+04  0.33982843283E+04 0.  0.
        5    1    3    3  502    0  0.13019175423E+04  0.18182413661E+03 -0.85954939817E+03  0.15706357189E+04  0.46999998093E+01 0.  1.
       -5    1    3    3    0  502 -0.13019175423E+04 -0.18182413661E+03  0.13126544745E+04  0.18577225743E+04  0.46999998093E+01 0. -1.
</event>
<event>
 5   0  0.1797075E-06  0.3414036E+04  0.7818609E-02  0.8134470E-01
        2   -1    0    0  501    0  0.00000000000E+00  0.00000000000E+00  0.14552505256E+04  0.14552505256E+04  0.25500000920E-02 0.  1.
       -2   -1    0    0    0  501  0.00000000000E+00  0.00000000000E+00 -0.20023422936E+04  0.20023422936E+04  0.25500000920E-02 0. -1.
    10030    2    1    2    0    0  0.00000000000E+00  0.00000000000E+00 -0.54709176798E+03  0.34575928193E+04  0.34140355448E+04 0.  0.
        2    1    3    3  502    0  0.61228272310E+03  0.15929343218E+04 -0.23329223069E+03  0.17224271107E+04  0.25500000920E-02 0.  1.
       -2    1    3    3    0  502 -0.61228272310E+03 -0.15929343218E+04 -0.31379953729E+03  0.17351657086E+04  0.25500000920E-02 0. -1.
</event>
<event>
 5   0  0.1339844E-06  0.3426795E+04  0.7818609E-02  0.8131361E-01
       -2   -1    0    0    0  501  0.00000000000E+00  0.00000000000E+00  0.15672811409E+04  0.15672811409E+04  0.25500000920E-02 0. -1.
        2   -1    0    0  501    0  0.00000000000E+00  0.00000000000E+00 -0.18731366811E+04  0.18731366811E+04  0.25500000920E-02 0.  1.
    10030    2    1    2    0    0  0.00000000000E+00  0.00000000000E+00 -0.30585554015E+03  0.34404178220E+04  0.34267954679E+04 0.  0.
        3    1    3    3  502    0 -0.15400214119E+04 -0.63642076416E+03  0.24744875461E+03  0.16846151592E+04  0.10100000352E+00 0. -1.
       -3    1    3    3    0  502  0.15400214119E+04  0.63642076416E+03 -0.55330429476E+03  0.17558026629E+04  0.10100000352E+00 0.  1.
</event>
<event>
 5   0  0.6218695E-07  0.3415437E+04  0.7818609E-02  0.8134128E-01
       -1   -1    0    0    0  501  0.00000000000E+00  0.00000000000E+00  0.15337754823E+04  0.15337754823E+04  0.50400001928E-02 0. -1.
        1   -1    0    0  501    0  0.00000000000E+00  0.00000000000E+00 -0.19013877515E+04  0.19013877516E+04  0.50400001928E-02 0.  1.
    10030    2    1    2    0    0  0.00000000000E+00  0.00000000000E+00 -0.36761226925E+03  0.34351632339E+04  0.34154366723E+04 0.  0.
        2    1    3    3  502    0 -0.10651174099E+04  0.11723239910E+04  0.45822492390E+03  0.16488749855E+04  0.25500000920E-02 0. -1.
       -2    1    3    3    0  502  0.10651174099E+04 -0.11723239910E+04 -0.82583719315E+03  0.17862882484E+04  0.25500000920E-02 0.  1.
</event>
<event>
 5   0  0.6134625E-07  0.3198688E+04  0.7818609E-02  0.8189164E-01
        1   -1    0    0  501    0  0.00000000000E+00  0.00000000000E+00  0.21003897127E+04  0.21003897127E+04  0.50400001928E-02 0. -1.
       -1   -1    0    0    0  501  0.00000000000E+00  0.00000000000E+00 -0.12178221130E+04  0.12178221130E+04  0.50400001928E-02 0.  1.
    10030    2    1    2    0    0  0.00000000000E+00  0.00000000000E+00  0.88256759970E+03  0.33182118257E+04  0.31986878798E+04 0.  0.
        3    1    3    3  502    0 -0.72517211374E+03  0.12677965499E+03 -0.10316135520E+04  0.12673492835E+04  0.10100000352E+00 0.  1.
       -3    1    3    3    0  502  0.72517211374E+03 -0.12677965499E+03  0.19141811517E+04  0.20508625422E+04  0.10100000352E+00 0. -1.
</event>
<event>
 5   0  0.1339844E-06  0.3090013E+04  0.7818609E-02  0.8218484E-01
       -2   -1    0    0    0  501  0.00000000000E+00  0.00000000000E+00  0.11614018873E+04  0.11614018873E+04  0.25500000920E-02 0.  1.
        2   -1    0    0  501    0  0.00000000000E+00  0.00000000000E+00 -0.20553135863E+04  0.20553135863E+04  0.25500000920E-02 0. -1.
    10030    2    1    2    0    0  0.00000000000E+00  0.00000000000E+00 -0.89391169892E+03  0.32167154736E+04  0.30900129956E+04 0.  0.
        3    1    3    3  502    0 -0.95184721298E+03  0.19068348580E+03  0.80427353173E+03  0.12606463551E+04  0.10100000352E+00 0.  1.
       -3    1    3    3    0  502  0.95184721298E+03 -0.19068348580E+03 -0.16981852306E+04  0.19560691185E+04  0.10100000352E+00 0. -1.
</event>
<event>
 5   0  0.1339844E-06  0.3418669E+04  0.7818609E-02  0.8133340E-01
       -2   -1    0    0    0  501  0.00000000000E+00  0.00000000000E+00  0.11444278056E+04  0.11444278056E+04  0.25500000920E-02 0. -1.
        2   -1    0    0  501    0  0.00000000000E+00  0.00000000000E+00 -0.25530874865E+04  0.25530874865E+04  0.25500000920E-02 0.  1.
    10030    2    1    2    0    0  0.00000000000E+00  0.00000000000E+00 -0.14086596809E+04  0.36975152921E+04  0.34186689279E+04 0.  0.
        3    1    3    3  502    0  0.16862050600E+04  0.17864664417E+03 -0.47079634307E+03  0.17597872982E+04  0.10100000352E+00 0. -1.
       -3    1    3    3    0  502 -0.16862050600E+04 -0.17864664417E+03 -0.93786333784E+03  0.19377279940E+04  0.10100000352E+00 0.  1.
</event>
<event>
 5   0  0.1797075E-06  0.3364546E+04  0.7818609E-02  0.8146663E-01
        2   -1    0    0  501    0  0.00000000000E+00  0.00000000000E+00  0.14440105616E+04  0.14440105616E+04  0.25500000920E-02 0.  1.
       -2   -1    0    0    0  501  0.00000000000E+00  0.00000000000E+00 -0.19598489476E+04  0.19598489476E+04  0.25500000920E-02 0. -1.
    10030    2    1    2    0    0  0.00000000000E+00  0.00000000000E+00 -0.51583838602E+03  0.34038595092E+04  0.33645460790E+04 0.  0.
        2    1    3    3  502    0 -0.14905394725E+04  0.75885400877E+03 -0.75604604260E+02  0.16743008636E+04  0.25500000920E-02 0.  1.
       -2    1    3    3    0  502  0.14905394725E+04 -0.75885400877E+03 -0.44023378176E+03  0.17295586456E+04  0.25500000920E-02 0. -1.
</event>
<event>
 5   0  0.6146388E-07  0.3393224E+04  0.7818609E-02  0.8139571E-01
        1   -1    0    0  501    0  0.00000000000E+00  0.00000000000E+00  0.17277984602E+04  0.17277984602E+04  0.50400001928E-02 0. -1.
       -1   -1    0    0    0  501  0.00000000000E+00  0.00000000000E+00 -0.16659882378E+04  0.16659882378E+04  0.50400001928E-02 0.  1.
    10030    2    1    2    0    0  0.00000000000E+00  0.00000000000E+00  0.61810222424E+02  0.33937866980E+04  0.33932237840E+04 0.  0.
        4    1    3    3  502    0  0.19619040262E+03  0.68552527246E+03 -0.15088484875E+04  0.16688501863E+04  0.12699999809E+01 0.  1.
       -4    1    3    3    0  502 -0.19619040262E+03 -0.68552527246E+03  0.15706587099E+04  0.17249365117E+04  0.12699999809E+01 0. -1.
</event>
<event>
 5   0  0.1880301E-06  0.3191582E+04  0.7818609E-02  0.8191044E-01
       -2   -1    0    0    0  501  0.00000000000E+00  0.00000000000E+00  0.16944550005E+04  0.16944550005E+04  0.25500000920E-02 0.  1.
        2   -1    0    0  501    0  0.00000000000E+00  0.00000000000E+00 -0.15028723511E+04  0.15028723511E+04  0.25500000920E-02 0. -1.
    10030    2    1    2    0    0  0.00000000000E+00  0.00000000000E+00  0.19158264933E+03  0.31973273516E+04  0.31915824103E+04 0.  0.
        4    1    3    3  502    0  0.14856089098E+04  0.55576777753E+03  0.27113867662E+03  0.16091704230E+04  0.12699999809E+01 0.  1.
       -4    1    3    3    0  502 -0.14856089098E+04 -0.55576777753E+03 -0.79556027291E+02  0.15881569286E+04  0.12699999809E+01 0. -1.
</event>
<event>
 5   0  0.1339844E-06  0.3328702E+04  0.7818609E-02  0.8155630E-01
        2   -1    0    0  501    0  0.00000000000E+00  0.00000000000E+00  0.30557695175E+04  0.30557695175E+04  0.25500000920E-02 0.  1.
       -2   -1    0    0    0  501  0.00000000000E+00  0.00000000000E+00 -0.90650300813E+03  0.90650300813E+03  0.25500000920E-02 0. -1.
    10030    2    1    2    0    0  0.00000000000E+00  0.00000000000E+00  0.21492665094E+04  0.39622725257E+04  0.33287020052E+04 0.  0.
        3    1    3    3  502    0 -0.86893433254E+03 -0.11798210087E+04  0.13506722208E+03  0.14714848458E+04  0.10100000352E+00 0. -1.
       -3    1    3    3    0  502  0.86893433254E+03  0.11798210087E+04  0.20141992873E+04  0.24907876798E+04  0.10100000352E+00 0.  1.
</event>
<event>
 5   0  0.1911477E-06  0.3451584E+04  0.7818609E-02  0.8125361E-01
       -2   -1    0    0    0  501  0.00000000000E+00  0.00000000000E+00  0.16295341277E+04  0.16295341277E+04  0.25500000920E-02 0.  1.
        2   -1    0    0  501    0  0.00000000000E+00  0.00000000000E+00 -0.18277359720E+04  0.18277359720E+04  0.25500000920E-02 0. -1.
    10030    2    1    2    0    0  0.00000000000E+00  0.00000000000E+00 -0.19820184431E+03  0.34572700997E+04  0.34515840669E+04 0.  0.
        5    1    3    3  502    0  0.83141159240E+03 -0.14388157265E+04 -0.56559351563E+03  0.17553786046E+04  0.46999998093E+01 0.  1.
       -5    1    3    3    0  502 -0.83141159240E+03  0.14388157265E+04  0.36739167132E+03  0.17018914950E+04  0.46999998093E+01 0. -1.
</event>
<event>
 5   0  0.6146388E-07  0.3390370E+04  0.7818609E-02  0.8140274E-01
        1   -1    0    0  501    0  0.00000000000E+00  0.00000000000E+00  0.20894312503E+04  0.20894312503E+04  0.50400001928E-02 0.  1.
       -1   -1    0    0    0  501  0.00000000000E+00  0.00000000000E+00 -0.13753271206E+04  0.13753271207E+04  0.50400001928E-02 0. -1.
    10030    2    1    2    0    0  0.00000000000E+00  0.00000000000E+00  0.71410412963E+03  0.34647583709E+04  0.33903695759E+04 0.  0.
        4    1    3    3  502    0  0.79627673061E+03  0.13372951246E+04  0.10435311109E+04  0.18738659702E+04  0.12699999809E+01 0.  1.
       -4    1    3    3    0  502 -0.79627673061E+03 -0.13372951246E+04 -0.32942698128E+03  0.15908924008E+04  0.12699999809E+01 0. -1.
</event>
<event>
 5   0  0.1948507E-06  0.3341852E+04  0.7818609E-02  0.8152327E-01
        2   -1    0    0  501    0  0.00000000000E+00  0.00000000000E+00  0.21149967475E+04  0.21149967475E+04  0.25500000920E-02 0.  1.
       -2   -1    0    0    0  501  0.00000000000E+00  0.00000000000E+00 -0.13200932449E+04  0.13200932449E+04  0.25500000920E-02 0. -1.
    10030    2    1    2    0    0  0.00000000000E+00  0.00000000000E+00  0.79490350267E+03  0.34350899924E+04  0.33418515343E+04 0.  0.
        1    1    3    3  502    0 -0.87912579575E+03 -0.68394316156E+03 -0.88283193919E+03  0.14212785251E+04  0.50400001928E-02 0. -1.
       -1    1    3    3    0  502  0.87912579575E+03  0.68394316156E+03  0.16777354419E+04  0.20138114673E+04  0.50400001928E-02 0.  1.
</event>
<event>
 5   0  0.6134625E-07  0.3441415E+04  0.7818609E-02  0.8127816E-01
       -1   -1    0    0    0  501  0.00000000000E+00  0.00000000000E+00  0.15985881448E+04  0.15985881448E+04  0.50400001928E-02 0.  1.
        1   -1    0    0  501    0  0.00000000000E+00  0.00000000000E+00 -0.18521560170E+04  0.18521560171E+04  0.50400001928E-02 0. -1.
    10030    2    1    2    0    0  0.00000000000E+00  0.00000000000E+00 -0.25356787228E+03  0.34507441618E+04  0.34414152037E+04 0.  0.
        5    1    3    3  502    0  0.14244377155E+04 -0.56595576175E+03 -0.91087802170E+03  0.17829889484E+04  0.46999998093E+01 0. -1.
       -5    1    3    3    0  502 -0.14244377155E+04  0.56595576175E+03  0.65731014942E+03  0.16677552135E+04  0.46999998093E+01 0.  1.
</event>
<event>
 5   0  0.6146388E-07  0.3392013E+04  0.7818609E-02  0.8139869E-01
        1   -1    0    0  501    0  0.00000000000E+00  0.00000000000E+00  0.20055300578E+04  0.20055300578E+04  0.50400001928E-02 0. -1.
       -1   -1    0    0    0  501  0.00000000000E+00  0.00000000000E+00 -0.14342534665E+04  0.14342534665E+04  0.50400001928E-02 0.  1.
    10030    2    1    2    0    0  0.00000000000E+00  0.00000000000E+00  0.57127659131E+03  0.34397835243E+04  0.33920132296E+04 0.  0.
        4    1    3    3  502    0  0.90931827930E+03 -0.70398734426E+03  0.15497810939E+04  0.19298396218E+04  0.12699999809E+01 0. -1.
       -4    1    3    3    0  502 -0.90931827930E+03  0.70398734426E+03 -0.97850450262E+03  0.15099439024E+04  0.12699999809E+01 0.  1.
</event>
<event>
 5   0  0.1339844E-06  0.3406839E+04  0.7818609E-02  0.8136230E-01
       -2   -1    0    0    0  501  0.00000000000E+00  0.00000000000E+00  0.19699432170E+04  0.19699432170E+04  0.25500000920E-02 0. -1.
        2   -1    0    0  501    0  0.00000000000E+00  0.00000000000E+00 -0.14729554030E+04  0.14729554030E+04  0.25500000920E-02 0.  1.
    10030    2    1    2    0    0  0.00000000000E+00  0.00000000000E+00  0.49698781404E+03  0.34428986201E+04  0.34068393007E+04 0.  0.
        3    1    3    3  502    0  0.75474287637E+03 -0.60332408112E+03  0.16661971244E+04  0.19260969923E+04  0.10100000352E+00 0. -1.
       -3    1    3    3    0  502 -0.75474287637E+03  0.60332408112E+03 -0.11692093103E+04  0.15168016277E+04  0.10100000352E+00 0.  1.
</event>
<event>
 5   0  0.6146388E-07  0.3276807E+04  0.7818609E-02  0.8168822E-01
       -1   -1    0    0    0  501  0.00000000000E+00  0.00000000000E+00  0.23126480666E+04  0.23126480666E+04  0.50400001928E-02 0.  1.
        1   -1    0    0  501    0  0.00000000000E+00  0.00000000000E+00 -0.11607325543E+04  0.11607325543E+04  0.50400001928E-02 0. -1.
    10030    2    1    2    0    0  0.00000000000E+00  0.00000000000E+00  0.11519155123E+04  0.34733806210E+04  0.32768069199E+04 0.  0.
        4    1    3    3  502    0  0.33189114076E+03  0.85525792479E+03 -0.86295451045E+03  0.12594879703E+04  0.12699999809E+01 0. -1.
       -4    1    3    3    0  502 -0.33189114076E+03 -0.85525792479E+03  0.20148700228E+04  0.22138926507E+04  0.12699999809E+01 0.  1.
</event>
<event>
 5   0  0.6146388E-07  0.3401599E+04  0.7818609E-02  0.8137514E-01
       -1   -1    0    0    0  501  0.00000000000E+00  0.00000000000E+00  0.23828964166E+04  0.23828964166E+04  0.50400001928E-02 0. -1.
        1   -1    0    0  501    0  0.00000000000E+00  0.00000000000E+00 -0.12139508877E+04  0.12139508877E+04  0.50400001928E-02 0.  1.
    10030    2    1    2    0    0  0.00000000000E+00  0.00000000000E+00  0.11689455289E+04  0.35968473044E+04  0.34015991653E+04 0.  0.
        4    1    3    3  502    0  0.14138604755E+04 -0.75887824216E+03  0.11805869557E+04  0.19921558181E+04  0.12699999809E+01 0.  1.
       -4    1    3    3    0  502 -0.14138604755E+04  0.75887824216E+03 -0.11641426788E+02  0.16046914863E+04  0.12699999809E+01 0. -1.
</event>
<event>
 5   0  0.6218695E-07  0.2764998E+04  0.7818609E-02  0.8314218E-01
        1   -1    0    0  501    0  0.00000000000E+00  0.00000000000E+00  0.14165930672E+04  0.14165930672E+04  0.50400001928E-02 0. -1.
       -1   -1    0    0    0  501  0.00000000000E+00  0.00000000000E+00 -0.13492253111E+04  0.13492253111E+04  0.50400001928E-02 0.  1.
    10030    2    1    2    0    0  0.00000000000E+00  0.00000000000E+00  0.67367756104E+02  0.27658183783E+04  0.27649978096E+04 0.  0.
        2    1    3    3  502    0 -0.53779615991E+03 -0.32433826193E+03 -0.11982997536E+04  0.13529014440E+04  0.25500000920E-02 0.  1.
       -2    1    3    3    0  502  0.53779615991E+03  0.32433826193E+03  0.12656675097E+04  0.14129169342E+04  0.25500000920E-02 0. -1.
</event>
<event>
 5   0  0.1948507E-06  0.3492936E+04  0.7818609E-02  0.8115466E-01
       -2   -1    0    0    0  501  0.00000000000E+00  0.00000000000E+00  0.25679047799E+04  0.25679047799E+04  0.25500000920E-02 0. -1.
        2   -1    0    0  501    0  0.00000000000E+00  0.00000000000E+00 -0.11877975987E+04  0.11877975987E+04  0.25500000920E-02 0.  1.
    10030    2    1    2    0    0  0.00000000000E+00  0.00000000000E+00  0.13801071812E+04  0.37557023786E+04  0.34929363758E+04 0.  0.
        1    1    3    3  502    0 -0.11715669061E+04 -0.37051606177E+03 -0.64439899294E+03  0.13874801727E+04  0.50400001928E-02 0.  1.
       -1    1    3    3    0  502  0.11715669061E+04  0.37051606177E+03  0.20245061741E+04  0.23682222059E+04  0.50400001928E-02 0. -1.
</event>
<event>
 5   0  0.6134625E-07  0.3392865E+04  0.7818609E-02  0.8139660E-01
       -1   -1    0    0    0  501  0.00000000000E+00  0.00000000000E+00  0.16203816537E+04  0.16203816537E+04  0.50400001928E-02 0.  1.
        1   -1    0    0  501    0  0.00000000000E+00  0.00000000000E+00 -0.17760527599E+04  0.17760527600E+04  0.50400001928E-02 0. -1.
    10030    2    1    2    0    0  0.00000000000E+00  0.00000000000E+00 -0.15567110626E+03  0.33964344136E+04  0.33928650478E+04 0.  0.
        5    1    3    3  502    0 -0.10636368841E+04 -0.11122725165E+04 -0.79230037589E+03  0.17309637627E+04  0.46999998093E+01 0. -1.
       -5    1    3    3    0  502  0.10636368841E+04  0.11122725165E+04  0.63662926964E+03  0.16654706509E+04  0.46999998093E+01 0.  1.
</event>
<event>
 5   0  0.1339844E-06  0.3374625E+04  0.7818609E-02  0.8144162E-01
        2   -1    0    0  501    0  0.00000000000E+00  0.00000000000E+00  0.19619801407E+04  0.19619801407E+04  0.25500000920E-02 0.  1.
       -2   -1    0    0    0  501  0.00000000000E+00  0.00000000000E+00 -0.14510969884E+04  0.14510969884E+04  0.25500000920E-02 0. -1.
    10030    2    1    2    0    0  0.00000000000E+00  0.00000000000E+00  0.51088315231E+03  0.34130771292E+04  0.33746250006E+04 0.  0.
        3    1    3    3  502    0 -0.27303616225E+03  0.14047598330E+04  0.11595651931E+04  0.18418714346E+04  0.10100000352E+00 0. -1.
       -3    1    3    3    0  502  0.27303616225E+03 -0.14047598330E+04 -0.64868204080E+03  0.15712056946E+04  0.10100000352E+00 0.  1.
</event>
<event>
 5   0  0.1797075E-06  0.3022940E+04  0.7818609E-02  0.8237210E-01
       -2   -1    0    0    0  501  0.00000000000E+00  0.00000000000E+00  0.16836405503E+04  0.16836405503E+04  0.25500000920E-02 0.  1.
        2   -1    0    0  501    0  0.00000000000E+00  0.00000000000E+00 -0.13569056630E+04  0.13569056630E+04  0.25500000920E-02 0. -1.
    10030    2    1    2    0    0  0.00000000000E+00  0.00000000000E+00  0.32673488728E+03  0.30405462133E+04  0.30229398916E+04 0.  0.
        2    1    3    3  502    0  0.12387799324E+04 -0.51990129830E+03 -0.53324722195E+03  0.14454154007E+04  0.25500000920E-02 0. -1.
       -2    1    3    3    0  502 -0.12387799324E+04  0.51990129830E+03  0.85998210923E+03  0.15951308125E+04  0.25500000920E-02 0.  1.
</event>
<event>
 5   0  0.1880301E-06  0.3448529E+04  0.7818609E-02  0.8126097E-01
       -2   -1    0    0    0  501  0.00000000000E+00  0.00000000000E+00  0.15420076565E+04  0.15420076565E+04  0.25500000920E-02 0.  1.
        2   -1    0    0  501    0  0.00000000000E+00  0.00000000000E+00 -0.19280634105E+04  0.19280634105E+04  0.25500000920E-02 0. -1.
    10030    2    1    2    0    0  0.00000000000E+00  0.00000000000E+00 -0.38605575405E+03  0.34700710670E+04  0.34485292756E+04 0.  0.
        4    1    3    3  502    0  0.12576782629E+04 -0.37899972300E+01 -0.13799374874E+04  0.18670827671E+04  0.12699999809E+01 0. -1.
       -4    1    3    3    0  502 -0.12576782629E+04  0.37899972300E+01  0.99388173339E+03  0.16029883000E+04  0.12699999809E+01 0.  1.
</event>
<event>
 5   0  0.1339844E-06  0.3384186E+04  0.7818609E-02  0.8141799E-01
        2   -1    0    0  501    0  0.00000000000E+00  0.00000000000E+00  0.22572603188E+04  0.22572603188E+04  0.25500000920E-02 0. -1.
       -2   -1    0    0    0  501  0.00000000000E+00  0.00000000000E+00 -0.12684308357E+04  0.12684308357E+04  0.25500000920E-02 0.  1.
    10030    2    1    2    0    0  0.00000000000E+00  0.00000000000E+00  0.98882948312E+03  0.35256911545E+04  0.33841859243E+04 0.  0.
        3    1    3    3  502    0 -0.60764922152E+03  0.66401743050E+03 -0.99833442666E+03  0.13441831579E+04  0.10100000352E+00 0.  1.
       -3    1    3    3    0  502  0.60764922152E+03 -0.66401743050E+03  0.19871639098E+04  0.21815079965E+04  0.10100000352E+00 0. -1.
</event>
<event>
 5   0  0.6134625E-07  0.3333860E+04  0.7818609E-02  0.8154333E-01
        1   -1    0    0  501    0  0.00000000000E+00  0.00000000000E+00  0.21894557301E+04  0.21894557301E+04  0.50400001928E-02 0.  1.
       -1   -1    0    0    0  501  0.00000000000E+00  0.00000000000E+00 -0.12691078772E+04  0.12691078772E+04  0.50400001928E-02 0. -1.
    10030    2    1    2    0    0  0.00000000000E+00  0.00000000000E+00  0.92034785294E+03  0.34585636073E+04  0.33338599333E+04 0.  0.
        1    1    3    3  502    0  0.82587216534E+03  0.59997827619E+03 -0.90692647290E+03  0.13654868702E+04  0.50400001928E-02 0. -1.
       -1    1    3    3    0  502 -0.82587216534E+03 -0.59997827619E+03  0.18272743258E+04  0.20930767371E+04  0.50400001928E-02 0.  1.
</event>
<event>
 5   0  0.6134625E-07  0.2924576E+04  0.7818609E-02  0.8265603E-01
        1   -1    0    0  501    0  0.00000000000E+00  0.00000000000E+00  0.17616470385E+04  0.17616470386E+04  0.50400001928E-02 0.  1.
       -1   -1    0    0    0  501  0.00000000000E+00  0.00000000000E+00 -0.12137994089E+04  0.12137994089E+04  0.50400001928E-02 0. -1.
    10030    2    1    2    0    0  0.00000000000E+00  0.00000000000E+00  0.54784762964E+03  0.29754464475E+04  0.29245759584E+04 0.  0.
        5    1    3    3  502    0 -0.44965893405E+03 -0.59368972490E+03  0.15542258772E+04  0.17234560667E+04  0.46999998093E+01 0.  1.
       -5    1    3    3    0  502  0.44965893405E+03  0.59368972490E+03 -0.10063782476E+04  0.12519903808E+04  0.46999998093E+01 0. -1.
</event>
<event>
 5   0  0.6134625E-07  0.3413595E+04  0.7818609E-02  0.8134578E-01
        1   -1    0    0  501    0  0.00000000000E+00  0.00000000000E+00  0.24815745740E+04  0.24815745740E+04  0.50400001928E-02 0.  1.
       -1   -1    0    0    0  501  0.00000000000E+00  0.00000000000E+00 -0.11739149755E+04  0.11739149755E+04  0.50400001928E-02 0. -1.
    10030    2    1    2    0    0  0.00000000000E+00  0.00000000000E+00  0.13076595985E+04  0.36554895495E+04  0.34135949117E+04 0.  0.
        5    1    3    3  502    0  0.48811484367E+03  0.15375499207E+04  0.12508482690E+04  0.20413131414E+04  0.46999998093E+01 0.  1.
       -5    1    3    3    0  502 -0.48811484367E+03 -0.15375499207E+04  0.56811329540E+02  0.16141764081E+04  0.46999998093E+01 0. -1.
</event>
<event>
 5   0  0.1880301E-06  0.3440434E+04  0.7818609E-02  0.8128053E-01
       -2   -1    0    0    0  501  0.00000000000E+00  0.00000000000E+00  0.11663463234E+04  0.11663463234E+04  0.25500000920E-02 0. -1.
        2   -1    0    0  501    0  0.00000000000E+00  0.00000000000E+00 -0.25371083529E+04  0.25371083529E+04  0.25500000920E-02 0.  1.
    10030    2    1    2    0    0  0.00000000000E+00  0.00000000000E+00 -0.13707620295E+04  0.37034546763E+04  0.34404342746E+04 0.  0.
        4    1    3    3  502    0  0.97886482424E+03  0.73464770847E+03  0.61586011512E+03  0.13700981330E+04  0.12699999809E+01 0. -1.
       -4    1    3    3    0  502 -0.97886482424E+03 -0.73464770847E+03 -0.19866221447E+04  0.23333565433E+04  0.12699999809E+01 0.  1.
</event>
<event>
 5   0  0.1797075E-06  0.2605414E+04  0.7818609E-02  0.8366365E-01
       -2   -1    0    0    0  501  0.00000000000E+00  0.00000000000E+00  0.58198377325E+03  0.58198377326E+03  0.25500000920E-02 0. -1.
        2   -1    0    0  501    0  0.00000000000E+00  0.00000000000E+00 -0.29159671066E+04  0.29159671066E+04  0.25500000920E-02 0.  1.
    10030    2    1    2    0    0  0.00000000000E+00  0.00000000000E+00 -0.23339833333E+04  0.34979508799E+04  0.26054140089E+04 0.  0.
        2    1    3    3  502    0 -0.65533859591E+03  0.34558530550E+03  0.27159435242E+03  0.78908894996E+03  0.25500000920E-02 0. -1.
       -2    1    3    3    0  502  0.65533859591E+03 -0.34558530550E+03 -0.26055776858E+04  0.27088619299E+04  0.25500000920E-02 0.  1.
</event>
<event>
 5   0  0.1911477E-06  0.3352611E+04  0.7818609E-02  0.8149636E-01
        2   -1    0    0  501    0  0.00000000000E+00  0.00000000000E+00  0.23083210160E+04  0.23083210160E+04  0.25500000920E-02 0.  1.
       -2   -1    0    0    0  501  0.00000000000E+00  0.00000000000E+00 -0.12173347598E+04  0.12173347598E+04  0.25500000920E-02 0. -1.
    10030    2    1    2    0    0  0.00000000000E+00  0.00000000000E+00  0.10909862562E+04  0.35256557758E+04  0.33526105706E+04 0.  0.
        5    1    3    3  502    0 -0.38430909901E+03 -0.27454962852E+03 -0.11459100819E+04  0.12394365607E+04  0.46999998093E+01 0. -1.
       -5    1    3    3    0  502  0.38430909901E+03  0.27454962852E+03  0.22368963381E+04  0.22862192151E+04  0.46999998093E+01 0.  1.
</event>
<event>
 5   0  0.1911477E-06  0.2502803E+04  0.7818609E-02  0.8401988E-01
       -2   -1    0    0    0  501  0.00000000000E+00  0.00000000000E+00  0.80006265801E+03  0.80006265802E+03  0.25500000920E-02 0. -1.
        2   -1    0    0  501    0  0.00000000000E+00  0.00000000000E+00 -0.19573543813E+04  0.19573543813E+04  0.25500000920E-02 0.  1.
    10030    2    1    2    0    0  0.00000000000E+00  0.00000000000E+00 -0.11572917233E+04  0.27574170393E+04  0.25028033474E+04 0.  0.
        5    1    3    3  502    0  0.34440765551E+03 -0.86161226793E+03 -0.15037012509E+04  0.17669555386E+04  0.46999998093E+01 0.  1.
       -5    1    3    3    0  502 -0.34440765551E+03  0.86161226793E+03  0.34640952768E+03  0.99046150066E+03  0.46999998093E+01 0. -1.
</event>
<event>
 5   0  0.1948507E-06  0.3383034E+04  0.7818609E-02  0.8142083E-01
       -2   -1    0    0    0  501  0.00000000000E+00  0.00000000000E+00  0.13085847501E+04  0.13085847501E+04  0.25500000920E-02 0.  1.
        2   -1    0    0  501    0  0.00000000000E+00  0.00000000000E+00 -0.21865073414E+04  0.21865073414E+04  0.25500000920E-02 0. -1.
    10030    2    1    2    0    0  0.00000000000E+00  0.00000000000E+00 -0.87792259130E+03  0.34950920915E+04  0.33830342374E+04 0.  0.
        1    1    3    3  502    0 -0.31104850937E+03  0.14330838690E+04 -0.13099460356E+04  0.19663263124E+04  0.50400001928E-02 0. -1.
       -1    1    3    3    0  502  0.31104850937E+03 -0.14330838690E+04  0.43202344430E+03  0.15287657791E+04  0.50400001928E-02 0.  1.
</event>
<event>
 5   0  0.6146388E-07  0.3391658E+04  0.7818609E-02  0.8139957E-01
        1   -1    0    0  501    0  0.00000000000E+00  0.00000000000E+00  0.27004605389E+04  0.27004605389E+04  0.50400001928E-02 0.  1.
       -1   -1    0    0    0  501  0.00000000000E+00  0.00000000000E+00 -0.10649425830E+04  0.10649425830E+04  0.50400001928E-02 0. -1.
    10030    2    1    2    0    0  0.00000000000E+00  0.00000000000E+00  0.16355179559E+04  0.37654031219E+04  0.33916576606E+04 0.  0.
        4    1    3    3  502    0  0.14756559176E+04 -0.74478268457E+03  0.12384222611E+04  0.20654183461E+04  0.12699999809E+01 0.  1.
       -4    1    3    3    0  502 -0.14756559176E+04  0.74478268457E+03  0.39709569481E+03  0.16999847759E+04  0.12699999809E+01 0. -1.
</event>
<event>
 5   0  0.6134625E-07  0.3389777E+04  0.7818609E-02  0.8140420E-01
       -1   -1    0    0    0  501  0.00000000000E+00  0.00000000000E+00  0.10928079981E+04  0.10928079981E+04  0.50400001928E-02 0.  1.
        1   -1    0    0  501    0  0.00000000000E+00  0.00000000000E+00 -0.26286834099E+04  0.26286834099E+04  0.50400001928E-02 0. -1.
    10030    2    1    2    0    0  0.00000000000E+00  0.00000000000E+00 -0.15358754118E+04  0.37214914079E+04  0.33897765441E+04 0.  0.
        5    1    3    3  502    0  0.63571609731E+03  0.14322288907E+04 -0.58812204535E+02  0.15680865784E+04  0.46999998093E+01 0.  1.
       -5    1    3    3    0  502 -0.63571609731E+03 -0.14322288907E+04 -0.14770632073E+04  0.21534048296E+04  0.46999998093E+01 0. -1.
</event>
<event>
 5   0  0.6146388E-07  0.3284614E+04  0.7818609E-02  0.8166821E-01
       -1   -1    0    0    0  501  0.00000000000E+00  0.00000000000E+00  0.13193578839E+04  0.13193578839E+04  0.50400001928E-02 0.  1.
        1   -1    0    0  501    0  0.00000000000E+00  0.00000000000E+00 -0.20443071849E+04  0.20443071849E+04  0.50400001928E-02 0. -1.
    10030    2    1    2    0    0  0.00000000000E+00  0.00000000000E+00 -0.72494930103E+03  0.33636650688E+04  0.32846143162E+04 0.  0.
        4    1    3    3  502    0  0.13087347294E+04 -0.52527444759E+03 -0.12244394096E+04  0.18676063070E+04  0.12699999809E+01 0. -1.
       -4    1    3    3    0  502 -0.13087347294E+04  0.52527444759E+03  0.49949010857E+03  0.14960587618E+04  0.12699999809E+01 0.  1.
</event>
<event>
 5   0  0.6134625E-07  0.3365100E+04  0.7818609E-02  0.8146526E-01
       -1   -1    0    0    0  501  0.00000000000E+00  0.00000000000E+00  0.13199904529E+04  0.13199904529E+04  0.50400001928E-02 0.  1.
        1   -1    0    0  501    0  0.00000000000E+00  0.00000000000E+00 -0.21446926186E+04  0.21446926187E+04  0.50400001928E-02 0. -1.
    10030    2    1    2    0    0  0.00000000000E+00  0.00000000000E+00 -0.82470216571E+03  0.34646830716E+04  0.33650995713E+04 0.  0.
        3    1    3    3  502    0 -0.34953590589E+03  0.15691272630E+04  0.98972281125E+02  0.16106306962E+04  0.10100000352E+00 0. -1.
       -3    1    3    3    0  502  0.34953590589E+03 -0.15691272630E+04 -0.92367444683E+03  0.18540523754E+04  0.10100000352E+00 0.  1.
</event>
<event>
 5   0  0.1948507E-06  0.3367765E+04  0.7818609E-02  0.8145863E-01
       -2   -1    0    0    0  501  0.00000000000E+00  0.00000000000E+00  0.21210052872E+04  0.21210052872E+04  0.25500000920E-02 0.  1.
        2   -1    0    0  501    0  0.00000000000E+00  0.00000000000E+00 -0.13368474519E+04  0.13368474519E+04  0.25500000920E-02 0. -1.
    10030    2    1    2    0    0  0.00000000000E+00  0.00000000000E+00  0.78415783531E+03  0.34578527391E+04  0.33677651424E+04 0.  0.
        1    1    3    3  502    0 -0.15668820026E+04 -0.55922245651E+03  0.12510112702E+03  0.16683822278E+04  0.50400001928E-02 0. -1.
       -1    1    3    3    0  502  0.15668820026E+04  0.55922245651E+03  0.65905670828E+03  0.17894705113E+04  0.50400001928E-02 0.  1.
</event>
<event>
 5   0  0.1948507E-06  0.3368644E+04  0.7818609E-02  0.8145645E-01
       -2   -1    0    0    0  501  0.00000000000E+00  0.00000000000E+00  0.17236843248E+04  0.17236843248E+04  0.25500000920E-02 0. -1.
        2   -1    0    0  501    0  0.00000000000E+00  0.00000000000E+00 -0.16458588867E+04  0.16458588867E+04  0.25500000920E-02 0.  1.
    10030    2    1    2    0    0  0.00000000000E+00  0.00000000000E+00  0.77825438131E+02  0.33695432115E+04  0.33686443349E+04 0.  0.
        1    1    3    3  502    0 -0.34531759364E+03 -0.95536767859E+03 -0.13049373147E+04  0.16537330610E+04  0.50400001928E-02 0.  1.
       -1    1    3    3    0  502  0.34531759364E+03  0.95536767859E+03  0.13827627528E+04  0.17158101504E+04  0.50400001928E-02 0. -1.
</event>
<event>
 5   0  0.6134625E-07  0.3493000E+04  0.7818609E-02  0.8115451E-01
        1   -1    0    0  501    0  0.00000000000E+00  0.00000000000E+00  0.16160752848E+04  0.16160752848E+04  0.50400001928E-02 0.  1.
       -1   -1    0    0    0  501  0.00000000000E+00  0.00000000000E+00 -0.18874508233E+04  0.18874508233E+04  0.50400001928E-02 0. -1.
    10030    2    1    2    0    0  0.00000000000E+00  0.00000000000E+00 -0.27137553846E+03  0.35035261081E+04  0.34930002158E+04 0.  0.
        5    1    3    3  502    0  0.63226050906E+03  0.11338607020E+02  0.14972102679E+04  0.16252823114E+04  0.46999998093E+01 0.  1.
       -5    1    3    3    0  502 -0.63226050906E+03 -0.11338607020E+02 -0.17685858064E+04  0.18782437967E+04  0.46999998093E+01 0. -1.
</event>
<event>
 5   0  0.1880301E-06  0.3426527E+04  0.7818609E-02  0.8131426E-01
       -2   -1    0    0    0  501  0.00000000000E+00  0.00000000000E+00  0.32075891866E+04  0.32075891866E+04  0.25500000920E-02 0. -1.
        2   -1    0    0  501    0  0.00000000000E+00  0.00000000000E+00 -0.91510222377E+03  0.91510222378E+03  0.25500000920E-02 0.  1.
    10030    2    1    2    0    0  0.00000000000E+00  0.00000000000E+00  0.22924869628E+04  0.41226914104E+04  0.34265271034E+04 0.  0.
        4    1    3    3  502    0  0.18340500531E+03 -0.79274069682E+03 -0.66778883640E+03  0.10526246963E+04  0.12699999809E+01 0.  1.
       -4    1    3    3    0  502 -0.18340500531E+03  0.79274069682E+03  0.29602757992E+04  0.30700667141E+04  0.12699999809E+01 0. -1.
</event>
<event>
 5   0  0.6218695E-07  0.3423301E+04  0.7818609E-02  0.8132211E-01
       -1   -1    0    0    0  501  0.00000000000E+00  0.00000000000E+00  0.22373856953E+04  0.22373856953E+04  0.50400001928E-02 0.  1.
        1   -1    0    0  501    0  0.00000000000E+00  0.00000000000E+00 -0.13094511267E+04  0.13094511267E+04  0.50400001928E-02 0. -1.
    10030    2    1    2    0    0  0.00000000000E+00  0.00000000000E+00  0.92793456867E+03  0.35468368220E+04  0.34233008747E+04 0.  0.
        2    1    3    3  502    0 -0.12086186388E+04 -0.65249652581E+03 -0.59428087554E+03  0.14965562098E+04  0.25500000920E-02 0. -1.
       -2    1    3    3    0  502  0.12086186388E+04  0.65249652581E+03  0.15222154442E+04  0.20502806122E+04  0.25500000920E-02 0.  1.
</event>
<event>
 5   0  0.1339844E-06  0.3569375E+04  0.7818609E-02  0.8097543E-01
        2   -1    0    0  501    0  0.00000000000E+00  0.00000000000E+00  0.16256228855E+04  0.16256228855E+04  0.25500000920E-02 0.  1.
       -2   -1    0    0    0  501  0.00000000000E+00  0.00000000000E+00 -0.19593168590E+04  0.19593168590E+04  0.25500000920E-02 0. -1.
    10030    2    1    2    0    0  0.00000000000E+00  0.00000000000E+00 -0.33369397345E+03  0.35849397445E+04  0.35693754781E+04 0.  0.
        3    1    3    3  502    0 -0.14149405610E+04  0.85312594857E+03 -0.84449612537E+03  0.18555469251E+04  0.10100000352E+00 0. -1.
       -3    1    3    3    0  502  0.14149405610E+04 -0.85312594857E+03  0.51080215192E+03  0.17293928194E+04  0.10100000352E+00 0.  1.
</event>
<event>
 5   0  0.1339844E-06  0.3444810E+04  0.7818609E-02  0.8126995E-01
       -2   -1    0    0    0  501  0.00000000000E+00  0.00000000000E+00  0.20970680205E+04  0.20970680205E+04  0.25500000920E-02 0.  1.
        2   -1    0    0  501    0  0.00000000000E+00  0.00000000000E+00 -0.14146794944E+04  0.14146794944E+04  0.25500000920E-02 0. -1.
    10030    2    1    2    0    0  0.00000000000E+00  0.00000000000E+00  0.68238852605E+03  0.35117475149E+04  0.34448100830E+04 0.  0.
        3    1    3    3  502    0  0.13092122013E+04 -0.20011138757E+03 -0.78138345314E+03  0.15377390112E+04  0.10100000352E+00 0. -1.
       -3    1    3    3    0  502 -0.13092122013E+04  0.20011138757E+03  0.14637719792E+04  0.19740085037E+04  0.10100000352E+00 0.  1.
</event>
<event>
 5   0  0.1339844E-06  0.3412026E+04  0.7818609E-02  0.8134961E-01
       -2   -1    0    0    0  501  0.00000000000E+00  0.00000000000E+00  0.15560064058E+04  0.15560064058E+04  0.25500000920E-02 0. -1.
        2   -1    0    0  501    0  0.00000000000E+00  0.00000000000E+00 -0.18704804854E+04  0.18704804854E+04  0.25500000920E-02 0.  1.
    10030    2    1    2    0    0  0.00000000000E+00  0.00000000000E+00 -0.31447407957E+03  0.34264868912E+04  0.34120255669E+04 0.  0.
        3    1    3    3  502    0  0.93899909197E+03  0.10570397371E+04  0.80149626854E+03  0.16252533893E+04  0.10100000352E+00 0. -1.
       -3    1    3    3    0  502 -0.93899909197E+03 -0.10570397371E+04 -0.11159703481E+04  0.18012335020E+04  0.10100000352E+00 0.  1.
</event>
<event>
 5   0  0.1339844E-06  0.3237994E+04  0.7818609E-02  0.8178854E-01
        2   -1    0    0  501    0  0.00000000000E+00  0.00000000000E+00  0.23907983727E+04  0.23907983727E+04  0.25500000920E-02 0. -1.
       -2   -1    0    0    0  501  0.00000000000E+00  0.00000000000E+00 -0.10963498716E+04  0.10963498716E+04  0.25500000920E-02 0.  1.
    10030    2    1    2    0    0  0.00000000000E+00  0.00000000000E+00  0.12944485011E+04  0.34871482443E+04  0.32379941254E+04 0.  0.
        3    1    3    3  502    0 -0.92261696461E+03 -0.27838682336E+03  0.20482616740E+04  0.22636468767E+04  0.10100000352E+00 0. -1.
       -3    1    3    3    0  502  0.92261696461E+03  0.27838682336E+03 -0.75381317290E+03  0.12235013676E+04  0.10100000352E+00 0.  1.
</event>
<event>
 5   0  0.1797075E-06  0.3411894E+04  0.7818609E-02  0.8134993E-01
        2   -1    0    0  501    0  0.00000000000E+00  0.00000000000E+00  0.18751042862E+04  0.18751042862E+04  0.25500000920E-02 0.  1.
       -2   -1    0    0    0  501  0.00000000000E+00  0.00000000000E+00 -0.15520494928E+04  0.15520494928E+04  0.25500000920E-02 0. -1.
    10030    2    1    2    0    0  0.00000000000E+00  0.00000000000E+00  0.32305479338E+03  0.34271537791E+04  0.34118937008E+04 0.  0.
        2    1    3    3  502    0  0.77695632830E+03  0.88201680613E+03 -0.10803842269E+04  0.15965102130E+04  0.25500000920E-02 0. -1.
       -2    1    3    3    0  502 -0.77695632830E+03 -0.88201680613E+03  0.14034390203E+04  0.18306435661E+04  0.25500000920E-02 0.  1.
</event>
<event>
 5   0  0.1911477E-06  0.3624792E+04  0.7818609E-02  0.8084836E-01
       -2   -1    0    0    0  501  0.00000000000E+00  0.00000000000E+00  0.14032052830E+04  0.14032052830E+04  0.25500000920E-02 0.  1.
        2   -1    0    0  501    0  0.00000000000E+00  0.00000000000E+00 -0.23409118661E+04  0.23409118661E+04  0.25500000920E-02 0. -1.
    10030    2    1    2    0    0  0.00000000000E+00  0.00000000000E+00 -0.93770658314E+03  0.37441171491E+04  0.36247923513E+04 0.  0.
        5    1    3    3  502    0  0.36629434949E+03 -0.14958950940E+04  0.51804892284E+03  0.16248909069E+04  0.46999998093E+01 0. -1.
       -5    1    3    3    0  502 -0.36629434949E+03  0.14958950940E+04 -0.14557555060E+04  0.21192262423E+04  0.46999998093E+01 0.  1.
</event>
<event>
 5   0  0.1797075E-06  0.3474636E+04  0.7818609E-02  0.8119827E-01
       -2   -1    0    0    0  501  0.00000000000E+00  0.00000000000E+00  0.22518894772E+04  0.22518894772E+04  0.25500000920E-02 0.  1.
        2   -1    0    0  501    0  0.00000000000E+00  0.00000000000E+00 -0.13403295678E+04  0.13403295678E+04  0.25500000920E-02 0. -1.
    10030    2    1    2    0    0  0.00000000000E+00  0.00000000000E+00  0.91155990939E+03  0.35922190450E+04  0.34746361247E+04 0.  0.
        2    1    3    3  502    0 -0.12777454461E+03  0.25970576979E+03 -0.13152282938E+04  0.13466992560E+04  0.25500000920E-02 0. -1.
       -2    1    3    3    0  502  0.12777454461E+03 -0.25970576979E+03  0.22267882032E+04  0.22455197891E+04  0.25500000920E-02 0.  1.
</event>
<event>
 5   0  0.1880301E-06  0.3397874E+04  0.7818609E-02  0.8138428E-01
        2   -1    0    0  501    0  0.00000000000E+00  0.00000000000E+00  0.20319522626E+04  0.20319522626E+04  0.25500000920E-02 0. -1.
       -2   -1    0    0    0  501  0.00000000000E+00  0.00000000000E+00 -0.14204997291E+04  0.14204997291E+04  0.25500000920E-02 0.  1.
    10030    2    1    2    0    0  0.00000000000E+00  0.00000000000E+00  0.61145253352E+03  0.34524519917E+04  0.33978744171E+04 0.  0.
        4    1    3    3  502    0 -0.15065585065E+04  0.51301517613E+03  0.90982029458E+03  0.18332151226E+04  0.12699999809E+01 0. -1.
       -4    1    3    3    0  502  0.15065585065E+04 -0.51301517613E+03 -0.29836776105E+03  0.16192368691E+04  0.12699999809E+01 0.  1.
</event>
<event>
 5   0  0.1948507E-06  0.3408001E+04  0.7818609E-02  0.8135945E-01
       -2   -1    0    0    0  501  0.00000000000E+00  0.00000000000E+00  0.12240317199E+04  0.12240317199E+04  0.25500000920E-02 0. -1.
        2   -1    0    0  501    0  0.00000000000E+00  0.00000000000E+00 -0.23721758174E+04  0.23721758174E+04  0.25500000920E-02 0.  1.
    10030    2    1    2    0    0  0.00000000000E+00  0.00000000000E+00 -0.11481440975E+04  0.35962075373E+04  0.34080014353E+04 0.  0.
        1    1    3    3  502    0  0.20833331459E+03 -0.54927027453E+03 -0.22619428598E+04  0.23369822647E+04  0.50400001928E-02 0.  1.
       -1    1    3    3    0  502 -0.20833331459E+03  0.54927027453E+03  0.11137987623E+04  0.12592252727E+04  0.50400001928E-02 0. -1.
</event>
<event>
 5   0  0.6134625E-07  0.3411741E+04  0.7818609E-02  0.8135031E-01
        1   -1    0    0  501    0  0.00000000000E+00  0.00000000000E+00  0.20456501262E+04  0.20456501262E+04  0.50400001928E-02 0.  1.
       -1   -1    0    0    0  501  0.00000000000E+00  0.00000000000E+00 -0.14225277654E+04  0.14225277654E+04  0.50400001928E-02 0. -1.
    10030    2    1    2    0    0  0.00000000000E+00  0.00000000000E+00  0.62312236082E+03  0.34681778916E+04  0.34117409648E+04 0.  0.
        1    1    3    3  502    0 -0.30751511659E+03  0.13832660353E+04 -0.65388808916E+03  0.15606281122E+04  0.50400001928E-02 0. -1.
       -1    1    3    3    0  502  0.30751511659E+03 -0.13832660353E+04  0.12770104500E+04  0.19075497794E+04  0.50400001928E-02 0.  1.
</event>
<event>
 5   0  0.6134625E-07  0.3316855E+04  0.7818609E-02  0.8158620E-01
       -1   -1    0    0    0  501  0.00000000000E+00  0.00000000000E+00  0.17621982024E+04  0.17621982024E+04  0.50400001928E-02 0. -1.
        1   -1    0    0  501    0  0.00000000000E+00  0.00000000000E+00 -0.15607676561E+04  0.15607676561E+04  0.50400001928E-02 0.  1.
    10030    2    1    2    0    0  0.00000000000E+00  0.00000000000E+00  0.20143054627E+03  0.33229658585E+04  0.33168551117E+04 0.  0.
        3    1    3    3  502    0  0.78929051453E+03  0.14429744821E+04  0.31377365812E+03  0.16743980384E+04  0.10100000352E+00 0.  1.
       -3    1    3    3    0  502 -0.78929051453E+03 -0.14429744821E+04 -0.11234311184E+03  0.16485678201E+04  0.10100000352E+00 0. -1.
</event>
<event>
 5   0  0.1911477E-06  0.3379679E+04  0.7818609E-02  0.8142912E-01
       -2   -1    0    0    0  501  0.00000000000E+00  0.00000000000E+00  0.13809135156E+04  0.13809135156E+04  0.25500000920E-02 0. -1.
        2   -1    0    0  501    0  0.00000000000E+00  0.00000000000E+00 -0.20678753869E+04  0.20678753869E+04  0.25500000920E-02 0.  1.
    10030    2    1    2    0    0  0.00000000000E+00  0.00000000000E+00 -0.68696187135E+03  0.34487889025E+04  0.33796787246E+04 0.  0.
        5    1    3    3  502    0  0.22286359683E+03 -0.70504709528E+03  0.12070557172E+04  0.14155441299E+04  0.46999998093E+01 0. -1.
       -5    1    3    3    0  502 -0.22286359683E+03  0.70504709528E+03 -0.18940175886E+04  0.20332447726E+04  0.46999998093E+01 0.  1.
</event>
<event>
 5   0  0.6134625E-07  0.3410835E+04  0.7818609E-02  0.8135252E-01
       -1   -1    0    0    0  501  0.00000000000E+00  0.00000000000E+00  0.16828048648E+04  0.16828048648E+04  0.50400001928E-02 0. -1.
        1   -1    0    0  501    0  0.00000000000E+00  0.00000000000E+00 -0.17283339914E+04  0.17283339914E+04  0.50400001928E-02 0.  1.
    10030    2    1    2    0    0  0.00000000000E+00  0.00000000000E+00 -0.45529126580E+02  0.34111388562E+04  0.34108349997E+04 0.  0.
        5    1    3    3  502    0 -0.45660531509E+03 -0.63485995095E+03  0.14929202477E+04  0.16853392913E+04  0.46999998093E+01 0. -1.
       -5    1    3    3    0  502  0.45660531509E+03  0.63485995095E+03 -0.15384493742E+04  0.17257995649E+04  0.46999998093E+01 0.  1.
</event>
<event>
 5   0  0.1948507E-06  0.3491401E+04  0.7818609E-02  0.8115831E-01
       -2   -1    0    0    0  501  0.00000000000E+00  0.00000000000E+00  0.19819680813E+04  0.19819680813E+04  0.25500000920E-02 0. -1.
        2   -1    0    0  501    0  0.00000000000E+00  0.00000000000E+00 -0.15375979988E+04  0.15375979988E+04  0.25500000920E-02 0.  1.
    10030    2    1    2    0    0  0.00000000000E+00  0.00000000000E+00  0.44437008244E+03  0.35195660801E+04  0.34914009541E+04 0.  0.
        1    1    3    3  502    0 -0.15771568345E+04 -0.50429128148E+03 -0.33521017846E+03  0.16894079557E+04  0.50400001928E-02 0. -1.
       -1    1    3    3    0  502  0.15771568345E+04  0.50429128148E+03  0.77958026090E+03  0.18301581244E+04  0.50400001928E-02 0.  1.
</event>
<event>
 5   0  0.1797075E-06  0.3340809E+04  0.7818609E-02  0.8152588E-01
        2   -1    0    0  501    0  0.00000000000E+00  0.00000000000E+00  0.95989958631E+03  0.95989958632E+03  0.25500000920E-02 0. -1.
       -2   -1    0    0    0  501  0.00000000000E+00  0.00000000000E+00 -0.29068158472E+04  0.29068158472E+04  0.25500000920E-02 0.  1.
    10030    2    1    2    0    0  0.00000000000E+00  0.00000000000E+00 -0.19469162609E+04  0.38667154335E+04  0.33408090812E+04 0.  0.
        2    1    3    3  502    0  0.48434357460E+02  0.10427854989E+04  0.53585504615E+03  0.11734087583E+04  0.25500000920E-02 0. -1.
       -2    1    3    3    0  502 -0.48434357460E+02 -0.10427854989E+04 -0.24827713071E+04  0.26933066752E+04  0.25500000920E-02 0.  1.
</event>
<event>
 5   0  0.6146388E-07  0.3263002E+04  0.7818609E-02  0.8172374E-01
        1   -1    0    0  501    0  0.00000000000E+00  0.00000000000E+00  0.15498230817E+04  0.15498230817E+04  0.50400001928E-02 0.  1.
       -1   -1    0    0    0  501  0.00000000000E+00  0.00000000000E+00 -0.17174830431E+04  0.17174830431E+04  0.50400001928E-02 0. -1.
    10030    2    1    2    0    0  0.00000000000E+00  0.00000000000E+00 -0.16765996144E+03  0.32673061248E+04  0.32630016013E+04 0.  0.
        4    1    3    3  502    0  0.70562308937E+03  0.14514795679E+04 -0.32309366516E+03  0.16459307427E+04  0.12699999809E+01 0. -1.
       -4    1    3    3    0  502 -0.70562308937E+03 -0.14514795679E+04  0.15543370371E+03  0.16213753821E+04  0.12699999809E+01 0.  1.
</event>
<event>
 5   0  0.6218695E-07  0.3432168E+04  0.7818609E-02  0.8130056E-01
        1   -1    0    0  501    0  0.00000000000E+00  0.00000000000E+00  0.17441798167E+04  0.17441798167E+04  0.50400001928E-02 0.  1.
       -1   -1    0    0    0  501  0.00000000000E+00  0.00000000000E+00 -0.16884405493E+04  0.16884405493E+04  0.50400001928E-02 0. -1.
    10030    2    1    2    0    0  0.00000000000E+00  0.00000000000E+00  0.55739267444E+02  0.34326203661E+04  0.34321677860E+04 0.  0.
        2    1    3    3  502    0  0.11810676211E+04  0.12116410532E+04 -0.25843575242E+03  0.17116611246E+04  0.25500000920E-02 0.  1.
       -2    1    3    3    0  502 -0.11810676211E+04 -0.12116410532E+04  0.31417501987E+03  0.17209592414E+04  0.25500000920E-02 0. -1.
</event>
<event>
 5   0  0.6218695E-07  0.3402196E+04  0.7818609E-02  0.8137368E-01
       -1   -1    0    0    0  501  0.00000000000E+00  0.00000000000E+00  0.14574088470E+04  0.14574088470E+04  0.50400001928E-02 0. -1.
        1   -1    0    0  501    0  0.00000000000E+00  0.00000000000E+00 -0.19855332049E+04  0.19855332049E+04  0.50400001928E-02 0.  1.
    10030    2    1    2    0    0  0.00000000000E+00  0.00000000000E+00 -0.52812435794E+03  0.34429420519E+04  0.34021955610E+04 0.  0.
        2    1    3    3  502    0  0.12048264964E+04 -0.11962994329E+04 -0.15795201637E+03  0.17051944344E+04  0.25500000920E-02 0. -1.
       -2    1    3    3    0  502 -0.12048264964E+04  0.11962994329E+04 -0.37017234157E+03  0.17377476175E+04  0.25500000920E-02 0.  1.
</event>
<event>
 5   0  0.1797075E-06  0.3382120E+04  0.7818609E-02  0.8142309E-01
       -2   -1    0    0    0  501  0.00000000000E+00  0.00000000000E+00  0.11486739714E+04  0.11486739714E+04  0.25500000920E-02 0.  1.
        2   -1    0    0  501    0  0.00000000000E+00  0.00000000000E+00 -0.24895517298E+04  0.24895517298E+04  0.25500000920E-02 0. -1.
    10030    2    1    2    0    0  0.00000000000E+00  0.00000000000E+00 -0.13408777584E+04  0.36382257012E+04  0.33821196149E+04 0.  0.
        2    1    3    3  502    0 -0.33785135272E+03  0.85835601624E+02  0.11096063430E+04  0.11630724497E+04  0.25500000920E-02 0.  1.
       -2    1    3    3    0  502  0.33785135272E+03 -0.85835601624E+02 -0.24504841013E+04  0.24751532514E+04  0.25500000920E-02 0. -1.
</event>
<event>
 5   0  0.6146388E-07  0.3396105E+04  0.7818609E-02  0.8138863E-01
        1   -1    0    0  501    0  0.00000000000E+00  0.00000000000E+00  0.25622364498E+04  0.25622364499E+04  0.50400001928E-02 0.  1.
       -1   -1    0    0    0  501  0.00000000000E+00  0.00000000000E+00 -0.11253378157E+04  0.11253378157E+04  0.50400001928E-02 0. -1.
    10030    2    1    2    0    0  0.00000000000E+00  0.00000000000E+00  0.14368986341E+04  0.36875742656E+04  0.33961045743E+04 0.  0.
        4    1    3    3  502    0 -0.69141168047E+03 -0.14003562104E+04 -0.53425140864E+01  0.15617547129E+04  0.12699999809E+01 0. -1.
       -4    1    3    3    0  502  0.69141168047E+03  0.14003562104E+04  0.14422411482E+04  0.21258195527E+04  0.12699999809E+01 0.  1.
</event>
<event>
 5   0  0.6218695E-07  0.3452832E+04  0.7818609E-02  0.8125060E-01
       -1   -1    0    0    0  501  0.00000000000E+00  0.00000000000E+00  0.11146946247E+04  0.11146946247E+04  0.50400001928E-02 0. -1.
        1   -1    0    0  501    0  0.00000000000E+00  0.00000000000E+00 -0.26738375138E+04  0.26738375138E+04  0.50400001928E-02 0.  1.
    10030    2    1    2    0    0  0.00000000000E+00  0.00000000000E+00 -0.15591428891E+04  0.37885321385E+04  0.34528320572E+04 0.  0.
        2    1    3    3  502    0  0.55638327788E+03  0.15119408402E+04 -0.98774905943E+02  0.16140891977E+04  0.25500000920E-02 0. -1.
       -2    1    3    3    0  502 -0.55638327788E+03 -0.15119408402E+04 -0.14603679831E+04  0.21744429407E+04  0.25500000920E-02 0.  1.
</event>
<event>
 5   0  0.6134625E-07  0.3429545E+04  0.7818609E-02  0.8130693E-01
       -1   -1    0    0    0  501  0.00000000000E+00  0.00000000000E+00  0.11840101808E+04  0.11840101808E+04  0.50400001928E-02 0.  1.
        1   -1    0    0  501    0  0.00000000000E+00  0.00000000000E+00 -0.24834617096E+04  0.24834617096E+04  0.50400001928E-02 0. -1.
    10030    2    1    2    0    0  0.00000000000E+00  0.00000000000E+00 -0.12994515289E+04  0.36674718905E+04  0.34295445458E+04 0.  0.
        3    1    3    3  502    0 -0.94729163215E+03  0.14151553144E+04 -0.86471534846E+03  0.19099106378E+04  0.10100000352E+00 0. -1.
       -3    1    3    3    0  502  0.94729163215E+03 -0.14151553144E+04 -0.43473618039E+03  0.17575612527E+04  0.10100000352E+00 0.  1.
</event>
<event>
 5   0  0.6146388E-07  0.3294264E+04  0.7818609E-02  0.8164356E-01
       -1   -1    0    0    0  501  0.00000000000E+00  0.00000000000E+00  0.14988725919E+04  0.14988725920E+04  0.50400001928E-02 0. -1.
        1   -1    0    0  501    0  0.00000000000E+00  0.00000000000E+00 -0.18100566492E+04  0.18100566492E+04  0.50400001928E-02 0.  1.
    10030    2    1    2    0    0  0.00000000000E+00  0.00000000000E+00 -0.31118405722E+03  0.33089292411E+04  0.32942642889E+04 0.  0.
        4    1    3    3  502    0  0.19581589871E+03  0.10263620417E+04 -0.14345551599E+04  0.17747430875E+04  0.12699999809E+01 0.  1.
       -4    1    3    3    0  502 -0.19581589871E+03 -0.10263620417E+04  0.11233711026E+04  0.15341861537E+04  0.12699999809E+01 0. -1.
</event>
<event>
 5   0  0.1880301E-06  0.3255019E+04  0.7818609E-02  0.8174436E-01
        2   -1    0    0  501    0  0.00000000000E+00  0.00000000000E+00  0.17514622355E+04  0.17514622355E+04  0.25500000920E-02 0.  1.
       -2   -1    0    0    0  501  0.00000000000E+00  0.00000000000E+00 -0.15123286733E+04  0.15123286733E+04  0.25500000920E-02 0. -1.
    10030    2    1    2    0    0  0.00000000000E+00  0.00000000000E+00  0.23913356214E+03  0.32637909088E+04  0.32550186230E+04 0.  0.
        4    1    3    3  502    0  0.72704919351E+03  0.61031580651E+02  0.15782931657E+04  0.17387743711E+04  0.12699999809E+01 0.  1.
       -4    1    3    3    0  502 -0.72704919351E+03 -0.61031580651E+02 -0.13391596036E+04  0.15250165378E+04  0.12699999809E+01 0. -1.
</event>
<event>
 5   0  0.1797075E-06  0.3387791E+04  0.7818609E-02  0.8140909E-01
        2   -1    0    0  501    0  0.00000000000E+00  0.00000000000E+00  0.19044642871E+04  0.19044642871E+04  0.25500000920E-02 0. -1.
       -2   -1    0    0    0  501  0.00000000000E+00  0.00000000000E+00 -0.15066085843E+04  0.15066085843E+04  0.25500000920E-02 0.  1.
    10030    2    1    2    0    0  0.00000000000E+00  0.00000000000E+00  0.39785570276E+03  0.34110728714E+04  0.33877911644E+04 0.  0.
        2    1    3    3  502    0  0.31693854325E+03  0.16600195575E+04  0.83390537741E+02  0.16920605643E+04  0.25500000920E-02 0. -1.
       -2    1    3    3    0  502 -0.31693854325E+03 -0.16600195575E+04  0.31446516502E+03  0.17190123070E+04  0.25500000920E-02 0.  1.
</event>
<event>
 5   0  0.1339844E-06  0.3410075E+04  0.7818609E-02  0.8135438E-01
       -2   -1    0    0    0  501  0.00000000000E+00  0.00000000000E+00  0.24103555798E+04  0.24103555798E+04  0.25500000920E-02 0. -1.
        2   -1    0    0  501    0  0.00000000000E+00  0.00000000000E+00 -0.12061092237E+04  0.12061092237E+04  0.25500000920E-02 0.  1.
    10030    2    1    2    0    0  0.00000000000E+00  0.00000000000E+00  0.12042463561E+04  0.36164648034E+04  0.34100745429E+04 0.  0.
        3    1    3    3  502    0 -0.61859428613E+03  0.39802810047E+03  0.22334233182E+04  0.23514389187E+04  0.10100000352E+00 0. -1.
       -3    1    3    3    0  502  0.61859428613E+03 -0.39802810047E+03 -0.10291769621E+04  0.12650258848E+04  0.10100000352E+00 0.  1.
</event>
<event>
 5   0  0.1339844E-06  0.3401767E+04  0.7818609E-02  0.8137473E-01
       -2   -1    0    0    0  501  0.00000000000E+00  0.00000000000E+00  0.22854954567E+04  0.22854954567E+04  0.25500000920E-02 0. -1.
        2   -1    0    0  501    0  0.00000000000E+00  0.00000000000E+00 -0.12658106087E+04  0.12658106087E+04  0.25500000920E-02 0.  1.
    10030    2    1    2    0    0  0.00000000000E+00  0.00000000000E+00  0.10196848480E+04  0.35513060654E+04  0.34017668322E+04 0.  0.
        3    1    3    3  502    0  0.25903360842E+03 -0.56907713848E+03  0.21611659811E+04  0.22497967926E+04  0.10100000352E+00 0. -1.
       -3    1    3    3    0  502 -0.25903360842E+03  0.56907713848E+03 -0.11414811331E+04  0.13015092728E+04  0.10100000352E+00 0.  1.
</event>
<event>
 5   0  0.1948507E-06  0.3382543E+04  0.7818609E-02  0.8142204E-01
        2   -1    0    0  501    0  0.00000000000E+00  0.00000000000E+00  0.19334661715E+04  0.19334661715E+04  0.25500000920E-02 0.  1.
       -2   -1    0    0    0  501  0.00000000000E+00  0.00000000000E+00 -0.14794155450E+04  0.14794155450E+04  0.25500000920E-02 0. -1.
    10030    2    1    2    0    0  0.00000000000E+00  0.00000000000E+00  0.45405062648E+03  0.34128817165E+04  0.33825433684E+04 0.  0.
        1    1    3    3  502    0  0.12567569622E+04  0.10860592967E+04 -0.94323109209E+02  0.16636885848E+04  0.50400001928E-02 0. -1.
       -1    1    3    3    0  502 -0.12567569622E+04 -0.10860592967E+04  0.54837373569E+03  0.17491931317E+04  0.50400001928E-02 0.  1.
</event>
<event>
 5   0  0.6134625E-07  0.3439509E+04  0.7818609E-02  0.8128277E-01
       -1   -1    0    0    0  501  0.00000000000E+00  0.00000000000E+00  0.15820932620E+04  0.15820932620E+04  0.50400001928E-02 0.  1.
        1   -1    0    0  501    0  0.00000000000E+00  0.00000000000E+00 -0.18693935755E+04  0.18693935755E+04  0.50400001928E-02 0. -1.
    10030    2    1    2    0    0  0.00000000000E+00  0.00000000000E+00 -0.28730031349E+03  0.34514868376E+04  0.34395086742E+04 0.  0.
        3    1    3    3  502    0  0.44912530989E+03 -0.88839669456E+03 -0.15508864529E+04  0.18428811765E+04  0.10100000352E+00 0. -1.
       -3    1    3    3    0  502 -0.44912530989E+03  0.88839669456E+03  0.12635861394E+04  0.16086056610E+04  0.10100000352E+00 0.  1.
</event>
<event>
 5   0  0.6134625E-07  0.3453536E+04  0.7818609E-02  0.8124891E-01
       -1   -1    0    0    0  501  0.00000000000E+00  0.00000000000E+00  0.13436593277E+04  0.13436593277E+04  0.50400001928E-02 0. -1.
        1   -1    0    0  501    0  0.00000000000E+00  0.00000000000E+00 -0.22191093382E+04  0.22191093382E+04  0.50400001928E-02 0.  1.
    10030    2    1    2    0    0  0.00000000000E+00  0.00000000000E+00 -0.87545001054E+03  0.35627686659E+04  0.34535355573E+04 0.  0.
        1    1    3    3  502    0 -0.27818791449E+03 -0.10606496121E+04  0.93839309493E+03  0.14432420851E+04  0.50400001928E-02 0. -1.
       -1    1    3    3    0  502  0.27818791449E+03  0.10606496121E+04 -0.18138431055E+04  0.21195265808E+04  0.50400001928E-02 0.  1.
</event>
<event>
 5   0  0.1339844E-06  0.3266413E+04  0.7818609E-02  0.8171495E-01
       -2   -1    0    0    0  501  0.00000000000E+00  0.00000000000E+00  0.16041499180E+04  0.16041499180E+04  0.25500000920E-02 0. -1.
        2   -1    0    0  501    0  0.00000000000E+00  0.00000000000E+00 -0.16627890869E+04  0.16627890869E+04  0.25500000920E-02 0.  1.
    10030    2    1    2    0    0  0.00000000000E+00  0.00000000000E+00 -0.58639168907E+02  0.32669390050E+04  0.32664126975E+04 0.  0.
        3    1    3    3  502    0  0.42819592547E+03  0.14879608318E+04  0.49036377131E+03  0.16241415658E+04  0.10100000352E+00 0. -1.
       -3    1    3    3    0  502 -0.42819592547E+03 -0.14879608318E+04 -0.54900294021E+03  0.16427974391E+04  0.10100000352E+00 0.  1.
</event>
<event>
 5   0  0.6218695E-07  0.3402625E+04  0.7818609E-02  0.8137262E-01
        1   -1    0    0  501    0  0.00000000000E+00  0.00000000000E+00  0.27393330127E+04  0.27393330127E+04  0.50400001928E-02 0. -1.
       -1   -1    0    0    0  501  0.00000000000E+00  0.00000000000E+00 -0.10566312197E+04  0.10566312197E+04  0.50400001928E-02 0.  1.
    10030    2    1    2    0    0  0.00000000000E+00  0.00000000000E+00  0.16827017930E+04  0.37959642324E+04  0.34026253290E+04 0.  0.
        2    1    3    3  502    0 -0.50934897769E+03 -0.73472305703E+03  0.24561622895E+04  0.26138070977E+04  0.25500000920E-02 0. -1.
       -2    1    3    3    0  502  0.50934897769E+03  0.73472305703E+03 -0.77346049651E+03  0.11821571348E+04  0.25500000920E-02 0.  1.
</event>
<event>
 5   0  0.1948507E-06  0.3354783E+04  0.7818609E-02  0.8149094E-01
        2   -1    0    0  501    0  0.00000000000E+00  0.00000000000E+00  0.19346844907E+04  0.19346844907E+04  0.25500000920E-02 0. -1.
       -2   -1    0    0    0  501  0.00000000000E+00  0.00000000000E+00 -0.14543162159E+04  0.14543162159E+04  0.25500000920E-02 0.  1.
    10030    2    1    2    0    0  0.00000000000E+00  0.00000000000E+00  0.48036827478E+03  0.33890007067E+04  0.33547834670E+04 0.  0.
        1    1    3    3  502    0  0.84015638027E+03 -0.71006255393E+03 -0.10390617571E+04  0.15131757693E+04  0.50400001928E-02 0.  1.
       -1    1    3    3    0  502 -0.84015638027E+03  0.71006255393E+03  0.15194300319E+04  0.18758249373E+04  0.50400001928E-02 0. -1.
</event>
<event>
 5   0  0.6134625E-07  0.2968235E+04  0.7818609E-02  0.8252860E-01
       -3   -1    0    0    0  501  0.00000000000E+00  0.00000000000E+00  0.15392369102E+04  0.15392369135E+04  0.10100000352E+00 0. -1.
        3   -1    0    0  501    0  0.00000000000E+00  0.00000000000E+00 -0.14309721891E+04  0.14309721927E+04  0.10100000352E+00 0.  1.
    10030    2    1    2    0    0  0.00000000000E+00  0.00000000000E+00  0.10826472109E+03  0.29702091062E+04  0.29682353149E+04 0.  0.
        1    1    3    3  502    0 -0.25758654885E+03  0.14377589371E+04 -0.20891813683E+03  0.14755163094E+04  0.50400001928E-02 0. -1.
       -1    1    3    3    0  502  0.25758654885E+03 -0.14377589371E+04  0.31718285792E+03  0.14946927968E+04  0.50400001928E-02 0.  1.
</event>
<event>
 5   0  0.1339844E-06  0.3373869E+04  0.7818609E-02  0.8144350E-01
        2   -1    0    0  501    0  0.00000000000E+00  0.00000000000E+00  0.23721472140E+04  0.23721472140E+04  0.25500000920E-02 0. -1.
       -2   -1    0    0    0  501  0.00000000000E+00  0.00000000000E+00 -0.11996503905E+04  0.11996503905E+04  0.25500000920E-02 0.  1.
    10030    2    1    2    0    0  0.00000000000E+00  0.00000000000E+00  0.11724968235E+04  0.35717976045E+04  0.33738685994E+04 0.  0.
        3    1    3    3  502    0  0.92181126614E+03 -0.10397704251E+03  0.20778774177E+04  0.22755486831E+04  0.10100000352E+00 0. -1.
       -3    1    3    3    0  502 -0.92181126614E+03  0.10397704251E+03 -0.90538059420E+03  0.12962489214E+04  0.10100000352E+00 0.  1.
</event>
<event>
 5   0  0.6134625E-07  0.3392058E+04  0.7818609E-02  0.8139858E-01
       -1   -1    0    0    0  501  0.00000000000E+00  0.00000000000E+00  0.12327452218E+04  0.12327452218E+04  0.50400001928E-02 0.  1.
        1   -1    0    0  501    0  0.00000000000E+00  0.00000000000E+00 -0.23334211948E+04  0.23334211948E+04  0.50400001928E-02 0. -1.
    10030    2    1    2    0    0  0.00000000000E+00  0.00000000000E+00 -0.11006759729E+04  0.35661664166E+04  0.33920576814E+04 0.  0.
        5    1    3    3  502    0 -0.13247156596E+04 -0.80920022902E+03 -0.12686462252E+04  0.20047847576E+04  0.46999998093E+01 0.  1.
       -5    1    3    3    0  502  0.13247156596E+04  0.80920022902E+03  0.16797025227E+03  0.15613816590E+04  0.46999998093E+01 0. -1.
</event>
<event>
 5   0  0.6134625E-07  0.3420889E+04  0.7818609E-02  0.8132798E-01
       -1   -1    0    0    0  501  0.00000000000E+00  0.00000000000E+00  0.12150925508E+04  0.12150925508E+04  0.50400001928E-02 0.  1.
        1   -1    0    0  501    0  0.00000000000E+00  0.00000000000E+00 -0.24077349068E+04  0.24077349068E+04  0.50400001928E-02 0. -1.
    10030    2    1    2    0    0  0.00000000000E+00  0.00000000000E+00 -0.11926423560E+04  0.36228274576E+04  0.34208892116E+04 0.  0.
        1    1    3    3  502    0  0.67425337492E+03  0.14147998010E+04  0.12920749641E+03  0.15725681758E+04  0.50400001928E-02 0.  1.
       -1    1    3    3    0  502 -0.67425337492E+03 -0.14147998010E+04 -0.13218498524E+04  0.20502592818E+04  0.50400001928E-02 0. -1.
</event>
<event>
 5   0  0.1339844E-06  0.3388515E+04  0.7818609E-02  0.8140731E-01
        2   -1    0    0  501    0  0.00000000000E+00  0.00000000000E+00  0.19448580648E+04  0.19448580648E+04  0.25500000920E-02 0.  1.
       -2   -1    0    0    0  501  0.00000000000E+00  0.00000000000E+00 -0.14759473298E+04  0.14759473298E+04  0.25500000920E-02 0. -1.
    10030    2    1    2    0    0  0.00000000000E+00  0.00000000000E+00  0.46891073500E+03  0.34208053946E+04  0.33885147588E+04 0.  0.
        3    1    3    3  502    0  0.51300518788E+03  0.23049357710E+03 -0.13789629568E+04  0.14892415715E+04  0.10100000352E+00 0. -1.
       -3    1    3    3    0  502 -0.51300518788E+03 -0.23049357710E+03  0.18478736918E+04  0.19315638231E+04  0.10100000352E+00 0.  1.
</event>
<event>
 5   0  0.1948507E-06  0.3334639E+04  0.7818609E-02  0.8154137E-01
       -2   -1    0    0    0  501  0.00000000000E+00  0.00000000000E+00  0.11923816376E+04  0.11923816376E+04  0.25500000920E-02 0. -1.
        2   -1    0    0  501    0  0.00000000000E+00  0.00000000000E+00 -0.23314294125E+04  0.23314294125E+04  0.25500000920E-02 0.  1.
    10030    2    1    2    0    0  0.00000000000E+00  0.00000000000E+00 -0.11390477749E+04  0.35238110502E+04  0.33346385837E+04 0.  0.
        1    1    3    3  502    0  0.13001086231E+04  0.69134401029E+03  0.25696740518E+03  0.14947478783E+04  0.50400001928E-02 0. -1.
       -1    1    3    3    0  502 -0.13001086231E+04 -0.69134401029E+03 -0.13960151801E+04  0.20290631719E+04  0.50400001928E-02 0.  1.
</event>
<event>
 5   0  0.6218695E-07  0.2738279E+04  0.7818609E-02  0.8322691E-01
        1   -1    0    0  501    0  0.00000000000E+00  0.00000000000E+00  0.17303905162E+04  0.17303905162E+04  0.50400001928E-02 0. -1.
       -1   -1    0    0    0  501  0.00000000000E+00  0.00000000000E+00 -0.10833059832E+04  0.10833059832E+04  0.50400001928E-02 0.  1.
    10030    2    1    2    0    0  0.00000000000E+00  0.00000000000E+00  0.64708453301E+03  0.28136964995E+04  0.27382785830E+04 0.  0.
        2    1    3    3  502    0 -0.89392358226E+03 -0.91596289096E+03 -0.17611692586E+03  0.12919382958E+04  0.25500000920E-02 0. -1.
       -2    1    3    3    0  502  0.89392358226E+03  0.91596289096E+03  0.82320145886E+03  0.15217582037E+04  0.25500000920E-02 0.  1.
</event>
<event>
 5   0  0.1880301E-06  0.3370386E+04  0.7818609E-02  0.8145213E-01
        2   -1    0    0  501    0  0.00000000000E+00  0.00000000000E+00  0.14999504861E+04  0.14999504861E+04  0.25500000920E-02 0.  1.
       -2   -1    0    0    0  501  0.00000000000E+00  0.00000000000E+00 -0.18933129841E+04  0.18933129841E+04  0.25500000920E-02 0. -1.
    10030    2    1    2    0    0  0.00000000000E+00  0.00000000000E+00 -0.39336249799E+03  0.33932634701E+04  0.33703861682E+04 0.  0.
        4    1    3    3  502    0 -0.72144072543E+03  0.13561421954E+04  0.50104208021E+03  0.16157484809E+04  0.12699999809E+01 0. -1.
       -4    1    3    3    0  502  0.72144072543E+03 -0.13561421954E+04 -0.89440457820E+03  0.17775149892E+04  0.12699999809E+01 0.  1.
</event>
<event>
 5   0  0.1797075E-06  0.3371199E+04  0.7818609E-02  0.8145011E-01
       -2   -1    0    0    0  501  0.00000000000E+00  0.00000000000E+00  0.13597275186E+04  0.13597275186E+04  0.25500000920E-02 0. -1.
        2   -1    0    0  501    0  0.00000000000E+00  0.00000000000E+00 -0.20895694808E+04  0.20895694808E+04  0.25500000920E-02 0.  1.
    10030    2    1    2    0    0  0.00000000000E+00  0.00000000000E+00 -0.72984196222E+03  0.34492969994E+04  0.33711986741E+04 0.  0.
        2    1    3    3  502    0 -0.10764344193E+04  0.11218071065E+03  0.95728135224E+03  0.14448817108E+04  0.25500000920E-02 0. -1.
       -2    1    3    3    0  502  0.10764344193E+04 -0.11218071065E+03 -0.16871233145E+04  0.20044152886E+04  0.25500000920E-02 0.  1.
</event>
<event>
 5   0  0.6134625E-07  0.3409197E+04  0.7818609E-02  0.8135653E-01
       -1   -1    0    0    0  501  0.00000000000E+00  0.00000000000E+00  0.12946369930E+04  0.12946369930E+04  0.50400001928E-02 0.  1.
        1   -1    0    0  501    0  0.00000000000E+00  0.00000000000E+00 -0.22443788906E+04  0.22443788906E+04  0.50400001928E-02 0. -1.
    10030    2    1    2    0    0  0.00000000000E+00  0.00000000000E+00 -0.94974189764E+03  0.35390158837E+04  0.34091969366E+04 0.  0.
        1    1    3    3  502    0 -0.10148827088E+03 -0.15330990503E+04 -0.12411978630E+04  0.19751619433E+04  0.50400001928E-02 0. -1.
       -1    1    3    3    0  502  0.10148827088E+03  0.15330990503E+04  0.29145596534E+03  0.15638539404E+04  0.50400001928E-02 0.  1.
</event>
<event>
 5   0  0.6218695E-07  0.3457027E+04  0.7818609E-02  0.8124050E-01
        1   -1    0    0  501    0  0.00000000000E+00  0.00000000000E+00  0.20011659582E+04  0.20011659582E+04  0.50400001928E-02 0.  1.
       -1   -1    0    0    0  501  0.00000000000E+00  0.00000000000E+00 -0.14930091665E+04  0.14930091665E+04  0.50400001928E-02 0. -1.
    10030    2    1    2    0    0  0.00000000000E+00  0.00000000000E+00  0.50815679175E+03  0.34941751247E+04  0.34570271155E+04 0.  0.
        2    1    3    3  502    0 -0.41839185747E+02  0.16204862782E+04  0.86055343345E+03  0.18352870367E+04  0.25500000920E-02 0. -1.
       -2    1    3    3    0  502  0.41839185747E+02 -0.16204862782E+04 -0.35239664171E+03  0.16588880880E+04  0.25500000920E-02 0.  1.
</event>
<event>
 5   0  0.6134625E-07  0.3562608E+04  0.7818609E-02  0.8099111E-01
        1   -1    0    0  501    0  0.00000000000E+00  0.00000000000E+00  0.20029529234E+04  0.20029529234E+04  0.50400001928E-02 0.  1.
       -1   -1    0    0    0  501  0.00000000000E+00  0.00000000000E+00 -0.15841826242E+04  0.15841826242E+04  0.50400001928E-02 0. -1.
    10030    2    1    2    0    0  0.00000000000E+00  0.00000000000E+00  0.41877029915E+03  0.35871355476E+04  0.35626075946E+04 0.  0.
        5    1    3    3  502    0  0.73864821410E+03 -0.91573226459E+03  0.15560740813E+04  0.19507832788E+04  0.46999998093E+01 0.  1.
       -5    1    3    3    0  502 -0.73864821410E+03  0.91573226459E+03 -0.11373037821E+04  0.16363522688E+04  0.46999998093E+01 0. -1.
</event>
<event>
 5   0  0.6218695E-07  0.3367352E+04  0.7818609E-02  0.8145966E-01
       -1   -1    0    0    0  501  0.00000000000E+00  0.00000000000E+00  0.17026791658E+04  0.17026791658E+04  0.50400001928E-02 0. -1.
        1   -1    0    0  501    0  0.00000000000E+00  0.00000000000E+00 -0.16648849691E+04  0.16648849691E+04  0.50400001928E-02 0.  1.
    10030    2    1    2    0    0  0.00000000000E+00  0.00000000000E+00  0.37794196734E+02  0.33675641349E+04  0.33673520459E+04 0.  0.
        2    1    3    3  502    0 -0.13235796693E+04  0.62264636717E+03  0.85274413947E+03  0.16931403388E+04  0.25500000920E-02 0.  1.
       -2    1    3    3    0  502  0.13235796693E+04 -0.62264636717E+03 -0.81494994274E+03  0.16744237960E+04  0.25500000920E-02 0. -1.
</event>
<event>
 5   0  0.6134625E-07  0.2766602E+04  0.7818609E-02  0.8313713E-01
       -1   -1    0    0    0  501  0.00000000000E+00  0.00000000000E+00  0.11918575417E+04  0.11918575417E+04  0.50400001928E-02 0.  1.
        1   -1    0    0  501    0  0.00000000000E+00  0.00000000000E+00 -0.16054957564E+04  0.16054957564E+04  0.50400001928E-02 0. -1.
    10030    2    1    2    0    0  0.00000000000E+00  0.00000000000E+00 -0.41363821471E+03  0.27973532981E+04  0.27666024112E+04 0.  0.
        1    1    3    3  502    0 -0.81282962156E+03  0.78926920409E+03  0.59565491020E+03  0.12800166570E+04  0.50400001928E-02 0.  1.
       -1    1    3    3    0  502  0.81282962156E+03 -0.78926920409E+03 -0.10092931249E+04  0.15173366410E+04  0.50400001928E-02 0. -1.
</event>
<event>
 5   0  0.1911477E-06  0.3399149E+04  0.7818609E-02  0.8138115E-01
       -2   -1    0    0    0  501  0.00000000000E+00  0.00000000000E+00  0.17608408139E+04  0.17608408139E+04  0.25500000920E-02 0.  1.
        2   -1    0    0  501    0  0.00000000000E+00  0.00000000000E+00 -0.16404398015E+04  0.16404398015E+04  0.25500000920E-02 0. -1.
    10030    2    1    2    0    0  0.00000000000E+00  0.00000000000E+00  0.12040101237E+03  0.34012806154E+04  0.33991489260E+04 0.  0.
        5    1    3    3  502    0  0.10747743055E+04  0.11569330972E+04  0.68900311517E+03  0.17228991212E+04  0.46999998093E+01 0.  1.
       -5    1    3    3    0  502 -0.10747743055E+04 -0.11569330972E+04 -0.56860210280E+03  0.16783814943E+04  0.46999998093E+01 0. -1.
</event>
<event>
 5   0  0.6146388E-07  0.3248829E+04  0.7818609E-02  0.8176039E-01
        1   -1    0    0  501    0  0.00000000000E+00  0.00000000000E+00  0.26185601264E+04  0.26185601264E+04  0.50400001928E-02 0.  1.
       -1   -1    0    0    0  501  0.00000000000E+00  0.00000000000E+00 -0.10076994919E+04  0.10076994919E+04  0.50400001928E-02 0. -1.
    10030    2    1    2    0    0  0.00000000000E+00  0.00000000000E+00  0.16108606346E+04  0.36262596183E+04  0.32488285328E+04 0.  0.
        4    1    3    3  502    0 -0.13630406541E+04  0.88175932150E+03  0.86994452916E+03  0.18417883762E+04  0.12699999809E+01 0.  1.
       -4    1    3    3    0  502  0.13630406541E+04 -0.88175932150E+03  0.74091610539E+03  0.17844712421E+04  0.12699999809E+01 0. -1.
</event>
<event>
 5   0  0.1911477E-06  0.3417496E+04  0.7818609E-02  0.8133626E-01
        2   -1    0    0  501    0  0.00000000000E+00  0.00000000000E+00  0.22718351876E+04  0.22718351876E+04  0.25500000920E-02 0.  1.
       -2   -1    0    0    0  501  0.00000000000E+00  0.00000000000E+00 -0.12852251234E+04  0.12852251234E+04  0.25500000920E-02 0. -1.
    10030    2    1    2    0    0  0.00000000000E+00  0.00000000000E+00  0.98661006426E+03  0.35570603110E+04  0.34174959601E+04 0.  0.
        5    1    3    3  502    0  0.26464919408E+03  0.39679213312E+03 -0.12145307326E+04  0.13048333929E+04  0.46999998093E+01 0. -1.
       -5    1    3    3    0  502 -0.26464919408E+03 -0.39679213312E+03  0.22011407969E+04  0.22522269181E+04  0.46999998093E+01 0.  1.
</event>
<event>
 5   0  0.1339844E-06  0.3350664E+04  0.7818609E-02  0.8150122E-01
       -2   -1    0    0    0  501  0.00000000000E+00  0.00000000000E+00  0.11016458482E+04  0.11016458482E+04  0.25500000920E-02 0. -1.
        2   -1    0    0  501    0  0.00000000000E+00  0.00000000000E+00 -0.25477678144E+04  0.25477678144E+04  0.25500000920E-02 0.  1.
    10030    2    1    2    0    0  0.00000000000E+00  0.00000000000E+00 -0.14461219662E+04  0.36494136626E+04  0.33506643132E+04 0.  0.
        3    1    3    3  502    0  0.16251519573E+04  0.28889166410E+03 -0.10352544671E+04  0.19484170754E+04  0.10100000352E+00 0. -1.
       -3    1    3    3    0  502 -0.16251519573E+04 -0.28889166410E+03 -0.41086749918E+03  0.17009965873E+04  0.10100000352E+00 0.  1.
</event>
<event>
 5   0  0.1339844E-06  0.3404866E+04  0.7818609E-02  0.8136713E-01
       -2   -1    0    0    0  501  0.00000000000E+00  0.00000000000E+00  0.12056562372E+04  0.12056562372E+04  0.25500000920E-02 0. -1.
        2   -1    0    0  501    0  0.00000000000E+00  0.00000000000E+00 -0.24039014997E+04  0.24039014997E+04  0.25500000920E-02 0.  1.
    10030    2    1    2    0    0  0.00000000000E+00  0.00000000000E+00 -0.11982452625E+04  0.36095577369E+04  0.34048664214E+04 0.  0.
        3    1    3    3  502    0 -0.75910062034E+03 -0.28175346353E+03  0.98845744112E+03  0.12777585410E+04  0.10100000352E+00 0. -1.
       -3    1    3    3    0  502  0.75910062034E+03  0.28175346353E+03 -0.21867027036E+04  0.23317991959E+04  0.10100000352E+00 0.  1.
</event>
<event>
 5   0  0.6134625E-07  0.3418764E+04  0.7818609E-02  0.8133316E-01
       -1   -1    0    0    0  501  0.00000000000E+00  0.00000000000E+00  0.19859338214E+04  0.19859338214E+04  0.50400001928E-02 0.  1.
        1   -1    0    0  501    0  0.00000000000E+00  0.00000000000E+00 -0.14713412646E+04  0.14713412646E+04  0.50400001928E-02 0. -1.
    10030    2    1    2    0    0  0.00000000000E+00  0.00000000000E+00  0.51459255680E+03  0.34572750860E+04  0.34187637416E+04 0.  0.
        5    1    3    3  502    0 -0.19331660144E+03 -0.80702253851E+03 -0.12539634848E+04  0.15036965110E+04  0.46999998093E+01 0. -1.
       -5    1    3    3    0  502  0.19331660144E+03  0.80702253851E+03  0.17685560416E+04  0.19535785749E+04  0.46999998093E+01 0.  1.
</event>
<event>
 5   0  0.1911477E-06  0.3377217E+04  0.7818609E-02  0.8143521E-01
       -2   -1    0    0    0  501  0.00000000000E+00  0.00000000000E+00  0.17776587533E+04  0.17776587533E+04  0.25500000920E-02 0. -1.
        2   -1    0    0  501    0  0.00000000000E+00  0.00000000000E+00 -0.16040187544E+04  0.16040187544E+04  0.25500000920E-02 0.  1.
    10030    2    1    2    0    0  0.00000000000E+00  0.00000000000E+00  0.17363999892E+03  0.33816775076E+04  0.33772165931E+04 0.  0.
        5    1    3    3  502    0  0.11923151319E+04 -0.10554507100E+04  0.64950916275E+03  0.17197313213E+04  0.46999998093E+01 0.  1.
       -5    1    3    3    0  502 -0.11923151319E+04  0.10554507100E+04 -0.47586916383E+03  0.16619461863E+04  0.46999998093E+01 0. -1.
</event>
<event>
 5   0  0.1339844E-06  0.3260937E+04  0.7818609E-02  0.8172907E-01
       -2   -1    0    0    0  501  0.00000000000E+00  0.00000000000E+00  0.17044635365E+04  0.17044635365E+04  0.25500000920E-02 0. -1.
        2   -1    0    0  501    0  0.00000000000E+00  0.00000000000E+00 -0.15596860008E+04  0.15596860008E+04  0.25500000920E-02 0.  1.
    10030    2    1    2    0    0  0.00000000000E+00  0.00000000000E+00  0.14477753575E+03  0.32641495373E+04  0.32609372375E+04 0.  0.
        3    1    3    3  502    0 -0.11164868264E+04  0.91958203385E+03 -0.68085098268E+03  0.15986657003E+04  0.10100000352E+00 0.  1.
       -3    1    3    3    0  502  0.11164868264E+04 -0.91958203385E+03  0.82562851842E+03  0.16654838370E+04  0.10100000352E+00 0. -1.
</event>
<event>
 5   0  0.6134625E-07  0.2552345E+04  0.7818609E-02  0.8384571E-01
        1   -1    0    0  501    0  0.00000000000E+00  0.00000000000E+00  0.18412110751E+04  0.18412110751E+04  0.50400001928E-02 0. -1.
       -1   -1    0    0    0  501  0.00000000000E+00  0.00000000000E+00 -0.88453508578E+03  0.88453508579E+03  0.50400001928E-02 0.  1.
    10030    2    1    2    0    0  0.00000000000E+00  0.00000000000E+00  0.95667598929E+03  0.27257461609E+04  0.25523446446E+04 0.  0.
        1    1    3    3  502    0 -0.97177330088E+03  0.31085291681E+03  0.12969966223E+04  0.16502039639E+04  0.50400001928E-02 0. -1.
       -1    1    3    3    0  502  0.97177330088E+03 -0.31085291681E+03 -0.34032063300E+03  0.10755421970E+04  0.50400001928E-02 0.  1.
</event>
<event>
 5   0  0.6134625E-07  0.3460039E+04  0.7818609E-02  0.8123326E-01
        1   -1    0    0  501    0  0.00000000000E+00  0.00000000000E+00  0.22348307587E+04  0.22348307587E+04  0.50400001928E-02 0.  1.
       -1   -1    0    0    0  501  0.00000000000E+00  0.00000000000E+00 -0.13392370165E+04  0.13392370165E+04  0.50400001928E-02 0. -1.
    10030    2    1    2    0    0  0.00000000000E+00  0.00000000000E+00  0.89559374215E+03  0.35740677752E+04  0.34600393510E+04 0.  0.
        3    1    3    3  502    0 -0.25756908167E+03 -0.17099704283E+04  0.50074399453E+03  0.18003014347E+04  0.10100000352E+00 0.  1.
       -3    1    3    3    0  502  0.25756908167E+03  0.17099704283E+04  0.39484974762E+03  0.17737663405E+04  0.10100000352E+00 0. -1.
</event>
<event>
 5   0  0.6218695E-07  0.3401257E+04  0.7818609E-02  0.8137598E-01
       -1   -1    0    0    0  501  0.00000000000E+00  0.00000000000E+00  0.16381492142E+04  0.16381492142E+04  0.50400001928E-02 0. -1.
        1   -1    0    0  501    0  0.00000000000E+00  0.00000000000E+00 -0.17654909967E+04  0.17654909967E+04  0.50400001928E-02 0.  1.
    10030    2    1    2    0    0  0.00000000000E+00  0.00000000000E+00 -0.12734178254E+03  0.34036402109E+04  0.34012572316E+04 0.  0.
        2    1    3    3  502    0  0.43283185499E+03  0.13987212852E+04 -0.92936255336E+03  0.17342085815E+04  0.25500000920E-02 0.  1.
       -2    1    3    3    0  502 -0.43283185499E+03 -0.13987212852E+04  0.80202077082E+03  0.16694316294E+04  0.25500000920E-02 0. -1.
</event>
<event>
 5   0  0.6134625E-07  0.3357575E+04  0.7818609E-02  0.8148398E-01
        1   -1    0    0  501    0  0.00000000000E+00  0.00000000000E+00  0.12555476268E+04  0.12555476268E+04  0.50400001928E-02 0.  1.
       -1   -1    0    0    0  501  0.00000000000E+00  0.00000000000E+00 -0.22446992260E+04  0.22446992260E+04  0.50400001928E-02 0. -1.
    10030    2    1    2    0    0  0.00000000000E+00  0.00000000000E+00 -0.98915159924E+03  0.35002468528E+04  0.33575745925E+04 0.  0.
        5    1    3    3  502    0  0.13435494689E+04 -0.86291766095E+02  0.55090102114E+03  0.14546771014E+04  0.46999998093E+01 0.  1.
       -5    1    3    3    0  502 -0.13435494689E+04  0.86291766095E+02 -0.15400526204E+04  0.20455697514E+04  0.46999998093E+01 0. -1.
</event>
<event>
 5   0  0.1948507E-06  0.3423671E+04  0.7818609E-02  0.8132121E-01
       -2   -1    0    0    0  501  0.00000000000E+00  0.00000000000E+00  0.12789376417E+04  0.12789376417E+04  0.25500000920E-02 0.  1.
        2   -1    0    0  501    0  0.00000000000E+00  0.00000000000E+00 -0.22912613745E+04  0.22912613745E+04  0.25500000920E-02 0. -1.
    10030    2    1    2    0    0  0.00000000000E+00  0.00000000000E+00 -0.10123237328E+04  0.35701990162E+04  0.34236707896E+04 0.  0.
        1    1    3    3  502    0 -0.10693030037E+04  0.99769728139E+03  0.42161927705E+03  0.15220287756E+04  0.50400001928E-02 0.  1.
       -1    1    3    3    0  502  0.10693030037E+04 -0.99769728139E+03 -0.14339430099E+04  0.20481702406E+04  0.50400001928E-02 0. -1.
</event>
<event>
 5   0  0.1911477E-06  0.3245312E+04  0.7818609E-02  0.8176952E-01
       -2   -1    0    0    0  501  0.00000000000E+00  0.00000000000E+00  0.97659485158E+03  0.97659485158E+03  0.25500000920E-02 0.  1.
        2   -1    0    0  501    0  0.00000000000E+00  0.00000000000E+00 -0.26961159555E+04  0.26961159555E+04  0.25500000920E-02 0. -1.
    10030    2    1    2    0    0  0.00000000000E+00  0.00000000000E+00 -0.17195211039E+04  0.36727108071E+04  0.32453122878E+04 0.  0.
        5    1    3    3  502    0 -0.47492536255E+03  0.52373909010E+02 -0.26146918751E+04  0.26579941343E+04  0.46999998093E+01 0. -1.
       -5    1    3    3    0  502  0.47492536255E+03 -0.52373909010E+02  0.89517077120E+03  0.10147166727E+04  0.46999998093E+01 0.  1.
</event>
<event>
 5   0  0.1797075E-06  0.3436381E+04  0.7818609E-02  0.8129035E-01
       -2   -1    0    0    0  501  0.00000000000E+00  0.00000000000E+00  0.14229085082E+04  0.14229085082E+04  0.25500000920E-02 0. -1.
        2   -1    0    0  501    0  0.00000000000E+00  0.00000000000E+00 -0.20747489864E+04  0.20747489864E+04  0.25500000920E-02 0.  1.
    10030    2    1    2    0    0  0.00000000000E+00  0.00000000000E+00 -0.65184047814E+03  0.34976574946E+04  0.34363806455E+04 0.  0.
        2    1    3    3  502    0  0.94106527010E+02 -0.13576700372E+04  0.74161696814E+03  0.15498773163E+04  0.25500000920E-02 0. -1.
       -2    1    3    3    0  502 -0.94106527010E+02  0.13576700372E+04 -0.13934574463E+04  0.19477801783E+04  0.25500000920E-02 0.  1.
</event>
<event>
 5   0  0.1339844E-06  0.3405641E+04  0.7818609E-02  0.8136523E-01
       -2   -1    0    0    0  501  0.00000000000E+00  0.00000000000E+00  0.13580466191E+04  0.13580466191E+04  0.25500000920E-02 0. -1.
        2   -1    0    0  501    0  0.00000000000E+00  0.00000000000E+00 -0.21351240627E+04  0.21351240627E+04  0.25500000920E-02 0.  1.
    10030    2    1    2    0    0  0.00000000000E+00  0.00000000000E+00 -0.77707744357E+03  0.34931706818E+04  0.34056412111E+04 0.  0.
        3    1    3    3  502    0  0.42637791540E+03  0.65404300685E+03 -0.19407158311E+04  0.20918767480E+04  0.10100000352E+00 0.  1.
       -3    1    3    3    0  502 -0.42637791540E+03 -0.65404300685E+03  0.11636383876E+04  0.14012939338E+04  0.10100000352E+00 0. -1.
</event>
<event>
 5   0  0.6218695E-07  0.3342863E+04  0.7818609E-02  0.8152074E-01
        1   -1    0    0  501    0  0.00000000000E+00  0.00000000000E+00  0.22852894305E+04  0.22852894305E+04  0.50400001928E-02 0.  1.
       -1   -1    0    0    0  501  0.00000000000E+00  0.00000000000E+00 -0.12224637387E+04  0.12224637388E+04  0.50400001928E-02 0. -1.
    10030    2    1    2    0    0  0.00000000000E+00  0.00000000000E+00  0.10628256918E+04  0.35077531693E+04  0.33428631210E+04 0.  0.
        2    1    3    3  502    0  0.99931472235E+03 -0.62661366830E+02  0.19357572695E+04  0.21793835292E+04  0.25500000920E-02 0.  1.
       -2    1    3    3    0  502 -0.99931472235E+03  0.62661366830E+02 -0.87293157771E+03  0.13283696400E+04  0.25500000920E-02 0. -1.
</event>
<event>
 5   0  0.6134625E-07  0.3355561E+04  0.7818609E-02  0.8148900E-01
       -1   -1    0    0    0  501  0.00000000000E+00  0.00000000000E+00  0.12073435572E+04  0.12073435572E+04  0.50400001928E-02 0. -1.
        1   -1    0    0  501    0  0.00000000000E+00  0.00000000000E+00 -0.23315212983E+04  0.23315212983E+04  0.50400001928E-02 0.  1.
    10030    2    1    2    0    0  0.00000000000E+00  0.00000000000E+00 -0.11241777411E+04  0.35388648556E+04  0.33555608879E+04 0.  0.
        1    1    3    3  502    0  0.11835609356E+03  0.17257223255E+02  0.12028415718E+04  0.12087736858E+04  0.50400001928E-02 0. -1.
       -1    1    3    3    0  502 -0.11835609356E+03 -0.17257223255E+02 -0.23270193129E+04  0.23300911697E+04  0.50400001928E-02 0.  1.
</event>
<event>
 5   0  0.1339844E-06  0.3336012E+04  0.7818609E-02  0.8153792E-01
        2   -1    0    0  501    0  0.00000000000E+00  0.00000000000E+00  0.20220600401E+04  0.20220600401E+04  0.25500000920E-02 0. -1.
       -2   -1    0    0    0  501  0.00000000000E+00  0.00000000000E+00 -0.13759456570E+04  0.13759456571E+04  0.25500000920E-02 0.  1.
    10030    2    1    2    0    0  0.00000000000E+00  0.00000000000E+00  0.64611438309E+03  0.33980056972E+04  0.33360124284E+04 0.  0.
        3    1    3    3  502    0 -0.94187665493E+03 -0.18305920105E+03  0.17128175181E+04  0.19632590671E+04  0.10100000352E+00 0. -1.
       -3    1    3    3    0  502  0.94187665493E+03  0.18305920105E+03 -0.10667031350E+04  0.14347466301E+04  0.10100000352E+00 0.  1.
</event>
<event>
 5   0  0.1339844E-06  0.3400151E+04  0.7818609E-02  0.8137869E-01
       -2   -1    0    0    0  501  0.00000000000E+00  0.00000000000E+00  0.16531382335E+04  0.16531382335E+04  0.25500000920E-02 0.  1.
        2   -1    0    0  501    0  0.00000000000E+00  0.00000000000E+00 -0.17483455613E+04  0.17483455613E+04  0.25500000920E-02 0. -1.
    10030    2    1    2    0    0  0.00000000000E+00  0.00000000000E+00 -0.95207327776E+02  0.34014837948E+04  0.34001511100E+04 0.  0.
        3    1    3    3  502    0  0.16120317430E+04 -0.45371037523E+03  0.24535482409E+03  0.16925420068E+04  0.10100000352E+00 0.  1.
       -3    1    3    3    0  502 -0.16120317430E+04  0.45371037523E+03 -0.34056215186E+03  0.17089417879E+04  0.10100000352E+00 0. -1.
</event>
<event>
 5   0  0.6134625E-07  0.3461236E+04  0.7818609E-02  0.8123039E-01
       -1   -1    0    0    0  501  0.00000000000E+00  0.00000000000E+00  0.13202142893E+04  0.13202142893E+04  0.50400001928E-02 0. -1.
        1   -1    0    0  501    0  0.00000000000E+00  0.00000000000E+00 -0.22685998564E+04  0.22685998564E+04  0.50400001928E-02 0.  1.
    10030    2    1    2    0    0  0.00000000000E+00  0.00000000000E+00 -0.94838556708E+03  0.35888141457E+04  0.34612355870E+04 0.  0.
        3    1    3    3  502    0 -0.36307208470E+03 -0.94043317356E+03  0.98435607911E+03  0.14089686985E+04  0.10100000352E+00 0. -1.
       -3    1    3    3    0  502  0.36307208470E+03  0.94043317356E+03 -0.19327416462E+04  0.21798454472E+04  0.10100000352E+00 0.  1.
</event>
<event>
 5   0  0.6218695E-07  0.3482043E+04  0.7818609E-02  0.8118059E-01
        1   -1    0    0  501    0  0.00000000000E+00  0.00000000000E+00  0.20607672931E+04  0.20607672931E+04  0.50400001928E-02 0.  1.
       -1   -1    0    0    0  501  0.00000000000E+00  0.00000000000E+00 -0.14708871689E+04  0.14708871689E+04  0.50400001928E-02 0. -1.
    10030    2    1    2    0    0  0.00000000000E+00  0.00000000000E+00  0.58988012413E+03  0.35316544620E+04  0.34820431758E+04 0.  0.
        2    1    3    3  502    0  0.15032582099E+04 -0.47466622786E+03 -0.45454915257E+03  0.16406426197E+04  0.25500000920E-02 0. -1.
       -2    1    3    3    0  502 -0.15032582099E+04  0.47466622786E+03  0.10444292767E+04  0.18910118423E+04  0.25500000920E-02 0.  1.
</event>
<event>
 5   0  0.6218695E-07  0.3439385E+04  0.7818609E-02  0.8128307E-01
        1   -1    0    0  501    0  0.00000000000E+00  0.00000000000E+00  0.20220098018E+04  0.20220098018E+04  0.50400001928E-02 0. -1.
       -1   -1    0    0    0  501  0.00000000000E+00  0.00000000000E+00 -0.14625755640E+04  0.14625755640E+04  0.50400001928E-02 0.  1.
    10030    2    1    2    0    0  0.00000000000E+00  0.00000000000E+00  0.55943423779E+03  0.34845853658E+04  0.34393849022E+04 0.  0.
        2    1    3    3  502    0 -0.20480875270E+03 -0.16741544324E+04  0.61968995951E+03  0.17968737670E+04  0.25500000920E-02 0.  1.
       -2    1    3    3    0  502  0.20480875270E+03  0.16741544324E+04 -0.60255721714E+02  0.16877115988E+04  0.25500000920E-02 0. -1.
</event>
<event>
 5   0  0.1880301E-06  0.3389665E+04  0.7818609E-02  0.8140448E-01
       -2   -1    0    0    0  501  0.00000000000E+00  0.00000000000E+00  0.16874501785E+04  0.16874501785E+04  0.25500000920E-02 0.  1.
        2   -1    0    0  501    0  0.00000000000E+00  0.00000000000E+00 -0.17022468918E+04  0.17022468918E+04  0.25500000920E-02 0. -1.
    10030    2    1    2    0    0  0.00000000000E+00  0.00000000000E+00 -0.14796713360E+02  0.33896970703E+04  0.33896647748E+04 0.  0.
        4    1    3    3  502    0  0.16782248299E+04  0.19899749821E+03 -0.13552695424E+03  0.16954078424E+04  0.12699999809E+01 0. -1.
       -4    1    3    3    0  502 -0.16782248299E+04 -0.19899749821E+03  0.12073024088E+03  0.16942892279E+04  0.12699999809E+01 0.  1.
</event>
<event>
 5   0  0.6134625E-07  0.3407881E+04  0.7818609E-02  0.8135975E-01
       -3   -1    0    0    0  501  0.00000000000E+00  0.00000000000E+00  0.15523380504E+04  0.15523380537E+04  0.10100000352E+00 0. -1.
        3   -1    0    0  501    0  0.00000000000E+00  0.00000000000E+00 -0.18703489376E+04  0.18703489404E+04  0.10100000352E+00 0.  1.
    10030    2    1    2    0    0  0.00000000000E+00  0.00000000000E+00 -0.31801088726E+03  0.34226869941E+04  0.34078813557E+04 0.  0.
        4    1    3    3  502    0  0.12293073501E+04  0.11732373884E+04 -0.33042499280E+02  0.16996399472E+04  0.12699999809E+01 0.  1.
       -4    1    3    3    0  502 -0.12293073501E+04 -0.11732373884E+04 -0.28496838797E+03  0.17230470468E+04  0.12699999809E+01 0. -1.
</event>
<event>
 5   0  0.6134625E-07  0.3423175E+04  0.7818609E-02  0.8132242E-01
       -1   -1    0    0    0  501  0.00000000000E+00  0.00000000000E+00  0.13398551630E+04  0.13398551630E+04  0.50400001928E-02 0. -1.
        1   -1    0    0  501    0  0.00000000000E+00  0.00000000000E+00 -0.21864538078E+04  0.21864538078E+04  0.50400001928E-02 0.  1.
    10030    2    1    2    0    0  0.00000000000E+00  0.00000000000E+00 -0.84659864475E+03  0.35263089708E+04  0.34231747972E+04 0.  0.
        3    1    3    3  502    0 -0.37263790631E+02 -0.35725391960E+03  0.13005926232E+04  0.13492813402E+04  0.10100000352E+00 0. -1.
       -3    1    3    3    0  502  0.37263790631E+02  0.35725391960E+03 -0.21471912680E+04  0.21770276306E+04  0.10100000352E+00 0.  1.
</event>
<event>
 5   0  0.1911477E-06  0.3275991E+04  0.7818609E-02  0.8169031E-01
       -2   -1    0    0    0  501  0.00000000000E+00  0.00000000000E+00  0.12933472479E+04  0.12933472479E+04  0.25500000920E-02 0.  1.
        2   -1    0    0  501    0  0.00000000000E+00  0.00000000000E+00 -0.20744850147E+04  0.20744850147E+04  0.25500000920E-02 0. -1.
    10030    2    1    2    0    0  0.00000000000E+00  0.00000000000E+00 -0.78113776679E+03  0.33678322626E+04  0.32759911383E+04 0.  0.
        5    1    3    3  502    0  0.12180539505E+04 -0.10886289392E+04 -0.26789630471E+03  0.16554633531E+04  0.46999998093E+01 0.  1.
       -5    1    3    3    0  502 -0.12180539505E+04  0.10886289392E+04 -0.51324146208E+03  0.17123689094E+04  0.46999998093E+01 0. -1.
</event>
<event>
 5   0  0.1911477E-06  0.3381357E+04  0.7818609E-02  0.8142497E-01
        2   -1    0    0  501    0  0.00000000000E+00  0.00000000000E+00  0.22623786930E+04  0.22623786930E+04  0.25500000920E-02 0. -1.
       -2   -1    0    0    0  501  0.00000000000E+00  0.00000000000E+00 -0.12634464462E+04  0.12634464462E+04  0.25500000920E-02 0.  1.
    10030    2    1    2    0    0  0.00000000000E+00  0.00000000000E+00  0.99893224680E+03  0.35258251393E+04  0.33813573131E+04 0.  0.
        5    1    3    3  502    0  0.16499406906E+04 -0.97920407984E+02  0.87030037858E+03  0.18679768542E+04  0.46999998093E+01 0. -1.
       -5    1    3    3    0  502 -0.16499406906E+04  0.97920407984E+02  0.12863186822E+03  0.16578482851E+04  0.46999998093E+01 0.  1.
</event>
<event>
 5   0  0.6134625E-07  0.3404813E+04  0.7818609E-02  0.8136726E-01
        3   -1    0    0  501    0  0.00000000000E+00  0.00000000000E+00  0.16527312132E+04  0.16527312163E+04  0.10100000352E+00 0. -1.
       -3   -1    0    0    0  501  0.00000000000E+00  0.00000000000E+00 -0.17535744088E+04  0.17535744117E+04  0.10100000352E+00 0.  1.
    10030    2    1    2    0    0  0.00000000000E+00  0.00000000000E+00 -0.10084319560E+03  0.34063056280E+04  0.34048125765E+04 0.  0.
        2    1    3    3  502    0 -0.58189227552E+01  0.11090170908E+04 -0.13425894683E+04  0.17414072608E+04  0.25500000920E-02 0.  1.
       -2    1    3    3    0  502  0.58189227552E+01 -0.11090170908E+04  0.12417462727E+04  0.16648983672E+04  0.25500000920E-02 0. -1.
</event>
<event>
 5   0  0.1948507E-06  0.3220518E+04  0.7818609E-02  0.8183419E-01
        2   -1    0    0  501    0  0.00000000000E+00  0.00000000000E+00  0.13516062694E+04  0.13516062694E+04  0.25500000920E-02 0.  1.
       -2   -1    0    0    0  501  0.00000000000E+00  0.00000000000E+00 -0.19184088654E+04  0.19184088654E+04  0.25500000920E-02 0. -1.
    10030    2    1    2    0    0  0.00000000000E+00  0.00000000000E+00 -0.56680259601E+03  0.32700151348E+04  0.32205176290E+04 0.  0.
        1    1    3    3  502    0  0.24846301179E+02  0.69080611309E+03 -0.17600930363E+04  0.18909674563E+04  0.50400001928E-02 0. -1.
       -1    1    3    3    0  502 -0.24846301179E+02 -0.69080611309E+03  0.11932904403E+04  0.13790476784E+04  0.50400001928E-02 0.  1.
</event>
<event>
 5   0  0.6134625E-07  0.3061574E+04  0.7818609E-02  0.8226363E-01
       -1   -1    0    0    0  501  0.00000000000E+00  0.00000000000E+00  0.86258240681E+03  0.86258240683E+03  0.50400001928E-02 0. -1.
        1   -1    0    0  501    0  0.00000000000E+00  0.00000000000E+00 -0.27166204730E+04  0.27166204730E+04  0.50400001928E-02 0.  1.
    10030    2    1    2    0    0  0.00000000000E+00  0.00000000000E+00 -0.18540380662E+04  0.35792028798E+04  0.30615741219E+04 0.  0.
        3    1    3    3  502    0  0.88667238411E+03 -0.12203344738E+04 -0.12316625934E+04  0.19474077383E+04  0.10100000352E+00 0. -1.
       -3    1    3    3    0  502 -0.88667238411E+03  0.12203344738E+04 -0.62237547277E+03  0.16317951416E+04  0.10100000352E+00 0.  1.
</event>
<event>
 5   0  0.1911477E-06  0.3454757E+04  0.7818609E-02  0.8124596E-01
       -2   -1    0    0    0  501  0.00000000000E+00  0.00000000000E+00  0.24986839497E+04  0.24986839497E+04  0.25500000920E-02 0. -1.
        2   -1    0    0  501    0  0.00000000000E+00  0.00000000000E+00 -0.11941634449E+04  0.11941634449E+04  0.25500000920E-02 0.  1.
    10030    2    1    2    0    0  0.00000000000E+00  0.00000000000E+00  0.13045205048E+04  0.36928473946E+04  0.34547573189E+04 0.  0.
        5    1    3    3  502    0  0.14493408921E+03 -0.80162151163E+02 -0.11856494466E+04  0.11971710659E+04  0.46999998093E+01 0.  1.
       -5    1    3    3    0  502 -0.14493408921E+03  0.80162151163E+02  0.24901699515E+04  0.24956763287E+04  0.46999998093E+01 0. -1.
</event>
<event>
 5   0  0.1797075E-06  0.3428913E+04  0.7818609E-02  0.8130846E-01
        2   -1    0    0  501    0  0.00000000000E+00  0.00000000000E+00  0.13127605459E+04  0.13127605459E+04  0.25500000920E-02 0. -1.
       -2   -1    0    0    0  501  0.00000000000E+00  0.00000000000E+00 -0.22390690848E+04  0.22390690848E+04  0.25500000920E-02 0.  1.
    10030    2    1    2    0    0  0.00000000000E+00  0.00000000000E+00 -0.92630853889E+03  0.35518296306E+04  0.34289132704E+04 0.  0.
        2    1    3    3  502    0 -0.12498940385E+04 -0.11118501403E+04 -0.74310329364E+02  0.16745052604E+04  0.25500000920E-02 0. -1.
       -2    1    3    3    0  502  0.12498940385E+04  0.11118501403E+04 -0.85199820952E+03  0.18773243702E+04  0.25500000920E-02 0.  1.
</event>
<event>
 5   0  0.1797075E-06  0.3408369E+04  0.7818609E-02  0.8135855E-01
        2   -1    0    0  501    0  0.00000000000E+00  0.00000000000E+00  0.24771419754E+04  0.24771419754E+04  0.25500000920E-02 0.  1.
       -2   -1    0    0    0  501  0.00000000000E+00  0.00000000000E+00 -0.11724172549E+04  0.11724172549E+04  0.25500000920E-02 0. -1.
    10030    2    1    2    0    0  0.00000000000E+00  0.00000000000E+00  0.13047247205E+04  0.36495592303E+04  0.34083685216E+04 0.  0.
        2    1    3    3  502    0 -0.19175565924E+03 -0.16836421554E+04  0.45837115319E+03  0.17554273708E+04  0.25500000920E-02 0. -1.
       -2    1    3    3    0  502  0.19175565924E+03  0.16836421554E+04  0.84635356728E+03  0.18941318595E+04  0.25500000920E-02 0.  1.
</event>
<event>
 5   0  0.1880301E-06  0.3398426E+04  0.7818609E-02  0.8138293E-01
        2   -1    0    0  501    0  0.00000000000E+00  0.00000000000E+00  0.21906126631E+04  0.21906126631E+04  0.25500000920E-02 0. -1.
       -2   -1    0    0    0  501  0.00000000000E+00  0.00000000000E+00 -0.13180440733E+04  0.13180440733E+04  0.25500000920E-02 0.  1.
    10030    2    1    2    0    0  0.00000000000E+00  0.00000000000E+00  0.87256858987E+03  0.35086567364E+04  0.33984255398E+04 0.  0.
        4    1    3    3  502    0  0.69281314903E+03  0.15514137077E+04  0.45813374177E+03  0.17597621118E+04  0.12699999809E+01 0.  1.
       -4    1    3    3    0  502 -0.69281314903E+03 -0.15514137077E+04  0.41443484810E+03  0.17488946246E+04  0.12699999809E+01 0. -1.
</event>
<event>
 5   0  0.1797075E-06  0.3402226E+04  0.7818609E-02  0.8137360E-01
        2   -1    0    0  501    0  0.00000000000E+00  0.00000000000E+00  0.30248219605E+04  0.30248219605E+04  0.25500000920E-02 0.  1.
       -2   -1    0    0    0  501  0.00000000000E+00  0.00000000000E+00 -0.95667972558E+03  0.95667972559E+03  0.25500000920E-02 0. -1.
    10030    2    1    2    0    0  0.00000000000E+00  0.00000000000E+00  0.20681422349E+04  0.39815016861E+04  0.34022262377E+04 0.  0.
        2    1    3    3  502    0 -0.56267810902E+03 -0.58814669298E+03  0.27821420969E+04  0.28987648808E+04  0.25500000920E-02 0.  1.
       -2    1    3    3    0  502  0.56267810902E+03  0.58814669298E+03 -0.71399986192E+03  0.10827368053E+04  0.25500000920E-02 0. -1.
</event>
<event>
 5   0  0.1797075E-06  0.3293166E+04  0.7818609E-02  0.8164636E-01
       -2   -1    0    0    0  501  0.00000000000E+00  0.00000000000E+00  0.17751777708E+04  0.17751777708E+04  0.25500000920E-02 0.  1.
        2   -1    0    0  501    0  0.00000000000E+00  0.00000000000E+00 -0.15273036026E+04  0.15273036026E+04  0.25500000920E-02 0. -1.
    10030    2    1    2    0    0  0.00000000000E+00  0.00000000000E+00  0.24787416824E+03  0.33024813734E+04  0.32931658960E+04 0.  0.
        2    1    3    3  502    0 -0.16099370911E+03  0.48099468212E+03  0.16948805478E+04  0.17691509064E+04  0.25500000920E-02 0.  1.
       -2    1    3    3    0  502  0.16099370911E+03 -0.48099468212E+03 -0.14470063795E+04  0.15333304670E+04  0.25500000920E-02 0. -1.
</event>
<event>
 5   0  0.1339844E-06  0.3329798E+04  0.7818609E-02  0.8155354E-01
        2   -1    0    0  501    0  0.00000000000E+00  0.00000000000E+00  0.20694340578E+04  0.20694340578E+04  0.25500000920E-02 0.  1.
       -2   -1    0    0    0  501  0.00000000000E+00  0.00000000000E+00 -0.13394428905E+04  0.13394428905E+04  0.25500000920E-02 0. -1.
    10030    2    1    2    0    0  0.00000000000E+00  0.00000000000E+00  0.72999116728E+03  0.34088769483E+04  0.33297980335E+04 0.  0.
        3    1    3    3  502    0  0.10639167943E+04  0.36791470337E+03  0.16207513903E+04  0.19733512747E+04  0.10100000352E+00 0.  1.
       -3    1    3    3    0  502 -0.10639167943E+04 -0.36791470337E+03 -0.89076022302E+03  0.14355256735E+04  0.10100000352E+00 0. -1.
</event>
<event>
 5   0  0.6218695E-07  0.3392416E+04  0.7818609E-02  0.8139770E-01
       -1   -1    0    0    0  501  0.00000000000E+00  0.00000000000E+00  0.14270058671E+04  0.14270058672E+04  0.50400001928E-02 0.  1.
        1   -1    0    0  501    0  0.00000000000E+00  0.00000000000E+00 -0.20161949934E+04  0.20161949934E+04  0.50400001928E-02 0. -1.
    10030    2    1    2    0    0  0.00000000000E+00  0.00000000000E+00 -0.58918912622E+03  0.34432008605E+04  0.33924162981E+04 0.  0.
        2    1    3    3  502    0  0.33613779564E+03  0.14683004616E+04  0.49696963641E+03  0.15861505864E+04  0.25500000920E-02 0.  1.
       -2    1    3    3    0  502 -0.33613779564E+03 -0.14683004616E+04 -0.10861587626E+04  0.18570502742E+04  0.25500000920E-02 0. -1.
</event>
<event>
 5   0  0.6146388E-07  0.3380138E+04  0.7818609E-02  0.8142798E-01
        1   -1    0    0  501    0  0.00000000000E+00  0.00000000000E+00  0.18706057658E+04  0.18706057658E+04  0.50400001928E-02 0. -1.
       -1   -1    0    0    0  501  0.00000000000E+00  0.00000000000E+00 -0.15269565554E+04  0.15269565554E+04  0.50400001928E-02 0.  1.
    10030    2    1    2    0    0  0.00000000000E+00  0.00000000000E+00  0.34364921046E+03  0.33975623212E+04  0.33801383029E+04 0.  0.
        4    1    3    3  502    0 -0.86703421736E+03 -0.10466060914E+04 -0.83794308463E+03  0.15966473845E+04  0.12699999809E+01 0.  1.
       -4    1    3    3    0  502  0.86703421736E+03  0.10466060914E+04  0.11815922951E+04  0.18009149367E+04  0.12699999809E+01 0. -1.
</event>
<event>
 5   0  0.6134625E-07  0.3361441E+04  0.7818609E-02  0.8147435E-01
       -1   -1    0    0    0  501  0.00000000000E+00  0.00000000000E+00  0.20184938777E+04  0.20184938777E+04  0.50400001928E-02 0. -1.
        1   -1    0    0  501    0  0.00000000000E+00  0.00000000000E+00 -0.13994699116E+04  0.13994699116E+04  0.50400001928E-02 0.  1.
    10030    2    1    2    0    0  0.00000000000E+00  0.00000000000E+00  0.61902396606E+03  0.34179637893E+04  0.33614410294E+04 0.  0.
        3    1    3    3  502    0  0.32391827748E+03 -0.13332297408E+04 -0.67758283653E+03  0.15302101499E+04  0.10100000352E+00 0.  1.
       -3    1    3    3    0  502 -0.32391827748E+03  0.13332297408E+04  0.12966068026E+04  0.18877536394E+04  0.10100000352E+00 0. -1.
</event>
<event>
 5   0  0.6134625E-07  0.3401493E+04  0.7818609E-02  0.8137540E-01
        1   -1    0    0  501    0  0.00000000000E+00  0.00000000000E+00  0.22371125169E+04  0.22371125169E+04  0.50400001928E-02 0. -1.
       -1   -1    0    0    0  501  0.00000000000E+00  0.00000000000E+00 -0.12929784731E+04  0.12929784731E+04  0.50400001928E-02 0.  1.
    10030    2    1    2    0    0  0.00000000000E+00  0.00000000000E+00  0.94413404381E+03  0.35300909900E+04  0.34014928054E+04 0.  0.
        5    1    3    3  502    0 -0.47240714760E+03  0.14393592080E+04  0.12743341886E+04  0.19796143960E+04  0.46999998093E+01 0. -1.
       -5    1    3    3    0  502  0.47240714760E+03 -0.14393592080E+04 -0.33020014475E+03  0.15504765940E+04  0.46999998093E+01 0.  1.
</event>
<event>
 5   0  0.6218695E-07  0.3204766E+04  0.7818609E-02  0.8187560E-01
        1   -1    0    0  501    0  0.00000000000E+00  0.00000000000E+00  0.21310672778E+04  0.21310672778E+04  0.50400001928E-02 0.  1.
       -1   -1    0    0    0  501  0.00000000000E+00  0.00000000000E+00 -0.12048569500E+04  0.12048569500E+04  0.50400001928E-02 0. -1.
    10030    2    1    2    0    0  0.00000000000E+00  0.00000000000E+00  0.92621032780E+03  0.33359242278E+04  0.32047659637E+04 0.  0.
        2    1    3    3  502    0 -0.73377744930E+03  0.52676288796E+03  0.18407984478E+04  0.20504749232E+04  0.25500000920E-02 0.  1.
       -2    1    3    3    0  502  0.73377744930E+03 -0.52676288796E+03 -0.91458812003E+03  0.12854493045E+04  0.25500000920E-02 0. -1.
</event>
<event>
 5   0  0.6134625E-07  0.3402180E+04  0.7818609E-02  0.8137371E-01
       -1   -1    0    0    0  501  0.00000000000E+00  0.00000000000E+00  0.23963177803E+04  0.23963177803E+04  0.50400001928E-02 0.  1.
        1   -1    0    0  501    0  0.00000000000E+00  0.00000000000E+00 -0.12075640441E+04  0.12075640441E+04  0.50400001928E-02 0. -1.
    10030    2    1    2    0    0  0.00000000000E+00  0.00000000000E+00  0.11887537362E+04  0.36038818244E+04  0.34021800009E+04 0.  0.
        1    1    3    3  502    0 -0.14846890729E+04 -0.14172206939E+03  0.14610000171E+04  0.20877997601E+04  0.50400001928E-02 0.  1.
       -1    1    3    3    0  502  0.14846890729E+04  0.14172206939E+03 -0.27224628098E+03  0.15160820643E+04  0.50400001928E-02 0. -1.
</event>
<event>
 5   0  0.1880301E-06  0.3396491E+04  0.7818609E-02  0.8138768E-01
        2   -1    0    0  501    0  0.00000000000E+00  0.00000000000E+00  0.14651634801E+04  0.14651634801E+04  0.25500000920E-02 0. -1.
       -2   -1    0    0    0  501  0.00000000000E+00  0.00000000000E+00 -0.19684063728E+04  0.19684063728E+04  0.25500000920E-02 0.  1.
    10030    2    1    2    0    0  0.00000000000E+00  0.00000000000E+00 -0.50324289269E+03  0.34335698529E+04  0.33964906191E+04 0.  0.
        4    1    3    3  502    0 -0.10218457113E+04 -0.12017784735E+04  0.38420862362E+03  0.16235941724E+04  0.12699999809E+01 0. -1.
       -4    1    3    3    0  502  0.10218457113E+04  0.12017784735E+04 -0.88745151631E+03  0.18099756805E+04  0.12699999809E+01 0.  1.
</event>
<event>
 5   0  0.1880301E-06  0.3399983E+04  0.7818609E-02  0.8137911E-01
       -2   -1    0    0    0  501  0.00000000000E+00  0.00000000000E+00  0.88798808800E+03  0.88798808800E+03  0.25500000920E-02 0.  1.
        2   -1    0    0  501    0  0.00000000000E+00  0.00000000000E+00 -0.32545146702E+04  0.32545146702E+04  0.25500000920E-02 0. -1.
    10030    2    1    2    0    0  0.00000000000E+00  0.00000000000E+00 -0.23665265822E+04  0.41425027582E+04  0.33999825055E+04 0.  0.
        4    1    3    3  502    0 -0.20801087061E+03 -0.16738086824E+04 -0.14419082241E+04  0.22190099070E+04  0.12699999809E+01 0. -1.
       -4    1    3    3    0  502  0.20801087061E+03  0.16738086824E+04 -0.92461835809E+03  0.19234928512E+04  0.12699999809E+01 0.  1.
</event>
<event>
 5   0  0.1797075E-06  0.3411402E+04  0.7818609E-02  0.8135113E-01
       -2   -1    0    0    0  501  0.00000000000E+00  0.00000000000E+00  0.17012287821E+04  0.17012287821E+04  0.25500000920E-02 0. -1.
        2   -1    0    0  501    0  0.00000000000E+00  0.00000000000E+00 -0.17101853428E+04  0.17101853428E+04  0.25500000920E-02 0.  1.
    10030    2    1    2    0    0  0.00000000000E+00  0.00000000000E+00 -0.89565607177E+01  0.34114141250E+04  0.34114023674E+04 0.  0.
        2    1    3    3  502    0 -0.25896020501E+03 -0.35744726822E+03 -0.16520845145E+04  0.17100328009E+04  0.25500000920E-02 0.  1.
       -2    1    3    3    0  502  0.25896020501E+03  0.35744726822E+03  0.16431279538E+04  0.17013813240E+04  0.25500000920E-02 0. -1.
</event>
<event>
 5   0  0.6134625E-07  0.3432167E+04  0.7818609E-02  0.8130056E-01
       -1   -1    0    0    0  501  0.00000000000E+00  0.00000000000E+00  0.11589281452E+04  0.11589281452E+04  0.50400001928E-02 0. -1.
        1   -1    0    0  501    0  0.00000000000E+00  0.00000000000E+00 -0.25410920039E+04  0.25410920039E+04  0.50400001928E-02 0.  1.
    10030    2    1    2    0    0  0.00000000000E+00  0.00000000000E+00 -0.13821638586E+04  0.37000201491E+04  0.34321672703E+04 0.  0.
        5    1    3    3  502    0  0.47525517805E+03  0.14197713983E+03 -0.24621233368E+04  0.25115928030E+04  0.46999998093E+01 0.  1.
       -5    1    3    3    0  502 -0.47525517805E+03 -0.14197713983E+03  0.10799594781E+04  0.11884273461E+04  0.46999998093E+01 0. -1.
</event>
<event>
 5   0  0.6146388E-07  0.2570004E+04  0.7818609E-02  0.8378462E-01
        1   -1    0    0  501    0  0.00000000000E+00  0.00000000000E+00  0.11031815798E+04  0.11031815798E+04  0.50400001928E-02 0.  1.
       -1   -1    0    0    0  501  0.00000000000E+00  0.00000000000E+00 -0.14967895328E+04  0.14967895328E+04  0.50400001928E-02 0. -1.
    10030    2    1    2    0    0  0.00000000000E+00  0.00000000000E+00 -0.39360795300E+03  0.25999711126E+04  0.25700043902E+04 0.  0.
        4    1    3    3  502    0 -0.12311300158E+04 -0.76550063739E+02 -0.56112526948E+03  0.13551399223E+04  0.12699999809E+01 0. -1.
       -4    1    3    3    0  502  0.12311300158E+04  0.76550063739E+02  0.16751731648E+03  0.12448311903E+04  0.12699999809E+01 0.  1.
</event>
<event>
 5   0  0.6134625E-07  0.3331191E+04  0.7818609E-02  0.8155004E-01
        1   -1    0    0  501    0  0.00000000000E+00  0.00000000000E+00  0.21096993823E+04  0.21096993823E+04  0.50400001928E-02 0. -1.
       -1   -1    0    0    0  501  0.00000000000E+00  0.00000000000E+00 -0.13149779750E+04  0.13149779750E+04  0.50400001928E-02 0.  1.
    10030    2    1    2    0    0  0.00000000000E+00  0.00000000000E+00  0.79472140734E+03  0.34246773574E+04  0.33311909112E+04 0.  0.
        3    1    3    3  502    0 -0.52938718117E+03 -0.94321889260E+03  0.16995146402E+04  0.20145130154E+04  0.10100000352E+00 0. -1.
       -3    1    3    3    0  502  0.52938718117E+03  0.94321889260E+03 -0.90479323282E+03  0.14101643419E+04  0.10100000352E+00 0.  1.
</event>
<event>
 5   0  0.6134625E-07  0.3409098E+04  0.7818609E-02  0.8135677E-01
       -1   -1    0    0    0  501  0.00000000000E+00  0.00000000000E+00  0.14079488275E+04  0.14079488275E+04  0.50400001928E-02 0.  1.
        1   -1    0    0  501    0  0.00000000000E+00  0.00000000000E+00 -0.20636308066E+04  0.20636308066E+04  0.50400001928E-02 0. -1.
    10030    2    1    2    0    0  0.00000000000E+00  0.00000000000E+00 -0.65568197909E+03  0.34715796342E+04  0.34090975783E+04 0.  0.
        5    1    3    3  502    0 -0.98776879050E+02  0.16997523882E+04 -0.41025280893E+03  0.17513550498E+04  0.46999998093E+01 0. -1.
       -5    1    3    3    0  502  0.98776879050E+02 -0.16997523882E+04 -0.24542917016E+03  0.17202245844E+04  0.46999998093E+01 0.  1.
</event>
<event>
 5   0  0.6146388E-07  0.3320488E+04  0.7818609E-02  0.8157702E-01
       -1   -1    0    0    0  501  0.00000000000E+00  0.00000000000E+00  0.17114337359E+04  0.17114337359E+04  0.50400001928E-02 0.  1.
        1   -1    0    0  501    0  0.00000000000E+00  0.00000000000E+00 -0.16105855331E+04  0.16105855331E+04  0.50400001928E-02 0. -1.
    10030    2    1    2    0    0  0.00000000000E+00  0.00000000000E+00  0.10084820273E+03  0.33220192690E+04  0.33204881665E+04 0.  0.
        4    1    3    3  502    0 -0.89070960027E+03 -0.13412863914E+04 -0.35472686025E+03  0.16487102638E+04  0.12699999809E+01 0. -1.
       -4    1    3    3    0  502  0.89070960027E+03  0.13412863914E+04  0.45557506298E+03  0.16733090052E+04  0.12699999809E+01 0.  1.
</event>
<event>
 5   0  0.6218695E-07  0.3433487E+04  0.7818609E-02  0.8129736E-01
        1   -1    0    0  501    0  0.00000000000E+00  0.00000000000E+00  0.18076072670E+04  0.18076072670E+04  0.50400001928E-02 0. -1.
       -1   -1    0    0    0  501  0.00000000000E+00  0.00000000000E+00 -0.16304469637E+04  0.16304469637E+04  0.50400001928E-02 0.  1.
    10030    2    1    2    0    0  0.00000000000E+00  0.00000000000E+00  0.17716030326E+03  0.34380542307E+04  0.34334867293E+04 0.  0.
        2    1    3    3  502    0 -0.15818162178E+04  0.37539926008E+03  0.64080325129E+03  0.17474827491E+04  0.25500000920E-02 0. -1.
       -2    1    3    3    0  502  0.15818162178E+04 -0.37539926008E+03 -0.46364294804E+03  0.16905714817E+04  0.25500000920E-02 0.  1.
</event>
<event>
 5   0  0.1948507E-06  0.3427828E+04  0.7818609E-02  0.8131110E-01
       -2   -1    0    0    0  501  0.00000000000E+00  0.00000000000E+00  0.14453384543E+04  0.14453384543E+04  0.25500000920E-02 0.  1.
        2   -1    0    0  501    0  0.00000000000E+00  0.00000000000E+00 -0.20323970964E+04  0.20323970964E+04  0.25500000920E-02 0. -1.
    10030    2    1    2    0    0  0.00000000000E+00  0.00000000000E+00 -0.58705864210E+03  0.34777355508E+04  0.34278282792E+04 0.  0.
        1    1    3    3  502    0 -0.13306961862E+04  0.90633331784E+02 -0.13855530240E+04  0.19232066772E+04  0.50400001928E-02 0. -1.
       -1    1    3    3    0  502  0.13306961862E+04 -0.90633331784E+02  0.79849438195E+03  0.15545288736E+04  0.50400001928E-02 0.  1.
</event>
<event>
 5   0  0.1797075E-06  0.3501880E+04  0.7818609E-02  0.8113345E-01
        2   -1    0    0  501    0  0.00000000000E+00  0.00000000000E+00  0.21951789513E+04  0.21951789513E+04  0.25500000920E-02 0.  1.
       -2   -1    0    0    0  501  0.00000000000E+00  0.00000000000E+00 -0.13966015448E+04  0.13966015448E+04  0.25500000920E-02 0. -1.
    10030    2    1    2    0    0  0.00000000000E+00  0.00000000000E+00  0.79857740650E+03  0.35917804960E+04  0.35018796749E+04 0.  0.
        2    1    3    3  502    0 -0.28577375831E+02  0.19286153465E+03  0.21840107488E+04  0.21926958724E+04  0.25500000920E-02 0.  1.
       -2    1    3    3    0  502  0.28577375831E+02 -0.19286153465E+03 -0.13854333423E+04  0.13990846236E+04  0.25500000920E-02 0. -1.
</event>
<event>
 5   0  0.1339844E-06  0.3385208E+04  0.7818609E-02  0.8141546E-01
       -2   -1    0    0    0  501  0.00000000000E+00  0.00000000000E+00  0.17479099262E+04  0.17479099262E+04  0.25500000920E-02 0.  1.
        2   -1    0    0  501    0  0.00000000000E+00  0.00000000000E+00 -0.16390478563E+04  0.16390478563E+04  0.25500000920E-02 0. -1.
    10030    2    1    2    0    0  0.00000000000E+00  0.00000000000E+00  0.10886206991E+03  0.33869577824E+04  0.33852078326E+04 0.  0.
        3    1    3    3  502    0 -0.74677731781E+03 -0.70496485658E+03 -0.12917221019E+04  0.16502114441E+04  0.10100000352E+00 0. -1.
       -3    1    3    3    0  502  0.74677731781E+03  0.70496485658E+03  0.14005841718E+04  0.17367463384E+04  0.10100000352E+00 0.  1.
</event>
<event>
 5   0  0.1339844E-06  0.3458449E+04  0.7818609E-02  0.8123708E-01
       -2   -1    0    0    0  501  0.00000000000E+00  0.00000000000E+00  0.29076407171E+04  0.29076407171E+04  0.25500000920E-02 0. -1.
        2   -1    0    0  501    0  0.00000000000E+00  0.00000000000E+00 -0.10283997486E+04  0.10283997486E+04  0.25500000920E-02 0.  1.
    10030    2    1    2    0    0  0.00000000000E+00  0.00000000000E+00  0.18792409685E+04  0.39360404657E+04  0.34584487751E+04 0.  0.
        3    1    3    3  502    0  0.85604119044E+03  0.49305909002E+03  0.25548737473E+04  0.27392140589E+04  0.10100000352E+00 0. -1.
       -3    1    3    3    0  502 -0.85604119044E+03 -0.49305909002E+03 -0.67563277874E+03  0.11968264068E+04  0.10100000352E+00 0.  1.
</event>
<event>
 5   0  0.6134625E-07  0.3393646E+04  0.7818609E-02  0.8139468E-01
       -1   -1    0    0    0  501  0.00000000000E+00  0.00000000000E+00  0.12795513755E+04  0.12795513755E+04  0.50400001928E-02 0.  1.
        1   -1    0    0  501    0  0.00000000000E+00  0.00000000000E+00 -0.22501703549E+04  0.22501703549E+04  0.50400001928E-02 0. -1.
    10030    2    1    2    0    0  0.00000000000E+00  0.00000000000E+00 -0.97061897940E+03  0.35297217305E+04  0.33936461648E+04 0.  0.
        5    1    3    3  502    0 -0.53451061957E+03  0.11881908076E+04  0.64533280571E+03  0.14539516903E+04  0.46999998093E+01 0.  1.
       -5    1    3    3    0  502  0.53451061957E+03 -0.11881908076E+04 -0.16159517851E+04  0.20757700401E+04  0.46999998093E+01 0. -1.
</event>
<event>
 5   0  0.6134625E-07  0.3403415E+04  0.7818609E-02  0.8137069E-01
        1   -1    0    0  501    0  0.00000000000E+00  0.00000000000E+00  0.13167214986E+04  0.13167214987E+04  0.50400001928E-02 0.  1.
       -1   -1    0    0    0  501  0.00000000000E+00  0.00000000000E+00 -0.21992559825E+04  0.21992559825E+04  0.50400001928E-02 0. -1.
    10030    2    1    2    0    0  0.00000000000E+00  0.00000000000E+00 -0.88253448384E+03  0.35159774812E+04  0.34034145403E+04 0.  0.
        3    1    3    3  502    0  0.37808609951E+03 -0.35728597641E+03 -0.21151031002E+04  0.21781330314E+04  0.10100000352E+00 0. -1.
       -3    1    3    3    0  502 -0.37808609951E+03  0.35728597641E+03  0.12325686164E+04  0.13378444498E+04  0.10100000352E+00 0.  1.
</event>
<event>
 5   0  0.6218695E-07  0.3404394E+04  0.7818609E-02  0.8136829E-01
        1   -1    0    0  501    0  0.00000000000E+00  0.00000000000E+00  0.17838671326E+04  0.17838671326E+04  0.50400001928E-02 0.  1.
       -1   -1    0    0    0  501  0.00000000000E+00  0.00000000000E+00 -0.16242661714E+04  0.16242661714E+04  0.50400001928E-02 0. -1.
    10030    2    1    2    0    0  0.00000000000E+00  0.00000000000E+00  0.15960096125E+03  0.34081333040E+04  0.34043942415E+04 0.  0.
        2    1    3    3  502    0 -0.57826218622E+03  0.68489111340E+03 -0.13688590023E+04  0.16362267451E+04  0.25500000920E-02 0. -1.
       -2    1    3    3    0  502  0.57826218622E+03 -0.68489111340E+03  0.15284599636E+04  0.17719065589E+04  0.25500000920E-02 0.  1.
</event>
<event>
 5   0  0.6134625E-07  0.3390293E+04  0.7818609E-02  0.8140293E-01
        1   -1    0    0  501    0  0.00000000000E+00  0.00000000000E+00  0.21671734481E+04  0.21671734481E+04  0.50400001928E-02 0. -1.
       -1   -1    0    0    0  501  0.00000000000E+00  0.00000000000E+00 -0.13259305679E+04  0.13259305679E+04  0.50400001928E-02 0.  1.
    10030    2    1    2    0    0  0.00000000000E+00  0.00000000000E+00  0.84124288021E+03  0.34931040161E+04  0.33902929200E+04 0.  0.
        3    1    3    3  502    0  0.14914854664E+04  0.31916100337E+03  0.11827339848E+04  0.19300912755E+04  0.10100000352E+00 0. -1.
       -3    1    3    3    0  502 -0.14914854664E+04 -0.31916100337E+03 -0.34149110464E+03  0.15630127406E+04  0.10100000352E+00 0.  1.
</event>
<event>
 5   0  0.1797075E-06  0.3400519E+04  0.7818609E-02  0.8137779E-01
       -2   -1    0    0    0  501  0.00000000000E+00  0.00000000000E+00  0.18647710952E+04  0.18647710952E+04  0.25500000920E-02 0. -1.
        2   -1    0    0  501    0  0.00000000000E+00  0.00000000000E+00 -0.15502613250E+04  0.15502613250E+04  0.25500000920E-02 0.  1.
    10030    2    1    2    0    0  0.00000000000E+00  0.00000000000E+00  0.31450977017E+03  0.34150324201E+04  0.34005190832E+04 0.  0.
        2    1    3    3  502    0  0.31922227415E+03  0.33842565422E+03 -0.14850987322E+04  0.15562625190E+04  0.25500000920E-02 0.  1.
       -2    1    3    3    0  502 -0.31922227415E+03 -0.33842565422E+03  0.17996085023E+04  0.18587699011E+04  0.25500000920E-02 0. -1.
</event>
<event>
 5   0  0.1948507E-06  0.3469218E+04  0.7818609E-02  0.8121124E-01
        2   -1    0    0  501    0  0.00000000000E+00  0.00000000000E+00  0.25676976554E+04  0.25676976554E+04  0.25500000920E-02 0. -1.
       -2   -1    0    0    0  501  0.00000000000E+00  0.00000000000E+00 -0.11718159854E+04  0.11718159854E+04  0.25500000920E-02 0.  1.
    10030    2    1    2    0    0  0.00000000000E+00  0.00000000000E+00  0.13958816700E+04  0.37395136408E+04  0.34692184470E+04 0.  0.
        1    1    3    3  502    0  0.11750234941E+04 -0.10106294803E+04 -0.14173633300E+03  0.15563230212E+04  0.50400001928E-02 0.  1.
       -1    1    3    3    0  502 -0.11750234941E+04  0.10106294803E+04  0.15376180030E+04  0.21831906196E+04  0.50400001928E-02 0. -1.
</event>
<event>
 5   0  0.1948507E-06  0.3340230E+04  0.7818609E-02  0.8152734E-01
        2   -1    0    0  501    0  0.00000000000E+00  0.00000000000E+00  0.31103103511E+04  0.31103103511E+04  0.25500000920E-02 0.  1.
       -2   -1    0    0    0  501  0.00000000000E+00  0.00000000000E+00 -0.89678660940E+03  0.89678660941E+03  0.25500000920E-02 0. -1.
    10030    2    1    2    0    0  0.00000000000E+00  0.00000000000E+00  0.22135237417E+04  0.40070969605E+04  0.33402303358E+04 0.  0.
        1    1    3    3  502    0  0.10154642873E+04 -0.45437422692E+03  0.26011102609E+04  0.28290277917E+04  0.50400001928E-02 0.  1.
       -1    1    3    3    0  502 -0.10154642873E+04  0.45437422692E+03 -0.38758651914E+03  0.11780691689E+04  0.50400001928E-02 0. -1.
</event>
<event>
 5   0  0.1339844E-06  0.3354904E+04  0.7818609E-02  0.8149064E-01
        2   -1    0    0  501    0  0.00000000000E+00  0.00000000000E+00  0.21992288430E+04  0.21992288430E+04  0.25500000920E-02 0.  1.
       -2   -1    0    0    0  501  0.00000000000E+00  0.00000000000E+00 -0.12794690284E+04  0.12794690284E+04  0.25500000920E-02 0. -1.
    10030    2    1    2    0    0  0.00000000000E+00  0.00000000000E+00  0.91975981464E+03  0.34786978714E+04  0.33549039872E+04 0.  0.
        3    1    3    3  502    0 -0.96255002484E+03 -0.13436573554E+04  0.75667148860E+03  0.18178199555E+04  0.10100000352E+00 0.  1.
       -3    1    3    3    0  502  0.96255002484E+03  0.13436573554E+04  0.16308832604E+03  0.16608779158E+04  0.10100000352E+00 0. -1.
</event>
<event>
 5   0  0.6218695E-07  0.2822917E+04  0.7818609E-02  0.8296189E-01
       -1   -1    0    0    0  501  0.00000000000E+00  0.00000000000E+00  0.97978057678E+03  0.97978057680E+03  0.50400001928E-02 0.  1.
        1   -1    0    0  501    0  0.00000000000E+00  0.00000000000E+00 -0.20333284817E+04  0.20333284818E+04  0.50400001928E-02 0. -1.
    10030    2    1    2    0    0  0.00000000000E+00  0.00000000000E+00 -0.10535479050E+04  0.30131090585E+04  0.28229174644E+04 0.  0.
        2    1    3    3  502    0  0.53321453055E+03  0.12829320758E+04 -0.26103572190E+03  0.14136378938E+04  0.25500000920E-02 0. -1.
       -2    1    3    3    0  502 -0.53321453055E+03 -0.12829320758E+04 -0.79251218305E+03  0.15994711648E+04  0.25500000920E-02 0.  1.
</event>
<event>
 5   0  0.1948507E-06  0.3372139E+04  0.7818609E-02  0.8144778E-01
        2   -1    0    0  501    0  0.00000000000E+00  0.00000000000E+00  0.17875798423E+04  0.17875798423E+04  0.25500000920E-02 0.  1.
       -2   -1    0    0    0  501  0.00000000000E+00  0.00000000000E+00 -0.15903234128E+04  0.15903234128E+04  0.25500000920E-02 0. -1.
    10030    2    1    2    0    0  0.00000000000E+00  0.00000000000E+00  0.19725642951E+03  0.33779032552E+04  0.33721388320E+04 0.  0.
        1    1    3    3  502    0 -0.38472242999E+03 -0.60557348071E+03 -0.14297911385E+04  0.15996978741E+04  0.50400001928E-02 0. -1.
       -1    1    3    3    0  502  0.38472242999E+03  0.60557348071E+03  0.16270475680E+04  0.17782053811E+04  0.50400001928E-02 0.  1.
</event>
<event>
 5   0  0.6218695E-07  0.3371467E+04  0.7818609E-02  0.8144945E-01
        1   -1    0    0  501    0  0.00000000000E+00  0.00000000000E+00  0.23382965365E+04  0.23382965365E+04  0.50400001928E-02 0.  1.
       -1   -1    0    0    0  501  0.00000000000E+00  0.00000000000E+00 -0.12152854792E+04  0.12152854792E+04  0.50400001928E-02 0. -1.
    10030    2    1    2    0    0  0.00000000000E+00  0.00000000000E+00  0.11230110573E+04  0.35535820157E+04  0.33714672336E+04 0.  0.
        2    1    3    3  502    0 -0.49597865400E+03 -0.15760023276E+04  0.91412038085E+03  0.18882251541E+04  0.25500000920E-02 0. -1.
       -2    1    3    3    0  502  0.49597865400E+03  0.15760023276E+04  0.20889067649E+03  0.16653568616E+04  0.25500000920E-02 0.  1.
</event>
<event>
 5   0  0.1911477E-06  0.3329156E+04  0.7818609E-02  0.8155516E-01
       -2   -1    0    0    0  501  0.00000000000E+00  0.00000000000E+00  0.13509369933E+04  0.13509369933E+04  0.25500000920E-02 0.  1.
        2   -1    0    0  501    0  0.00000000000E+00  0.00000000000E+00 -0.20510351971E+04  0.20510351971E+04  0.25500000920E-02 0. -1.
    10030    2    1    2    0    0  0.00000000000E+00  0.00000000000E+00 -0.70009820382E+03  0.34019721904E+04  0.33291556421E+04 0.  0.
        5    1    3    3  502    0 -0.16591677927E+04  0.16395585769E+01 -0.21311523008E+03  0.16728062182E+04  0.46999998093E+01 0. -1.
       -5    1    3    3    0  502  0.16591677927E+04 -0.16395585769E+01 -0.48698297374E+03  0.17291659721E+04  0.46999998093E+01 0.  1.
</event>
<event>
 5   0  0.1339844E-06  0.3516438E+04  0.7818609E-02  0.8109905E-01
        2   -1    0    0  501    0  0.00000000000E+00  0.00000000000E+00  0.26728924515E+04  0.26728924515E+04  0.25500000920E-02 0.  1.
       -2   -1    0    0    0  501  0.00000000000E+00  0.00000000000E+00 -0.11565501022E+04  0.11565501022E+04  0.25500000920E-02 0. -1.
    10030    2    1    2    0    0  0.00000000000E+00  0.00000000000E+00  0.15163423493E+04  0.38294425537E+04  0.35164379920E+04 0.  0.
        3    1    3    3  502    0 -0.27143152488E+03 -0.17295771819E+04  0.93451621076E+03  0.19845485278E+04  0.10100000352E+00 0.  1.
       -3    1    3    3    0  502  0.27143152488E+03  0.17295771819E+04  0.58182613859E+03  0.18448940259E+04  0.10100000352E+00 0. -1.
</event>
<event>
 5   0  0.6218695E-07  0.2533016E+04  0.7818609E-02  0.8391317E-01
        1   -1    0    0  501    0  0.00000000000E+00  0.00000000000E+00  0.20334486510E+04  0.20334486510E+04  0.50400001928E-02 0. -1.
       -1   -1    0    0    0  501  0.00000000000E+00  0.00000000000E+00 -0.78882845288E+03  0.78882845290E+03  0.50400001928E-02 0.  1.
    10030    2    1    2    0    0  0.00000000000E+00  0.00000000000E+00  0.12446201981E+04  0.28222771039E+04  0.25330157152E+04 0.  0.
        2    1    3    3  502    0  0.19411074581E+03  0.12412449658E+04  0.80083937251E+03  0.14898697082E+04  0.25500000920E-02 0. -1.
       -2    1    3    3    0  502 -0.19411074581E+03 -0.12412449658E+04  0.44378082559E+03  0.13324073957E+04  0.25500000920E-02 0.  1.
</event>
<event>
 5   0  0.1911477E-06  0.3405288E+04  0.7818609E-02  0.8136610E-01
        2   -1    0    0  501    0  0.00000000000E+00  0.00000000000E+00  0.22480597081E+04  0.22480597081E+04  0.25500000920E-02 0.  1.
       -2   -1    0    0    0  501  0.00000000000E+00  0.00000000000E+00 -0.12895548569E+04  0.12895548569E+04  0.25500000920E-02 0. -1.
    10030    2    1    2    0    0  0.00000000000E+00  0.00000000000E+00  0.95850485117E+03  0.35376145650E+04  0.34052878381E+04 0.  0.
        5    1    3    3  502    0  0.69715988378E+03  0.15275435318E+04  0.77226427632E+03  0.18481978648E+04  0.46999998093E+01 0. -1.
       -5    1    3    3    0  502 -0.69715988378E+03 -0.15275435318E+04  0.18624057485E+03  0.16894167001E+04  0.46999998093E+01 0.  1.
</event>
<event>
 5   0  0.6134625E-07  0.3341274E+04  0.7818609E-02  0.8152472E-01
       -1   -1    0    0    0  501  0.00000000000E+00  0.00000000000E+00  0.11472074094E+04  0.11472074094E+04  0.50400001928E-02 0. -1.
        1   -1    0    0  501    0  0.00000000000E+00  0.00000000000E+00 -0.24328894514E+04  0.24328894514E+04  0.50400001928E-02 0.  1.
    10030    2    1    2    0    0  0.00000000000E+00  0.00000000000E+00 -0.12856820420E+04  0.35800968608E+04  0.33412744903E+04 0.  0.
        5    1    3    3  502    0 -0.11344050283E+04  0.11938160200E+03  0.66500996452E+03  0.13203738403E+04  0.46999998093E+01 0. -1.
       -5    1    3    3    0  502  0.11344050283E+04 -0.11938160200E+03 -0.19506920065E+04  0.22597230205E+04  0.46999998093E+01 0.  1.
</event>
<event>
 5   0  0.6134625E-07  0.2596586E+04  0.7818609E-02  0.8369362E-01
        1   -1    0    0  501    0  0.00000000000E+00  0.00000000000E+00  0.23124984793E+04  0.23124984793E+04  0.50400001928E-02 0.  1.
       -1   -1    0    0    0  501  0.00000000000E+00  0.00000000000E+00 -0.72889358729E+03  0.72889358730E+03  0.50400001928E-02 0. -1.
    10030    2    1    2    0    0  0.00000000000E+00  0.00000000000E+00  0.15836048920E+04  0.30413920666E+04  0.25965864609E+04 0.  0.
        5    1    3    3  502    0  0.60445767242E+03 -0.10554259173E+04  0.13237476422E+04  0.17976715092E+04  0.46999998093E+01 0.  1.
       -5    1    3    3    0  502 -0.60445767242E+03  0.10554259173E+04  0.25985724986E+03  0.12437205575E+04  0.46999998093E+01 0. -1.
</event>
<event>
 5   0  0.1797075E-06  0.3365667E+04  0.7818609E-02  0.8146385E-01
        2   -1    0    0  501    0  0.00000000000E+00  0.00000000000E+00  0.10551145045E+04  0.10551145045E+04  0.25500000920E-02 0.  1.
       -2   -1    0    0    0  501  0.00000000000E+00  0.00000000000E+00 -0.26840009947E+04  0.26840009947E+04  0.25500000920E-02 0. -1.
    10030    2    1    2    0    0  0.00000000000E+00  0.00000000000E+00 -0.16288864901E+04  0.37391154992E+04  0.33656668757E+04 0.  0.
        2    1    3    3  502    0  0.11275302766E+04  0.12276925635E+04 -0.10711078499E+04  0.19813696226E+04  0.25500000920E-02 0.  1.
       -2    1    3    3    0  502 -0.11275302766E+04 -0.12276925635E+04 -0.55777864029E+03  0.17577458766E+04  0.25500000920E-02 0. -1.
</event>
<event>
 5   0  0.1797075E-06  0.3429563E+04  0.7818609E-02  0.8130689E-01
       -2   -1    0    0    0  501  0.00000000000E+00  0.00000000000E+00  0.16386258150E+04  0.16386258150E+04  0.25500000920E-02 0.  1.
        2   -1    0    0  501    0  0.00000000000E+00  0.00000000000E+00 -0.17944763411E+04  0.17944763411E+04  0.25500000920E-02 0. -1.
    10030    2    1    2    0    0  0.00000000000E+00  0.00000000000E+00 -0.15585052608E+03  0.34331021561E+04  0.34295628042E+04 0.  0.
        2    1    3    3  502    0 -0.38375696072E+02 -0.90426955935E+03  0.13800458618E+04  0.16503644176E+04  0.25500000920E-02 0.  1.
       -2    1    3    3    0  502  0.38375696072E+02  0.90426955935E+03 -0.15358963879E+04  0.17827377385E+04  0.25500000920E-02 0. -1.
</event>
<event>
 5   0  0.6134625E-07  0.3324170E+04  0.7818609E-02  0.8156772E-01
       -1   -1    0    0    0  501  0.00000000000E+00  0.00000000000E+00  0.20470703903E+04  0.20470703903E+04  0.50400001928E-02 0. -1.
        1   -1    0    0  501    0  0.00000000000E+00  0.00000000000E+00 -0.13495025026E+04  0.13495025026E+04  0.50400001928E-02 0.  1.
    10030    2    1    2    0    0  0.00000000000E+00  0.00000000000E+00  0.69756788770E+03  0.33965728929E+04  0.33241700406E+04 0.  0.
        3    1    3    3  502    0  0.10792008685E+04 -0.11534043550E+04  0.87726340270E+03  0.18068224065E+04  0.10100000352E+00 0. -1.
       -3    1    3    3    0  502 -0.10792008685E+04  0.11534043550E+04 -0.17969551499E+03  0.15897504864E+04  0.10100000352E+00 0.  1.
</event>
<event>
 5   0  0.1880301E-06  0.3609415E+04  0.7818609E-02  0.8088339E-01
        2   -1    0    0  501    0  0.00000000000E+00  0.00000000000E+00  0.21911945474E+04  0.21911945474E+04  0.25500000920E-02 0.  1.
       -2   -1    0    0    0  501  0.00000000000E+00  0.00000000000E+00 -0.14863893615E+04  0.14863893615E+04  0.25500000920E-02 0. -1.
    10030    2    1    2    0    0  0.00000000000E+00  0.00000000000E+00  0.70480518595E+03  0.36775839089E+04  0.36094145033E+04 0.  0.
        4    1    3    3  502    0  0.46025907286E+03  0.16072732549E+02 -0.14255091656E+04  0.14980569886E+04  0.12699999809E+01 0. -1.
       -4    1    3    3    0  502 -0.46025907286E+03 -0.16072732549E+02  0.21303143516E+04  0.21795269203E+04  0.12699999809E+01 0.  1.
</event>
<event>
 5   0  0.6146388E-07  0.3229493E+04  0.7818609E-02  0.8181071E-01
       -1   -1    0    0    0  501  0.00000000000E+00  0.00000000000E+00  0.12649207060E+04  0.12649207060E+04  0.50400001928E-02 0.  1.
        1   -1    0    0  501    0  0.00000000000E+00  0.00000000000E+00 -0.20613198516E+04  0.20613198516E+04  0.50400001928E-02 0. -1.
    10030    2    1    2    0    0  0.00000000000E+00  0.00000000000E+00 -0.79639914565E+03  0.33262405576E+04  0.32294929398E+04 0.  0.
        4    1    3    3  502    0 -0.85749891678E+03  0.40225812773E+03  0.94875829086E+03  0.13406192230E+04  0.12699999809E+01 0.  1.
       -4    1    3    3    0  502  0.85749891678E+03 -0.40225812773E+03 -0.17451574365E+04  0.19856213347E+04  0.12699999809E+01 0. -1.
</event>
<event>
 5   0  0.1797075E-06  0.3420149E+04  0.7818609E-02  0.8132979E-01
        2   -1    0    0  501    0  0.00000000000E+00  0.00000000000E+00  0.10061560099E+04  0.10061560099E+04  0.25500000920E-02 0.  1.
       -2   -1    0    0    0  501  0.00000000000E+00  0.00000000000E+00 -0.29064632803E+04  0.29064632803E+04  0.25500000920E-02 0. -1.
    10030    2    1    2    0    0  0.00000000000E+00  0.00000000000E+00 -0.19003072704E+04  0.39126192902E+04  0.34201494103E+04 0.  0.
        2    1    3    3  502    0 -0.11850153666E+04 -0.56455157684E+03 -0.22040507865E+04  0.25653108528E+04  0.25500000920E-02 0. -1.
       -2    1    3    3    0  502  0.11850153666E+04  0.56455157684E+03  0.30374351612E+03  0.13473084374E+04  0.25500000920E-02 0.  1.
</event>
<event>
 5   0  0.6134625E-07  0.3232385E+04  0.7818609E-02  0.8180316E-01
       -1   -1    0    0    0  501  0.00000000000E+00  0.00000000000E+00  0.19425741311E+04  0.19425741311E+04  0.50400001928E-02 0.  1.
        1   -1    0    0  501    0  0.00000000000E+00  0.00000000000E+00 -0.13446482965E+04  0.13446482965E+04  0.50400001928E-02 0. -1.
    10030    2    1    2    0    0  0.00000000000E+00  0.00000000000E+00  0.59792583458E+03  0.32872224276E+04  0.32323854945E+04 0.  0.
        3    1    3    3  502    0  0.12692898159E+03  0.15903712828E+04  0.36343283209E+02  0.15958422942E+04  0.10100000352E+00 0. -1.
       -3    1    3    3    0  502 -0.12692898159E+03 -0.15903712828E+04  0.56158255138E+03  0.16913801334E+04  0.10100000352E+00 0.  1.
</event>
<event>
 5   0  0.6134625E-07  0.3420927E+04  0.7818609E-02  0.8132789E-01
       -1   -1    0    0    0  501  0.00000000000E+00  0.00000000000E+00  0.10980832088E+04  0.10980832089E+04  0.50400001928E-02 0. -1.
        1   -1    0    0  501    0  0.00000000000E+00  0.00000000000E+00 -0.26643566698E+04  0.26643566698E+04  0.50400001928E-02 0.  1.
    10030    2    1    2    0    0  0.00000000000E+00  0.00000000000E+00 -0.15662734610E+04  0.37624398787E+04  0.34209269630E+04 0.  0.
        5    1    3    3  502    0  0.25028429662E+02 -0.92868263291E+03  0.79640729075E+03  0.12236684672E+04  0.46999998093E+01 0. -1.
       -5    1    3    3    0  502 -0.25028429662E+02  0.92868263291E+03 -0.23626807517E+04  0.25387714114E+04  0.46999998093E+01 0.  1.
</event>
<event>
 5   0  0.1948507E-06  0.3388564E+04  0.7818609E-02  0.8140719E-01
       -2   -1    0    0    0  501  0.00000000000E+00  0.00000000000E+00  0.15776230218E+04  0.15776230218E+04  0.25500000920E-02 0. -1.
        2   -1    0    0  501    0  0.00000000000E+00  0.00000000000E+00 -0.18195674586E+04  0.18195674586E+04  0.25500000920E-02 0.  1.
    10030    2    1    2    0    0  0.00000000000E+00  0.00000000000E+00 -0.24194443683E+03  0.33971904804E+04  0.33885640100E+04 0.  0.
        1    1    3    3  502    0 -0.47412207550E+03  0.62405099829E+03  0.13849703592E+04  0.15913435477E+04  0.50400001928E-02 0. -1.
       -1    1    3    3    0  502  0.47412207550E+03 -0.62405099829E+03 -0.16269147960E+04  0.18058469327E+04  0.50400001928E-02 0.  1.
</event>
<event>
 5   0  0.1911477E-06  0.2470800E+04  0.7818609E-02  0.8413463E-01
        2   -1    0    0  501    0  0.00000000000E+00  0.00000000000E+00  0.11783650264E+04  0.11783650264E+04  0.25500000920E-02 0.  1.
       -2   -1    0    0    0  501  0.00000000000E+00  0.00000000000E+00 -0.12951951003E+04  0.12951951003E+04  0.25500000920E-02 0. -1.
    10030    2    1    2    0    0  0.00000000000E+00  0.00000000000E+00 -0.11683007393E+03  0.24735601267E+04  0.24707995536E+04 0.  0.
        5    1    3    3  502    0  0.85707096641E+03 -0.62337119472E+03 -0.69396938078E+03  0.12667982789E+04  0.46999998093E+01 0. -1.
       -5    1    3    3    0  502 -0.85707096641E+03  0.62337119472E+03  0.57713930685E+03  0.12067618478E+04  0.46999998093E+01 0.  1.
</event>
<event>
 5   0  0.6134625E-07  0.3383043E+04  0.7818609E-02  0.8142081E-01
       -1   -1    0    0    0  501  0.00000000000E+00  0.00000000000E+00  0.13079171365E+04  0.13079171365E+04  0.50400001928E-02 0. -1.
        1   -1    0    0  501    0  0.00000000000E+00  0.00000000000E+00 -0.21876352041E+04  0.21876352041E+04  0.50400001928E-02 0.  1.
    10030    2    1    2    0    0  0.00000000000E+00  0.00000000000E+00 -0.87971806755E+03  0.34955523406E+04  0.33830433470E+04 0.  0.
        1    1    3    3  502    0 -0.10445957423E+04  0.34383653429E+03 -0.17678418811E+04  0.20819867300E+04  0.50400001928E-02 0.  1.
       -1    1    3    3    0  502  0.10445957423E+04 -0.34383653429E+03  0.88812381358E+03  0.14135656106E+04  0.50400001928E-02 0. -1.
</event>
<event>
 5   0  0.6218695E-07  0.3281472E+04  0.7818609E-02  0.8167626E-01
        1   -1    0    0  501    0  0.00000000000E+00  0.00000000000E+00  0.15046037773E+04  0.15046037773E+04  0.50400001928E-02 0. -1.
       -1   -1    0    0    0  501  0.00000000000E+00  0.00000000000E+00 -0.17891852199E+04  0.17891852199E+04  0.50400001928E-02 0.  1.
    10030    2    1    2    0    0  0.00000000000E+00  0.00000000000E+00 -0.28458144258E+03  0.32937889973E+04  0.32814721332E+04 0.  0.
        2    1    3    3  502    0 -0.53761388144E+03  0.12671454846E+04 -0.10385748196E+04  0.17243329204E+04  0.25500000920E-02 0.  1.
       -2    1    3    3    0  502  0.53761388144E+03 -0.12671454846E+04  0.75399337697E+03  0.15694560768E+04  0.25500000920E-02 0. -1.
</event>
<event>
 5   0  0.6146388E-07  0.3388141E+04  0.7818609E-02  0.8140823E-01
        1   -1    0    0  501    0  0.00000000000E+00  0.00000000000E+00  0.20356482401E+04  0.20356482401E+04  0.50400001928E-02 0.  1.
       -1   -1    0    0    0  501  0.00000000000E+00  0.00000000000E+00 -0.14098088945E+04  0.14098088945E+04  0.50400001928E-02 0. -1.
    10030    2    1    2    0    0  0.00000000000E+00  0.00000000000E+00  0.62583934565E+03  0.34454571347E+04  0.33881410803E+04 0.  0.
        4    1    3    3  502    0  0.39756642739E+03  0.16409512543E+04  0.17240364896E+03  0.16972049712E+04  0.12699999809E+01 0. -1.
       -4    1    3    3    0  502 -0.39756642739E+03 -0.16409512543E+04  0.45343569669E+03  0.17482521635E+04  0.12699999809E+01 0.  1.
</event>
<event>
 5   0  0.1797075E-06  0.3363633E+04  0.7818609E-02  0.8146890E-01
       -2   -1    0    0    0  501  0.00000000000E+00  0.00000000000E+00  0.19739268521E+04  0.19739268521E+04  0.25500000920E-02 0.  1.
        2   -1    0    0  501    0  0.00000000000E+00  0.00000000000E+00 -0.14329341726E+04  0.14329341726E+04  0.25500000920E-02 0. -1.
    10030    2    1    2    0    0  0.00000000000E+00  0.00000000000E+00  0.54099267951E+03  0.34068610247E+04  0.33636332979E+04 0.  0.
        2    1    3    3  502    0 -0.42582259429E+03  0.57667216626E+03  0.18114398250E+04  0.19481247159E+04  0.25500000920E-02 0.  1.
       -2    1    3    3    0  502  0.42582259429E+03 -0.57667216626E+03 -0.12704471455E+04  0.14587363088E+04  0.25500000920E-02 0. -1.
</event>
<event>
 5   0  0.1797075E-06  0.3425317E+04  0.7818609E-02  0.8131721E-01
       -2   -1    0    0    0  501  0.00000000000E+00  0.00000000000E+00  0.10553277331E+04  0.10553277331E+04  0.25500000920E-02 0.  1.
        2   -1    0    0  501    0  0.00000000000E+00  0.00000000000E+00 -0.27794201818E+04  0.27794201818E+04  0.25500000920E-02 0. -1.
    10030    2    1    2    0    0  0.00000000000E+00  0.00000000000E+00 -0.17240924487E+04  0.38347479150E+04  0.34253170364E+04 0.  0.
        2    1    3    3  502    0  0.29122615043E+03  0.53761033735E+03  0.92897971109E+03  0.11121334673E+04  0.25500000920E-02 0.  1.
       -2    1    3    3    0  502 -0.29122615043E+03 -0.53761033735E+03 -0.26530721598E+04  0.27226144477E+04  0.25500000920E-02 0. -1.
</event>
<event>
 5   0  0.1880301E-06  0.3377962E+04  0.7818609E-02  0.8143336E-01
       -2   -1    0    0    0  501  0.00000000000E+00  0.00000000000E+00  0.13787909266E+04  0.13787909266E+04  0.25500000920E-02 0. -1.
        2   -1    0    0  501    0  0.00000000000E+00  0.00000000000E+00 -0.20689554437E+04  0.20689554437E+04  0.25500000920E-02 0.  1.
    10030    2    1    2    0    0  0.00000000000E+00  0.00000000000E+00 -0.69016451712E+03  0.34477463703E+04  0.33779621036E+04 0.  0.
        4    1    3    3  502    0 -0.51185268967E+03  0.35980299368E+03  0.12561500482E+04  0.14033409873E+04  0.12699999809E+01 0. -1.
       -4    1    3    3    0  502  0.51185268967E+03 -0.35980299368E+03 -0.19463145653E+04  0.20444053830E+04  0.12699999809E+01 0.  1.
</event>
<event>
 5   0  0.6134625E-07  0.3381072E+04  0.7818609E-02  0.8142567E-01
        3   -1    0    0  501    0  0.00000000000E+00  0.00000000000E+00  0.14090279907E+04  0.14090279943E+04  0.10100000352E+00 0.  1.
       -3   -1    0    0    0  501  0.00000000000E+00  0.00000000000E+00 -0.20282866240E+04  0.20282866265E+04  0.10100000352E+00 0. -1.
    10030    2    1    2    0    0  0.00000000000E+00  0.00000000000E+00 -0.61925863336E+03  0.34373146208E+04  0.33810723961E+04 0.  0.
        1    1    3    3  502    0  0.30052849334E+03  0.16091961318E+04 -0.73864792875E+03  0.17959483090E+04  0.50400001928E-02 0. -1.
       -1    1    3    3    0  502 -0.30052849334E+03 -0.16091961318E+04  0.11938929540E+03  0.16413663119E+04  0.50400001928E-02 0.  1.
</event>
<event>
 5   0  0.1339844E-06  0.3391595E+04  0.7818609E-02  0.8139972E-01
       -2   -1    0    0    0  501  0.00000000000E+00  0.00000000000E+00  0.17772864706E+04  0.17772864706E+04  0.25500000920E-02 0. -1.
        2   -1    0    0  501    0  0.00000000000E+00  0.00000000000E+00 -0.16180447368E+04  0.16180447368E+04  0.25500000920E-02 0.  1.
    10030    2    1    2    0    0  0.00000000000E+00  0.00000000000E+00  0.15924173380E+03  0.33953312075E+04  0.33915949167E+04 0.  0.
        3    1    3    3  502    0  0.42321571957E+03 -0.17921803841E+03 -0.15545064806E+04  0.16210246942E+04  0.10100000352E+00 0.  1.
       -3    1    3    3    0  502 -0.42321571957E+03  0.17921803841E+03  0.17137482144E+04  0.17743065133E+04  0.10100000352E+00 0. -1.
</event>
<event>
 5   0  0.1797075E-06  0.3295773E+04  0.7818609E-02  0.8163972E-01
        2   -1    0    0  501    0  0.00000000000E+00  0.00000000000E+00  0.13103550289E+04  0.13103550289E+04  0.25500000920E-02 0. -1.
       -2   -1    0    0    0  501  0.00000000000E+00  0.00000000000E+00 -0.20723619664E+04  0.20723619664E+04  0.25500000920E-02 0.  1.
    10030    2    1    2    0    0  0.00000000000E+00  0.00000000000E+00 -0.76200693757E+03  0.33827169953E+04  0.32957730045E+04 0.  0.
        2    1    3    3  502    0 -0.29918408385E+00 -0.51657474468E+03 -0.19871102765E+04  0.20531577648E+04  0.25500000920E-02 0.  1.
       -2    1    3    3    0  502  0.29918408385E+00  0.51657474468E+03  0.12251033389E+04  0.13295592305E+04  0.25500000920E-02 0. -1.
</event>
<event>
 5   0  0.1880301E-06  0.3419427E+04  0.7818609E-02  0.8133155E-01
       -2   -1    0    0    0  501  0.00000000000E+00  0.00000000000E+00  0.13439211236E+04  0.13439211236E+04  0.25500000920E-02 0.  1.
        2   -1    0    0  501    0  0.00000000000E+00  0.00000000000E+00 -0.21750680194E+04  0.21750680194E+04  0.25500000920E-02 0. -1.
    10030    2    1    2    0    0  0.00000000000E+00  0.00000000000E+00 -0.83114689582E+03  0.35189891429E+04  0.34194267686E+04 0.  0.
        4    1    3    3  502    0  0.46620373485E+03 -0.24989646035E+03  0.12575956152E+04  0.13643102681E+04  0.12699999809E+01 0.  1.
       -4    1    3    3    0  502 -0.46620373485E+03  0.24989646035E+03 -0.20887425111E+04  0.21546788748E+04  0.12699999809E+01 0. -1.
</event>
<event>
 5   0  0.1880301E-06  0.3362941E+04  0.7818609E-02  0.8147062E-01
       -2   -1    0    0    0  501  0.00000000000E+00  0.00000000000E+00  0.20044721404E+04  0.20044721404E+04  0.25500000920E-02 0.  1.
        2   -1    0    0  501    0  0.00000000000E+00  0.00000000000E+00 -0.14105175678E+04  0.14105175678E+04  0.25500000920E-02 0. -1.
    10030    2    1    2    0    0  0.00000000000E+00  0.00000000000E+00  0.59395457267E+03  0.34149897082E+04  0.33629410748E+04 0.  0.
        4    1    3    3  502    0  0.53767081605E+03  0.13638835728E+04  0.11331739819E+04  0.18529309735E+04  0.12699999809E+01 0.  1.
       -4    1    3    3    0  502 -0.53767081605E+03 -0.13638835728E+04 -0.53921940921E+03  0.15620587347E+04  0.12699999809E+01 0. -1.
</event>
<event>
 5   0  0.1880301E-06  0.3020919E+04  0.7818609E-02  0.8237782E-01
       -2   -1    0    0    0  501  0.00000000000E+00  0.00000000000E+00  0.11433391813E+04  0.11433391813E+04  0.25500000920E-02 0. -1.
        2   -1    0    0  501    0  0.00000000000E+00  0.00000000000E+00 -0.19954607774E+04  0.19954607774E+04  0.25500000920E-02 0.  1.
    10030    2    1    2    0    0  0.00000000000E+00  0.00000000000E+00 -0.85212159609E+03  0.31387999588E+04  0.30209193910E+04 0.  0.
        4    1    3    3  502    0 -0.11731728198E+04 -0.19474276769E+03 -0.13936501132E+04  0.18320811832E+04  0.12699999809E+01 0.  1.
       -4    1    3    3    0  502  0.11731728198E+04  0.19474276769E+03  0.54152851714E+03  0.13067187756E+04  0.12699999809E+01 0. -1.
</event>
<event>
 5   0  0.1339844E-06  0.3465346E+04  0.7818609E-02  0.8122052E-01
        2   -1    0    0  501    0  0.00000000000E+00  0.00000000000E+00  0.23289408803E+04  0.23289408803E+04  0.25500000920E-02 0. -1.
       -2   -1    0    0    0  501  0.00000000000E+00  0.00000000000E+00 -0.12890647836E+04  0.12890647836E+04  0.25500000920E-02 0.  1.
    10030    2    1    2    0    0  0.00000000000E+00  0.00000000000E+00  0.10398760966E+04  0.36180056639E+04  0.34653459694E+04 0.  0.
        3    1    3    3  502    0  0.48207864697E+03  0.84415858556E+03 -0.97752407680E+03  0.13786068585E+04  0.10100000352E+00 0.  1.
       -3    1    3    3    0  502 -0.48207864697E+03 -0.84415858556E+03  0.20174001734E+04  0.22393988054E+04  0.10100000352E+00 0. -1.
</event>
<event>
 5   0  0.6218695E-07  0.3278968E+04  0.7818609E-02  0.8168268E-01
        1   -1    0    0  501    0  0.00000000000E+00  0.00000000000E+00  0.13906756289E+04  0.13906756289E+04  0.50400001928E-02 0.  1.
       -1   -1    0    0    0  501  0.00000000000E+00  0.00000000000E+00 -0.19328065608E+04  0.19328065608E+04  0.50400001928E-02 0. -1.
    10030    2    1    2    0    0  0.00000000000E+00  0.00000000000E+00 -0.54213093192E+03  0.33234821897E+04  0.32789675079E+04 0.  0.
        2    1    3    3  502    0  0.20966261236E+03 -0.14132449433E+03 -0.19129256389E+04  0.19295635578E+04  0.25500000920E-02 0. -1.
       -2    1    3    3    0  502 -0.20966261236E+03  0.14132449433E+03  0.13707947070E+04  0.13939186319E+04  0.25500000920E-02 0.  1.
</event>
<event>
 5   0  0.1339844E-06  0.3498288E+04  0.7818609E-02  0.8114196E-01
       -2   -1    0    0    0  501  0.00000000000E+00  0.00000000000E+00  0.21100352212E+04  0.21100352212E+04  0.25500000920E-02 0. -1.
        2   -1    0    0  501    0  0.00000000000E+00  0.00000000000E+00 -0.14499783291E+04  0.14499783291E+04  0.25500000920E-02 0.  1.
    10030    2    1    2    0    0  0.00000000000E+00  0.00000000000E+00  0.66005689208E+03  0.35600135502E+04  0.34982883496E+04 0.  0.
        3    1    3    3  502    0  0.47814356720E+03  0.23015195447E+03 -0.13660871850E+04  0.14655324631E+04  0.10100000352E+00 0.  1.
       -3    1    3    3    0  502 -0.47814356720E+03 -0.23015195447E+03  0.20261440771E+04  0.20944810872E+04  0.10100000352E+00 0. -1.
</event>
<event>
 5   0  0.1339844E-06  0.3435353E+04  0.7818609E-02  0.8129284E-01
       -2   -1    0    0    0  501  0.00000000000E+00  0.00000000000E+00  0.11920334072E+04  0.11920334072E+04  0.25500000920E-02 0.  1.
        2   -1    0    0  501    0  0.00000000000E+00  0.00000000000E+00 -0.24751091415E+04  0.24751091415E+04  0.25500000920E-02 0. -1.
    10030    2    1    2    0    0  0.00000000000E+00  0.00000000000E+00 -0.12830757343E+04  0.36671425488E+04  0.34353531308E+04 0.  0.
        3    1    3    3  502    0 -0.14854485287E+04 -0.65328553882E+03 -0.12426234929E+04  0.20438817192E+04  0.10100000352E+00 0. -1.
       -3    1    3    3    0  502  0.14854485287E+04  0.65328553882E+03 -0.40452241367E+02  0.16232608296E+04  0.10100000352E+00 0.  1.
</event>
<event>
 5   0  0.1911477E-06  0.3286273E+04  0.7818609E-02  0.8166397E-01
        2   -1    0    0  501    0  0.00000000000E+00  0.00000000000E+00  0.11862306721E+04  0.11862306721E+04  0.25500000920E-02 0.  1.
       -2   -1    0    0    0  501  0.00000000000E+00  0.00000000000E+00 -0.22760309816E+04  0.22760309816E+04  0.25500000920E-02 0. -1.
    10030    2    1    2    0    0  0.00000000000E+00  0.00000000000E+00 -0.10898003095E+04  0.34622616538E+04  0.32862731238E+04 0.  0.
        5    1    3    3  502    0  0.68510694753E+03 -0.22600875218E+03 -0.21002465025E+04  0.22207001029E+04  0.46999998093E+01 0. -1.
       -5    1    3    3    0  502 -0.68510694753E+03  0.22600875218E+03  0.10104461930E+04  0.12415615509E+04  0.46999998093E+01 0.  1.
</event>
<event>
 5   0  0.6146388E-07  0.3415164E+04  0.7818609E-02  0.8134194E-01
       -1   -1    0    0    0  501  0.00000000000E+00  0.00000000000E+00  0.26449738912E+04  0.26449738912E+04  0.50400001928E-02 0. -1.
        1   -1    0    0  501    0  0.00000000000E+00  0.00000000000E+00 -0.11024066874E+04  0.11024066874E+04  0.50400001928E-02 0.  1.
    10030    2    1    2    0    0  0.00000000000E+00  0.00000000000E+00  0.15425672038E+04  0.37473805787E+04  0.34151643626E+04 0.  0.
        4    1    3    3  502    0 -0.27921913807E+03 -0.18075892892E+03 -0.10665152066E+04  0.11171810132E+04  0.12699999809E+01 0.  1.
       -4    1    3    3    0  502  0.27921913807E+03  0.18075892892E+03  0.26090824104E+04  0.26301995655E+04  0.12699999809E+01 0. -1.
</event>
<event>
 5   0  0.6134625E-07  0.3416601E+04  0.7818609E-02  0.8133844E-01
        1   -1    0    0  501    0  0.00000000000E+00  0.00000000000E+00  0.19930347747E+04  0.19930347747E+04  0.50400001928E-02 0.  1.
       -1   -1    0    0    0  501  0.00000000000E+00  0.00000000000E+00 -0.14642448501E+04  0.14642448501E+04  0.50400001928E-02 0. -1.
    10030    2    1    2    0    0  0.00000000000E+00  0.00000000000E+00  0.52878992465E+03  0.34572796248E+04  0.34166011795E+04 0.  0.
        5    1    3    3  502    0  0.13145418129E+04  0.66980416574E+03  0.11358165341E+04  0.18619234913E+04  0.46999998093E+01 0.  1.
       -5    1    3    3    0  502 -0.13145418129E+04 -0.66980416574E+03 -0.60702660944E+03  0.15953561336E+04  0.46999998093E+01 0. -1.
</event>
<event>
 5   0  0.6134625E-07  0.3398507E+04  0.7818609E-02  0.8138273E-01
        1   -1    0    0  501    0  0.00000000000E+00  0.00000000000E+00  0.10340571700E+04  0.10340571701E+04  0.50400001928E-02 0. -1.
       -1   -1    0    0    0  501  0.00000000000E+00  0.00000000000E+00 -0.27923628314E+04  0.27923628314E+04  0.50400001928E-02 0.  1.
    10030    2    1    2    0    0  0.00000000000E+00  0.00000000000E+00 -0.17583056613E+04  0.38264200014E+04  0.33985072059E+04 0.  0.
        3    1    3    3  502    0 -0.14676048475E+03 -0.18611547402E+03  0.10153543309E+04  0.10426514456E+04  0.10100000352E+00 0. -1.
       -3    1    3    3    0  502  0.14676048475E+03  0.18611547402E+03 -0.27736599922E+04  0.27837685558E+04  0.10100000352E+00 0.  1.
</event>
<event>
 5   0  0.6134625E-07  0.3333927E+04  0.7818609E-02  0.8154316E-01
        1   -1    0    0  501    0  0.00000000000E+00  0.00000000000E+00  0.19051071390E+04  0.19051071390E+04  0.50400001928E-02 0.  1.
       -1   -1    0    0    0  501  0.00000000000E+00  0.00000000000E+00 -0.14585885581E+04  0.14585885581E+04  0.50400001928E-02 0. -1.
    10030    2    1    2    0    0  0.00000000000E+00  0.00000000000E+00  0.44651858092E+03  0.33636956971E+04  0.33339270987E+04 0.  0.
        5    1    3    3  502    0  0.10057634752E+04  0.64852435914E+03 -0.94753373585E+03  0.15264292591E+04  0.46999998093E+01 0. -1.
       -5    1    3    3    0  502 -0.10057634752E+04 -0.64852435914E+03  0.13940523168E+04  0.18372664380E+04  0.46999998093E+01 0.  1.
</event>
<event>
 5   0  0.1948507E-06  0.3417659E+04  0.7818609E-02  0.8133586E-01
       -2   -1    0    0    0  501  0.00000000000E+00  0.00000000000E+00  0.15586002370E+04  0.15586002370E+04  0.25500000920E-02 0. -1.
        2   -1    0    0  501    0  0.00000000000E+00  0.00000000000E+00 -0.18735389896E+04  0.18735389896E+04  0.25500000920E-02 0.  1.
    10030    2    1    2    0    0  0.00000000000E+00  0.00000000000E+00 -0.31493875260E+03  0.34321392265E+04  0.34176590310E+04 0.  0.
        1    1    3    3  502    0 -0.87707818783E+03  0.47553241408E+03  0.12357445615E+04  0.15882260059E+04  0.50400001928E-02 0. -1.
       -1    1    3    3    0  502  0.87707818783E+03 -0.47553241408E+03 -0.15506833141E+04  0.18439132206E+04  0.50400001928E-02 0.  1.
</event>
<event>
 5   0  0.1948507E-06  0.3417688E+04  0.7818609E-02  0.8133579E-01
       -2   -1    0    0    0  501  0.00000000000E+00  0.00000000000E+00  0.19094723314E+04  0.19094723314E+04  0.25500000920E-02 0.  1.
        2   -1    0    0  501    0  0.00000000000E+00  0.00000000000E+00 -0.15292957874E+04  0.15292957874E+04  0.25500000920E-02 0. -1.
    10030    2    1    2    0    0  0.00000000000E+00  0.00000000000E+00  0.38017654402E+03  0.34387681188E+04  0.34176881031E+04 0.  0.
        1    1    3    3  502    0  0.13527752954E+04 -0.59199133710E+03  0.10554472278E+04  0.18150547083E+04  0.50400001928E-02 0.  1.
       -1    1    3    3    0  502 -0.13527752954E+04  0.59199133710E+03 -0.67527068382E+03  0.16237134106E+04  0.50400001928E-02 0. -1.
</event>
<event>
 5   0  0.6146388E-07  0.3391290E+04  0.7818609E-02  0.8140047E-01
        1   -1    0    0  501    0  0.00000000000E+00  0.00000000000E+00  0.19468618906E+04  0.19468618906E+04  0.50400001928E-02 0. -1.
       -1   -1    0    0    0  501  0.00000000000E+00  0.00000000000E+00 -0.14768447761E+04  0.14768447761E+04  0.50400001928E-02 0.  1.
    10030    2    1    2    0    0  0.00000000000E+00  0.00000000000E+00  0.47001711452E+03  0.34237066668E+04  0.33912904995E+04 0.  0.
        4    1    3    3  502    0 -0.12242129148E+04 -0.64218583768E+03  0.12262858078E+04  0.18479389617E+04  0.12699999809E+01 0. -1.
       -4    1    3    3    0  502  0.12242129148E+04  0.64218583768E+03 -0.75626869332E+03  0.15757677050E+04  0.12699999809E+01 0.  1.
</event>
<event>
 5   0  0.1797075E-06  0.3376049E+04  0.7818609E-02  0.8143810E-01
       -2   -1    0    0    0  501  0.00000000000E+00  0.00000000000E+00  0.19472844547E+04  0.19472844547E+04  0.25500000920E-02 0. -1.
        2   -1    0    0  501    0  0.00000000000E+00  0.00000000000E+00 -0.14632821768E+04  0.14632821768E+04  0.25500000920E-02 0.  1.
    10030    2    1    2    0    0  0.00000000000E+00  0.00000000000E+00  0.48400227793E+03  0.34105666315E+04  0.33760489545E+04 0.  0.
        2    1    3    3  502    0 -0.37883206063E+03 -0.54272804834E+02 -0.14188786663E+04  0.14695835931E+04  0.25500000920E-02 0.  1.
       -2    1    3    3    0  502  0.37883206063E+03  0.54272804834E+02  0.19028809442E+04  0.19409830384E+04  0.25500000920E-02 0. -1.
</event>
<event>
 5   0  0.6134625E-07  0.2805319E+04  0.7818609E-02  0.8301619E-01
        1   -1    0    0  501    0  0.00000000000E+00  0.00000000000E+00  0.15465383543E+04  0.15465383543E+04  0.50400001928E-02 0. -1.
       -1   -1    0    0    0  501  0.00000000000E+00  0.00000000000E+00 -0.12721659010E+04  0.12721659010E+04  0.50400001928E-02 0.  1.
    10030    2    1    2    0    0  0.00000000000E+00  0.00000000000E+00  0.27437245337E+03  0.28187042553E+04  0.28053187761E+04 0.  0.
        5    1    3    3  502    0 -0.89026036813E+03 -0.88638976772E+03  0.76400654544E+03  0.14703667688E+04  0.46999998093E+01 0. -1.
       -5    1    3    3    0  502  0.89026036813E+03  0.88638976772E+03 -0.48963409207E+03  0.13483374865E+04  0.46999998093E+01 0.  1.
</event>
<event>
 5   0  0.1911477E-06  0.3346383E+04  0.7818609E-02  0.8151192E-01
        2   -1    0    0  501    0  0.00000000000E+00  0.00000000000E+00  0.14133893549E+04  0.14133893549E+04  0.25500000920E-02 0. -1.
       -2   -1    0    0    0  501  0.00000000000E+00  0.00000000000E+00 -0.19807494956E+04  0.19807494956E+04  0.25500000920E-02 0.  1.
    10030    2    1    2    0    0  0.00000000000E+00  0.00000000000E+00 -0.56736014071E+03  0.33941388505E+04  0.33463832726E+04 0.  0.
        5    1    3    3  502    0  0.92106093580E+03  0.13968234885E+04 -0.29269832252E+03  0.16985769054E+04  0.46999998093E+01 0.  1.
       -5    1    3    3    0  502 -0.92106093580E+03 -0.13968234885E+04 -0.27466181819E+03  0.16955619452E+04  0.46999998093E+01 0. -1.
</event>
<event>
 5   0  0.1911477E-06  0.3448005E+04  0.7818609E-02  0.8126224E-01
        2   -1    0    0  501    0  0.00000000000E+00  0.00000000000E+00  0.20490064607E+04  0.20490064607E+04  0.25500000920E-02 0.  1.
       -2   -1    0    0    0  501  0.00000000000E+00  0.00000000000E+00 -0.14505489588E+04  0.14505489588E+04  0.25500000920E-02 0. -1.
    10030    2    1    2    0    0  0.00000000000E+00  0.00000000000E+00  0.59845750185E+03  0.34995554195E+04  0.34480047495E+04 0.  0.
        5    1    3    3  502    0 -0.35965382426E+03  0.13909384206E+04  0.12664197027E+04  0.19151766280E+04  0.46999998093E+01 0.  1.
       -5    1    3    3    0  502  0.35965382426E+03 -0.13909384206E+04 -0.66796220088E+03  0.15843787915E+04  0.46999998093E+01 0. -1.
</event>
<event>
 5   0  0.6134625E-07  0.2551645E+04  0.7818609E-02  0.8384814E-01
        1   -1    0    0  501    0  0.00000000000E+00  0.00000000000E+00  0.19496926262E+04  0.19496926262E+04  0.50400001928E-02 0. -1.
       -1   -1    0    0    0  501  0.00000000000E+00  0.00000000000E+00 -0.83486110071E+03  0.83486110073E+03  0.50400001928E-02 0.  1.
    10030    2    1    2    0    0  0.00000000000E+00  0.00000000000E+00  0.11148315255E+04  0.27845537269E+04  0.25516445928E+04 0.  0.
        1    1    3    3  502    0 -0.16590269179E+03  0.11588450502E+04  0.38924945100E+01  0.11706667780E+04  0.50400001928E-02 0.  1.
       -1    1    3    3    0  502  0.16590269179E+03 -0.11588450502E+04  0.11109390310E+04  0.16138869490E+04  0.50400001928E-02 0. -1.
</event>
<event>
 5   0  0.6218695E-07  0.3446003E+04  0.7818609E-02  0.8126707E-01
       -1   -1    0    0    0  501  0.00000000000E+00  0.00000000000E+00  0.14301847816E+04  0.14301847816E+04  0.50400001928E-02 0.  1.
        1   -1    0    0  501    0  0.00000000000E+00  0.00000000000E+00 -0.20757692070E+04  0.20757692070E+04  0.50400001928E-02 0. -1.
    10030    2    1    2    0    0  0.00000000000E+00  0.00000000000E+00 -0.64558442538E+03  0.35059539886E+04  0.34460026291E+04 0.  0.
        2    1    3    3  502    0  0.51945206823E+03  0.54702550374E+03 -0.18988278113E+04  0.20431873164E+04  0.25500000920E-02 0. -1.
       -2    1    3    3    0  502 -0.51945206823E+03 -0.54702550374E+03  0.12532433859E+04  0.14627666722E+04  0.25500000920E-02 0.  1.
</event>
<event>
 5   0  0.1339844E-06  0.3358753E+04  0.7818609E-02  0.8148105E-01
       -2   -1    0    0    0  501  0.00000000000E+00  0.00000000000E+00  0.10980086706E+04  0.10980086706E+04  0.25500000920E-02 0. -1.
        2   -1    0    0  501    0  0.00000000000E+00  0.00000000000E+00 -0.25685638317E+04  0.25685638317E+04  0.25500000920E-02 0.  1.
    10030    2    1    2    0    0  0.00000000000E+00  0.00000000000E+00 -0.14705551611E+04  0.36665725023E+04  0.33587529580E+04 0.  0.
        3    1    3    3  502    0 -0.14455738434E+03  0.26978713370E+03 -0.25378586050E+04  0.25562488619E+04  0.10100000352E+00 0.  1.
       -3    1    3    3    0  502  0.14455738434E+03 -0.26978713370E+03  0.10673034439E+04  0.11103236404E+04  0.10100000352E+00 0. -1.
</event>
<event>
 5   0  0.1948507E-06  0.3408296E+04  0.7818609E-02  0.8135873E-01
        2   -1    0    0  501    0  0.00000000000E+00  0.00000000000E+00  0.25805000999E+04  0.25805000999E+04  0.25500000920E-02 0.  1.
       -2   -1    0    0    0  501  0.00000000000E+00  0.00000000000E+00 -0.11254102279E+04  0.11254102279E+04  0.25500000920E-02 0. -1.
    10030    2    1    2    0    0  0.00000000000E+00  0.00000000000E+00  0.14550898719E+04  0.37059103278E+04  0.34082964692E+04 0.  0.
        1    1    3    3  502    0 -0.10197192224E+04 -0.11821020293E+04 -0.15444824863E+02  0.15612274154E+04  0.50400001928E-02 0. -1.
       -1    1    3    3    0  502  0.10197192224E+04  0.11821020293E+04  0.14705346968E+04  0.21446829124E+04  0.50400001928E-02 0.  1.
</event>
<event>
 5   0  0.1911477E-06  0.3417643E+04  0.7818609E-02  0.8133590E-01
        2   -1    0    0  501    0  0.00000000000E+00  0.00000000000E+00  0.22763634557E+04  0.22763634557E+04  0.25500000920E-02 0. -1.
       -2   -1    0    0    0  501  0.00000000000E+00  0.00000000000E+00 -0.12827787541E+04  0.12827787541E+04  0.25500000920E-02 0.  1.
    10030    2    1    2    0    0  0.00000000000E+00  0.00000000000E+00  0.99358470163E+03  0.35591422098E+04  0.34176428587E+04 0.  0.
        5    1    3    3  502    0  0.13983112334E+04 -0.49036679933E+03 -0.38951083166E+03  0.15321470821E+04  0.46999998093E+01 0. -1.
       -5    1    3    3    0  502 -0.13983112334E+04  0.49036679933E+03  0.13830955333E+04  0.20269951276E+04  0.46999998093E+01 0.  1.
</event>
<event>
 5   0  0.1911477E-06  0.3411102E+04  0.7818609E-02  0.8135187E-01
        2   -1    0    0  501    0  0.00000000000E+00  0.00000000000E+00  0.10897674146E+04  0.10897674146E+04  0.25500000920E-02 0. -1.
       -2   -1    0    0    0  501  0.00000000000E+00  0.00000000000E+00 -0.26692892156E+04  0.26692892156E+04  0.25500000920E-02 0.  1.
    10030    2    1    2    0    0  0.00000000000E+00  0.00000000000E+00 -0.15795218010E+04  0.37590566303E+04  0.34111021136E+04 0.  0.
        5    1    3    3  502    0  0.11181112950E+04 -0.67012905146E+03 -0.20017859343E+04  0.23888103379E+04  0.46999998093E+01 0.  1.
       -5    1    3    3    0  502 -0.11181112950E+04  0.67012905146E+03  0.42226413331E+03  0.13702462924E+04  0.46999998093E+01 0. -1.
</event>
<event>
 5   0  0.1339844E-06  0.3241869E+04  0.7818609E-02  0.8177846E-01
        2   -1    0    0  501    0  0.00000000000E+00  0.00000000000E+00  0.25848079703E+04  0.25848079703E+04  0.25500000920E-02 0.  1.
       -2   -1    0    0    0  501  0.00000000000E+00  0.00000000000E+00 -0.10164892005E+04  0.10164892006E+04  0.25500000920E-02 0. -1.
    10030    2    1    2    0    0  0.00000000000E+00  0.00000000000E+00  0.15683187698E+04  0.36012971709E+04  0.32418694528E+04 0.  0.
        3    1    3    3  502    0  0.10417300746E+04 -0.55213503813E+03 -0.45154349434E+03  0.12625158162E+04  0.10100000352E+00 0. -1.
       -3    1    3    3    0  502 -0.10417300746E+04  0.55213503813E+03  0.20198622641E+04  0.23387813547E+04  0.10100000352E+00 0.  1.
</event>
<event>
 5   0  0.1880301E-06  0.3357235E+04  0.7818609E-02  0.8148483E-01
        2   -1    0    0  501    0  0.00000000000E+00  0.00000000000E+00  0.18287965014E+04  0.18287965014E+04  0.25500000920E-02 0.  1.
       -2   -1    0    0    0  501  0.00000000000E+00  0.00000000000E+00 -0.15407708583E+04  0.15407708583E+04  0.25500000920E-02 0. -1.
    10030    2    1    2    0    0  0.00000000000E+00  0.00000000000E+00  0.28802564310E+03  0.33695673597E+04  0.33572347878E+04 0.  0.
        4    1    3    3  502    0  0.69554955136E+03 -0.10234708280E+04  0.12824072737E+04  0.17820919569E+04  0.12699999809E+01 0.  1.
       -4    1    3    3    0  502 -0.69554955136E+03  0.10234708280E+04 -0.99438163060E+03  0.15874754028E+04  0.12699999809E+01 0. -1.
</event>
<event>
 5   0  0.6134625E-07  0.3457442E+04  0.7818609E-02  0.8123950E-01
       -1   -1    0    0    0  501  0.00000000000E+00  0.00000000000E+00  0.13583020044E+04  0.13583020044E+04  0.50400001928E-02 0. -1.
        1   -1    0    0  501    0  0.00000000000E+00  0.00000000000E+00 -0.22001562750E+04  0.22001562750E+04  0.50400001928E-02 0.  1.
    10030    2    1    2    0    0  0.00000000000E+00  0.00000000000E+00 -0.84185427060E+03  0.35584582795E+04  0.34574422213E+04 0.  0.
        5    1    3    3  502    0 -0.16151814573E+04  0.48849735367E+03 -0.34437608048E+02  0.16877940761E+04  0.46999998093E+01 0. -1.
       -5    1    3    3    0  502  0.16151814573E+04 -0.48849735367E+03 -0.80741666255E+03  0.18706642033E+04  0.46999998093E+01 0.  1.
</event>
<event>
 5   0  0.1339844E-06  0.3399673E+04  0.7818609E-02  0.8137987E-01
       -2   -1    0    0    0  501  0.00000000000E+00  0.00000000000E+00  0.12176208163E+04  0.12176208163E+04  0.25500000920E-02 0.  1.
        2   -1    0    0  501    0  0.00000000000E+00  0.00000000000E+00 -0.23730247879E+04  0.23730247879E+04  0.25500000920E-02 0. -1.
    10030    2    1    2    0    0  0.00000000000E+00  0.00000000000E+00 -0.11554039716E+04  0.35906456042E+04  0.33996731486E+04 0.  0.
        3    1    3    3  502    0 -0.32796114739E+03 -0.14771970514E+04 -0.13956570733E+04  0.20585257636E+04  0.10100000352E+00 0. -1.
       -3    1    3    3    0  502  0.32796114739E+03  0.14771970514E+04  0.24025310166E+03  0.15321198406E+04  0.10100000352E+00 0.  1.
</event>
<event>
 5   0  0.1880301E-06  0.3296895E+04  0.7818609E-02  0.8163686E-01
       -2   -1    0    0    0  501  0.00000000000E+00  0.00000000000E+00  0.18801315992E+04  0.18801315992E+04  0.25500000920E-02 0. -1.
        2   -1    0    0  501    0  0.00000000000E+00  0.00000000000E+00 -0.14453129052E+04  0.14453129052E+04  0.25500000920E-02 0.  1.
    10030    2    1    2    0    0  0.00000000000E+00  0.00000000000E+00  0.43481869401E+03  0.33254445044E+04  0.32968945776E+04 0.  0.
        4    1    3    3  502    0  0.10621368871E+04 -0.76041692036E+03  0.12316055530E+04  0.17953335375E+04  0.12699999809E+01 0. -1.
       -4    1    3    3    0  502 -0.10621368871E+04  0.76041692036E+03 -0.79678685899E+03  0.15301109670E+04  0.12699999809E+01 0.  1.
</event>
<event>
 5   0  0.1948507E-06  0.3380475E+04  0.7818609E-02  0.8142715E-01
       -2   -1    0    0    0  501  0.00000000000E+00  0.00000000000E+00  0.15536895213E+04  0.15536895213E+04  0.25500000920E-02 0. -1.
        2   -1    0    0  501    0  0.00000000000E+00  0.00000000000E+00 -0.18387866874E+04  0.18387866874E+04  0.25500000920E-02 0.  1.
    10030    2    1    2    0    0  0.00000000000E+00  0.00000000000E+00 -0.28509716611E+03  0.33924762086E+04  0.33804754743E+04 0.  0.
        1    1    3    3  502    0 -0.16674684903E+04 -0.18382497083E+03  0.64729618319E+02  0.16788188435E+04  0.50400001928E-02 0. -1.
       -1    1    3    3    0  502  0.16674684903E+04  0.18382497083E+03 -0.34982678443E+03  0.17136573651E+04  0.50400001928E-02 0.  1.
</event>
<event>
 5   0  0.6146388E-07  0.3431876E+04  0.7818609E-02  0.8130127E-01
       -1   -1    0    0    0  501  0.00000000000E+00  0.00000000000E+00  0.15822275799E+04  0.15822275799E+04  0.50400001928E-02 0.  1.
        1   -1    0    0  501    0  0.00000000000E+00  0.00000000000E+00 -0.18609479453E+04  0.18609479453E+04  0.50400001928E-02 0. -1.
    10030    2    1    2    0    0  0.00000000000E+00  0.00000000000E+00 -0.27872036539E+03  0.34431755253E+04  0.34318759674E+04 0.  0.
        4    1    3    3  502    0 -0.15921706003E+04 -0.42088357154E+03  0.34419283511E+03  0.16824448050E+04  0.12699999809E+01 0.  1.
       -4    1    3    3    0  502  0.15921706003E+04  0.42088357154E+03 -0.62291320051E+03  0.17607307203E+04  0.12699999809E+01 0. -1.
</event>
<event>
 5   0  0.1339844E-06  0.3355265E+04  0.7818609E-02  0.8148974E-01
        2   -1    0    0  501    0  0.00000000000E+00  0.00000000000E+00  0.17965282968E+04  0.17965282968E+04  0.25500000920E-02 0. -1.
       -2   -1    0    0    0  501  0.00000000000E+00  0.00000000000E+00 -0.15666053385E+04  0.15666053385E+04  0.25500000920E-02 0.  1.
    10030    2    1    2    0    0  0.00000000000E+00  0.00000000000E+00  0.22992295826E+03  0.33631336353E+04  0.33552650092E+04 0.  0.
        3    1    3    3  502    0 -0.38793623355E+03 -0.10761112604E+04  0.13450071956E+04  0.17656597442E+04  0.10100000352E+00 0. -1.
       -3    1    3    3    0  502  0.38793623355E+03  0.10761112604E+04 -0.11150842373E+04  0.15974738911E+04  0.10100000352E+00 0.  1.
</event>
<event>
 5   0  0.1339844E-06  0.2907577E+04  0.7818609E-02  0.8270627E-01
        2   -1    0    0  501    0  0.00000000000E+00  0.00000000000E+00  0.20790489447E+04  0.20790489447E+04  0.25500000920E-02 0.  1.
       -2   -1    0    0    0  501  0.00000000000E+00  0.00000000000E+00 -0.10165711883E+04  0.10165711883E+04  0.25500000920E-02 0. -1.
    10030    2    1    2    0    0  0.00000000000E+00  0.00000000000E+00  0.10624777563E+04  0.30956201330E+04  0.29075771744E+04 0.  0.
        3    1    3    3  502    0  0.58645934832E+03 -0.10705282737E+04  0.13719506744E+04  0.18363589015E+04  0.10100000352E+00 0.  1.
       -3    1    3    3    0  502 -0.58645934832E+03  0.10705282737E+04 -0.30947291810E+03  0.12592612315E+04  0.10100000352E+00 0. -1.
</event>
<event>
 5   0  0.6134625E-07  0.3362960E+04  0.7818609E-02  0.8147057E-01
       -1   -1    0    0    0  501  0.00000000000E+00  0.00000000000E+00  0.11785536851E+04  0.11785536851E+04  0.50400001928E-02 0. -1.
        1   -1    0    0  501    0  0.00000000000E+00  0.00000000000E+00 -0.23990212906E+04  0.23990212906E+04  0.50400001928E-02 0.  1.
    10030    2    1    2    0    0  0.00000000000E+00  0.00000000000E+00 -0.12204676055E+04  0.35775749757E+04  0.33629602333E+04 0.  0.
        1    1    3    3  502    0  0.13389824041E+03  0.99495494444E+03 -0.20452089884E+04  0.22783204091E+04  0.50400001928E-02 0.  1.
       -1    1    3    3    0  502 -0.13389824041E+03 -0.99495494444E+03  0.82474138288E+03  0.12992545666E+04  0.50400001928E-02 0. -1.
</event>
<event>
 5   0  0.6134625E-07  0.3440084E+04  0.7818609E-02  0.8128138E-01
       -1   -1    0    0    0  501  0.00000000000E+00  0.00000000000E+00  0.13457806873E+04  0.13457806873E+04  0.50400001928E-02 0.  1.
        1   -1    0    0  501    0  0.00000000000E+00  0.00000000000E+00 -0.21983854124E+04  0.21983854124E+04  0.50400001928E-02 0. -1.
    10030    2    1    2    0    0  0.00000000000E+00  0.00000000000E+00 -0.85260472512E+03  0.35441660996E+04  0.34400840868E+04 0.  0.
        5    1    3    3  502    0  0.60081793826E+03 -0.15933298099E+04 -0.17639269923E+03  0.17119633619E+04  0.46999998093E+01 0.  1.
       -5    1    3    3    0  502 -0.60081793826E+03  0.15933298099E+04 -0.67621202589E+03  0.18322027377E+04  0.46999998093E+01 0. -1.
</event>
<event>
 5   0  0.6218695E-07  0.3425847E+04  0.7818609E-02  0.8131592E-01
       -1   -1    0    0    0  501  0.00000000000E+00  0.00000000000E+00  0.13911683896E+04  0.13911683896E+04  0.50400001928E-02 0.  1.
        1   -1    0    0  501    0  0.00000000000E+00  0.00000000000E+00 -0.21090955257E+04  0.21090955257E+04  0.50400001928E-02 0. -1.
    10030    2    1    2    0    0  0.00000000000E+00  0.00000000000E+00 -0.71792713611E+03  0.35002639154E+04  0.34258470638E+04 0.  0.
        2    1    3    3  502    0 -0.11688830136E+04 -0.42447644001E+03  0.84460576041E+03  0.15032719774E+04  0.25500000920E-02 0.  1.
       -2    1    3    3    0  502  0.11688830136E+04  0.42447644001E+03 -0.15625328965E+04  0.19969919380E+04  0.25500000920E-02 0. -1.
</event>
<event>
 5   0  0.1880301E-06  0.3413445E+04  0.7818609E-02  0.8134614E-01
        2   -1    0    0  501    0  0.00000000000E+00  0.00000000000E+00  0.20864214999E+04  0.20864214999E+04  0.25500000920E-02 0. -1.
       -2   -1    0    0    0  501  0.00000000000E+00  0.00000000000E+00 -0.13961232662E+04  0.13961232663E+04  0.25500000920E-02 0.  1.
    10030    2    1    2    0    0  0.00000000000E+00  0.00000000000E+00  0.69029823367E+03  0.34825447662E+04  0.34134449456E+04 0.  0.
        4    1    3    3  502    0 -0.32810736954E+03 -0.14591877897E+04 -0.49369732056E+03  0.15749990821E+04  0.12699999809E+01 0. -1.
       -4    1    3    3    0  502  0.32810736954E+03  0.14591877897E+04  0.11839955542E+04  0.19075456841E+04  0.12699999809E+01 0.  1.
</event>
<event>
 5   0  0.6134625E-07  0.3428496E+04  0.7818609E-02  0.8130948E-01
       -1   -1    0    0    0  501  0.00000000000E+00  0.00000000000E+00  0.14376815086E+04  0.14376815086E+04  0.50400001928E-02 0.  1.
        1   -1    0    0  501    0  0.00000000000E+00  0.00000000000E+00 -0.20440177224E+04  0.20440177224E+04  0.50400001928E-02 0. -1.
    10030    2    1    2    0    0  0.00000000000E+00  0.00000000000E+00 -0.60633621384E+03  0.34816992310E+04  0.34284961617E+04 0.  0.
        1    1    3    3  502    0  0.73833295961E+03  0.13484502306E+04 -0.10733518403E+04  0.18749767350E+04  0.50400001928E-02 0. -1.
       -1    1    3    3    0  502 -0.73833295961E+03 -0.13484502306E+04  0.46701562650E+03  0.16067224960E+04  0.50400001928E-02 0.  1.
</event>
<event>
 5   0  0.1911477E-06  0.3489761E+04  0.7818609E-02  0.8116221E-01
        2   -1    0    0  501    0  0.00000000000E+00  0.00000000000E+00  0.15190209669E+04  0.15190209669E+04  0.25500000920E-02 0. -1.
       -2   -1    0    0    0  501  0.00000000000E+00  0.00000000000E+00 -0.20043222323E+04  0.20043222323E+04  0.25500000920E-02 0.  1.
    10030    2    1    2    0    0  0.00000000000E+00  0.00000000000E+00 -0.48530126544E+03  0.35233431993E+04  0.34897607341E+04 0.  0.
        5    1    3    3  502    0  0.33476335215E+03  0.15808781164E+04 -0.90727358057E+03  0.18532160049E+04  0.46999998093E+01 0.  1.
       -5    1    3    3    0  502 -0.33476335215E+03 -0.15808781164E+04  0.42197231513E+03  0.16701271944E+04  0.46999998093E+01 0. -1.
</event>
<event>
 5   0  0.1797075E-06  0.3386970E+04  0.7818609E-02  0.8141112E-01
        2   -1    0    0  501    0  0.00000000000E+00  0.00000000000E+00  0.23208090216E+04  0.23208090216E+04  0.25500000920E-02 0. -1.
       -2   -1    0    0    0  501  0.00000000000E+00  0.00000000000E+00 -0.12357294068E+04  0.12357294068E+04  0.25500000920E-02 0.  1.
    10030    2    1    2    0    0  0.00000000000E+00  0.00000000000E+00  0.10850796148E+04  0.35565384284E+04  0.33869703013E+04 0.  0.
        2    1    3    3  502    0 -0.23339491365E+03 -0.90345852305E+03  0.20265089853E+04  0.22310197570E+04  0.25500000920E-02 0. -1.
       -2    1    3    3    0  502  0.23339491365E+03  0.90345852305E+03 -0.94142937048E+03  0.13255186714E+04  0.25500000920E-02 0.  1.
</event>
<event>
 5   0  0.1339844E-06  0.2685075E+04  0.7818609E-02  0.8339864E-01
        2   -1    0    0  501    0  0.00000000000E+00  0.00000000000E+00  0.18262186541E+04  0.18262186541E+04  0.25500000920E-02 0. -1.
       -2   -1    0    0    0  501  0.00000000000E+00  0.00000000000E+00 -0.98696135625E+03  0.98696135625E+03  0.25500000920E-02 0.  1.
    10030    2    1    2    0    0  0.00000000000E+00  0.00000000000E+00  0.83925729789E+03  0.28131800104E+04  0.26850752240E+04 0.  0.
        3    1    3    3  502    0 -0.75515951333E+03 -0.61481687549E+02 -0.74156361944E+03  0.10601709769E+04  0.10100000352E+00 0.  1.
       -3    1    3    3    0  502  0.75515951333E+03  0.61481687549E+02  0.15808209173E+04  0.17530090334E+04  0.10100000352E+00 0. -1.
</event>
<event>
 5   0  0.6134625E-07  0.3381187E+04  0.7818609E-02  0.8142539E-01
        1   -1    0    0  501    0  0.00000000000E+00  0.00000000000E+00  0.13629459797E+04  0.13629459797E+04  0.50400001928E-02 0. -1.
       -1   -1    0    0    0  501  0.00000000000E+00  0.00000000000E+00 -0.20970059025E+04  0.20970059025E+04  0.50400001928E-02 0.  1.
    10030    2    1    2    0    0  0.00000000000E+00  0.00000000000E+00 -0.73405992286E+03  0.34599518822E+04  0.33811866344E+04 0.  0.
        3    1    3    3  502    0 -0.72478069082E+03  0.15271678049E+04 -0.34287499773E+03  0.17248512482E+04  0.10100000352E+00 0.  1.
       -3    1    3    3    0  502  0.72478069082E+03 -0.15271678049E+04 -0.39118492512E+03  0.17351006340E+04  0.10100000352E+00 0. -1.
</event>
<event>
 5   0  0.6218695E-07  0.3417878E+04  0.7818609E-02  0.8133532E-01
        1   -1    0    0  501    0  0.00000000000E+00  0.00000000000E+00  0.15722003032E+04  0.15722003032E+04  0.50400001928E-02 0.  1.
       -1   -1    0    0    0  501  0.00000000000E+00  0.00000000000E+00 -0.18575707164E+04  0.18575707164E+04  0.50400001928E-02 0. -1.
    10030    2    1    2    0    0  0.00000000000E+00  0.00000000000E+00 -0.28537041319E+03  0.34297710197E+04  0.34178784318E+04 0.  0.
        2    1    3    3  502    0  0.90830719986E+03  0.13621616606E+04  0.34888343637E+03  0.16739850690E+04  0.25500000920E-02 0.  1.
       -2    1    3    3    0  502 -0.90830719986E+03 -0.13621616606E+04 -0.63425384956E+03  0.17557859507E+04  0.25500000920E-02 0. -1.
</event>
<event>
 5   0  0.1339844E-06  0.3424622E+04  0.7818609E-02  0.8131890E-01
       -2   -1    0    0    0  501  0.00000000000E+00  0.00000000000E+00  0.13648800357E+04  0.13648800357E+04  0.25500000920E-02 0. -1.
        2   -1    0    0  501    0  0.00000000000E+00  0.00000000000E+00 -0.21481804525E+04  0.21481804525E+04  0.25500000920E-02 0.  1.
    10030    2    1    2    0    0  0.00000000000E+00  0.00000000000E+00 -0.78330041680E+03  0.35130604882E+04  0.34246217967E+04 0.  0.
        3    1    3    3  502    0 -0.71354348801E+03 -0.11525822072E+03  0.12007186337E+04  0.14014827913E+04  0.10100000352E+00 0. -1.
       -3    1    3    3    0  502  0.71354348801E+03  0.11525822072E+03 -0.19840190505E+04  0.21115776969E+04  0.10100000352E+00 0.  1.
</event>
<event>
 5   0  0.1911477E-06  0.3449506E+04  0.7818609E-02  0.8125862E-01
       -2   -1    0    0    0  501  0.00000000000E+00  0.00000000000E+00  0.14992150301E+04  0.14992150301E+04  0.25500000920E-02 0.  1.
        2   -1    0    0  501    0  0.00000000000E+00  0.00000000000E+00 -0.19842200696E+04  0.19842200696E+04  0.25500000920E-02 0. -1.
    10030    2    1    2    0    0  0.00000000000E+00  0.00000000000E+00 -0.48500503950E+03  0.34834350996E+04  0.34495057914E+04 0.  0.
        5    1    3    3  502    0 -0.15319874821E+04 -0.44817620426E+03  0.41730217389E+03  0.16498517357E+04  0.46999998093E+01 0. -1.
       -5    1    3    3    0  502  0.15319874821E+04  0.44817620426E+03 -0.90230721339E+03  0.18335833640E+04  0.46999998093E+01 0.  1.
</event>
<event>
 5   0  0.1880301E-06  0.3391588E+04  0.7818609E-02  0.8139974E-01
        2   -1    0    0  501    0  0.00000000000E+00  0.00000000000E+00  0.16052157581E+04  0.16052157581E+04  0.25500000920E-02 0.  1.
       -2   -1    0    0    0  501  0.00000000000E+00  0.00000000000E+00 -0.17914833374E+04  0.17914833374E+04  0.25500000920E-02 0. -1.
    10030    2    1    2    0    0  0.00000000000E+00  0.00000000000E+00 -0.18626757936E+03  0.33966990955E+04  0.33915879960E+04 0.  0.
        4    1    3    3  502    0  0.19666927074E+03  0.15680914444E+04  0.52271247044E+03  0.16645778804E+04  0.12699999809E+01 0.  1.
       -4    1    3    3    0  502 -0.19666927074E+03 -0.15680914444E+04 -0.70898004981E+03  0.17321212152E+04  0.12699999809E+01 0. -1.
</event>
<event>
 5   0  0.6146388E-07  0.3490908E+04  0.7818609E-02  0.8115948E-01
       -1   -1    0    0    0  501  0.00000000000E+00  0.00000000000E+00  0.17435573602E+04  0.17435573602E+04  0.50400001928E-02 0.  1.
        1   -1    0    0  501    0  0.00000000000E+00  0.00000000000E+00 -0.17473529108E+04  0.17473529108E+04  0.50400001928E-02 0. -1.
    10030    2    1    2    0    0  0.00000000000E+00  0.00000000000E+00 -0.37955505540E+01  0.34909102711E+04  0.34909082077E+04 0.  0.
        4    1    3    3  502    0 -0.90185111942E+03 -0.84049082825E+03 -0.12375554733E+04  0.17467986250E+04  0.12699999809E+01 0. -1.
       -4    1    3    3    0  502  0.90185111942E+03  0.84049082825E+03  0.12337599227E+04  0.17441116460E+04  0.12699999809E+01 0.  1.
</event>
<event>
 5   0  0.6146388E-07  0.2512807E+04  0.7818609E-02  0.8398437E-01
        1   -1    0    0  501    0  0.00000000000E+00  0.00000000000E+00  0.13918577022E+04  0.13918577022E+04  0.50400001928E-02 0.  1.
       -1   -1    0    0    0  501  0.00000000000E+00  0.00000000000E+00 -0.11341317321E+04  0.11341317321E+04  0.50400001928E-02 0. -1.
    10030    2    1    2    0    0  0.00000000000E+00  0.00000000000E+00  0.25772597016E+03  0.25259894343E+04  0.25128071845E+04 0.  0.
        4    1    3    3  502    0  0.25886524600E+03  0.23002692394E+03  0.13429341854E+04  0.13868660500E+04  0.12699999809E+01 0.  1.
       -4    1    3    3    0  502 -0.25886524600E+03 -0.23002692394E+03 -0.10852082153E+04  0.11391233843E+04  0.12699999809E+01 0. -1.
</event>
<event>
 5   0  0.6134625E-07  0.3373650E+04  0.7818609E-02  0.8144404E-01
        1   -1    0    0  501    0  0.00000000000E+00  0.00000000000E+00  0.11969331544E+04  0.11969331545E+04  0.50400001928E-02 0. -1.
       -1   -1    0    0    0  501  0.00000000000E+00  0.00000000000E+00 -0.23772236230E+04  0.23772236230E+04  0.50400001928E-02 0.  1.
    10030    2    1    2    0    0  0.00000000000E+00  0.00000000000E+00 -0.11802904686E+04  0.35741567775E+04  0.33736495194E+04 0.  0.
        3    1    3    3  502    0 -0.18431223431E+03  0.16729008904E+04 -0.47024016696E+03  0.17474822499E+04  0.10100000352E+00 0.  1.
       -3    1    3    3    0  502  0.18431223431E+03 -0.16729008904E+04 -0.71005030161E+03  0.18266745276E+04  0.10100000352E+00 0. -1.
</event>
<event>
 5   0  0.6134625E-07  0.3155525E+04  0.7818609E-02  0.8200663E-01
        1   -1    0    0  501    0  0.00000000000E+00  0.00000000000E+00  0.13357458700E+04  0.13357458700E+04  0.50400001928E-02 0. -1.
       -1   -1    0    0    0  501  0.00000000000E+00  0.00000000000E+00 -0.18636287256E+04  0.18636287256E+04  0.50400001928E-02 0.  1.
    10030    2    1    2    0    0  0.00000000000E+00  0.00000000000E+00 -0.52788285558E+03  0.31993745956E+04  0.31555249157E+04 0.  0.
        1    1    3    3  502    0 -0.86716488956E+03 -0.15251190209E+03 -0.15913710303E+04  0.18187073932E+04  0.50400001928E-02 0.  1.
       -1    1    3    3    0  502  0.86716488956E+03  0.15251190209E+03  0.10634881747E+04  0.13806672024E+04  0.50400001928E-02 0. -1.
</event>
<event>
 5   0  0.1797075E-06  0.3576532E+04  0.7818609E-02  0.8095889E-01
        2   -1    0    0  501    0  0.00000000000E+00  0.00000000000E+00  0.21799821178E+04  0.21799821178E+04  0.25500000920E-02 0.  1.
       -2   -1    0    0    0  501  0.00000000000E+00  0.00000000000E+00 -0.14669365271E+04  0.14669365271E+04  0.25500000920E-02 0. -1.
    10030    2    1    2    0    0  0.00000000000E+00  0.00000000000E+00  0.71304559071E+03  0.36469186449E+04  0.35765320616E+04 0.  0.
        2    1    3    3  502    0 -0.14033376863E+04 -0.37350413948E+03 -0.70758236906E+03  0.16154054640E+04  0.25500000920E-02 0. -1.
       -2    1    3    3    0  502  0.14033376863E+04  0.37350413948E+03  0.14206279598E+04  0.20315131809E+04  0.25500000920E-02 0.  1.
</event>
<event>
 5   0  0.6218695E-07  0.3476168E+04  0.7818609E-02  0.8119461E-01
       -1   -1    0    0    0  501  0.00000000000E+00  0.00000000000E+00  0.13908084436E+04  0.13908084436E+04  0.50400001928E-02 0.  1.
        1   -1    0    0  501    0  0.00000000000E+00  0.00000000000E+00 -0.21720721727E+04  0.21720721727E+04  0.50400001928E-02 0. -1.
    10030    2    1    2    0    0  0.00000000000E+00  0.00000000000E+00 -0.78126372906E+03  0.35628806163E+04  0.34761681880E+04 0.  0.
        2    1    3    3  502    0  0.71443330075E+03 -0.68317393322E+03 -0.18559068297E+04  0.21027438562E+04  0.25500000920E-02 0. -1.
       -2    1    3    3    0  502 -0.71443330075E+03  0.68317393322E+03  0.10746431007E+04  0.14601367601E+04  0.25500000920E-02 0.  1.
</event>
<event>
 5   0  0.1339844E-06  0.3394681E+04  0.7818609E-02  0.8139213E-01
        2   -1    0    0  501    0  0.00000000000E+00  0.00000000000E+00  0.14757522306E+04  0.14757522306E+04  0.25500000920E-02 0.  1.
       -2   -1    0    0    0  501  0.00000000000E+00  0.00000000000E+00 -0.19522005696E+04  0.19522005696E+04  0.25500000920E-02 0. -1.
    10030    2    1    2    0    0  0.00000000000E+00  0.00000000000E+00 -0.47644833899E+03  0.34279528001E+04  0.33946807479E+04 0.  0.
        3    1    3    3  502    0 -0.16313208482E+04 -0.46481186550E+03 -0.17674597589E+03  0.17054315965E+04  0.10100000352E+00 0.  1.
       -3    1    3    3    0  502  0.16313208482E+04  0.46481186550E+03 -0.29970236309E+03  0.17225212036E+04  0.10100000352E+00 0. -1.
</event>
<event>
 5   0  0.6134625E-07  0.3475751E+04  0.7818609E-02  0.8119561E-01
       -1   -1    0    0    0  501  0.00000000000E+00  0.00000000000E+00  0.14853683637E+04  0.14853683637E+04  0.50400001928E-02 0. -1.
        1   -1    0    0  501    0  0.00000000000E+00  0.00000000000E+00 -0.20333079906E+04  0.20333079906E+04  0.50400001928E-02 0.  1.
    10030    2    1    2    0    0  0.00000000000E+00  0.00000000000E+00 -0.54793962687E+03  0.35186763543E+04  0.34757510630E+04 0.  0.
        5    1    3    3  502    0  0.12695476149E+04 -0.11710398617E+04 -0.46897208470E+03  0.17897045596E+04  0.46999998093E+01 0. -1.
       -5    1    3    3    0  502 -0.12695476149E+04  0.11710398617E+04 -0.78967542167E+02  0.17289717947E+04  0.46999998093E+01 0.  1.
</event>
<event>
 5   0  0.1797075E-06  0.3387223E+04  0.7818609E-02  0.8141049E-01
        2   -1    0    0  501    0  0.00000000000E+00  0.00000000000E+00  0.20420122245E+04  0.20420122245E+04  0.25500000920E-02 0.  1.
       -2   -1    0    0    0  501  0.00000000000E+00  0.00000000000E+00 -0.14046534957E+04  0.14046534957E+04  0.25500000920E-02 0. -1.
    10030    2    1    2    0    0  0.00000000000E+00  0.00000000000E+00  0.63735872887E+03  0.34466657202E+04  0.33872228208E+04 0.  0.
        2    1    3    3  502    0 -0.98755142452E+03  0.13629845039E+04  0.50995434357E+03  0.17587035016E+04  0.25500000920E-02 0.  1.
       -2    1    3    3    0  502  0.98755142452E+03 -0.13629845039E+04  0.12740438530E+03  0.16879622186E+04  0.25500000920E-02 0. -1.
</event>
<event>
 5   0  0.6134625E-07  0.3176908E+04  0.7818609E-02  0.8194942E-01
        1   -1    0    0  501    0  0.00000000000E+00  0.00000000000E+00  0.19772271802E+04  0.19772271802E+04  0.50400001928E-02 0. -1.
       -1   -1    0    0    0  501  0.00000000000E+00  0.00000000000E+00 -0.12761238712E+04  0.12761238713E+04  0.50400001928E-02 0.  1.
    10030    2    1    2    0    0  0.00000000000E+00  0.00000000000E+00  0.70110330899E+03  0.32533510515E+04  0.31769084366E+04 0.  0.
        1    1    3    3  502    0  0.28659122851E+02 -0.14105179830E+04  0.10980498753E+04  0.17877628071E+04  0.50400001928E-02 0.  1.
       -1    1    3    3    0  502 -0.28659122851E+02  0.14105179830E+04 -0.39694656631E+03  0.14655882444E+04  0.50400001928E-02 0. -1.
</event>
<event>
 5   0  0.1339844E-06  0.3324428E+04  0.7818609E-02  0.8156707E-01
       -2   -1    0    0    0  501  0.00000000000E+00  0.00000000000E+00  0.17062409079E+04  0.17062409079E+04  0.25500000920E-02 0.  1.
        2   -1    0    0  501    0  0.00000000000E+00  0.00000000000E+00 -0.16193232740E+04  0.16193232740E+04  0.25500000920E-02 0. -1.
    10030    2    1    2    0    0  0.00000000000E+00  0.00000000000E+00  0.86917633959E+02  0.33255641819E+04  0.33244281392E+04 0.  0.
        3    1    3    3  502    0  0.54080378353E+03 -0.50863970255E+03 -0.14442523180E+04  0.16238989647E+04  0.10100000352E+00 0. -1.
       -3    1    3    3    0  502 -0.54080378353E+03  0.50863970255E+03  0.15311699520E+04  0.17016652172E+04  0.10100000352E+00 0.  1.
</event>
<event>
 5   0  0.6134625E-07  0.3348706E+04  0.7818609E-02  0.8150612E-01
        1   -1    0    0  501    0  0.00000000000E+00  0.00000000000E+00  0.27410200442E+04  0.27410200443E+04  0.50400001928E-02 0. -1.
       -1   -1    0    0    0  501  0.00000000000E+00  0.00000000000E+00 -0.10227791780E+04  0.10227791781E+04  0.50400001928E-02 0.  1.
    10030    2    1    2    0    0  0.00000000000E+00  0.00000000000E+00  0.17182408662E+04  0.37637992223E+04  0.33487061549E+04 0.  0.
        5    1    3    3  502    0 -0.19296425509E+03 -0.50792581026E+03  0.26391677833E+04  0.26945226870E+04  0.46999998093E+01 0. -1.
       -5    1    3    3    0  502  0.19296425509E+03  0.50792581026E+03 -0.92092691705E+03  0.10692765353E+04  0.46999998093E+01 0.  1.
</event>
<event>
 5   0  0.1948507E-06  0.3366171E+04  0.7818609E-02  0.8146259E-01
       -2   -1    0    0    0  501  0.00000000000E+00  0.00000000000E+00  0.15857820528E+04  0.15857820528E+04  0.25500000920E-02 0. -1.
        2   -1    0    0  501    0  0.00000000000E+00  0.00000000000E+00 -0.17863597455E+04  0.17863597455E+04  0.25500000920E-02 0.  1.
    10030    2    1    2    0    0  0.00000000000E+00  0.00000000000E+00 -0.20057769274E+03  0.33721417983E+04  0.33661712519E+04 0.  0.
        1    1    3    3  502    0 -0.58265014426E+02 -0.11565945577E+04  0.11232174518E+04  0.16132957654E+04  0.50400001928E-02 0. -1.
       -1    1    3    3    0  502  0.58265014426E+02  0.11565945577E+04 -0.13237951445E+04  0.17588460329E+04  0.50400001928E-02 0.  1.
</event>
<event>
 5   0  0.1339844E-06  0.3372884E+04  0.7818609E-02  0.8144594E-01
       -2   -1    0    0    0  501  0.00000000000E+00  0.00000000000E+00  0.15483962737E+04  0.15483962737E+04  0.25500000920E-02 0.  1.
        2   -1    0    0  501    0  0.00000000000E+00  0.00000000000E+00 -0.18367950882E+04  0.18367950882E+04  0.25500000920E-02 0. -1.
    10030    2    1    2    0    0  0.00000000000E+00  0.00000000000E+00 -0.28839881446E+03  0.33851913619E+04  0.33728840301E+04 0.  0.
        3    1    3    3  502    0 -0.67613437858E+03 -0.33789883327E+03  0.13688669234E+04  0.15636911407E+04  0.10100000352E+00 0.  1.
       -3    1    3    3    0  502  0.67613437858E+03  0.33789883327E+03 -0.16572657379E+04  0.18215002211E+04  0.10100000352E+00 0. -1.
</event>
<event>
 5   0  0.6146388E-07  0.3355654E+04  0.7818609E-02  0.8148877E-01
       -1   -1    0    0    0  501  0.00000000000E+00  0.00000000000E+00  0.93227023527E+03  0.93227023528E+03  0.50400001928E-02 0. -1.
        1   -1    0    0  501    0  0.00000000000E+00  0.00000000000E+00 -0.30196211000E+04  0.30196211000E+04  0.50400001928E-02 0.  1.
    10030    2    1    2    0    0  0.00000000000E+00  0.00000000000E+00 -0.20873508647E+04  0.39518913353E+04  0.33556536611E+04 0.  0.
        4    1    3    3  502    0  0.33526263348E+03  0.52023790225E+03  0.79292363308E+03  0.10058717658E+04  0.12699999809E+01 0. -1.
       -4    1    3    3    0  502 -0.33526263348E+03 -0.52023790225E+03 -0.28802744978E+04  0.29460195695E+04  0.12699999809E+01 0.  1.
</event>
<event>
 5   0  0.1911477E-06  0.3322301E+04  0.7818609E-02  0.8157244E-01
       -2   -1    0    0    0  501  0.00000000000E+00  0.00000000000E+00  0.78764932112E+03  0.78764932112E+03  0.25500000920E-02 0.  1.
        2   -1    0    0  501    0  0.00000000000E+00  0.00000000000E+00 -0.35033629833E+04  0.35033629833E+04  0.25500000920E-02 0. -1.
    10030    2    1    2    0    0  0.00000000000E+00  0.00000000000E+00 -0.27157136622E+04  0.42910123044E+04  0.33223012961E+04 0.  0.
        5    1    3    3  502    0  0.94350393194E+03 -0.13217412034E+04 -0.90635846591E+03  0.18597599945E+04  0.46999998093E+01 0.  1.
       -5    1    3    3    0  502 -0.94350393194E+03  0.13217412034E+04 -0.18093551963E+04  0.24312523100E+04  0.46999998093E+01 0. -1.
</event>
<event>
 5   0  0.1948507E-06  0.3309091E+04  0.7818609E-02  0.8160586E-01
        2   -1    0    0  501    0  0.00000000000E+00  0.00000000000E+00  0.18117518504E+04  0.18117518504E+04  0.25500000920E-02 0.  1.
       -2   -1    0    0    0  501  0.00000000000E+00  0.00000000000E+00 -0.15109803127E+04  0.15109803127E+04  0.25500000920E-02 0. -1.
    10030    2    1    2    0    0  0.00000000000E+00  0.00000000000E+00  0.30077153773E+03  0.33227321631E+04  0.33090913420E+04 0.  0.
        1    1    3    3  502    0 -0.12970692007E+04 -0.37488053211E+03 -0.80990239005E+03  0.15744414268E+04  0.50400001928E-02 0. -1.
       -1    1    3    3    0  502  0.12970692007E+04  0.37488053211E+03  0.11106739278E+04  0.17482907363E+04  0.50400001928E-02 0.  1.
</event>
<event>
 5   0  0.1339844E-06  0.3338001E+04  0.7818609E-02  0.8153293E-01
        2   -1    0    0  501    0  0.00000000000E+00  0.00000000000E+00  0.13775296960E+04  0.13775296960E+04  0.25500000920E-02 0.  1.
       -2   -1    0    0    0  501  0.00000000000E+00  0.00000000000E+00 -0.20221431864E+04  0.20221431864E+04  0.25500000920E-02 0. -1.
    10030    2    1    2    0    0  0.00000000000E+00  0.00000000000E+00 -0.64461349045E+03  0.33996728824E+04  0.33380007722E+04 0.  0.
        3    1    3    3  502    0  0.52438111360E+02 -0.15852479102E+04  0.20671429807E+03  0.15995285254E+04  0.10100000352E+00 0. -1.
       -3    1    3    3    0  502 -0.52438111360E+02  0.15852479102E+04 -0.85132778852E+03  0.18001443570E+04  0.10100000352E+00 0.  1.
</event>
<event>
 5   0  0.6134625E-07  0.3146582E+04  0.7818609E-02  0.8203069E-01
       -1   -1    0    0    0  501  0.00000000000E+00  0.00000000000E+00  0.12046464764E+04  0.12046464764E+04  0.50400001928E-02 0. -1.
        1   -1    0    0  501    0  0.00000000000E+00  0.00000000000E+00 -0.20547477064E+04  0.20547477064E+04  0.50400001928E-02 0.  1.
    10030    2    1    2    0    0  0.00000000000E+00  0.00000000000E+00 -0.85010123002E+03  0.32593941828E+04  0.31465820088E+04 0.  0.
        5    1    3    3  502    0  0.11618281698E+04 -0.10598481058E+03  0.66832325905E+03  0.13445280008E+04  0.46999998093E+01 0. -1.
       -5    1    3    3    0  502 -0.11618281698E+04  0.10598481058E+03 -0.15184244891E+04  0.19148661821E+04  0.46999998093E+01 0.  1.
</event>
<event>
 5   0  0.1339844E-06  0.2816881E+04  0.7818609E-02  0.8298047E-01
        2   -1    0    0  501    0  0.00000000000E+00  0.00000000000E+00  0.14413296835E+04  0.14413296835E+04  0.25500000920E-02 0.  1.
       -2   -1    0    0    0  501  0.00000000000E+00  0.00000000000E+00 -0.13763017441E+04  0.13763017442E+04  0.25500000920E-02 0. -1.
    10030    2    1    2    0    0  0.00000000000E+00  0.00000000000E+00  0.65027939347E+02  0.28176314276E+04  0.28168809398E+04 0.  0.
        3    1    3    3  502    0 -0.41657042205E+03 -0.11078777097E+04 -0.73109010782E+03  0.13911925431E+04  0.10100000352E+00 0. -1.
       -3    1    3    3    0  502  0.41657042205E+03  0.11078777097E+04  0.79611804716E+03  0.14264388845E+04  0.10100000352E+00 0.  1.
</event>
<event>
 5   0  0.6218695E-07  0.3284109E+04  0.7818609E-02  0.8166951E-01
        1   -1    0    0  501    0  0.00000000000E+00  0.00000000000E+00  0.90351850618E+03  0.90351850619E+03  0.50400001928E-02 0. -1.
       -1   -1    0    0    0  501  0.00000000000E+00  0.00000000000E+00 -0.29842697659E+04  0.29842697659E+04  0.50400001928E-02 0.  1.
    10030    2    1    2    0    0  0.00000000000E+00  0.00000000000E+00 -0.20807512598E+04  0.38877882721E+04  0.32841089878E+04 0.  0.
        2    1    3    3  502    0  0.49921783627E+03 -0.14861514350E+04 -0.46226681499E+03  0.16344892609E+04  0.25500000920E-02 0. -1.
       -2    1    3    3    0  502 -0.49921783627E+03  0.14861514350E+04 -0.16184844448E+04  0.22532990112E+04  0.25500000920E-02 0.  1.
</event>
<event>
 5   0  0.6146388E-07  0.3363900E+04  0.7818609E-02  0.8146824E-01
       -1   -1    0    0    0  501  0.00000000000E+00  0.00000000000E+00  0.18279195021E+04  0.18279195021E+04  0.50400001928E-02 0.  1.
        1   -1    0    0  501    0  0.00000000000E+00  0.00000000000E+00 -0.15476369929E+04  0.15476369929E+04  0.50400001928E-02 0. -1.
    10030    2    1    2    0    0  0.00000000000E+00  0.00000000000E+00  0.28028250912E+03  0.33755564950E+04  0.33639000232E+04 0.  0.
        4    1    3    3  502    0  0.86271716346E+03 -0.11982154777E+04  0.94850889702E+03  0.17548994204E+04  0.12699999809E+01 0.  1.
       -4    1    3    3    0  502 -0.86271716346E+03  0.11982154777E+04 -0.66822638790E+03  0.16206570746E+04  0.12699999809E+01 0. -1.
</event>
<event>
 5   0  0.1339844E-06  0.3419993E+04  0.7818609E-02  0.8133017E-01
       -2   -1    0    0    0  501  0.00000000000E+00  0.00000000000E+00  0.17186590336E+04  0.17186590336E+04  0.25500000920E-02 0. -1.
        2   -1    0    0  501    0  0.00000000000E+00  0.00000000000E+00 -0.17013776229E+04  0.17013776229E+04  0.25500000920E-02 0.  1.
    10030    2    1    2    0    0  0.00000000000E+00  0.00000000000E+00  0.17281410786E+02  0.34200366565E+04  0.34199929948E+04 0.  0.
        3    1    3    3  502    0 -0.12698792368E+04  0.83187553424E+03 -0.77843848230E+03  0.17060412250E+04  0.10100000352E+00 0.  1.
       -3    1    3    3    0  502  0.12698792368E+04 -0.83187553424E+03  0.79571989309E+03  0.17139954315E+04  0.10100000352E+00 0. -1.
</event>
<event>
 5   0  0.6134625E-07  0.3346630E+04  0.7818609E-02  0.8151131E-01
        1   -1    0    0  501    0  0.00000000000E+00  0.00000000000E+00  0.18501837440E+04  0.18501837440E+04  0.50400001928E-02 0. -1.
       -1   -1    0    0    0  501  0.00000000000E+00  0.00000000000E+00 -0.15133536126E+04  0.15133536126E+04  0.50400001928E-02 0.  1.
    10030    2    1    2    0    0  0.00000000000E+00  0.00000000000E+00  0.33683013137E+03  0.33635373566E+04  0.33466295003E+04 0.  0.
        3    1    3    3  502    0  0.77040899002E+03 -0.42604470569E+03  0.15986075802E+04  0.18249904955E+04  0.10100000352E+00 0. -1.
       -3    1    3    3    0  502 -0.77040899002E+03  0.42604470569E+03 -0.12617774488E+04  0.15385468611E+04  0.10100000352E+00 0.  1.
</event>
<event>
 5   0  0.6146388E-07  0.3379727E+04  0.7818609E-02  0.8142900E-01
       -1   -1    0    0    0  501  0.00000000000E+00  0.00000000000E+00  0.14698260745E+04  0.14698260745E+04  0.50400001928E-02 0. -1.
        1   -1    0    0  501    0  0.00000000000E+00  0.00000000000E+00 -0.19428410599E+04  0.19428410599E+04  0.50400001928E-02 0.  1.
    10030    2    1    2    0    0  0.00000000000E+00  0.00000000000E+00 -0.47301498538E+03  0.34126671344E+04  0.33797268815E+04 0.  0.
        4    1    3    3  502    0  0.56161476200E+03 -0.22786406424E+03 -0.18293176387E+04  0.19271060710E+04  0.12699999809E+01 0.  1.
       -4    1    3    3    0  502 -0.56161476200E+03  0.22786406424E+03  0.13563026533E+04  0.14855610634E+04  0.12699999809E+01 0. -1.
</event>
<event>
 5   0  0.6218695E-07  0.3417605E+04  0.7818609E-02  0.8133599E-01
       -1   -1    0    0    0  501  0.00000000000E+00  0.00000000000E+00  0.16386353707E+04  0.16386353707E+04  0.50400001928E-02 0.  1.
        1   -1    0    0  501    0  0.00000000000E+00  0.00000000000E+00 -0.17819740339E+04  0.17819740339E+04  0.50400001928E-02 0. -1.
    10030    2    1    2    0    0  0.00000000000E+00  0.00000000000E+00 -0.14333866327E+03  0.34206094046E+04  0.34176048230E+04 0.  0.
        2    1    3    3  502    0  0.31689616765E+03 -0.13329466731E+04 -0.10937603684E+04  0.17531348374E+04  0.25500000920E-02 0. -1.
       -2    1    3    3    0  502 -0.31689616765E+03  0.13329466731E+04  0.95042170518E+03  0.16674745672E+04  0.25500000920E-02 0.  1.
</event>
<event>
 5   0  0.1797075E-06  0.3383749E+04  0.7818609E-02  0.8141906E-01
       -2   -1    0    0    0  501  0.00000000000E+00  0.00000000000E+00  0.13593185875E+04  0.13593185875E+04  0.25500000920E-02 0. -1.
        2   -1    0    0  501    0  0.00000000000E+00  0.00000000000E+00 -0.21057897377E+04  0.21057897377E+04  0.25500000920E-02 0.  1.
    10030    2    1    2    0    0  0.00000000000E+00  0.00000000000E+00 -0.74647115017E+03  0.34651083252E+04  0.33837488866E+04 0.  0.
        2    1    3    3  502    0 -0.13207275266E+04  0.10338399800E+03  0.70441203393E+03  0.15004018676E+04  0.25500000920E-02 0. -1.
       -2    1    3    3    0  502  0.13207275266E+04 -0.10338399800E+03 -0.14508831841E+04  0.19647064576E+04  0.25500000920E-02 0.  1.
</event>
<event>
 5   0  0.1797075E-06  0.3395823E+04  0.7818609E-02  0.8138932E-01
       -2   -1    0    0    0  501  0.00000000000E+00  0.00000000000E+00  0.16784366808E+04  0.16784366808E+04  0.25500000920E-02 0. -1.
        2   -1    0    0  501    0  0.00000000000E+00  0.00000000000E+00 -0.17176121500E+04  0.17176121500E+04  0.25500000920E-02 0.  1.
    10030    2    1    2    0    0  0.00000000000E+00  0.00000000000E+00 -0.39175469185E+02  0.33960488309E+04  0.33958228670E+04 0.  0.
        2    1    3    3  502    0  0.58705861459E+02  0.78138854533E+03 -0.15259710725E+04  0.17154014547E+04  0.25500000920E-02 0.  1.
       -2    1    3    3    0  502 -0.58705861459E+02 -0.78138854533E+03  0.14867956033E+04  0.16806473761E+04  0.25500000920E-02 0. -1.
</event>
<event>
 5   0  0.1797075E-06  0.3259440E+04  0.7818609E-02  0.8173293E-01
       -2   -1    0    0    0  501  0.00000000000E+00  0.00000000000E+00  0.14161723947E+04  0.14161723947E+04  0.25500000920E-02 0.  1.
        2   -1    0    0  501    0  0.00000000000E+00  0.00000000000E+00 -0.18754694239E+04  0.18754694239E+04  0.25500000920E-02 0. -1.
    10030    2    1    2    0    0  0.00000000000E+00  0.00000000000E+00 -0.45929702923E+03  0.32916418187E+04  0.32594404583E+04 0.  0.
        2    1    3    3  502    0 -0.81662874523E+03 -0.63740432851E+02  0.11931861686E+04  0.14472866279E+04  0.25500000920E-02 0.  1.
       -2    1    3    3    0  502  0.81662874523E+03  0.63740432851E+02 -0.16524831979E+04  0.18443551907E+04  0.25500000920E-02 0. -1.
</event>
<event>
 5   0  0.1911477E-06  0.3516798E+04  0.7818609E-02  0.8109821E-01
        2   -1    0    0  501    0  0.00000000000E+00  0.00000000000E+00  0.19958637795E+04  0.19958637795E+04  0.25500000920E-02 0. -1.
       -2   -1    0    0    0  501  0.00000000000E+00  0.00000000000E+00 -0.15491873713E+04  0.15491873713E+04  0.25500000920E-02 0.  1.
    10030    2    1    2    0    0  0.00000000000E+00  0.00000000000E+00  0.44667640817E+03  0.35450511507E+04  0.35167979538E+04 0.  0.
        5    1    3    3  502    0  0.77224977772E+03 -0.77352213820E+03 -0.11651304194E+04  0.15975785432E+04  0.46999998093E+01 0.  1.
       -5    1    3    3    0  502 -0.77224977772E+03  0.77352213820E+03  0.16118068276E+04  0.19474726075E+04  0.46999998093E+01 0. -1.
</event>
<event>
 5   0  0.6146388E-07  0.3395416E+04  0.7818609E-02  0.8139032E-01
        1   -1    0    0  501    0  0.00000000000E+00  0.00000000000E+00  0.15414100741E+04  0.15414100741E+04  0.50400001928E-02 0. -1.
       -1   -1    0    0    0  501  0.00000000000E+00  0.00000000000E+00 -0.18698548879E+04  0.18698548879E+04  0.50400001928E-02 0.  1.
    10030    2    1    2    0    0  0.00000000000E+00  0.00000000000E+00 -0.32844481380E+03  0.34112649620E+04  0.33954164171E+04 0.  0.
        4    1    3    3  502    0 -0.28048042415E+03 -0.11569708485E+04  0.10517827081E+04  0.15885525772E+04  0.12699999809E+01 0. -1.
       -4    1    3    3    0  502  0.28048042415E+03  0.11569708485E+04 -0.13802275219E+04  0.18227123848E+04  0.12699999809E+01 0.  1.
</event>
<event>
 5   0  0.6134625E-07  0.3407485E+04  0.7818609E-02  0.8136072E-01
        1   -1    0    0  501    0  0.00000000000E+00  0.00000000000E+00  0.22556711799E+04  0.22556711799E+04  0.50400001928E-02 0.  1.
       -1   -1    0    0    0  501  0.00000000000E+00  0.00000000000E+00 -0.12868626439E+04  0.12868626439E+04  0.50400001928E-02 0. -1.
    10030    2    1    2    0    0  0.00000000000E+00  0.00000000000E+00  0.96880853600E+03  0.35425338239E+04  0.34074852771E+04 0.  0.
        3    1    3    3  502    0  0.69038277355E+03  0.46815084666E+03 -0.10600526910E+04  0.13488903985E+04  0.10100000352E+00 0. -1.
       -3    1    3    3    0  502 -0.69038277355E+03 -0.46815084666E+03  0.20288612270E+04  0.21936434254E+04  0.10100000352E+00 0.  1.
</event>
<event>
 5   0  0.1339844E-06  0.2981983E+04  0.7818609E-02  0.8248894E-01
       -2   -1    0    0    0  501  0.00000000000E+00  0.00000000000E+00  0.20732808190E+04  0.20732808190E+04  0.25500000920E-02 0. -1.
        2   -1    0    0  501    0  0.00000000000E+00  0.00000000000E+00 -0.10722407916E+04  0.10722407916E+04  0.25500000920E-02 0.  1.
    10030    2    1    2    0    0  0.00000000000E+00  0.00000000000E+00  0.10010400274E+04  0.31455216106E+04  0.29819834115E+04 0.  0.
        3    1    3    3  502    0 -0.11830827086E+04  0.82716603321E+03  0.10700889323E+03  0.14475286717E+04  0.10100000352E+00 0.  1.
       -3    1    3    3    0  502  0.11830827086E+04 -0.82716603321E+03  0.89403113415E+03  0.16979929390E+04  0.10100000352E+00 0. -1.
</event>
<event>
 5   0  0.6218695E-07  0.2541607E+04  0.7818609E-02  0.8388311E-01
        1   -1    0    0  501    0  0.00000000000E+00  0.00000000000E+00  0.16850008614E+04  0.16850008614E+04  0.50400001928E-02 0.  1.
       -1   -1    0    0    0  501  0.00000000000E+00  0.00000000000E+00 -0.95842150749E+03  0.95842150751E+03  0.50400001928E-02 0. -1.
    10030    2    1    2    0    0  0.00000000000E+00  0.00000000000E+00  0.72657935395E+03  0.26434223690E+04  0.25416066303E+04 0.  0.
        2    1    3    3  502    0 -0.42816826807E+03 -0.10511030007E+04  0.95785044332E+03  0.14851340194E+04  0.25500000920E-02 0. -1.
       -2    1    3    3    0  502  0.42816826807E+03  0.10511030007E+04 -0.23127108937E+03  0.11582883495E+04  0.25500000920E-02 0.  1.
</event>
<event>
 5   0  0.1339844E-06  0.3398498E+04  0.7818609E-02  0.8138275E-01
        2   -1    0    0  501    0  0.00000000000E+00  0.00000000000E+00  0.18255213118E+04  0.18255213118E+04  0.25500000920E-02 0.  1.
       -2   -1    0    0    0  501  0.00000000000E+00  0.00000000000E+00 -0.15817112331E+04  0.15817112331E+04  0.25500000920E-02 0. -1.
    10030    2    1    2    0    0  0.00000000000E+00  0.00000000000E+00  0.24381007872E+03  0.34072325448E+04  0.33984982360E+04 0.  0.
        3    1    3    3  502    0 -0.45055924271E+03  0.14196173163E+04  0.94201138381E+03  0.17623003187E+04  0.10100000352E+00 0. -1.
       -3    1    3    3    0  502  0.45055924271E+03 -0.14196173163E+04 -0.69820130509E+03  0.16449322261E+04  0.10100000352E+00 0.  1.
</event>
<event>
 5   0  0.6146388E-07  0.2726037E+04  0.7818609E-02  0.8326606E-01
        1   -1    0    0  501    0  0.00000000000E+00  0.00000000000E+00  0.19680674581E+04  0.19680674581E+04  0.50400001928E-02 0.  1.
       -1   -1    0    0    0  501  0.00000000000E+00  0.00000000000E+00 -0.94398172390E+03  0.94398172391E+03  0.50400001928E-02 0. -1.
    10030    2    1    2    0    0  0.00000000000E+00  0.00000000000E+00  0.10240857342E+04  0.29120491820E+04  0.27260372058E+04 0.  0.
        4    1    3    3  502    0 -0.35207832912E+03  0.79467690549E+03 -0.60952665778E+03  0.10616001570E+04  0.12699999809E+01 0. -1.
       -4    1    3    3    0  502  0.35207832912E+03 -0.79467690549E+03  0.16336123920E+04  0.18504490250E+04  0.12699999809E+01 0.  1.
</event>
<event>
 5   0  0.6134625E-07  0.3327038E+04  0.7818609E-02  0.8156049E-01
       -1   -1    0    0    0  501  0.00000000000E+00  0.00000000000E+00  0.12439405257E+04  0.12439405257E+04  0.50400001928E-02 0.  1.
        1   -1    0    0  501    0  0.00000000000E+00  0.00000000000E+00 -0.22246205336E+04  0.22246205336E+04  0.50400001928E-02 0. -1.
    10030    2    1    2    0    0  0.00000000000E+00  0.00000000000E+00 -0.98068000793E+03  0.34685610593E+04  0.33270381038E+04 0.  0.
        5    1    3    3  502    0  0.25709523399E+03 -0.65822782753E+03 -0.20603580394E+04  0.21781779480E+04  0.46999998093E+01 0. -1.
       -5    1    3    3    0  502 -0.25709523399E+03  0.65822782753E+03  0.10796780315E+04  0.12903831113E+04  0.46999998093E+01 0.  1.
</event>
<event>
 5   0  0.6134625E-07  0.3405516E+04  0.7818609E-02  0.8136554E-01
       -1   -1    0    0    0  501  0.00000000000E+00  0.00000000000E+00  0.16102622308E+04  0.16102622308E+04  0.50400001928E-02 0.  1.
        1   -1    0    0  501    0  0.00000000000E+00  0.00000000000E+00 -0.18005672737E+04  0.18005672738E+04  0.50400001928E-02 0. -1.
    10030    2    1    2    0    0  0.00000000000E+00  0.00000000000E+00 -0.19030504294E+03  0.34108295046E+04  0.34055163925E+04 0.  0.
        3    1    3    3  502    0 -0.22567816988E+02 -0.85043651661E+03  0.13821517160E+04  0.16229895106E+04  0.10100000352E+00 0.  1.
       -3    1    3    3    0  502  0.22567816988E+02  0.85043651661E+03 -0.15724567590E+04  0.17878399940E+04  0.10100000352E+00 0. -1.
</event>
<event>
 5   0  0.6134625E-07  0.3546134E+04  0.7818609E-02  0.8102943E-01
       -1   -1    0    0    0  501  0.00000000000E+00  0.00000000000E+00  0.15590054570E+04  0.15590054571E+04  0.50400001928E-02 0.  1.
        1   -1    0    0  501    0  0.00000000000E+00  0.00000000000E+00 -0.20165201226E+04  0.20165201226E+04  0.50400001928E-02 0. -1.
    10030    2    1    2    0    0  0.00000000000E+00  0.00000000000E+00 -0.45751466558E+03  0.35755255797E+04  0.35461335990E+04 0.  0.
        1    1    3    3  502    0 -0.13277362235E+04  0.11357439390E+04  0.75351728891E+02  0.17488498098E+04  0.50400001928E-02 0.  1.
       -1    1    3    3    0  502  0.13277362235E+04 -0.11357439390E+04 -0.53286639447E+03  0.18266757699E+04  0.50400001928E-02 0. -1.
</event>
<event>
 5   0  0.1880301E-06  0.3410329E+04  0.7818609E-02  0.8135376E-01
        2   -1    0    0  501    0  0.00000000000E+00  0.00000000000E+00  0.19438885785E+04  0.19438885785E+04  0.25500000920E-02 0.  1.
       -2   -1    0    0    0  501  0.00000000000E+00  0.00000000000E+00 -0.14957574836E+04  0.14957574836E+04  0.25500000920E-02 0. -1.
    10030    2    1    2    0    0  0.00000000000E+00  0.00000000000E+00  0.44813109492E+03  0.34396460621E+04  0.34103289510E+04 0.  0.
        4    1    3    3  502    0  0.14009199225E+04 -0.97162534446E+03  0.25518261418E+03  0.17238770892E+04  0.12699999809E+01 0.  1.
       -4    1    3    3    0  502 -0.14009199225E+04  0.97162534446E+03  0.19294848074E+03  0.17157689729E+04  0.12699999809E+01 0. -1.
</event>
<event>
 5   0  0.1797075E-06  0.3427032E+04  0.7818609E-02  0.8131303E-01
       -2   -1    0    0    0  501  0.00000000000E+00  0.00000000000E+00  0.15605690532E+04  0.15605690532E+04  0.25500000920E-02 0.  1.
        2   -1    0    0  501    0  0.00000000000E+00  0.00000000000E+00 -0.18814530382E+04  0.18814530382E+04  0.25500000920E-02 0. -1.
    10030    2    1    2    0    0  0.00000000000E+00  0.00000000000E+00 -0.32088398498E+03  0.34420220914E+04  0.34270321775E+04 0.  0.
        2    1    3    3  502    0  0.58160457764E+03  0.15889917067E+04  0.11088562568E+03  0.16957164122E+04  0.25500000920E-02 0. -1.
       -2    1    3    3    0  502 -0.58160457764E+03 -0.15889917067E+04 -0.43176961066E+03  0.17463056792E+04  0.25500000920E-02 0.  1.
</event>
<event>
 5   0  0.6134625E-07  0.3182868E+04  0.7818609E-02  0.8193356E-01
        1   -1    0    0  501    0  0.00000000000E+00  0.00000000000E+00  0.13479826506E+04  0.13479826506E+04  0.50400001928E-02 0. -1.
       -1   -1    0    0    0  501  0.00000000000E+00  0.00000000000E+00 -0.18788538906E+04  0.18788538906E+04  0.50400001928E-02 0.  1.
    10030    2    1    2    0    0  0.00000000000E+00  0.00000000000E+00 -0.53087123993E+03  0.32268365412E+04  0.31828681704E+04 0.  0.
        3    1    3    3  502    0 -0.44668752398E+02 -0.10239552692E+04  0.96883159121E+03  0.14103596538E+04  0.10100000352E+00 0. -1.
       -3    1    3    3    0  502  0.44668752398E+02  0.10239552692E+04 -0.14997028311E+04  0.18164768874E+04  0.10100000352E+00 0.  1.
</event>
<event>
 5   0  0.1339844E-06  0.3416488E+04  0.7818609E-02  0.8133871E-01
        2   -1    0    0  501    0  0.00000000000E+00  0.00000000000E+00  0.22844099834E+04  0.22844099834E+04  0.25500000920E-02 0.  1.
       -2   -1    0    0    0  501  0.00000000000E+00  0.00000000000E+00 -0.12773969321E+04  0.12773969321E+04  0.25500000920E-02 0. -1.
    10030    2    1    2    0    0  0.00000000000E+00  0.00000000000E+00  0.10070130513E+04  0.35618069155E+04  0.34164884337E+04 0.  0.
        3    1    3    3  502    0 -0.60937325851E+03  0.15955741174E+04  0.53488251484E+03  0.17897742448E+04  0.10100000352E+00 0. -1.
       -3    1    3    3    0  502  0.60937325851E+03 -0.15955741174E+04  0.47213053646E+03  0.17720326707E+04  0.10100000352E+00 0.  1.
</event>
<event>
 5   0  0.6146388E-07  0.3352779E+04  0.7818609E-02  0.8149594E-01
        1   -1    0    0  501    0  0.00000000000E+00  0.00000000000E+00  0.13543725469E+04  0.13543725469E+04  0.50400001928E-02 0. -1.
       -1   -1    0    0    0  501  0.00000000000E+00  0.00000000000E+00 -0.20749695910E+04  0.20749695910E+04  0.50400001928E-02 0.  1.
    10030    2    1    2    0    0  0.00000000000E+00  0.00000000000E+00 -0.72059704406E+03  0.34293421379E+04  0.33527790560E+04 0.  0.
        4    1    3    3  502    0  0.10780967199E+04  0.67863382151E+03  0.75428449042E+03  0.14804671920E+04  0.12699999809E+01 0. -1.
       -4    1    3    3    0  502 -0.10780967199E+04 -0.67863382151E+03 -0.14748815345E+04  0.19488749459E+04  0.12699999809E+01 0.  1.
</event>
<event>
 5   0  0.6146388E-07  0.3478828E+04  0.7818609E-02  0.8118826E-01
        1   -1    0    0  501    0  0.00000000000E+00  0.00000000000E+00  0.25171446284E+04  0.25171446284E+04  0.50400001928E-02 0.  1.
       -1   -1    0    0    0  501  0.00000000000E+00  0.00000000000E+00 -0.12019813916E+04  0.12019813916E+04  0.50400001928E-02 0. -1.
    10030    2    1    2    0    0  0.00000000000E+00  0.00000000000E+00  0.13151632368E+04  0.37191260200E+04  0.34788279654E+04 0.  0.
        4    1    3    3  502    0  0.10381578067E+04 -0.88927262957E+02  0.21465838239E+04  0.23861063295E+04  0.12699999809E+01 0.  1.
       -4    1    3    3    0  502 -0.10381578067E+04  0.88927262957E+02 -0.83142058711E+03  0.13330196905E+04  0.12699999809E+01 0. -1.
</event>
<event>
 5   0  0.6134625E-07  0.3352125E+04  0.7818609E-02  0.8149758E-01
       -1   -1    0    0    0  501  0.00000000000E+00  0.00000000000E+00  0.15947353788E+04  0.15947353788E+04  0.50400001928E-02 0. -1.
        1   -1    0    0  501    0  0.00000000000E+00  0.00000000000E+00 -0.17615365815E+04  0.17615365815E+04  0.50400001928E-02 0.  1.
    10030    2    1    2    0    0  0.00000000000E+00  0.00000000000E+00 -0.16680120275E+03  0.33562719603E+04  0.33521245249E+04 0.  0.
        5    1    3    3  502    0 -0.13421690047E+04  0.60891912120E+03 -0.88248734902E+03  0.17178492788E+04  0.46999998093E+01 0.  1.
       -5    1    3    3    0  502  0.13421690047E+04 -0.60891912120E+03  0.71568614627E+03  0.16384226815E+04  0.46999998093E+01 0. -1.
</event>
<event>
 5   0  0.1339844E-06  0.3158003E+04  0.7818609E-02  0.8199997E-01
        2   -1    0    0  501    0  0.00000000000E+00  0.00000000000E+00  0.89889320297E+03  0.89889320298E+03  0.25500000920E-02 0. -1.
       -2   -1    0    0    0  501  0.00000000000E+00  0.00000000000E+00 -0.27736834762E+04  0.27736834762E+04  0.25500000920E-02 0.  1.
    10030    2    1    2    0    0  0.00000000000E+00  0.00000000000E+00 -0.18747902732E+04  0.36725766792E+04  0.31580026751E+04 0.  0.
        3    1    3    3  502    0  0.47068191615E+03  0.36243561932E+03  0.76398040615E+03  0.96776397718E+03  0.10100000352E+00 0. -1.
       -3    1    3    3    0  502 -0.47068191615E+03 -0.36243561932E+03 -0.26387706794E+04  0.27048127020E+04  0.10100000352E+00 0.  1.
</event>
<event>
 5   0  0.6146388E-07  0.3437852E+04  0.7818609E-02  0.8128678E-01
       -1   -1    0    0    0  501  0.00000000000E+00  0.00000000000E+00  0.17629004433E+04  0.17629004433E+04  0.50400001928E-02 0.  1.
        1   -1    0    0  501    0  0.00000000000E+00  0.00000000000E+00 -0.16760480406E+04  0.16760480406E+04  0.50400001928E-02 0. -1.
    10030    2    1    2    0    0  0.00000000000E+00  0.00000000000E+00  0.86852402739E+02  0.34389484839E+04  0.34378515580E+04 0.  0.
        4    1    3    3  502    0  0.32523932185E+03 -0.10485777901E+04 -0.12796477870E+04  0.16860593317E+04  0.12699999809E+01 0. -1.
       -4    1    3    3    0  502 -0.32523932185E+03  0.10485777901E+04  0.13665001898E+04  0.17528891522E+04  0.12699999809E+01 0.  1.
</event>
<event>
 5   0  0.1948507E-06  0.3383982E+04  0.7818609E-02  0.8141849E-01
       -2   -1    0    0    0  501  0.00000000000E+00  0.00000000000E+00  0.21810252201E+04  0.21810252201E+04  0.25500000920E-02 0. -1.
        2   -1    0    0  501    0  0.00000000000E+00  0.00000000000E+00 -0.13126090416E+04  0.13126090416E+04  0.25500000920E-02 0.  1.
    10030    2    1    2    0    0  0.00000000000E+00  0.00000000000E+00  0.86841617854E+03  0.34936342617E+04  0.33839819289E+04 0.  0.
        1    1    3    3  502    0 -0.10709333324E+04  0.71933842722E+03 -0.69602013372E+03  0.14658751659E+04  0.50400001928E-02 0.  1.
       -1    1    3    3    0  502  0.10709333324E+04 -0.71933842722E+03  0.15644363123E+04  0.20277590958E+04  0.50400001928E-02 0. -1.
</event>
<event>
 5   0  0.6146388E-07  0.3377413E+04  0.7818609E-02  0.8143472E-01
       -1   -1    0    0    0  501  0.00000000000E+00  0.00000000000E+00  0.11722537664E+04  0.11722537664E+04  0.50400001928E-02 0.  1.
        1   -1    0    0  501    0  0.00000000000E+00  0.00000000000E+00 -0.24326889931E+04  0.24326889931E+04  0.50400001928E-02 0. -1.
    10030    2    1    2    0    0  0.00000000000E+00  0.00000000000E+00 -0.12604352267E+04  0.36049427595E+04  0.33774125212E+04 0.  0.
        4    1    3    3  502    0 -0.85083988197E+02  0.50964580347E+03  0.10858067908E+04  0.12024791599E+04  0.12699999809E+01 0.  1.
       -4    1    3    3    0  502  0.85083988197E+02 -0.50964580347E+03 -0.23462420175E+04  0.24024635997E+04  0.12699999809E+01 0. -1.
</event>
<event>
 5   0  0.6134625E-07  0.3426505E+04  0.7818609E-02  0.8131432E-01
        1   -1    0    0  501    0  0.00000000000E+00  0.00000000000E+00  0.30575340073E+04  0.30575340073E+04  0.50400001928E-02 0.  1.
       -1   -1    0    0    0  501  0.00000000000E+00  0.00000000000E+00 -0.96000043758E+03  0.96000043760E+03  0.50400001928E-02 0. -1.
    10030    2    1    2    0    0  0.00000000000E+00  0.00000000000E+00  0.20975335697E+04  0.40175344449E+04  0.34265049161E+04 0.  0.
        3    1    3    3  502    0  0.12433884209E+01 -0.20997941873E+03 -0.94485555438E+03  0.96790750134E+03  0.10100000352E+00 0. -1.
       -3    1    3    3    0  502 -0.12433884209E+01  0.20997941873E+03  0.30423891241E+04  0.30496269436E+04  0.10100000352E+00 0.  1.
</event>
<event>
 5   0  0.6134625E-07  0.3331283E+04  0.7818609E-02  0.8154981E-01
        1   -1    0    0  501    0  0.00000000000E+00  0.00000000000E+00  0.20321191288E+04  0.20321191288E+04  0.50400001928E-02 0.  1.
       -1   -1    0    0    0  501  0.00000000000E+00  0.00000000000E+00 -0.13652550146E+04  0.13652550146E+04  0.50400001928E-02 0. -1.
    10030    2    1    2    0    0  0.00000000000E+00  0.00000000000E+00  0.66686411421E+03  0.33973741435E+04  0.33312825344E+04 0.  0.
        5    1    3    3  502    0  0.42526416260E+03 -0.14852022889E+04 -0.30154677859E+03  0.15740482828E+04  0.46999998093E+01 0. -1.
       -5    1    3    3    0  502 -0.42526416260E+03  0.14852022889E+04  0.96841089280E+03  0.18233258607E+04  0.46999998093E+01 0.  1.
</event>
<event>
 5   0  0.6134625E-07  0.3389511E+04  0.7818609E-02  0.8140485E-01
       -3   -1    0    0    0  501  0.00000000000E+00  0.00000000000E+00  0.90844764943E+03  0.90844765505E+03  0.10100000352E+00 0.  1.
        3   -1    0    0  501    0  0.00000000000E+00  0.00000000000E+00 -0.31616533501E+04  0.31616533517E+04  0.10100000352E+00 0. -1.
    10030    2    1    2    0    0  0.00000000000E+00  0.00000000000E+00 -0.22532057007E+04  0.40701010068E+04  0.33895112149E+04 0.  0.
        3    1    3    3  502    0  0.19507479542E+03 -0.99589015224E+03  0.50326958171E+03  0.11327540127E+04  0.10100000352E+00 0.  1.
       -3    1    3    3    0  502 -0.19507479542E+03  0.99589015224E+03 -0.27564752824E+04  0.29373469941E+04  0.10100000352E+00 0. -1.
</event>
<event>
 5   0  0.1911477E-06  0.3342892E+04  0.7818609E-02  0.8152067E-01
       -2   -1    0    0    0  501  0.00000000000E+00  0.00000000000E+00  0.21673040768E+04  0.21673040768E+04  0.25500000920E-02 0. -1.
        2   -1    0    0  501    0  0.00000000000E+00  0.00000000000E+00 -0.12890350408E+04  0.12890350408E+04  0.25500000920E-02 0.  1.
    10030    2    1    2    0    0  0.00000000000E+00  0.00000000000E+00  0.87826903593E+03  0.34563391176E+04  0.33428915023E+04 0.  0.
        5    1    3    3  502    0 -0.15927386087E+04  0.13635858175E+02 -0.84722274922E+02  0.15950555370E+04  0.46999998093E+01 0.  1.
       -5    1    3    3    0  502  0.15927386087E+04 -0.13635858175E+02  0.96299131085E+03  0.18612835805E+04  0.46999998093E+01 0. -1.
</event>
<event>
 5   0  0.6134625E-07  0.2825854E+04  0.7818609E-02  0.8295286E-01
       -3   -1    0    0    0  501  0.00000000000E+00  0.00000000000E+00  0.15904586533E+04  0.15904586565E+04  0.10100000352E+00 0. -1.
        3   -1    0    0  501    0  0.00000000000E+00  0.00000000000E+00 -0.12552122639E+04  0.12552122680E+04  0.10100000352E+00 0.  1.
    10030    2    1    2    0    0  0.00000000000E+00  0.00000000000E+00  0.33524638935E+03  0.28456709245E+04  0.28258543609E+04 0.  0.
        4    1    3    3  502    0  0.34966788514E+03  0.83902324532E+03  0.12569362146E+04  0.15511666244E+04  0.12699999809E+01 0. -1.
       -4    1    3    3    0  502 -0.34966788514E+03 -0.83902324532E+03 -0.92168982526E+03  0.12945043001E+04  0.12699999809E+01 0.  1.
</event>
<event>
 5   0  0.6218695E-07  0.3400726E+04  0.7818609E-02  0.8137728E-01
       -1   -1    0    0    0  501  0.00000000000E+00  0.00000000000E+00  0.11920974726E+04  0.11920974726E+04  0.50400001928E-02 0.  1.
        1   -1    0    0  501    0  0.00000000000E+00  0.00000000000E+00 -0.24253334723E+04  0.24253334723E+04  0.50400001928E-02 0. -1.
    10030    2    1    2    0    0  0.00000000000E+00  0.00000000000E+00 -0.12332359997E+04  0.36174309450E+04  0.34007257476E+04 0.  0.
        2    1    3    3  502    0  0.14942311166E+04 -0.40100075606E+03  0.13382019907E+03  0.15528799316E+04  0.25500000920E-02 0.  1.
       -2    1    3    3    0  502 -0.14942311166E+04  0.40100075606E+03 -0.13670561988E+04  0.20645510134E+04  0.25500000920E-02 0. -1.
</event>
<event>
 5   0  0.6134625E-07  0.3786137E+04  0.7818609E-02  0.8049136E-01
        1   -1    0    0  501    0  0.00000000000E+00  0.00000000000E+00  0.28357641384E+04  0.28357641384E+04  0.50400001928E-02 0.  1.
       -1   -1    0    0    0  501  0.00000000000E+00  0.00000000000E+00 -0.12637537458E+04  0.12637537458E+04  0.50400001928E-02 0. -1.
    10030    2    1    2    0    0  0.00000000000E+00  0.00000000000E+00  0.15720103926E+04  0.40995178842E+04  0.37861365808E+04 0.  0.
        5    1    3    3  502    0 -0.12163792499E+04  0.10981441533E+04 -0.24016582562E+03  0.16562610829E+04  0.46999998093E+01 0. -1.
       -5    1    3    3    0  502  0.12163792499E+04 -0.10981441533E+04  0.18121762183E+04  0.24432568013E+04  0.46999998093E+01 0.  1.
</event>
<event>
 5   0  0.6134625E-07  0.3363135E+04  0.7818609E-02  0.8147014E-01
       -1   -1    0    0    0  501  0.00000000000E+00  0.00000000000E+00  0.27354956162E+04  0.27354956162E+04  0.50400001928E-02 0.  1.
        1   -1    0    0  501    0  0.00000000000E+00  0.00000000000E+00 -0.10336956025E+04  0.10336956025E+04  0.50400001928E-02 0. -1.
    10030    2    1    2    0    0  0.00000000000E+00  0.00000000000E+00  0.17018000137E+04  0.37691912187E+04  0.33631353165E+04 0.  0.
        3    1    3    3  502    0  0.76439893877E+03  0.42815855141E+03 -0.75767793320E+03  0.11583183256E+04  0.10100000352E+00 0. -1.
       -3    1    3    3    0  502 -0.76439893877E+03 -0.42815855141E+03  0.24594779469E+04  0.26108728931E+04  0.10100000352E+00 0.  1.
</event>
<event>
 5   0  0.1797075E-06  0.3438180E+04  0.7818609E-02  0.8128599E-01
       -2   -1    0    0    0  501  0.00000000000E+00  0.00000000000E+00  0.12457860200E+04  0.12457860200E+04  0.25500000920E-02 0. -1.
        2   -1    0    0  501    0  0.00000000000E+00  0.00000000000E+00 -0.23722134676E+04  0.23722134676E+04  0.25500000920E-02 0.  1.
    10030    2    1    2    0    0  0.00000000000E+00  0.00000000000E+00 -0.11264274476E+04  0.36179994876E+04  0.34381799687E+04 0.  0.
        2    1    3    3  502    0 -0.51313685567E+03  0.14307747033E+03  0.11567395707E+04  0.12735097289E+04  0.25500000920E-02 0. -1.
       -2    1    3    3    0  502  0.51313685567E+03 -0.14307747033E+03 -0.22831670183E+04  0.23444897587E+04  0.25500000920E-02 0.  1.
</event>
<event>
 5   0  0.6146388E-07  0.3411871E+04  0.7818609E-02  0.8134999E-01
       -1   -1    0    0    0  501  0.00000000000E+00  0.00000000000E+00  0.18514571907E+04  0.18514571907E+04  0.50400001928E-02 0. -1.
        1   -1    0    0  501    0  0.00000000000E+00  0.00000000000E+00 -0.15718512901E+04  0.15718512901E+04  0.50400001928E-02 0.  1.
    10030    2    1    2    0    0  0.00000000000E+00  0.00000000000E+00  0.27960590066E+03  0.34233084808E+04  0.34118706739E+04 0.  0.
        4    1    3    3  502    0 -0.42067093953E+03 -0.10616090977E+04  0.14114252398E+04  0.18155166582E+04  0.12699999809E+01 0. -1.
       -4    1    3    3    0  502  0.42067093953E+03  0.10616090977E+04 -0.11318193391E+04  0.16077918227E+04  0.12699999809E+01 0.  1.
</event>
<event>
 5   0  0.6146388E-07  0.3422875E+04  0.7818609E-02  0.8132315E-01
        1   -1    0    0  501    0  0.00000000000E+00  0.00000000000E+00  0.18003452613E+04  0.18003452613E+04  0.50400001928E-02 0.  1.
       -1   -1    0    0    0  501  0.00000000000E+00  0.00000000000E+00 -0.16269205914E+04  0.16269205914E+04  0.50400001928E-02 0. -1.
    10030    2    1    2    0    0  0.00000000000E+00  0.00000000000E+00  0.17342466989E+03  0.34272658527E+04  0.34228752693E+04 0.  0.
        4    1    3    3  502    0 -0.70974856062E+03  0.84357613254E+03  0.13974573679E+04  0.17799585441E+04  0.12699999809E+01 0.  1.
       -4    1    3    3    0  502  0.70974856062E+03 -0.84357613254E+03 -0.12240326980E+04  0.16473073087E+04  0.12699999809E+01 0. -1.
</event>
<event>
 5   0  0.6134625E-07  0.3535097E+04  0.7818609E-02  0.8105522E-01
        1   -1    0    0  501    0  0.00000000000E+00  0.00000000000E+00  0.26052901422E+04  0.26052901422E+04  0.50400001928E-02 0. -1.
       -1   -1    0    0    0  501  0.00000000000E+00  0.00000000000E+00 -0.11991862386E+04  0.11991862386E+04  0.50400001928E-02 0.  1.
    10030    2    1    2    0    0  0.00000000000E+00  0.00000000000E+00  0.14061039036E+04  0.38044763808E+04  0.35350972185E+04 0.  0.
        1    1    3    3  502    0  0.15396311977E+04  0.24199946115E+03 -0.19427032630E+03  0.15705950859E+04  0.50400001928E-02 0.  1.
       -1    1    3    3    0  502 -0.15396311977E+04 -0.24199946115E+03  0.16003742299E+04  0.22338812949E+04  0.50400001928E-02 0. -1.
</event>
<event>
 5   0  0.6134625E-07  0.2743407E+04  0.7818609E-02  0.8321057E-01
        1   -1    0    0  501    0  0.00000000000E+00  0.00000000000E+00  0.17147334190E+04  0.17147334190E+04  0.50400001928E-02 0. -1.
       -1   -1    0    0    0  501  0.00000000000E+00  0.00000000000E+00 -0.10972959563E+04  0.10972959563E+04  0.50400001928E-02 0.  1.
    10030    2    1    2    0    0  0.00000000000E+00  0.00000000000E+00  0.61743746269E+03  0.28120293753E+04  0.27434066755E+04 0.  0.
        5    1    3    3  502    0  0.73701405479E+03  0.20048663184E+02 -0.87691521436E+03  0.11456849694E+04  0.46999998093E+01 0. -1.
       -5    1    3    3    0  502 -0.73701405479E+03 -0.20048663184E+02  0.14943526770E+04  0.16663444060E+04  0.46999998093E+01 0.  1.
</event>
<event>
 5   0  0.1880301E-06  0.3389496E+04  0.7818609E-02  0.8140489E-01
       -2   -1    0    0    0  501  0.00000000000E+00  0.00000000000E+00  0.12748167511E+04  0.12748167511E+04  0.25500000920E-02 0.  1.
        2   -1    0    0  501    0  0.00000000000E+00  0.00000000000E+00 -0.22530074086E+04  0.22530074086E+04  0.25500000920E-02 0. -1.
    10030    2    1    2    0    0  0.00000000000E+00  0.00000000000E+00 -0.97819065755E+03  0.35278241597E+04  0.33894964728E+04 0.  0.
        4    1    3    3  502    0 -0.30282339058E+03 -0.91236321544E+03 -0.19417856950E+04  0.21667122423E+04  0.12699999809E+01 0. -1.
       -4    1    3    3    0  502  0.30282339058E+03  0.91236321544E+03  0.96359503741E+03  0.13611119174E+04  0.12699999809E+01 0.  1.
</event>
<event>
 5   0  0.6134625E-07  0.3388392E+04  0.7818609E-02  0.8140761E-01
       -1   -1    0    0    0  501  0.00000000000E+00  0.00000000000E+00  0.18619238833E+04  0.18619238833E+04  0.50400001928E-02 0. -1.
        1   -1    0    0  501    0  0.00000000000E+00  0.00000000000E+00 -0.15415779637E+04  0.15415779637E+04  0.50400001928E-02 0.  1.
    10030    2    1    2    0    0  0.00000000000E+00  0.00000000000E+00  0.32034591966E+03  0.34035018470E+04  0.33883924380E+04 0.  0.
        1    1    3    3  502    0  0.14126075714E+04  0.37730037475E+03 -0.69949687042E+03  0.16208366961E+04  0.50400001928E-02 0.  1.
       -1    1    3    3    0  502 -0.14126075714E+04 -0.37730037475E+03  0.10198427901E+04  0.17826651509E+04  0.50400001928E-02 0. -1.
</event>
<event>
 5   0  0.1880301E-06  0.3178847E+04  0.7818609E-02  0.8194426E-01
        2   -1    0    0  501    0  0.00000000000E+00  0.00000000000E+00  0.25414776668E+04  0.25414776668E+04  0.25500000920E-02 0. -1.
       -2   -1    0    0    0  501  0.00000000000E+00  0.00000000000E+00 -0.99401532312E+03  0.99401532312E+03  0.25500000920E-02 0.  1.
    10030    2    1    2    0    0  0.00000000000E+00  0.00000000000E+00  0.15474623437E+04  0.35354929900E+04  0.31788474290E+04 0.  0.
        4    1    3    3  502    0  0.99467354760E+00  0.12277277858E+04  0.18964128973E+04  0.22591370023E+04  0.12699999809E+01 0. -1.
       -4    1    3    3    0  502 -0.99467354760E+00 -0.12277277858E+04 -0.34895055353E+03  0.12763559876E+04  0.12699999809E+01 0.  1.
</event>
<event>
 5   0  0.1339844E-06  0.3370702E+04  0.7818609E-02  0.8145135E-01
       -2   -1    0    0    0  501  0.00000000000E+00  0.00000000000E+00  0.11698550956E+04  0.11698550956E+04  0.25500000920E-02 0.  1.
        2   -1    0    0  501    0  0.00000000000E+00  0.00000000000E+00 -0.24280004804E+04  0.24280004804E+04  0.25500000920E-02 0. -1.
    10030    2    1    2    0    0  0.00000000000E+00  0.00000000000E+00 -0.12581453848E+04  0.35978555760E+04  0.33707024396E+04 0.  0.
        3    1    3    3  502    0 -0.11903089770E+04 -0.93305491169E+02  0.64056899272E+03  0.13549428106E+04  0.10100000352E+00 0.  1.
       -3    1    3    3    0  502  0.11903089770E+04  0.93305491169E+02 -0.18987143775E+04  0.22429127654E+04  0.10100000352E+00 0. -1.
</event>
<event>
 5   0  0.1948507E-06  0.3083791E+04  0.7818609E-02  0.8220200E-01
       -2   -1    0    0    0  501  0.00000000000E+00  0.00000000000E+00  0.16207379547E+04  0.16207379547E+04  0.25500000920E-02 0.  1.
        2   -1    0    0  501    0  0.00000000000E+00  0.00000000000E+00 -0.14668885692E+04  0.14668885692E+04  0.25500000920E-02 0. -1.
    10030    2    1    2    0    0  0.00000000000E+00  0.00000000000E+00  0.15384938556E+03  0.30876265239E+04  0.30837911599E+04 0.  0.
        1    1    3    3  502    0  0.33891205641E+03 -0.14918893142E+04  0.26911882089E+03  0.15533898569E+04  0.50400001928E-02 0. -1.
       -1    1    3    3    0  502 -0.33891205641E+03  0.14918893142E+04 -0.11526943532E+03  0.15342366670E+04  0.50400001928E-02 0.  1.
</event>
<event>
 5   0  0.1880301E-06  0.3352957E+04  0.7818609E-02  0.8149550E-01
       -2   -1    0    0    0  501  0.00000000000E+00  0.00000000000E+00  0.18582482948E+04  0.18582482948E+04  0.25500000920E-02 0. -1.
        2   -1    0    0  501    0  0.00000000000E+00  0.00000000000E+00 -0.15124894306E+04  0.15124894306E+04  0.25500000920E-02 0.  1.
    10030    2    1    2    0    0  0.00000000000E+00  0.00000000000E+00  0.34575886422E+03  0.33707377254E+04  0.33529574440E+04 0.  0.
        4    1    3    3  502    0  0.11406614344E+04  0.18723721724E+03 -0.10478136894E+04  0.15601542950E+04  0.12699999809E+01 0.  1.
       -4    1    3    3    0  502 -0.11406614344E+04 -0.18723721724E+03  0.13935725536E+04  0.18105834305E+04  0.12699999809E+01 0. -1.
</event>
<event>
 5   0  0.6134625E-07  0.3292905E+04  0.7818609E-02  0.8164703E-01
       -1   -1    0    0    0  501  0.00000000000E+00  0.00000000000E+00  0.15772299625E+04  0.15772299625E+04  0.50400001928E-02 0. -1.
        1   -1    0    0  501    0  0.00000000000E+00  0.00000000000E+00 -0.17187127588E+04  0.17187127588E+04  0.50400001928E-02 0.  1.
    10030    2    1    2    0    0  0.00000000000E+00  0.00000000000E+00 -0.14148279629E+03  0.32959427214E+04  0.32929046511E+04 0.  0.
        1    1    3    3  502    0  0.14949893106E+04  0.45952029238E+02  0.61815272916E+03  0.16183996491E+04  0.50400001928E-02 0. -1.
       -1    1    3    3    0  502 -0.14949893106E+04 -0.45952029238E+02 -0.75963552545E+03  0.16775430723E+04  0.50400001928E-02 0.  1.
</event>
<event>
 5   0  0.1339844E-06  0.3504062E+04  0.7818609E-02  0.8112828E-01
       -2   -1    0    0    0  501  0.00000000000E+00  0.00000000000E+00  0.15119878530E+04  0.15119878530E+04  0.25500000920E-02 0. -1.
        2   -1    0    0  501    0  0.00000000000E+00  0.00000000000E+00 -0.20301839119E+04  0.20301839119E+04  0.25500000920E-02 0.  1.
    10030    2    1    2    0    0  0.00000000000E+00  0.00000000000E+00 -0.51819605888E+03  0.35421717649E+04  0.35040624504E+04 0.  0.
        3    1    3    3  502    0 -0.31069484644E+02 -0.48873866372E+03  0.14413928850E+04  0.15223154251E+04  0.10100000352E+00 0. -1.
       -3    1    3    3    0  502  0.31069484644E+02  0.48873866372E+03 -0.19595889439E+04  0.20198563398E+04  0.10100000352E+00 0.  1.
</event>
<event>
 5   0  0.6134625E-07  0.3402392E+04  0.7818609E-02  0.8137320E-01
        1   -1    0    0  501    0  0.00000000000E+00  0.00000000000E+00  0.10687544216E+04  0.10687544217E+04  0.50400001928E-02 0.  1.
       -1   -1    0    0    0  501  0.00000000000E+00  0.00000000000E+00 -0.27078877681E+04  0.27078877681E+04  0.50400001928E-02 0. -1.
    10030    2    1    2    0    0  0.00000000000E+00  0.00000000000E+00 -0.16391333464E+04  0.37766421897E+04  0.34023915268E+04 0.  0.
        1    1    3    3  502    0  0.40629615820E+03  0.46566766041E+03 -0.25788825620E+04  0.26518970958E+04  0.50400001928E-02 0. -1.
       -1    1    3    3    0  502 -0.40629615820E+03 -0.46566766041E+03  0.93974921558E+03  0.11247450939E+04  0.50400001928E-02 0.  1.
</event>
<event>
 5   0  0.1880301E-06  0.3452199E+04  0.7818609E-02  0.8125212E-01
        2   -1    0    0  501    0  0.00000000000E+00  0.00000000000E+00  0.21850507174E+04  0.21850507174E+04  0.25500000920E-02 0.  1.
       -2   -1    0    0    0  501  0.00000000000E+00  0.00000000000E+00 -0.13635472678E+04  0.13635472678E+04  0.25500000920E-02 0. -1.
    10030    2    1    2    0    0  0.00000000000E+00  0.00000000000E+00  0.82150344960E+03  0.35485979853E+04  0.34521992618E+04 0.  0.
        4    1    3    3  502    0  0.11952199992E+04 -0.10522605556E+04  0.10953946981E+04  0.19327944228E+04  0.12699999809E+01 0.  1.
       -4    1    3    3    0  502 -0.11952199992E+04  0.10522605556E+04 -0.27389124849E+03  0.16158035624E+04  0.12699999809E+01 0. -1.
</event>
<event>
 5   0  0.1797075E-06  0.3375564E+04  0.7818609E-02  0.8143930E-01
        2   -1    0    0  501    0  0.00000000000E+00  0.00000000000E+00  0.18568802550E+04  0.18568802550E+04  0.25500000920E-02 0. -1.
       -2   -1    0    0    0  501  0.00000000000E+00  0.00000000000E+00 -0.15340832407E+04  0.15340832407E+04  0.25500000920E-02 0.  1.
    10030    2    1    2    0    0  0.00000000000E+00  0.00000000000E+00  0.32279701432E+03  0.33909634957E+04  0.33755644738E+04 0.  0.
        2    1    3    3  502    0  0.13956940593E+04  0.45166561768E+03  0.99985882514E+03  0.17752975547E+04  0.25500000920E-02 0. -1.
       -2    1    3    3    0  502 -0.13956940593E+04 -0.45166561768E+03 -0.67706181082E+03  0.16156659410E+04  0.25500000920E-02 0.  1.
</event>
<event>
 5   0  0.1948507E-06  0.3106507E+04  0.7818609E-02  0.8213954E-01
        2   -1    0    0  501    0  0.00000000000E+00  0.00000000000E+00  0.27169557486E+04  0.27169557486E+04  0.25500000920E-02 0.  1.
       -2   -1    0    0    0  501  0.00000000000E+00  0.00000000000E+00 -0.88797782302E+03  0.88797782302E+03  0.25500000920E-02 0. -1.
    10030    2    1    2    0    0  0.00000000000E+00  0.00000000000E+00  0.18289779256E+04  0.36049335716E+04  0.31065070101E+04 0.  0.
        1    1    3    3  502    0 -0.46351433611E+03 -0.12077214028E+04  0.19121755521E+04  0.23086471945E+04  0.50400001928E-02 0.  1.
       -1    1    3    3    0  502  0.46351433611E+03  0.12077214028E+04 -0.83197626506E+02  0.12962863772E+04  0.50400001928E-02 0. -1.
</event>
<event>
 5   0  0.1948507E-06  0.3374236E+04  0.7818609E-02  0.8144259E-01
        2   -1    0    0  501    0  0.00000000000E+00  0.00000000000E+00  0.16669196793E+04  0.16669196793E+04  0.25500000920E-02 0. -1.
       -2   -1    0    0    0  501  0.00000000000E+00  0.00000000000E+00 -0.17075608442E+04  0.17075608442E+04  0.25500000920E-02 0.  1.
    10030    2    1    2    0    0  0.00000000000E+00  0.00000000000E+00 -0.40641164922E+02  0.33744805235E+04  0.33742357800E+04 0.  0.
        1    1    3    3  502    0 -0.90240743500E+03  0.13436539431E+03 -0.14395688717E+04  0.17043332346E+04  0.50400001928E-02 0.  1.
       -1    1    3    3    0  502  0.90240743500E+03 -0.13436539431E+03  0.13989277068E+04  0.16701472890E+04  0.50400001928E-02 0. -1.
</event>
<event>
 5   0  0.6134625E-07  0.3277652E+04  0.7818609E-02  0.8168605E-01
       -1   -1    0    0    0  501  0.00000000000E+00  0.00000000000E+00  0.96083206065E+03  0.96083206066E+03  0.50400001928E-02 0.  1.
        1   -1    0    0  501    0  0.00000000000E+00  0.00000000000E+00 -0.27952345994E+04  0.27952345994E+04  0.50400001928E-02 0. -1.
    10030    2    1    2    0    0  0.00000000000E+00  0.00000000000E+00 -0.18344025388E+04  0.37560666601E+04  0.32776522209E+04 0.  0.
        5    1    3    3  502    0 -0.13124785581E+03 -0.97254407993E+03 -0.24212791503E+04  0.26126007733E+04  0.46999998093E+01 0. -1.
       -5    1    3    3    0  502  0.13124785581E+03  0.97254407993E+03  0.58687661152E+03  0.11434658868E+04  0.46999998093E+01 0.  1.
</event>
<event>
 5   0  0.1797075E-06  0.3216487E+04  0.7818609E-02  0.8184477E-01
        2   -1    0    0  501    0  0.00000000000E+00  0.00000000000E+00  0.17094455699E+04  0.17094455699E+04  0.25500000920E-02 0. -1.
       -2   -1    0    0    0  501  0.00000000000E+00  0.00000000000E+00 -0.15130327884E+04  0.15130327884E+04  0.25500000920E-02 0.  1.
    10030    2    1    2    0    0  0.00000000000E+00  0.00000000000E+00  0.19641278151E+03  0.32224783583E+04  0.32164870261E+04 0.  0.
        2    1    3    3  502    0  0.84620337393E+03  0.80390678486E+03 -0.10102544800E+04  0.15436775515E+04  0.25500000920E-02 0.  1.
       -2    1    3    3    0  502 -0.84620337393E+03 -0.80390678486E+03  0.12066672615E+04  0.16788008068E+04  0.25500000920E-02 0. -1.
</event>
<event>
 5   0  0.6218695E-07  0.3293736E+04  0.7818609E-02  0.8164491E-01
        1   -1    0    0  501    0  0.00000000000E+00  0.00000000000E+00  0.19447371897E+04  0.19447371897E+04  0.50400001928E-02 0.  1.
       -1   -1    0    0    0  501  0.00000000000E+00  0.00000000000E+00 -0.13946227798E+04  0.13946227798E+04  0.50400001928E-02 0. -1.
    10030    2    1    2    0    0  0.00000000000E+00  0.00000000000E+00  0.55011440983E+03  0.33393599695E+04  0.32937363498E+04 0.  0.
        2    1    3    3  502    0 -0.59289052350E+03 -0.14654873270E+04  0.74297198295E+03  0.17467626186E+04  0.25500000920E-02 0. -1.
       -2    1    3    3    0  502  0.59289052350E+03  0.14654873270E+04 -0.19285757312E+03  0.15925973509E+04  0.25500000920E-02 0.  1.
</event>
<event>
 5   0  0.6218695E-07  0.3401803E+04  0.7818609E-02  0.8137464E-01
       -1   -1    0    0    0  501  0.00000000000E+00  0.00000000000E+00  0.10690769060E+04  0.10690769060E+04  0.50400001928E-02 0. -1.
        1   -1    0    0  501    0  0.00000000000E+00  0.00000000000E+00 -0.27061347295E+04  0.27061347295E+04  0.50400001928E-02 0.  1.
    10030    2    1    2    0    0  0.00000000000E+00  0.00000000000E+00 -0.16370578235E+04  0.37752116355E+04  0.34018031359E+04 0.  0.
        2    1    3    3  502    0 -0.46714927814E+03 -0.13333500529E+04 -0.18695999243E+04  0.23433853052E+04  0.25500000920E-02 0.  1.
       -2    1    3    3    0  502  0.46714927814E+03  0.13333500529E+04  0.23254210080E+03  0.14318263303E+04  0.25500000920E-02 0. -1.
</event>
<event>
 5   0  0.6146388E-07  0.3269249E+04  0.7818609E-02  0.8170764E-01
        1   -1    0    0  501    0  0.00000000000E+00  0.00000000000E+00  0.91589921504E+03  0.91589921506E+03  0.50400001928E-02 0.  1.
       -1   -1    0    0    0  501  0.00000000000E+00  0.00000000000E+00 -0.29173486842E+04  0.29173486842E+04  0.50400001928E-02 0. -1.
    10030    2    1    2    0    0  0.00000000000E+00  0.00000000000E+00 -0.20014494692E+04  0.38332478993E+04  0.32692490697E+04 0.  0.
        4    1    3    3  502    0  0.87659455772E+03  0.52937746089E+03  0.49318127271E+03  0.11366124649E+04  0.12699999809E+01 0.  1.
       -4    1    3    3    0  502 -0.87659455772E+03 -0.52937746089E+03 -0.24946307419E+04  0.26966354344E+04  0.12699999809E+01 0. -1.
</event>
<event>
 5   0  0.6134625E-07  0.3262899E+04  0.7818609E-02  0.8172400E-01
        1   -1    0    0  501    0  0.00000000000E+00  0.00000000000E+00  0.90324977166E+03  0.90324977167E+03  0.50400001928E-02 0. -1.
       -1   -1    0    0    0  501  0.00000000000E+00  0.00000000000E+00 -0.29467236894E+04  0.29467236894E+04  0.50400001928E-02 0.  1.
    10030    2    1    2    0    0  0.00000000000E+00  0.00000000000E+00 -0.20434739177E+04  0.38499734611E+04  0.32628990175E+04 0.  0.
        5    1    3    3  502    0  0.90750569834E+03 -0.10558185652E+04 -0.20252178908E+04  0.24576104309E+04  0.46999998093E+01 0.  1.
       -5    1    3    3    0  502 -0.90750569834E+03  0.10558185652E+04 -0.18256026933E+02  0.13923630301E+04  0.46999998093E+01 0. -1.
</event>
<event>
 5   0  0.6134625E-07  0.3458819E+04  0.7818609E-02  0.8123619E-01
       -1   -1    0    0    0  501  0.00000000000E+00  0.00000000000E+00  0.19272597479E+04  0.19272597479E+04  0.50400001928E-02 0.  1.
        1   -1    0    0  501    0  0.00000000000E+00  0.00000000000E+00 -0.15518699079E+04  0.15518699079E+04  0.50400001928E-02 0. -1.
    10030    2    1    2    0    0  0.00000000000E+00  0.00000000000E+00  0.37538984002E+03  0.34791296558E+04  0.34588185309E+04 0.  0.
        3    1    3    3  502    0 -0.59827633176E+03  0.13461977785E+04 -0.72353507526E+03  0.16412452721E+04  0.10100000352E+00 0. -1.
       -3    1    3    3    0  502  0.59827633176E+03 -0.13461977785E+04  0.10989249153E+04  0.18378843836E+04  0.10100000352E+00 0.  1.
</event>
<event>
 5   0  0.1339844E-06  0.3391504E+04  0.7818609E-02  0.8139995E-01
        2   -1    0    0  501    0  0.00000000000E+00  0.00000000000E+00  0.24130507624E+04  0.24130507624E+04  0.25500000920E-02 0. -1.
       -2   -1    0    0    0  501  0.00000000000E+00  0.00000000000E+00 -0.11916764181E+04  0.11916764181E+04  0.25500000920E-02 0.  1.
    10030    2    1    2    0    0  0.00000000000E+00  0.00000000000E+00  0.12213743443E+04  0.36047271805E+04  0.33915044976E+04 0.  0.
        3    1    3    3  502    0 -0.15526290026E+03  0.91736465496E+03 -0.89615733425E+03  0.12918058896E+04  0.10100000352E+00 0.  1.
       -3    1    3    3    0  502  0.15526290026E+03 -0.91736465496E+03  0.21175316786E+04  0.23129212910E+04  0.10100000352E+00 0. -1.
</event>
<event>
 5   0  0.1339844E-06  0.3366692E+04  0.7818609E-02  0.8146130E-01
        2   -1    0    0  501    0  0.00000000000E+00  0.00000000000E+00  0.27745389136E+04  0.27745389136E+04  0.25500000920E-02 0.  1.
       -2   -1    0    0    0  501  0.00000000000E+00  0.00000000000E+00 -0.10213062149E+04  0.10213062149E+04  0.25500000920E-02 0. -1.
    10030    2    1    2    0    0  0.00000000000E+00  0.00000000000E+00  0.17532326987E+04  0.37958451285E+04  0.33666920477E+04 0.  0.
        3    1    3    3  502    0 -0.11908967160E+04 -0.10719311139E+04  0.29470348674E+03  0.16291474631E+04  0.10100000352E+00 0. -1.
       -3    1    3    3    0  502  0.11908967160E+04  0.10719311139E+04  0.14585292119E+04  0.21666976654E+04  0.10100000352E+00 0.  1.
</event>
<event>
 5   0  0.6134625E-07  0.3461592E+04  0.7818609E-02  0.8122953E-01
        1   -1    0    0  501    0  0.00000000000E+00  0.00000000000E+00  0.15719491208E+04  0.15719491208E+04  0.50400001928E-02 0.  1.
       -1   -1    0    0    0  501  0.00000000000E+00  0.00000000000E+00 -0.19056947189E+04  0.19056947189E+04  0.50400001928E-02 0. -1.
    10030    2    1    2    0    0  0.00000000000E+00  0.00000000000E+00 -0.33374559807E+03  0.34776438397E+04  0.34615921990E+04 0.  0.
        5    1    3    3  502    0  0.65385944945E+03  0.14336888113E+04 -0.88617979325E+03  0.18078530093E+04  0.46999998093E+01 0.  1.
       -5    1    3    3    0  502 -0.65385944945E+03 -0.14336888113E+04  0.55243419519E+03  0.16697908304E+04  0.46999998093E+01 0. -1.
</event>
<event>
 5   0  0.1948507E-06  0.3411341E+04  0.7818609E-02  0.8135129E-01
        2   -1    0    0  501    0  0.00000000000E+00  0.00000000000E+00  0.93845963177E+03  0.93845963177E+03  0.25500000920E-02 0. -1.
       -2   -1    0    0    0  501  0.00000000000E+00  0.00000000000E+00 -0.31000918093E+04  0.31000918093E+04  0.25500000920E-02 0.  1.
    10030    2    1    2    0    0  0.00000000000E+00  0.00000000000E+00 -0.21616321775E+04  0.40385514411E+04  0.34113405094E+04 0.  0.
        1    1    3    3  502    0  0.35798287406E+03 -0.15921152146E+04 -0.49324852759E+03  0.17047805444E+04  0.50400001928E-02 0. -1.
       -1    1    3    3    0  502 -0.35798287406E+03  0.15921152146E+04 -0.16683836499E+04  0.23337708967E+04  0.50400001928E-02 0.  1.
</event>
<event>
 5   0  0.6218695E-07  0.3463645E+04  0.7818609E-02  0.8122460E-01
        1   -1    0    0  501    0  0.00000000000E+00  0.00000000000E+00  0.14759091248E+04  0.14759091248E+04  0.50400001928E-02 0. -1.
       -1   -1    0    0    0  501  0.00000000000E+00  0.00000000000E+00 -0.20321093380E+04  0.20321093380E+04  0.50400001928E-02 0.  1.
    10030    2    1    2    0    0  0.00000000000E+00  0.00000000000E+00 -0.55620021321E+03  0.35080184628E+04  0.34636447361E+04 0.  0.
        2    1    3    3  502    0  0.70763693773E+02  0.28212487267E+03 -0.20071937523E+04  0.20281589443E+04  0.25500000920E-02 0.  1.
       -2    1    3    3    0  502 -0.70763693773E+02 -0.28212487267E+03  0.14509935391E+04  0.14798595185E+04  0.25500000920E-02 0. -1.
</event>
<event>
 5   0  0.1339844E-06  0.3425770E+04  0.7818609E-02  0.8131610E-01
       -2   -1    0    0    0  501  0.00000000000E+00  0.00000000000E+00  0.25464885608E+04  0.25464885608E+04  0.25500000920E-02 0. -1.
        2   -1    0    0  501    0  0.00000000000E+00  0.00000000000E+00 -0.11521649297E+04  0.11521649297E+04  0.25500000920E-02 0.  1.
    10030    2    1    2    0    0  0.00000000000E+00  0.00000000000E+00  0.13943236311E+04  0.36986534905E+04  0.34257698776E+04 0.  0.
        3    1    3    3  502    0  0.13059976547E+04  0.97351310233E+03  0.12523220843E+03  0.16337199120E+04  0.10100000352E+00 0.  1.
       -3    1    3    3    0  502 -0.13059976547E+04 -0.97351310233E+03  0.12690914227E+04  0.20649335786E+04  0.10100000352E+00 0. -1.
</event>
<event>
 5   0  0.1880301E-06  0.3399576E+04  0.7818609E-02  0.8138010E-01
        2   -1    0    0  501    0  0.00000000000E+00  0.00000000000E+00  0.19178762148E+04  0.19178762148E+04  0.25500000920E-02 0. -1.
       -2   -1    0    0    0  501  0.00000000000E+00  0.00000000000E+00 -0.15064991089E+04  0.15064991089E+04  0.25500000920E-02 0.  1.
    10030    2    1    2    0    0  0.00000000000E+00  0.00000000000E+00  0.41137710596E+03  0.34243753237E+04  0.33995757433E+04 0.  0.
        4    1    3    3  502    0  0.10716136224E+04  0.11733603390E+04 -0.40215942770E+03  0.16391656594E+04  0.12699999809E+01 0.  1.
       -4    1    3    3    0  502 -0.10716136224E+04 -0.11733603390E+04  0.81353653366E+03  0.17852096643E+04  0.12699999809E+01 0. -1.
</event>
<event>
 5   0  0.1339844E-06  0.3451144E+04  0.7818609E-02  0.8125467E-01
        2   -1    0    0  501    0  0.00000000000E+00  0.00000000000E+00  0.23168385518E+04  0.23168385518E+04  0.25500000920E-02 0. -1.
       -2   -1    0    0    0  501  0.00000000000E+00  0.00000000000E+00 -0.12851988968E+04  0.12851988968E+04  0.25500000920E-02 0.  1.
    10030    2    1    2    0    0  0.00000000000E+00  0.00000000000E+00  0.10316396550E+04  0.36020374486E+04  0.34511437819E+04 0.  0.
        3    1    3    3  502    0  0.13441797507E+04 -0.10629495261E+04  0.72694470748E+03  0.18614858353E+04  0.10100000352E+00 0. -1.
       -3    1    3    3    0  502 -0.13441797507E+04  0.10629495261E+04  0.30469494749E+03  0.17405516133E+04  0.10100000352E+00 0.  1.
</event>
<event>
 5   0  0.6134625E-07  0.3374286E+04  0.7818609E-02  0.8144246E-01
       -1   -1    0    0    0  501  0.00000000000E+00  0.00000000000E+00  0.24792442668E+04  0.24792442668E+04  0.50400001928E-02 0.  1.
        1   -1    0    0  501    0  0.00000000000E+00  0.00000000000E+00 -0.11481122828E+04  0.11481122829E+04  0.50400001928E-02 0. -1.
    10030    2    1    2    0    0  0.00000000000E+00  0.00000000000E+00  0.13311319839E+04  0.36273565496E+04  0.33742855806E+04 0.  0.
        1    1    3    3  502    0 -0.13236288240E+04 -0.18942277713E+03  0.17716027066E+04  0.22195608579E+04  0.50400001928E-02 0.  1.
       -1    1    3    3    0  502  0.13236288240E+04  0.18942277713E+03 -0.44047072262E+03  0.14077956917E+04  0.50400001928E-02 0. -1.
</event>
<event>
 5   0  0.6134625E-07  0.3414295E+04  0.7818609E-02  0.8134407E-01
        3   -1    0    0  501    0  0.00000000000E+00  0.00000000000E+00  0.22809667998E+04  0.22809668020E+04  0.10100000352E+00 0.  1.
       -3   -1    0    0    0  501  0.00000000000E+00  0.00000000000E+00 -0.12776833252E+04  0.12776833292E+04  0.10100000352E+00 0. -1.
    10030    2    1    2    0    0  0.00000000000E+00  0.00000000000E+00  0.10032834745E+04  0.35586501312E+04  0.34142953924E+04 0.  0.
        2    1    3    3  502    0 -0.81052469218E+03 -0.14728578137E+04  0.81099486245E+03  0.18665404048E+04  0.25500000920E-02 0.  1.
       -2    1    3    3    0  502  0.81052469218E+03  0.14728578137E+04  0.19228861210E+03  0.16921097264E+04  0.25500000920E-02 0. -1.
</event>
<event>
 5   0  0.6134625E-07  0.3402356E+04  0.7818609E-02  0.8137328E-01
        1   -1    0    0  501    0  0.00000000000E+00  0.00000000000E+00  0.11181013964E+04  0.11181013964E+04  0.50400001928E-02 0. -1.
       -1   -1    0    0    0  501  0.00000000000E+00  0.00000000000E+00 -0.25883220017E+04  0.25883220017E+04  0.50400001928E-02 0.  1.
    10030    2    1    2    0    0  0.00000000000E+00  0.00000000000E+00 -0.14702206053E+04  0.37064233981E+04  0.34023559159E+04 0.  0.
        1    1    3    3  502    0  0.34633853631E+03 -0.98077182746E+03 -0.22015745572E+04  0.24349115569E+04  0.50400001928E-02 0.  1.
       -1    1    3    3    0  502 -0.34633853631E+03  0.98077182746E+03  0.73135395194E+03  0.12715118412E+04  0.50400001928E-02 0. -1.
</event>
<event>
 5   0  0.6146388E-07  0.3014543E+04  0.7818609E-02  0.8239590E-01
       -1   -1    0    0    0  501  0.00000000000E+00  0.00000000000E+00  0.17452502827E+04  0.17452502827E+04  0.50400001928E-02 0. -1.
        1   -1    0    0  501    0  0.00000000000E+00  0.00000000000E+00 -0.13017431050E+04  0.13017431050E+04  0.50400001928E-02 0.  1.
    10030    2    1    2    0    0  0.00000000000E+00  0.00000000000E+00  0.44350717766E+03  0.30469933877E+04  0.30145430977E+04 0.  0.
        4    1    3    3  502    0  0.44276873815E+03 -0.31880553582E+02  0.16776775638E+04  0.17354146900E+04  0.12699999809E+01 0. -1.
       -4    1    3    3    0  502 -0.44276873815E+03  0.31880553582E+02 -0.12341703862E+04  0.13115786977E+04  0.12699999809E+01 0.  1.
</event>
<event>
 5   0  0.6134625E-07  0.3432883E+04  0.7818609E-02  0.8129883E-01
        1   -1    0    0  501    0  0.00000000000E+00  0.00000000000E+00  0.22194202036E+04  0.22194202036E+04  0.50400001928E-02 0.  1.
       -1   -1    0    0    0  501  0.00000000000E+00  0.00000000000E+00 -0.13274510050E+04  0.13274510050E+04  0.50400001928E-02 0. -1.
    10030    2    1    2    0    0  0.00000000000E+00  0.00000000000E+00  0.89196919863E+03  0.35468712086E+04  0.34328830914E+04 0.  0.
        3    1    3    3  502    0 -0.19642814123E+03  0.16917592016E+04  0.66646759093E+03  0.18288827931E+04  0.10100000352E+00 0. -1.
       -3    1    3    3    0  502  0.19642814123E+03 -0.16917592016E+04  0.22550160769E+03  0.17179884156E+04  0.10100000352E+00 0.  1.
</event>
<event>
 5   0  0.1339844E-06  0.3420827E+04  0.7818609E-02  0.8132813E-01
        2   -1    0    0  501    0  0.00000000000E+00  0.00000000000E+00  0.24918522198E+04  0.24918522198E+04  0.25500000920E-02 0.  1.
       -2   -1    0    0    0  501  0.00000000000E+00  0.00000000000E+00 -0.11740321505E+04  0.11740321505E+04  0.25500000920E-02 0. -1.
    10030    2    1    2    0    0  0.00000000000E+00  0.00000000000E+00  0.13178200693E+04  0.36658843703E+04  0.34208271634E+04 0.  0.
        3    1    3    3  502    0 -0.88306661105E+02 -0.89980481689E+03 -0.89701948737E+03  0.12736132638E+04  0.10100000352E+00 0. -1.
       -3    1    3    3    0  502  0.88306661105E+02  0.89980481689E+03  0.22148395567E+04  0.23922711065E+04  0.10100000352E+00 0.  1.
</event>
<event>
 5   0  0.6218695E-07  0.3390438E+04  0.7818609E-02  0.8140257E-01
        1   -1    0    0  501    0  0.00000000000E+00  0.00000000000E+00  0.10674254144E+04  0.10674254144E+04  0.50400001928E-02 0. -1.
       -1   -1    0    0    0  501  0.00000000000E+00  0.00000000000E+00 -0.26922423118E+04  0.26922423118E+04  0.50400001928E-02 0.  1.
    10030    2    1    2    0    0  0.00000000000E+00  0.00000000000E+00 -0.16248168975E+04  0.37596677262E+04  0.33904382403E+04 0.  0.
        2    1    3    3  502    0  0.63231538417E+03 -0.66970703082E+03 -0.23905758269E+04  0.25618710030E+04  0.25500000920E-02 0.  1.
       -2    1    3    3    0  502 -0.63231538417E+03  0.66970703082E+03  0.76575892937E+03  0.11977967232E+04  0.25500000920E-02 0. -1.
</event>
<event>
 5   0  0.6218695E-07  0.3436320E+04  0.7818609E-02  0.8129049E-01
       -1   -1    0    0    0  501  0.00000000000E+00  0.00000000000E+00  0.22145370702E+04  0.22145370702E+04  0.50400001928E-02 0. -1.
        1   -1    0    0  501    0  0.00000000000E+00  0.00000000000E+00 -0.13330434900E+04  0.13330434901E+04  0.50400001928E-02 0.  1.
    10030    2    1    2    0    0  0.00000000000E+00  0.00000000000E+00  0.88149358020E+03  0.35475805603E+04  0.34363202557E+04 0.  0.
        2    1    3    3  502    0  0.34179466109E+03  0.90232314470E+03  0.19084174827E+04  0.21384732722E+04  0.25500000920E-02 0. -1.
       -2    1    3    3    0  502 -0.34179466109E+03 -0.90232314470E+03 -0.10269239025E+04  0.14091072881E+04  0.25500000920E-02 0.  1.
</event>
<event>
 5   0  0.6134625E-07  0.3355380E+04  0.7818609E-02  0.8148945E-01
        1   -1    0    0  501    0  0.00000000000E+00  0.00000000000E+00  0.15530816202E+04  0.15530816202E+04  0.50400001928E-02 0.  1.
       -1   -1    0    0    0  501  0.00000000000E+00  0.00000000000E+00 -0.18122958706E+04  0.18122958706E+04  0.50400001928E-02 0. -1.
    10030    2    1    2    0    0  0.00000000000E+00  0.00000000000E+00 -0.25921425036E+03  0.33653774908E+04  0.33553798038E+04 0.  0.
        1    1    3    3  502    0  0.43487278858E+03  0.13636734137E+04  0.74817130796E+03  0.16150788921E+04  0.50400001928E-02 0.  1.
       -1    1    3    3    0  502 -0.43487278858E+03 -0.13636734137E+04 -0.10073855583E+04  0.17502985987E+04  0.50400001928E-02 0. -1.
</event>
<event>
 5   0  0.6146388E-07  0.3399733E+04  0.7818609E-02  0.8137972E-01
       -1   -1    0    0    0  501  0.00000000000E+00  0.00000000000E+00  0.15965724562E+04  0.15965724562E+04  0.50400001928E-02 0. -1.
        1   -1    0    0  501    0  0.00000000000E+00  0.00000000000E+00 -0.18098434446E+04  0.18098434446E+04  0.50400001928E-02 0.  1.
    10030    2    1    2    0    0  0.00000000000E+00  0.00000000000E+00 -0.21327098837E+03  0.34064159008E+04  0.33997330446E+04 0.  0.
        4    1    3    3  502    0  0.43029763419E+03 -0.14743850234E+04  0.62320372901E+03  0.16575137260E+04  0.12699999809E+01 0. -1.
       -4    1    3    3    0  502 -0.43029763419E+03  0.14743850234E+04 -0.83647471738E+03  0.17489021748E+04  0.12699999809E+01 0.  1.
</event>
<event>
 5   0  0.1797075E-06  0.3424829E+04  0.7818609E-02  0.8131839E-01
       -2   -1    0    0    0  501  0.00000000000E+00  0.00000000000E+00  0.11351239019E+04  0.11351239019E+04  0.25500000920E-02 0. -1.
        2   -1    0    0  501    0  0.00000000000E+00  0.00000000000E+00 -0.25832987395E+04  0.25832987395E+04  0.25500000920E-02 0.  1.
    10030    2    1    2    0    0  0.00000000000E+00  0.00000000000E+00 -0.14481748376E+04  0.37184226414E+04  0.34248294235E+04 0.  0.
        2    1    3    3  502    0  0.45151408688E+03  0.97530449961E+03 -0.21715180838E+04  0.24229268717E+04  0.25500000920E-02 0.  1.
       -2    1    3    3    0  502 -0.45151408688E+03 -0.97530449961E+03  0.72334324616E+03  0.12954957697E+04  0.25500000920E-02 0. -1.
</event>
<event>
 5   0  0.1339844E-06  0.3516716E+04  0.7818609E-02  0.8109840E-01
        2   -1    0    0  501    0  0.00000000000E+00  0.00000000000E+00  0.19742482496E+04  0.19742482496E+04  0.25500000920E-02 0.  1.
       -2   -1    0    0    0  501  0.00000000000E+00  0.00000000000E+00 -0.15660764520E+04  0.15660764520E+04  0.25500000920E-02 0. -1.
    10030    2    1    2    0    0  0.00000000000E+00  0.00000000000E+00  0.40817179766E+03  0.35403247016E+04  0.35167164765E+04 0.  0.
        3    1    3    3  502    0  0.35877769611E+03 -0.14464505671E+04  0.11435618056E+04  0.18784765880E+04  0.10100000352E+00 0.  1.
       -3    1    3    3    0  502 -0.35877769611E+03  0.14464505671E+04 -0.73539000797E+03  0.16618481135E+04  0.10100000352E+00 0. -1.
</event>
<event>
 5   0  0.1339844E-06  0.3375028E+04  0.7818609E-02  0.8144063E-01
        2   -1    0    0  501    0  0.00000000000E+00  0.00000000000E+00  0.23967781440E+04  0.23967781440E+04  0.25500000920E-02 0. -1.
       -2   -1    0    0    0  501  0.00000000000E+00  0.00000000000E+00 -0.11881382899E+04  0.11881382899E+04  0.25500000920E-02 0.  1.
    10030    2    1    2    0    0  0.00000000000E+00  0.00000000000E+00  0.12086398541E+04  0.35849164339E+04  0.33750282281E+04 0.  0.
        3    1    3    3  502    0 -0.11148084940E+03  0.11667320342E+04  0.18939114635E+04  0.22272387077E+04  0.10100000352E+00 0. -1.
       -3    1    3    3    0  502  0.11148084940E+03 -0.11667320342E+04 -0.68527160938E+03  0.13576777262E+04  0.10100000352E+00 0.  1.
</event>
<event>
 5   0  0.1911477E-06  0.3395472E+04  0.7818609E-02  0.8139019E-01
       -2   -1    0    0    0  501  0.00000000000E+00  0.00000000000E+00  0.29643615954E+04  0.29643615954E+04  0.25500000920E-02 0.  1.
        2   -1    0    0  501    0  0.00000000000E+00  0.00000000000E+00 -0.97231963082E+03  0.97231963083E+03  0.25500000920E-02 0. -1.
    10030    2    1    2    0    0  0.00000000000E+00  0.00000000000E+00  0.19920419646E+04  0.39366812263E+04  0.33954716739E+04 0.  0.
        5    1    3    3  502    0  0.14588366385E+04  0.38284854670E+03  0.18996828815E+04  0.24256121882E+04  0.46999998093E+01 0.  1.
       -5    1    3    3    0  502 -0.14588366385E+04 -0.38284854670E+03  0.92359083072E+02  0.15110690380E+04  0.46999998093E+01 0. -1.
</event>
<event>
 5   0  0.6146388E-07  0.3400050E+04  0.7818609E-02  0.8137894E-01
        1   -1    0    0  501    0  0.00000000000E+00  0.00000000000E+00  0.17513392789E+04  0.17513392790E+04  0.50400001928E-02 0.  1.
       -1   -1    0    0    0  501  0.00000000000E+00  0.00000000000E+00 -0.16502141798E+04  0.16502141798E+04  0.50400001928E-02 0. -1.
    10030    2    1    2    0    0  0.00000000000E+00  0.00000000000E+00  0.10112509913E+03  0.34015534588E+04  0.34000499478E+04 0.  0.
        4    1    3    3  502    0 -0.35647542253E+03 -0.25982047914E+03 -0.15919618289E+04  0.16519459694E+04  0.12699999809E+01 0. -1.
       -4    1    3    3    0  502  0.35647542253E+03  0.25982047914E+03  0.16930869280E+04  0.17496074894E+04  0.12699999809E+01 0.  1.
</event>
<event>
 5   0  0.6134625E-07  0.3614735E+04  0.7818609E-02  0.8087125E-01
        1   -1    0    0  501    0  0.00000000000E+00  0.00000000000E+00  0.17722050994E+04  0.17722050994E+04  0.50400001928E-02 0. -1.
       -1   -1    0    0    0  501  0.00000000000E+00  0.00000000000E+00 -0.18432274731E+04  0.18432274731E+04  0.50400001928E-02 0.  1.
    10030    2    1    2    0    0  0.00000000000E+00  0.00000000000E+00 -0.71022373721E+02  0.36154325725E+04  0.36147349154E+04 0.  0.
        3    1    3    3  502    0 -0.57442920486E+02  0.17229638813E+04  0.50743139618E+03  0.17970505996E+04  0.10100000352E+00 0. -1.
       -3    1    3    3    0  502  0.57442920486E+02 -0.17229638813E+04 -0.57845376991E+03  0.18183819729E+04  0.10100000352E+00 0.  1.
</event>
<event>
 5   0  0.6134625E-07  0.3332333E+04  0.7818609E-02  0.8154717E-01
        1   -1    0    0  501    0  0.00000000000E+00  0.00000000000E+00  0.20434808204E+04  0.20434808204E+04  0.50400001928E-02 0. -1.
       -1   -1    0    0    0  501  0.00000000000E+00  0.00000000000E+00 -0.13585208809E+04  0.13585208809E+04  0.50400001928E-02 0.  1.
    10030    2    1    2    0    0  0.00000000000E+00  0.00000000000E+00  0.68495993952E+03  0.34020017013E+04  0.33323333352E+04 0.  0.
        3    1    3    3  502    0  0.63775396531E+03 -0.12534377406E+04 -0.56966185605E+03  0.15173499696E+04  0.10100000352E+00 0.  1.
       -3    1    3    3    0  502 -0.63775396531E+03  0.12534377406E+04  0.12546217956E+04  0.18846517317E+04  0.10100000352E+00 0. -1.
</event>
<event>
 5   0  0.6134625E-07  0.3394045E+04  0.7818609E-02  0.8139369E-01
        1   -1    0    0  501    0  0.00000000000E+00  0.00000000000E+00  0.15215167727E+04  0.15215167727E+04  0.50400001928E-02 0.  1.
       -1   -1    0    0    0  501  0.00000000000E+00  0.00000000000E+00 -0.18927726583E+04  0.18927726583E+04  0.50400001928E-02 0. -1.
    10030    2    1    2    0    0  0.00000000000E+00  0.00000000000E+00 -0.37125588558E+03  0.34142894311E+04  0.33940449889E+04 0.  0.
        3    1    3    3  502    0  0.21518627547E+03 -0.10467132163E+04  0.11405569687E+04  0.15629407856E+04  0.10100000352E+00 0.  1.
       -3    1    3    3    0  502 -0.21518627547E+03  0.10467132163E+04 -0.15118128543E+04  0.18513486454E+04  0.10100000352E+00 0. -1.
</event>
<event>
 5   0  0.1797075E-06  0.3294410E+04  0.7818609E-02  0.8164319E-01
       -2   -1    0    0    0  501  0.00000000000E+00  0.00000000000E+00  0.14152240761E+04  0.14152240761E+04  0.25500000920E-02 0.  1.
        2   -1    0    0  501    0  0.00000000000E+00  0.00000000000E+00 -0.19172122494E+04  0.19172122494E+04  0.25500000920E-02 0. -1.
    10030    2    1    2    0    0  0.00000000000E+00  0.00000000000E+00 -0.50198817331E+03  0.33324363255E+04  0.32944103778E+04 0.  0.
        2    1    3    3  502    0 -0.38540258798E+03 -0.65329391616E+03 -0.17300467207E+04  0.18890181978E+04  0.25500000920E-02 0. -1.
       -2    1    3    3    0  502  0.38540258798E+03  0.65329391616E+03  0.12280585474E+04  0.14434181277E+04  0.25500000920E-02 0.  1.
</event>
<event>
 5   0  0.1339844E-06  0.3406461E+04  0.7818609E-02  0.8136323E-01
       -2   -1    0    0    0  501  0.00000000000E+00  0.00000000000E+00  0.17427202871E+04  0.17427202871E+04  0.25500000920E-02 0. -1.
        2   -1    0    0  501    0  0.00000000000E+00  0.00000000000E+00 -0.16646351021E+04  0.16646351021E+04  0.25500000920E-02 0.  1.
    10030    2    1    2    0    0  0.00000000000E+00  0.00000000000E+00  0.78085184945E+02  0.34073553892E+04  0.34064605461E+04 0.  0.
        3    1    3    3  502    0  0.15244703217E+04  0.75843659688E+03 -0.28912028923E+01  0.17027167123E+04  0.10100000352E+00 0.  1.
       -3    1    3    3    0  502 -0.15244703217E+04 -0.75843659688E+03  0.80976387837E+02  0.17046386769E+04  0.10100000352E+00 0. -1.
</event>
<event>
 5   0  0.1339844E-06  0.3239751E+04  0.7818609E-02  0.8178397E-01
        2   -1    0    0  501    0  0.00000000000E+00  0.00000000000E+00  0.30792867221E+04  0.30792867221E+04  0.25500000920E-02 0.  1.
       -2   -1    0    0    0  501  0.00000000000E+00  0.00000000000E+00 -0.85214407967E+03  0.85214407967E+03  0.25500000920E-02 0. -1.
    10030    2    1    2    0    0  0.00000000000E+00  0.00000000000E+00  0.22271426424E+04  0.39314308018E+04  0.32397505767E+04 0.  0.
        3    1    3    3  502    0 -0.11826014194E+04  0.22496845613E+03  0.24288816803E+04  0.27108344012E+04  0.10100000352E+00 0.  1.
       -3    1    3    3    0  502  0.11826014194E+04 -0.22496845613E+03 -0.20173903794E+03  0.12205964006E+04  0.10100000352E+00 0. -1.
</event>
<event>
 5   0  0.6218695E-07  0.3353365E+04  0.7818609E-02  0.8149448E-01
       -1   -1    0    0    0  501  0.00000000000E+00  0.00000000000E+00  0.13620356411E+04  0.13620356411E+04  0.50400001928E-02 0.  1.
        1   -1    0    0  501    0  0.00000000000E+00  0.00000000000E+00 -0.20640161020E+04  0.20640161020E+04  0.50400001928E-02 0. -1.
    10030    2    1    2    0    0  0.00000000000E+00  0.00000000000E+00 -0.70198046091E+03  0.34260517432E+04  0.33533645760E+04 0.  0.
        2    1    3    3  502    0 -0.75357600834E+03 -0.14479793934E+04  0.40382814353E+02  0.16328355385E+04  0.25500000920E-02 0. -1.
       -2    1    3    3    0  502  0.75357600834E+03  0.14479793934E+04 -0.74236327526E+03  0.17932162046E+04  0.25500000920E-02 0.  1.
</event>
<event>
 5   0  0.1880301E-06  0.3387591E+04  0.7818609E-02  0.8140959E-01
        2   -1    0    0  501    0  0.00000000000E+00  0.00000000000E+00  0.17311807254E+04  0.17311807254E+04  0.25500000920E-02 0. -1.
       -2   -1    0    0    0  501  0.00000000000E+00  0.00000000000E+00 -0.16572174002E+04  0.16572174002E+04  0.25500000920E-02 0.  1.
    10030    2    1    2    0    0  0.00000000000E+00  0.00000000000E+00  0.73963325222E+02  0.33883981256E+04  0.33875907788E+04 0.  0.
        4    1    3    3  502    0 -0.11281026872E+04 -0.93035328070E+03 -0.81807194406E+03  0.16755346067E+04  0.12699999809E+01 0.  1.
       -4    1    3    3    0  502  0.11281026872E+04  0.93035328070E+03  0.89203526928E+03  0.17128635189E+04  0.12699999809E+01 0. -1.
</event>
<event>
 5   0  0.1339844E-06  0.3394339E+04  0.7818609E-02  0.8139297E-01
       -2   -1    0    0    0  501  0.00000000000E+00  0.00000000000E+00  0.22801565832E+04  0.22801565832E+04  0.25500000920E-02 0.  1.
        2   -1    0    0  501    0  0.00000000000E+00  0.00000000000E+00 -0.12632396715E+04  0.12632396716E+04  0.25500000920E-02 0. -1.
    10030    2    1    2    0    0  0.00000000000E+00  0.00000000000E+00  0.10169169117E+04  0.35433962548E+04  0.33943389656E+04 0.  0.
        3    1    3    3  502    0 -0.46548487986E+03  0.13035176039E+04  0.15337015866E+04  0.20659319650E+04  0.10100000352E+00 0.  1.
       -3    1    3    3    0  502  0.46548487986E+03 -0.13035176039E+04 -0.51678467495E+03  0.14774642898E+04  0.10100000352E+00 0. -1.
</event>
<event>
 5   0  0.1339844E-06  0.3137817E+04  0.7818609E-02  0.8205435E-01
       -2   -1    0    0    0  501  0.00000000000E+00  0.00000000000E+00  0.18282997453E+04  0.18282997453E+04  0.25500000920E-02 0. -1.
        2   -1    0    0  501    0  0.00000000000E+00  0.00000000000E+00 -0.13463186507E+04  0.13463186507E+04  0.25500000920E-02 0.  1.
    10030    2    1    2    0    0  0.00000000000E+00  0.00000000000E+00  0.48198109458E+03  0.31746183960E+04  0.31378171050E+04 0.  0.
        3    1    3    3  502    0  0.12801407843E+04  0.81535475246E+03 -0.16104924830E+03  0.15262701827E+04  0.10100000352E+00 0.  1.
       -3    1    3    3    0  502 -0.12801407843E+04 -0.81535475246E+03  0.64303034288E+03  0.16483482132E+04  0.10100000352E+00 0. -1.
</event>
<event>
 5   0  0.6134625E-07  0.3184189E+04  0.7818609E-02  0.8193005E-01
       -1   -1    0    0    0  501  0.00000000000E+00  0.00000000000E+00  0.13215392736E+04  0.13215392736E+04  0.50400001928E-02 0.  1.
        1   -1    0    0  501    0  0.00000000000E+00  0.00000000000E+00 -0.19180394717E+04  0.19180394717E+04  0.50400001928E-02 0. -1.
    10030    2    1    2    0    0  0.00000000000E+00  0.00000000000E+00 -0.59650019808E+03  0.32395787454E+04  0.31841887446E+04 0.  0.
        5    1    3    3  502    0  0.47401487194E+03  0.74002779507E+03 -0.16489017558E+04  0.18684834296E+04  0.46999998093E+01 0. -1.
       -5    1    3    3    0  502 -0.47401487194E+03 -0.74002779507E+03  0.10524015577E+04  0.13710953158E+04  0.46999998093E+01 0.  1.
</event>
<event>
 5   0  0.1339844E-06  0.2678529E+04  0.7818609E-02  0.8342005E-01
       -2   -1    0    0    0  501  0.00000000000E+00  0.00000000000E+00  0.80574503834E+03  0.80574503835E+03  0.25500000920E-02 0. -1.
        2   -1    0    0  501    0  0.00000000000E+00  0.00000000000E+00 -0.22260507184E+04  0.22260507184E+04  0.25500000920E-02 0.  1.
    10030    2    1    2    0    0  0.00000000000E+00  0.00000000000E+00 -0.14203056801E+04  0.30317957568E+04  0.26785289407E+04 0.  0.
        3    1    3    3  502    0  0.11155384311E+04 -0.53411901077E+03 -0.12866596649E+03  0.12434886610E+04  0.10100000352E+00 0. -1.
       -3    1    3    3    0  502 -0.11155384311E+04  0.53411901077E+03 -0.12916397136E+04  0.17883070958E+04  0.10100000352E+00 0.  1.
</event>
<event>
 5   0  0.1911477E-06  0.3138968E+04  0.7818609E-02  0.8205124E-01
       -2   -1    0    0    0  501  0.00000000000E+00  0.00000000000E+00  0.14902606576E+04  0.14902606576E+04  0.25500000920E-02 0.  1.
        2   -1    0    0  501    0  0.00000000000E+00  0.00000000000E+00 -0.16529193458E+04  0.16529193458E+04  0.25500000920E-02 0. -1.
    10030    2    1    2    0    0  0.00000000000E+00  0.00000000000E+00 -0.16265868817E+03  0.31431800034E+04  0.31389684109E+04 0.  0.
        5    1    3    3  502    0  0.13031663764E+04  0.49143024452E+03  0.64318293292E+03  0.15340966935E+04  0.46999998093E+01 0.  1.
       -5    1    3    3    0  502 -0.13031663764E+04 -0.49143024452E+03 -0.80584162109E+03  0.16090833099E+04  0.46999998093E+01 0. -1.
</event>
<event>
 5   0  0.6134625E-07  0.3389377E+04  0.7818609E-02  0.8140518E-01
       -1   -1    0    0    0  501  0.00000000000E+00  0.00000000000E+00  0.19766742144E+04  0.19766742144E+04  0.50400001928E-02 0. -1.
        1   -1    0    0  501    0  0.00000000000E+00  0.00000000000E+00 -0.14529303380E+04  0.14529303380E+04  0.50400001928E-02 0.  1.
    10030    2    1    2    0    0  0.00000000000E+00  0.00000000000E+00  0.52374387643E+03  0.34296045524E+04  0.33893774852E+04 0.  0.
        3    1    3    3  502    0 -0.12153171358E+04 -0.35267442971E+03  0.14024569645E+04  0.18889839971E+04  0.10100000352E+00 0. -1.
       -3    1    3    3    0  502  0.12153171358E+04  0.35267442971E+03 -0.87871308808E+03  0.15406205552E+04  0.10100000352E+00 0.  1.
</event>
<event>
 5   0  0.6134625E-07  0.3404561E+04  0.7818609E-02  0.8136788E-01
       -1   -1    0    0    0  501  0.00000000000E+00  0.00000000000E+00  0.15048259435E+04  0.15048259435E+04  0.50400001928E-02 0. -1.
        1   -1    0    0  501    0  0.00000000000E+00  0.00000000000E+00 -0.19256434678E+04  0.19256434678E+04  0.50400001928E-02 0.  1.
    10030    2    1    2    0    0  0.00000000000E+00  0.00000000000E+00 -0.42081752432E+03  0.34304694113E+04  0.34045606167E+04 0.  0.
        5    1    3    3  502    0  0.13360133015E+04  0.90703821238E+03 -0.75310409646E+03  0.17818074336E+04  0.46999998093E+01 0.  1.
       -5    1    3    3    0  502 -0.13360133015E+04 -0.90703821238E+03  0.33228657214E+03  0.16486619776E+04  0.46999998093E+01 0. -1.
</event>
<event>
 5   0  0.6218695E-07  0.3408017E+04  0.7818609E-02  0.8135942E-01
       -1   -1    0    0    0  501  0.00000000000E+00  0.00000000000E+00  0.12858789471E+04  0.12858789471E+04  0.50400001928E-02 0. -1.
        1   -1    0    0  501    0  0.00000000000E+00  0.00000000000E+00 -0.22581012054E+04  0.22581012054E+04  0.50400001928E-02 0.  1.
    10030    2    1    2    0    0  0.00000000000E+00  0.00000000000E+00 -0.97222225829E+03  0.35439801524E+04  0.34080169016E+04 0.  0.
        2    1    3    3  502    0 -0.10751167650E+04 -0.10070579267E+04 -0.13767878723E+04  0.20163299758E+04  0.25500000920E-02 0.  1.
       -2    1    3    3    0  502  0.10751167650E+04  0.10070579267E+04  0.40456561402E+03  0.15276501766E+04  0.25500000920E-02 0. -1.
</event>
<event>
 5   0  0.6146388E-07  0.3275522E+04  0.7818609E-02  0.8169152E-01
       -1   -1    0    0    0  501  0.00000000000E+00  0.00000000000E+00  0.29018495389E+04  0.29018495389E+04  0.50400001928E-02 0.  1.
        1   -1    0    0  501    0  0.00000000000E+00  0.00000000000E+00 -0.92432829402E+03  0.92432829404E+03  0.50400001928E-02 0. -1.
    10030    2    1    2    0    0  0.00000000000E+00  0.00000000000E+00  0.19775212449E+04  0.38261778330E+04  0.32755223302E+04 0.  0.
        4    1    3    3  502    0 -0.11531389006E+04  0.16821944264E+03  0.23329695523E+04  0.26078296819E+04  0.12699999809E+01 0.  1.
       -4    1    3    3    0  502  0.11531389006E+04 -0.16821944264E+03 -0.35544830741E+03  0.12183481510E+04  0.12699999809E+01 0. -1.
</event>
<event>
 5   0  0.1339844E-06  0.3226673E+04  0.7818609E-02  0.8181808E-01
        2   -1    0    0  501    0  0.00000000000E+00  0.00000000000E+00  0.18434373436E+04  0.18434373436E+04  0.25500000920E-02 0.  1.
       -2   -1    0    0    0  501  0.00000000000E+00  0.00000000000E+00 -0.14119568508E+04  0.14119568508E+04  0.25500000920E-02 0. -1.
    10030    2    1    2    0    0  0.00000000000E+00  0.00000000000E+00  0.43148049275E+03  0.32553941944E+04  0.32266725811E+04 0.  0.
        3    1    3    3  502    0 -0.79963736656E+02 -0.72808952073E+03 -0.12345340426E+04  0.14354730446E+04  0.10100000352E+00 0. -1.
       -3    1    3    3    0  502  0.79963736656E+02  0.72808952073E+03  0.16660145353E+04  0.18199211498E+04  0.10100000352E+00 0.  1.
</event>
<event>
 5   0  0.1339844E-06  0.3462055E+04  0.7818609E-02  0.8122842E-01
       -2   -1    0    0    0  501  0.00000000000E+00  0.00000000000E+00  0.18321647878E+04  0.18321647878E+04  0.25500000920E-02 0.  1.
        2   -1    0    0  501    0  0.00000000000E+00  0.00000000000E+00 -0.16354732947E+04  0.16354732947E+04  0.25500000920E-02 0. -1.
    10030    2    1    2    0    0  0.00000000000E+00  0.00000000000E+00  0.19669149308E+03  0.34676380826E+04  0.34620552174E+04 0.  0.
        3    1    3    3  502    0  0.27862444106E+02 -0.18430271193E+03  0.18220836927E+04  0.18315929676E+04  0.10100000352E+00 0.  1.
       -3    1    3    3    0  502 -0.27862444106E+02  0.18430271193E+03 -0.16253921996E+04  0.16360451150E+04  0.10100000352E+00 0. -1.
</event>
<event>
 5   0  0.1948507E-06  0.3365334E+04  0.7818609E-02  0.8146467E-01
        2   -1    0    0  501    0  0.00000000000E+00  0.00000000000E+00  0.16417812694E+04  0.16417812694E+04  0.25500000920E-02 0.  1.
       -2   -1    0    0    0  501  0.00000000000E+00  0.00000000000E+00 -0.17245710136E+04  0.17245710137E+04  0.25500000920E-02 0. -1.
    10030    2    1    2    0    0  0.00000000000E+00  0.00000000000E+00 -0.82789744288E+02  0.33663522830E+04  0.33653340921E+04 0.  0.
        1    1    3    3  502    0 -0.47620938600E+03  0.14631333872E+04  0.63986455747E+03  0.16664217174E+04  0.50400001928E-02 0.  1.
       -1    1    3    3    0  502  0.47620938600E+03 -0.14631333872E+04 -0.72265430176E+03  0.16999305657E+04  0.50400001928E-02 0. -1.
</event>
<event>
 5   0  0.6146388E-07  0.2625326E+04  0.7818609E-02  0.8359649E-01
        1   -1    0    0  501    0  0.00000000000E+00  0.00000000000E+00  0.14725309949E+04  0.14725309949E+04  0.50400001928E-02 0.  1.
       -1   -1    0    0    0  501  0.00000000000E+00  0.00000000000E+00 -0.11701511064E+04  0.11701511064E+04  0.50400001928E-02 0. -1.
    10030    2    1    2    0    0  0.00000000000E+00  0.00000000000E+00  0.30237988844E+03  0.26426821013E+04  0.26253257115E+04 0.  0.
        4    1    3    3  502    0  0.11156699015E+04 -0.19825334661E+03 -0.51580554541E+03  0.12450223661E+04  0.12699999809E+01 0. -1.
       -4    1    3    3    0  502 -0.11156699015E+04  0.19825334661E+03  0.81818543385E+03  0.13976597352E+04  0.12699999809E+01 0.  1.
</event>
<event>
 5   0  0.1797075E-06  0.3358407E+04  0.7818609E-02  0.8148191E-01
        2   -1    0    0  501    0  0.00000000000E+00  0.00000000000E+00  0.19870447240E+04  0.19870447240E+04  0.25500000920E-02 0. -1.
       -2   -1    0    0    0  501  0.00000000000E+00  0.00000000000E+00 -0.14190546095E+04  0.14190546095E+04  0.25500000920E-02 0.  1.
    10030    2    1    2    0    0  0.00000000000E+00  0.00000000000E+00  0.56799011447E+03  0.34060993334E+04  0.33584073456E+04 0.  0.
        2    1    3    3  502    0 -0.16754316035E+03  0.12592416983E+04  0.13977540399E+04  0.18887765144E+04  0.25500000920E-02 0.  1.
       -2    1    3    3    0  502  0.16754316035E+03 -0.12592416983E+04 -0.82976392546E+03  0.15173228190E+04  0.25500000920E-02 0. -1.
</event>
<event>
 5   0  0.1339844E-06  0.3449466E+04  0.7818609E-02  0.8125871E-01
       -2   -1    0    0    0  501  0.00000000000E+00  0.00000000000E+00  0.14446842187E+04  0.14446842187E+04  0.25500000920E-02 0. -1.
        2   -1    0    0  501    0  0.00000000000E+00  0.00000000000E+00 -0.20590688631E+04  0.20590688631E+04  0.25500000920E-02 0.  1.
    10030    2    1    2    0    0  0.00000000000E+00  0.00000000000E+00 -0.61438464440E+03  0.35037530819E+04  0.34494662149E+04 0.  0.
        3    1    3    3  502    0  0.70434124067E+03 -0.15700282226E+04 -0.42572973885E+03  0.17726621291E+04  0.10100000352E+00 0.  1.
       -3    1    3    3    0  502 -0.70434124067E+03  0.15700282226E+04 -0.18865490555E+03  0.17310909528E+04  0.10100000352E+00 0. -1.
</event>
<event>
 5   0  0.6134625E-07  0.2648309E+04  0.7818609E-02  0.8351974E-01
       -1   -1    0    0    0  501  0.00000000000E+00  0.00000000000E+00  0.10881839091E+04  0.10881839092E+04  0.50400001928E-02 0.  1.
        1   -1    0    0  501    0  0.00000000000E+00  0.00000000000E+00 -0.16112951916E+04  0.16112951916E+04  0.50400001928E-02 0. -1.
    10030    2    1    2    0    0  0.00000000000E+00  0.00000000000E+00 -0.52311128250E+03  0.26994791008E+04  0.26483092723E+04 0.  0.
        1    1    3    3  502    0 -0.25413489371E+03  0.93374487052E+03 -0.11828563904E+04  0.15282713332E+04  0.50400001928E-02 0. -1.
       -1    1    3    3    0  502  0.25413489371E+03 -0.93374487052E+03  0.65974510795E+03  0.11712077676E+04  0.50400001928E-02 0.  1.
</event>
<event>
 5   0  0.1880301E-06  0.2963578E+04  0.7818609E-02  0.8254209E-01
       -2   -1    0    0    0  501  0.00000000000E+00  0.00000000000E+00  0.28140792504E+04  0.28140792504E+04  0.25500000920E-02 0. -1.
        2   -1    0    0  501    0  0.00000000000E+00  0.00000000000E+00 -0.78025472980E+03  0.78025472980E+03  0.25500000920E-02 0.  1.
    10030    2    1    2    0    0  0.00000000000E+00  0.00000000000E+00  0.20338245206E+04  0.35943339802E+04  0.29635780031E+04 0.  0.
        4    1    3    3  502    0  0.11000669957E+04 -0.39000534731E+03  0.21241494396E+04  0.24236881030E+04  0.12699999809E+01 0. -1.
       -4    1    3    3    0  502 -0.11000669957E+04  0.39000534731E+03 -0.90324918969E+02  0.11706458772E+04  0.12699999809E+01 0.  1.
</event>
<event>
 5   0  0.6134625E-07  0.3266440E+04  0.7818609E-02  0.8171488E-01
       -1   -1    0    0    0  501  0.00000000000E+00  0.00000000000E+00  0.25812228401E+04  0.25812228401E+04  0.50400001928E-02 0. -1.
        1   -1    0    0  501    0  0.00000000000E+00  0.00000000000E+00 -0.10333888591E+04  0.10333888591E+04  0.50400001928E-02 0.  1.
    10030    2    1    2    0    0  0.00000000000E+00  0.00000000000E+00  0.15478339810E+04  0.36146116992E+04  0.32664396065E+04 0.  0.
        5    1    3    3  502    0 -0.52970565866E+03 -0.13690466965E+03 -0.92895814898E+03  0.10781077432E+04  0.46999998093E+01 0.  1.
       -5    1    3    3    0  502  0.52970565866E+03  0.13690466965E+03  0.24767921300E+04  0.25365039560E+04  0.46999998093E+01 0. -1.
</event>
<event>
 5   0  0.1339844E-06  0.3259190E+04  0.7818609E-02  0.8173358E-01
        2   -1    0    0  501    0  0.00000000000E+00  0.00000000000E+00  0.23584437256E+04  0.23584437256E+04  0.25500000920E-02 0. -1.
       -2   -1    0    0    0  501  0.00000000000E+00  0.00000000000E+00 -0.11259881489E+04  0.11259881489E+04  0.25500000920E-02 0.  1.
    10030    2    1    2    0    0  0.00000000000E+00  0.00000000000E+00  0.12324555768E+04  0.34844318745E+04  0.32591898900E+04 0.  0.
        3    1    3    3  502    0  0.64212535944E+03  0.80916184850E+03  0.19636929210E+04  0.22188190040E+04  0.10100000352E+00 0. -1.
       -3    1    3    3    0  502 -0.64212535944E+03 -0.80916184850E+03 -0.73123734420E+03  0.12656128705E+04  0.10100000352E+00 0.  1.
</event>
<event>
 5   0  0.1797075E-06  0.3448644E+04  0.7818609E-02  0.8126070E-01
       -2   -1    0    0    0  501  0.00000000000E+00  0.00000000000E+00  0.16482653270E+04  0.16482653270E+04  0.25500000920E-02 0. -1.
        2   -1    0    0  501    0  0.00000000000E+00  0.00000000000E+00 -0.18038886957E+04  0.18038886957E+04  0.25500000920E-02 0.  1.
    10030    2    1    2    0    0  0.00000000000E+00  0.00000000000E+00 -0.15562336876E+03  0.34521540227E+04  0.34486444821E+04 0.  0.
        2    1    3    3  502    0  0.16400042737E+04  0.20256603848E+03  0.41527479274E+03  0.17038486351E+04  0.25500000920E-02 0. -1.
       -2    1    3    3    0  502 -0.16400042737E+04 -0.20256603848E+03 -0.57089816149E+03  0.17483053877E+04  0.25500000920E-02 0.  1.
</event>
<event>
 5   0  0.1339844E-06  0.3424610E+04  0.7818609E-02  0.8131892E-01
       -2   -1    0    0    0  501  0.00000000000E+00  0.00000000000E+00  0.15569706996E+04  0.15569706997E+04  0.25500000920E-02 0. -1.
        2   -1    0    0  501    0  0.00000000000E+00  0.00000000000E+00 -0.18831370574E+04  0.18831370574E+04  0.25500000920E-02 0.  1.
    10030    2    1    2    0    0  0.00000000000E+00  0.00000000000E+00 -0.32616635771E+03  0.34401077570E+04  0.34246104723E+04 0.  0.
        3    1    3    3  502    0  0.78678696964E+03  0.50845808752E+03 -0.16028962155E+04  0.18565666296E+04  0.10100000352E+00 0.  1.
       -3    1    3    3    0  502 -0.78678696964E+03 -0.50845808752E+03  0.12767298578E+04  0.15835411274E+04  0.10100000352E+00 0. -1.
</event>
<event>
 5   0  0.1339844E-06  0.3403432E+04  0.7818609E-02  0.8137065E-01
        2   -1    0    0  501    0  0.00000000000E+00  0.00000000000E+00  0.24183122639E+04  0.24183122639E+04  0.25500000920E-02 0.  1.
       -2   -1    0    0    0  501  0.00000000000E+00  0.00000000000E+00 -0.11974620879E+04  0.11974620879E+04  0.25500000920E-02 0. -1.
    10030    2    1    2    0    0  0.00000000000E+00  0.00000000000E+00  0.12208501760E+04  0.36157743519E+04  0.34034319461E+04 0.  0.
        3    1    3    3  502    0  0.79417428480E+03  0.84934019876E+03  0.19304196004E+04  0.22535774696E+04  0.10100000352E+00 0.  1.
       -3    1    3    3    0  502 -0.79417428480E+03 -0.84934019876E+03 -0.70956942437E+03  0.13621968823E+04  0.10100000352E+00 0. -1.
</event>
<event>
 5   0  0.6134625E-07  0.3464623E+04  0.7818609E-02  0.8122225E-01
       -3   -1    0    0    0  501  0.00000000000E+00  0.00000000000E+00  0.19517072558E+04  0.19517072584E+04  0.10100000352E+00 0. -1.
        3   -1    0    0  501    0  0.00000000000E+00  0.00000000000E+00 -0.15375787804E+04  0.15375787837E+04  0.10100000352E+00 0.  1.
    10030    2    1    2    0    0  0.00000000000E+00  0.00000000000E+00  0.41412847544E+03  0.34892860421E+04  0.34646233114E+04 0.  0.
        5    1    3    3  502    0  0.17617906567E+03  0.11689048637E+04  0.14823736517E+04  0.18960040551E+04  0.46999998093E+01 0. -1.
       -5    1    3    3    0  502 -0.17617906567E+03 -0.11689048637E+04 -0.10682451763E+04  0.15932819870E+04  0.46999998093E+01 0.  1.
</event>
<event>
 5   0  0.1797075E-06  0.3276941E+04  0.7818609E-02  0.8168788E-01
       -2   -1    0    0    0  501  0.00000000000E+00  0.00000000000E+00  0.10685712207E+04  0.10685712207E+04  0.25500000920E-02 0. -1.
        2   -1    0    0  501    0  0.00000000000E+00  0.00000000000E+00 -0.25123127827E+04  0.25123127827E+04  0.25500000920E-02 0.  1.
    10030    2    1    2    0    0  0.00000000000E+00  0.00000000000E+00 -0.14437415620E+04  0.35808840034E+04  0.32769407301E+04 0.  0.
        2    1    3    3  502    0  0.13537114560E+04  0.92242678850E+03 -0.68434543070E+03  0.17753125231E+04  0.25500000920E-02 0. -1.
       -2    1    3    3    0  502 -0.13537114560E+04 -0.92242678850E+03 -0.75939613126E+03  0.18055714803E+04  0.25500000920E-02 0.  1.
</event>
<event>
 5   0  0.1339844E-06  0.3314448E+04  0.7818609E-02  0.8159229E-01
       -2   -1    0    0    0  501  0.00000000000E+00  0.00000000000E+00  0.22590757860E+04  0.22590757860E+04  0.25500000920E-02 0. -1.
        2   -1    0    0  501    0  0.00000000000E+00  0.00000000000E+00 -0.12157144477E+04  0.12157144477E+04  0.25500000920E-02 0.  1.
    10030    2    1    2    0    0  0.00000000000E+00  0.00000000000E+00  0.10433613383E+04  0.34747902337E+04  0.33144478101E+04 0.  0.
        3    1    3    3  502    0  0.11392759803E+02  0.31815443258E+03 -0.11833549228E+04  0.12254309126E+04  0.10100000352E+00 0.  1.
       -3    1    3    3    0  502 -0.11392759803E+02 -0.31815443258E+03  0.22267162611E+04  0.22493593211E+04  0.10100000352E+00 0. -1.
</event>
<event>
 5   0  0.6134625E-07  0.3347245E+04  0.7818609E-02  0.8150977E-01
        1   -1    0    0  501    0  0.00000000000E+00  0.00000000000E+00  0.18030196847E+04  0.18030196847E+04  0.50400001928E-02 0.  1.
       -1   -1    0    0    0  501  0.00000000000E+00  0.00000000000E+00 -0.15535118807E+04  0.15535118807E+04  0.50400001928E-02 0. -1.
    10030    2    1    2    0    0  0.00000000000E+00  0.00000000000E+00  0.24950780402E+03  0.33565315654E+04  0.33472451367E+04 0.  0.
        5    1    3    3  502    0 -0.26036418154E+02  0.89163918946E+02  0.18004262399E+04  0.18028269010E+04  0.46999998093E+01 0.  1.
       -5    1    3    3    0  502  0.26036418154E+02 -0.89163918946E+02 -0.15509184359E+04  0.15537046644E+04  0.46999998093E+01 0. -1.
</event>
<event>
 5   0  0.6134625E-07  0.3219199E+04  0.7818609E-02  0.8183765E-01
       -1   -1    0    0    0  501  0.00000000000E+00  0.00000000000E+00  0.14176816557E+04  0.14176816557E+04  0.50400001928E-02 0.  1.
        1   -1    0    0  501    0  0.00000000000E+00  0.00000000000E+00 -0.18274980388E+04  0.18274980388E+04  0.50400001928E-02 0. -1.
    10030    2    1    2    0    0  0.00000000000E+00  0.00000000000E+00 -0.40981638319E+03  0.32451796945E+04  0.32191989348E+04 0.  0.
        3    1    3    3  502    0  0.11686837581E+04  0.11018070616E+04 -0.99133254145E+02  0.16092320963E+04  0.10100000352E+00 0.  1.
       -3    1    3    3    0  502 -0.11686837581E+04 -0.11018070616E+04 -0.31068312904E+03  0.16359475982E+04  0.10100000352E+00 0. -1.
</event>
<event>
 5   0  0.1948507E-06  0.3164436E+04  0.7818609E-02  0.8198273E-01
        2   -1    0    0  501    0  0.00000000000E+00  0.00000000000E+00  0.10967999727E+04  0.10967999727E+04  0.25500000920E-02 0. -1.
       -2   -1    0    0    0  501  0.00000000000E+00  0.00000000000E+00 -0.22824713543E+04  0.22824713543E+04  0.25500000920E-02 0.  1.
    10030    2    1    2    0    0  0.00000000000E+00  0.00000000000E+00 -0.11856713817E+04  0.33792713270E+04  0.31644364548E+04 0.  0.
        1    1    3    3  502    0  0.14690373463E+04 -0.58111025527E+03 -0.49940494942E+03  0.16568539939E+04  0.50400001928E-02 0.  1.
       -1    1    3    3    0  502 -0.14690373463E+04  0.58111025527E+03 -0.68626643223E+03  0.17224173331E+04  0.50400001928E-02 0. -1.
</event>
<event>
 5   0  0.6134625E-07  0.3377100E+04  0.7818609E-02  0.8143550E-01
       -1   -1    0    0    0  501  0.00000000000E+00  0.00000000000E+00  0.17518698044E+04  0.17518698044E+04  0.50400001928E-02 0.  1.
        1   -1    0    0  501    0  0.00000000000E+00  0.00000000000E+00 -0.16275189168E+04  0.16275189168E+04  0.50400001928E-02 0. -1.
    10030    2    1    2    0    0  0.00000000000E+00  0.00000000000E+00  0.12435088759E+03  0.33793887212E+04  0.33771000853E+04 0.  0.
        1    1    3    3  502    0  0.10324203684E+02  0.51472892902E+02  0.17510529549E+04  0.17518397469E+04  0.50400001928E-02 0.  1.
       -1    1    3    3    0  502 -0.10324203684E+02 -0.51472892902E+02 -0.16267020673E+04  0.16275489743E+04  0.50400001928E-02 0. -1.
</event>
<event>
 5   0  0.1880301E-06  0.3354408E+04  0.7818609E-02  0.8149187E-01
        2   -1    0    0  501    0  0.00000000000E+00  0.00000000000E+00  0.19990918149E+04  0.19990918149E+04  0.25500000920E-02 0.  1.
       -2   -1    0    0    0  501  0.00000000000E+00  0.00000000000E+00 -0.14071459991E+04  0.14071459991E+04  0.25500000920E-02 0. -1.
    10030    2    1    2    0    0  0.00000000000E+00  0.00000000000E+00  0.59194581581E+03  0.34062378139E+04  0.33544084719E+04 0.  0.
        4    1    3    3  502    0  0.10623063678E+04  0.30807482941E+03  0.15762499963E+04  0.19256091460E+04  0.12699999809E+01 0.  1.
       -4    1    3    3    0  502 -0.10623063678E+04 -0.30807482941E+03 -0.98430418051E+03  0.14806286679E+04  0.12699999809E+01 0. -1.
</event>
<event>
 5   0  0.1880301E-06  0.3810575E+04  0.7818609E-02  0.8043889E-01
       -2   -1    0    0    0  501  0.00000000000E+00  0.00000000000E+00  0.22422023270E+04  0.22422023270E+04  0.25500000920E-02 0. -1.
        2   -1    0    0  501    0  0.00000000000E+00  0.00000000000E+00 -0.16189974215E+04  0.16189974215E+04  0.25500000920E-02 0.  1.
    10030    2    1    2    0    0  0.00000000000E+00  0.00000000000E+00  0.62320490554E+03  0.38611997485E+04  0.38105746475E+04 0.  0.
        4    1    3    3  502    0 -0.11210138921E+04 -0.26693297316E+03  0.18490582649E+04  0.21787481356E+04  0.12699999809E+01 0. -1.
       -4    1    3    3    0  502  0.11210138921E+04  0.26693297316E+03 -0.12258533594E+04  0.16824516130E+04  0.12699999809E+01 0.  1.
</event>
<event>
 5   0  0.6134625E-07  0.3471389E+04  0.7818609E-02  0.8120604E-01
       -1   -1    0    0    0  501  0.00000000000E+00  0.00000000000E+00  0.17980080360E+04  0.17980080360E+04  0.50400001928E-02 0.  1.
        1   -1    0    0  501    0  0.00000000000E+00  0.00000000000E+00 -0.16755404851E+04  0.16755404852E+04  0.50400001928E-02 0. -1.
    10030    2    1    2    0    0  0.00000000000E+00  0.00000000000E+00  0.12246755084E+03  0.34735485212E+04  0.34713889191E+04 0.  0.
        5    1    3    3  502    0 -0.32142184104E+03 -0.15067692757E+04 -0.73860543428E+03  0.17085741797E+04  0.46999998093E+01 0. -1.
       -5    1    3    3    0  502  0.32142184104E+03  0.15067692757E+04  0.86107298512E+03  0.17649743414E+04  0.46999998093E+01 0.  1.
</event>
<event>
 5   0  0.1880301E-06  0.3405616E+04  0.7818609E-02  0.8136529E-01
        2   -1    0    0  501    0  0.00000000000E+00  0.00000000000E+00  0.19553687363E+04  0.19553687363E+04  0.25500000920E-02 0. -1.
       -2   -1    0    0    0  501  0.00000000000E+00  0.00000000000E+00 -0.14828690104E+04  0.14828690104E+04  0.25500000920E-02 0.  1.
    10030    2    1    2    0    0  0.00000000000E+00  0.00000000000E+00  0.47249972590E+03  0.34382377468E+04  0.34056163631E+04 0.  0.
        4    1    3    3  502    0 -0.13313686793E+04 -0.78472782753E+03  0.95809070399E+03  0.18183178307E+04  0.12699999809E+01 0. -1.
       -4    1    3    3    0  502  0.13313686793E+04  0.78472782753E+03 -0.48559097809E+03  0.16199199161E+04  0.12699999809E+01 0.  1.
</event>
<event>
 5   0  0.1948507E-06  0.3476876E+04  0.7818609E-02  0.8119292E-01
       -2   -1    0    0    0  501  0.00000000000E+00  0.00000000000E+00  0.12854692821E+04  0.12854692821E+04  0.25500000920E-02 0. -1.
        2   -1    0    0  501    0  0.00000000000E+00  0.00000000000E+00 -0.23510216224E+04  0.23510216224E+04  0.25500000920E-02 0.  1.
    10030    2    1    2    0    0  0.00000000000E+00  0.00000000000E+00 -0.10655523403E+04  0.36364909045E+04  0.34768756533E+04 0.  0.
        1    1    3    3  502    0 -0.24829303270E+03  0.64350466348E+03 -0.22017834395E+04  0.23072923517E+04  0.50400001928E-02 0.  1.
       -1    1    3    3    0  502  0.24829303270E+03 -0.64350466348E+03  0.11362310991E+04  0.13291985527E+04  0.50400001928E-02 0. -1.
</event>
<event>
 5   0  0.6146388E-07  0.3370548E+04  0.7818609E-02  0.8145173E-01
        1   -1    0    0  501    0  0.00000000000E+00  0.00000000000E+00  0.19832168778E+04  0.19832168778E+04  0.50400001928E-02 0. -1.
       -1   -1    0    0    0  501  0.00000000000E+00  0.00000000000E+00 -0.14320912942E+04  0.14320912942E+04  0.50400001928E-02 0.  1.
    10030    2    1    2    0    0  0.00000000000E+00  0.00000000000E+00  0.55112558365E+03  0.34153081720E+04  0.33705475076E+04 0.  0.
        4    1    3    3  502    0 -0.11110190878E+04  0.98545802919E+03  0.10827947029E+04  0.18379164623E+04  0.12699999809E+01 0. -1.
       -4    1    3    3    0  502  0.11110190878E+04 -0.98545802919E+03 -0.53166911922E+03  0.15773917098E+04  0.12699999809E+01 0.  1.
</event>
<event>
 5   0  0.6134625E-07  0.3398392E+04  0.7818609E-02  0.8138301E-01
        1   -1    0    0  501    0  0.00000000000E+00  0.00000000000E+00  0.20523622997E+04  0.20523622997E+04  0.50400001928E-02 0.  1.
       -1   -1    0    0    0  501  0.00000000000E+00  0.00000000000E+00 -0.14068015831E+04  0.14068015831E+04  0.50400001928E-02 0. -1.
    10030    2    1    2    0    0  0.00000000000E+00  0.00000000000E+00  0.64556071654E+03  0.34591638828E+04  0.33983916975E+04 0.  0.
        5    1    3    3  502    0 -0.58742039158E+03 -0.83548078822E+03  0.17050610657E+04  0.19875477835E+04  0.46999998093E+01 0.  1.
       -5    1    3    3    0  502  0.58742039158E+03  0.83548078822E+03 -0.10595003492E+04  0.14716160993E+04  0.46999998093E+01 0. -1.
</event>
<event>
 5   0  0.6134625E-07  0.3416785E+04  0.7818609E-02  0.8133799E-01
       -1   -1    0    0    0  501  0.00000000000E+00  0.00000000000E+00  0.18630112285E+04  0.18630112285E+04  0.50400001928E-02 0.  1.
        1   -1    0    0  501    0  0.00000000000E+00  0.00000000000E+00 -0.15666066471E+04  0.15666066471E+04  0.50400001928E-02 0. -1.
    10030    2    1    2    0    0  0.00000000000E+00  0.00000000000E+00  0.29640458136E+03  0.34296178756E+04  0.34167854918E+04 0.  0.
        3    1    3    3  502    0 -0.76408206448E+03  0.39857763955E+03  0.16288423818E+04  0.18427731957E+04  0.10100000352E+00 0.  1.
       -3    1    3    3    0  502  0.76408206448E+03 -0.39857763955E+03 -0.13324378004E+04  0.15868446799E+04  0.10100000352E+00 0. -1.
</event>
<event>
 5   0  0.1880301E-06  0.3382532E+04  0.7818609E-02  0.8142207E-01
       -2   -1    0    0    0  501  0.00000000000E+00  0.00000000000E+00  0.21955296826E+04  0.21955296826E+04  0.25500000920E-02 0.  1.
        2   -1    0    0  501    0  0.00000000000E+00  0.00000000000E+00 -0.13028205485E+04  0.13028205485E+04  0.25500000920E-02 0. -1.
    10030    2    1    2    0    0  0.00000000000E+00  0.00000000000E+00  0.89270913418E+03  0.34983502311E+04  0.33825322971E+04 0.  0.
        4    1    3    3  502    0 -0.95377424914E+02  0.30479044981E+03  0.21640604956E+04  0.21874993744E+04  0.12699999809E+01 0.  1.
       -4    1    3    3    0  502  0.95377424914E+02 -0.30479044981E+03 -0.12713513614E+04  0.13108508567E+04  0.12699999809E+01 0. -1.
</event>
<event>
 5   0  0.1948507E-06  0.3406440E+04  0.7818609E-02  0.8136327E-01
       -2   -1    0    0    0  501  0.00000000000E+00  0.00000000000E+00  0.95651585014E+03  0.95651585014E+03  0.25500000920E-02 0.  1.
        2   -1    0    0  501    0  0.00000000000E+00  0.00000000000E+00 -0.30328396633E+04  0.30328396633E+04  0.25500000920E-02 0. -1.
    10030    2    1    2    0    0  0.00000000000E+00  0.00000000000E+00 -0.20763238131E+04  0.39893555134E+04  0.34064404935E+04 0.  0.
        1    1    3    3  502    0 -0.64025291699E+03  0.70216186546E+01 -0.28865262689E+04  0.29566885196E+04  0.50400001928E-02 0. -1.
       -1    1    3    3    0  502  0.64025291699E+03 -0.70216186546E+01  0.81020245574E+03  0.10326669938E+04  0.50400001928E-02 0.  1.
</event>
<event>
 5   0  0.1797075E-06  0.3324804E+04  0.7818609E-02  0.8156613E-01
       -2   -1    0    0    0  501  0.00000000000E+00  0.00000000000E+00  0.17538406200E+04  0.17538406200E+04  0.25500000920E-02 0.  1.
        2   -1    0    0  501    0  0.00000000000E+00  0.00000000000E+00 -0.15757305170E+04  0.15757305170E+04  0.25500000920E-02 0. -1.
    10030    2    1    2    0    0  0.00000000000E+00  0.00000000000E+00  0.17811010299E+03  0.33295711370E+04  0.33248038660E+04 0.  0.
        2    1    3    3  502    0 -0.14912376592E+04 -0.59375626663E+03  0.52239241524E+03  0.16879662603E+04  0.25500000920E-02 0.  1.
       -2    1    3    3    0  502  0.14912376592E+04  0.59375626663E+03 -0.34428231225E+03  0.16416048767E+04  0.25500000920E-02 0. -1.
</event>
<event>
 5   0  0.1339844E-06  0.3368342E+04  0.7818609E-02  0.8145720E-01
        2   -1    0    0  501    0  0.00000000000E+00  0.00000000000E+00  0.18283151814E+04  0.18283151814E+04  0.25500000920E-02 0. -1.
       -2   -1    0    0    0  501  0.00000000000E+00  0.00000000000E+00 -0.15513911370E+04  0.15513911370E+04  0.25500000920E-02 0.  1.
    10030    2    1    2    0    0  0.00000000000E+00  0.00000000000E+00  0.27692404438E+03  0.33797063185E+04  0.33683420065E+04 0.  0.
        3    1    3    3  502    0 -0.21511428479E+03  0.20507427584E+02  0.18143478671E+04  0.18271707373E+04  0.10100000352E+00 0. -1.
       -3    1    3    3    0  502  0.21511428479E+03 -0.20507427584E+02 -0.15374238227E+04  0.15525355812E+04  0.10100000352E+00 0.  1.
</event>
<event>
 5   0  0.1797075E-06  0.3389388E+04  0.7818609E-02  0.8140516E-01
       -2   -1    0    0    0  501  0.00000000000E+00  0.00000000000E+00  0.92160784712E+03  0.92160784713E+03  0.25500000920E-02 0.  1.
        2   -1    0    0  501    0  0.00000000000E+00  0.00000000000E+00 -0.31162800176E+04  0.31162800176E+04  0.25500000920E-02 0. -1.
    10030    2    1    2    0    0  0.00000000000E+00  0.00000000000E+00 -0.21946721705E+04  0.40378878648E+04  0.33893882151E+04 0.  0.
        2    1    3    3  502    0  0.11249040623E+04  0.12606994651E+04 -0.12536497298E+04  0.21039034996E+04  0.25500000920E-02 0. -1.
       -2    1    3    3    0  502 -0.11249040623E+04 -0.12606994651E+04 -0.94102244071E+03  0.19339843651E+04  0.25500000920E-02 0.  1.
</event>
<event>
 5   0  0.6134625E-07  0.3405842E+04  0.7818609E-02  0.8136474E-01
        1   -1    0    0  501    0  0.00000000000E+00  0.00000000000E+00  0.12840681882E+04  0.12840681882E+04  0.50400001928E-02 0. -1.
       -1   -1    0    0    0  501  0.00000000000E+00  0.00000000000E+00 -0.22584001965E+04  0.22584001965E+04  0.50400001928E-02 0.  1.
    10030    2    1    2    0    0  0.00000000000E+00  0.00000000000E+00 -0.97433200829E+03  0.35424683848E+04  0.34058419509E+04 0.  0.
        1    1    3    3  502    0  0.10945779260E+04 -0.12453637321E+04 -0.83113415311E+02  0.16601022562E+04  0.50400001928E-02 0. -1.
       -1    1    3    3    0  502 -0.10945779260E+04  0.12453637321E+04 -0.89121859298E+03  0.18823661285E+04  0.50400001928E-02 0.  1.
</event>
<event>
 5   0  0.1948507E-06  0.3402985E+04  0.7818609E-02  0.8137174E-01
       -2   -1    0    0    0  501  0.00000000000E+00  0.00000000000E+00  0.13720505499E+04  0.13720505499E+04  0.25500000920E-02 0. -1.
        2   -1    0    0  501    0  0.00000000000E+00  0.00000000000E+00 -0.21100369295E+04  0.21100369295E+04  0.25500000920E-02 0.  1.
    10030    2    1    2    0    0  0.00000000000E+00  0.00000000000E+00 -0.73798637957E+03  0.34820874794E+04  0.34029853537E+04 0.  0.
        1    1    3    3  502    0  0.45498320698E+03  0.15225780268E+04  0.25327414582E+03  0.16091616946E+04  0.50400001928E-02 0.  1.
       -1    1    3    3    0  502 -0.45498320698E+03 -0.15225780268E+04 -0.99126052539E+03  0.18729257848E+04  0.50400001928E-02 0. -1.
</event>
<event>
 5   0  0.6218695E-07  0.3422605E+04  0.7818609E-02  0.8132381E-01
       -1   -1    0    0    0  501  0.00000000000E+00  0.00000000000E+00  0.30509910291E+04  0.30509910291E+04  0.50400001928E-02 0. -1.
        1   -1    0    0  501    0  0.00000000000E+00  0.00000000000E+00 -0.95987043256E+03  0.95987043257E+03  0.50400001928E-02 0.  1.
    10030    2    1    2    0    0  0.00000000000E+00  0.00000000000E+00  0.20911205965E+04  0.40108614617E+04  0.34226049020E+04 0.  0.
        2    1    3    3  502    0 -0.14109926894E+04  0.70063887224E+02  0.21773422606E+04  0.25955016158E+04  0.25500000920E-02 0. -1.
       -2    1    3    3    0  502  0.14109926894E+04 -0.70063887224E+02 -0.86221664031E+02  0.14153598459E+04  0.25500000920E-02 0.  1.
</event>
<event>
 5   0  0.6218695E-07  0.3393694E+04  0.7818609E-02  0.8139456E-01
       -1   -1    0    0    0  501  0.00000000000E+00  0.00000000000E+00  0.18948013458E+04  0.18948013458E+04  0.50400001928E-02 0. -1.
        1   -1    0    0  501    0  0.00000000000E+00  0.00000000000E+00 -0.15195735878E+04  0.15195735878E+04  0.50400001928E-02 0.  1.
    10030    2    1    2    0    0  0.00000000000E+00  0.00000000000E+00  0.37522775804E+03  0.34143749336E+04  0.33936941991E+04 0.  0.
        2    1    3    3  502    0 -0.10051402897E+04 -0.13427669579E+04 -0.70777929027E+02  0.16787911188E+04  0.25500000920E-02 0.  1.
       -2    1    3    3    0  502  0.10051402897E+04  0.13427669579E+04  0.44600568706E+03  0.17355838148E+04  0.25500000920E-02 0. -1.
</event>
<event>
 5   0  0.1339844E-06  0.3410367E+04  0.7818609E-02  0.8135367E-01
        2   -1    0    0  501    0  0.00000000000E+00  0.00000000000E+00  0.19499118408E+04  0.19499118408E+04  0.25500000920E-02 0. -1.
       -2   -1    0    0    0  501  0.00000000000E+00  0.00000000000E+00 -0.14911702217E+04  0.14911702217E+04  0.25500000920E-02 0.  1.
    10030    2    1    2    0    0  0.00000000000E+00  0.00000000000E+00  0.45874161912E+03  0.34410820625E+04  0.34103668259E+04 0.  0.
        3    1    3    3  502    0  0.93932393934E+02 -0.31126128022E+03  0.19183473909E+04  0.19457038834E+04  0.10100000352E+00 0. -1.
       -3    1    3    3    0  502 -0.93932393934E+02  0.31126128022E+03 -0.14596057718E+04  0.14953781791E+04  0.10100000352E+00 0.  1.
</event>
<event>
 5   0  0.1339844E-06  0.3540802E+04  0.7818609E-02  0.8104188E-01
        2   -1    0    0  501    0  0.00000000000E+00  0.00000000000E+00  0.20738407278E+04  0.20738407278E+04  0.25500000920E-02 0. -1.
       -2   -1    0    0    0  501  0.00000000000E+00  0.00000000000E+00 -0.15113601861E+04  0.15113601861E+04  0.25500000920E-02 0.  1.
    10030    2    1    2    0    0  0.00000000000E+00  0.00000000000E+00  0.56248054172E+03  0.35852009139E+04  0.35408023431E+04 0.  0.
        3    1    3    3  502    0  0.15432530731E+04 -0.81733618799E+02  0.11557891752E+04  0.19298080370E+04  0.10100000352E+00 0. -1.
       -3    1    3    3    0  502 -0.15432530731E+04  0.81733618799E+02 -0.59330863349E+03  0.16553928769E+04  0.10100000352E+00 0.  1.
</event>
<event>
 5   0  0.6134625E-07  0.3076923E+04  0.7818609E-02  0.8222100E-01
        1   -1    0    0  501    0  0.00000000000E+00  0.00000000000E+00  0.17894917116E+04  0.17894917116E+04  0.50400001928E-02 0.  1.
       -1   -1    0    0    0  501  0.00000000000E+00  0.00000000000E+00 -0.13226454666E+04  0.13226454666E+04  0.50400001928E-02 0. -1.
    10030    2    1    2    0    0  0.00000000000E+00  0.00000000000E+00  0.46684624502E+03  0.31121371782E+04  0.30769225533E+04 0.  0.
        5    1    3    3  502    0  0.42043622392E+03 -0.13681724583E+04 -0.33710570393E+03  0.14704845595E+04  0.46999998093E+01 0. -1.
       -5    1    3    3    0  502 -0.42043622392E+03  0.13681724583E+04  0.80395194895E+03  0.16416526187E+04  0.46999998093E+01 0.  1.
</event>
<event>
 5   0  0.6134625E-07  0.2737271E+04  0.7818609E-02  0.8323012E-01
        1   -1    0    0  501    0  0.00000000000E+00  0.00000000000E+00  0.21136416688E+04  0.21136416688E+04  0.50400001928E-02 0. -1.
       -1   -1    0    0    0  501  0.00000000000E+00  0.00000000000E+00 -0.88622542328E+03  0.88622542329E+03  0.50400001928E-02 0.  1.
    10030    2    1    2    0    0  0.00000000000E+00  0.00000000000E+00  0.12274162456E+04  0.29998670921E+04  0.27372708910E+04 0.  0.
        5    1    3    3  502    0 -0.30513865106E+03 -0.11438704649E+04  0.13663134550E+04  0.18078671921E+04  0.46999998093E+01 0. -1.
       -5    1    3    3    0  502  0.30513865106E+03  0.11438704649E+04 -0.13889720948E+03  0.11919999000E+04  0.46999998093E+01 0.  1.
</event>
<event>
 5   0  0.1339844E-06  0.3389579E+04  0.7818609E-02  0.8140469E-01
       -2   -1    0    0    0  501  0.00000000000E+00  0.00000000000E+00  0.16175338645E+04  0.16175338645E+04  0.25500000920E-02 0.  1.
        2   -1    0    0  501    0  0.00000000000E+00  0.00000000000E+00 -0.17757346576E+04  0.17757346576E+04  0.25500000920E-02 0. -1.
    10030    2    1    2    0    0  0.00000000000E+00  0.00000000000E+00 -0.15820079307E+03  0.33932685221E+04  0.33895787013E+04 0.  0.
        3    1    3    3  502    0  0.11775367447E+04  0.57196063677E+03  0.99844447876E+03  0.16463970185E+04  0.10100000352E+00 0.  1.
       -3    1    3    3    0  502 -0.11775367447E+04 -0.57196063677E+03 -0.11566452718E+04  0.17468715036E+04  0.10100000352E+00 0. -1.
</event>
<event>
 5   0  0.1948507E-06  0.3047087E+04  0.7818609E-02  0.8230411E-01
       -2   -1    0    0    0  501  0.00000000000E+00  0.00000000000E+00  0.86054033466E+03  0.86054033467E+03  0.25500000920E-02 0. -1.
        2   -1    0    0  501    0  0.00000000000E+00  0.00000000000E+00 -0.26973572556E+04  0.26973572556E+04  0.25500000920E-02 0.  1.
    10030    2    1    2    0    0  0.00000000000E+00  0.00000000000E+00 -0.18368169209E+04  0.35578975902E+04  0.30470869469E+04 0.  0.
        1    1    3    3  502    0 -0.13239590071E+04  0.54095658406E+03 -0.30533322101E+03  0.14624396925E+04  0.50400001928E-02 0. -1.
       -1    1    3    3    0  502  0.13239590071E+04 -0.54095658406E+03 -0.15314836999E+04  0.20954578978E+04  0.50400001928E-02 0.  1.
</event>
<event>
 5   0  0.6146388E-07  0.3376279E+04  0.7818609E-02  0.8143753E-01
       -1   -1    0    0    0  501  0.00000000000E+00  0.00000000000E+00  0.15895427386E+04  0.15895427386E+04  0.50400001928E-02 0. -1.
        1   -1    0    0  501    0  0.00000000000E+00  0.00000000000E+00 -0.17928519432E+04  0.17928519432E+04  0.50400001928E-02 0.  1.
    10030    2    1    2    0    0  0.00000000000E+00  0.00000000000E+00 -0.20330920460E+03  0.33823946818E+04  0.33762788912E+04 0.  0.
        4    1    3    3  502    0  0.93206360905E+03  0.12900177018E+04 -0.66563521177E+03  0.17250971249E+04  0.12699999809E+01 0.  1.
       -4    1    3    3    0  502 -0.93206360905E+03 -0.12900177018E+04  0.46232600716E+03  0.16572975569E+04  0.12699999809E+01 0. -1.
</event>
<event>
 5   0  0.6134625E-07  0.3331827E+04  0.7818609E-02  0.8154844E-01
        3   -1    0    0  501    0  0.00000000000E+00  0.00000000000E+00  0.19396923152E+04  0.19396923179E+04  0.10100000352E+00 0. -1.
       -3   -1    0    0    0  501  0.00000000000E+00  0.00000000000E+00 -0.14307771418E+04  0.14307771454E+04  0.10100000352E+00 0.  1.
    10030    2    1    2    0    0  0.00000000000E+00  0.00000000000E+00  0.50891517345E+03  0.33704694632E+04  0.33318267885E+04 0.  0.
        4    1    3    3  502    0  0.37989630296E+03 -0.14244377478E+04 -0.53037674163E+03  0.15667307360E+04  0.12699999809E+01 0.  1.
       -4    1    3    3    0  502 -0.37989630296E+03  0.14244377478E+04  0.10392919151E+04  0.18037387272E+04  0.12699999809E+01 0. -1.
</event>
<event>
 5   0  0.6134625E-07  0.3402608E+04  0.7818609E-02  0.8137267E-01
       -1   -1    0    0    0  501  0.00000000000E+00  0.00000000000E+00  0.12536741825E+04  0.12536741825E+04  0.50400001928E-02 0.  1.
        1   -1    0    0  501    0  0.00000000000E+00  0.00000000000E+00 -0.23087620736E+04  0.23087620736E+04  0.50400001928E-02 0. -1.
    10030    2    1    2    0    0  0.00000000000E+00  0.00000000000E+00 -0.10550878911E+04  0.35624362561E+04  0.34026080616E+04 0.  0.
        5    1    3    3  502    0  0.80151584483E+03 -0.10763604396E+04  0.56724760429E+03  0.14569733628E+04  0.46999998093E+01 0.  1.
       -5    1    3    3    0  502 -0.80151584483E+03  0.10763604396E+04 -0.16223354954E+04  0.21054628933E+04  0.46999998093E+01 0. -1.
</event>
<event>
 5   0  0.1911477E-06  0.3154850E+04  0.7818609E-02  0.8200844E-01
        2   -1    0    0  501    0  0.00000000000E+00  0.00000000000E+00  0.14885631995E+04  0.14885631995E+04  0.25500000920E-02 0. -1.
       -2   -1    0    0    0  501  0.00000000000E+00  0.00000000000E+00 -0.16715915656E+04  0.16715915656E+04  0.25500000920E-02 0.  1.
    10030    2    1    2    0    0  0.00000000000E+00  0.00000000000E+00 -0.18302836618E+03  0.31601547651E+04  0.31548500371E+04 0.  0.
        5    1    3    3  502    0 -0.11151593875E+04  0.67794199333E+03  0.79601277418E+03  0.15286740112E+04  0.46999998093E+01 0. -1.
       -5    1    3    3    0  502  0.11151593875E+04 -0.67794199333E+03 -0.97904114035E+03  0.16314807539E+04  0.46999998093E+01 0.  1.
</event>
<event>
 5   0  0.1797075E-06  0.3442470E+04  0.7818609E-02  0.8127561E-01
       -2   -1    0    0    0  501  0.00000000000E+00  0.00000000000E+00  0.21531830994E+04  0.21531830994E+04  0.25500000920E-02 0.  1.
        2   -1    0    0  501    0  0.00000000000E+00  0.00000000000E+00 -0.13759397256E+04  0.13759397256E+04  0.25500000920E-02 0. -1.
    10030    2    1    2    0    0  0.00000000000E+00  0.00000000000E+00  0.77724337381E+03  0.35291228251E+04  0.34424701382E+04 0.  0.
        2    1    3    3  502    0 -0.12899991180E+04  0.61457414481E+03  0.13723865068E+04  0.19812228113E+04  0.25500000920E-02 0.  1.
       -2    1    3    3    0  502  0.12899991180E+04 -0.61457414481E+03 -0.59514313296E+03  0.15479000138E+04  0.25500000920E-02 0. -1.
</event>
<event>
 5   0  0.1339844E-06  0.3391810E+04  0.7818609E-02  0.8139919E-01
        2   -1    0    0  501    0  0.00000000000E+00  0.00000000000E+00  0.11568015890E+04  0.11568015890E+04  0.25500000920E-02 0.  1.
       -2   -1    0    0    0  501  0.00000000000E+00  0.00000000000E+00 -0.24862469934E+04  0.24862469934E+04  0.25500000920E-02 0. -1.
    10030    2    1    2    0    0  0.00000000000E+00  0.00000000000E+00 -0.13294454044E+04  0.36430485824E+04  0.33918104149E+04 0.  0.
        3    1    3    3  502    0  0.40939076205E+03 -0.15922266393E+04 -0.21758355604E+03  0.16583513141E+04  0.10100000352E+00 0. -1.
       -3    1    3    3    0  502 -0.40939076205E+03  0.15922266393E+04 -0.11118618483E+04  0.19846972683E+04  0.10100000352E+00 0.  1.
</event>
<event>
 5   0  0.6146388E-07  0.3420855E+04  0.7818609E-02  0.8132807E-01
       -1   -1    0    0    0  501  0.00000000000E+00  0.00000000000E+00  0.15964025048E+04  0.15964025048E+04  0.50400001928E-02 0. -1.
        1   -1    0    0  501    0  0.00000000000E+00  0.00000000000E+00 -0.18325964007E+04  0.18325964007E+04  0.50400001928E-02 0.  1.
    10030    2    1    2    0    0  0.00000000000E+00  0.00000000000E+00 -0.23619389591E+03  0.34289989055E+04  0.34208545624E+04 0.  0.
        4    1    3    3  502    0 -0.80479584786E+03  0.14391392981E+04 -0.57386792634E+03  0.17458935494E+04  0.12699999809E+01 0. -1.
       -4    1    3    3    0  502  0.80479584786E+03 -0.14391392981E+04  0.33767403042E+03  0.16831053561E+04  0.12699999809E+01 0.  1.
</event>
<event>
 5   0  0.1339844E-06  0.3189084E+04  0.7818609E-02  0.8191706E-01
        2   -1    0    0  501    0  0.00000000000E+00  0.00000000000E+00  0.23508013378E+04  0.23508013378E+04  0.25500000920E-02 0. -1.
       -2   -1    0    0    0  501  0.00000000000E+00  0.00000000000E+00 -0.10815733459E+04  0.10815733459E+04  0.25500000920E-02 0.  1.
    10030    2    1    2    0    0  0.00000000000E+00  0.00000000000E+00  0.12692279919E+04  0.34323746837E+04  0.31890839239E+04 0.  0.
        3    1    3    3  502    0 -0.15689090814E+04 -0.86422598716E+02  0.34258556476E+03  0.16082006873E+04  0.10100000352E+00 0.  1.
       -3    1    3    3    0  502  0.15689090814E+04  0.86422598716E+02  0.92664242716E+03  0.18241739964E+04  0.10100000352E+00 0. -1.
</event>
<event>
 5   0  0.1911477E-06  0.3404313E+04  0.7818609E-02  0.8136849E-01
       -2   -1    0    0    0  501  0.00000000000E+00  0.00000000000E+00  0.95784800520E+03  0.95784800520E+03  0.25500000920E-02 0. -1.
        2   -1    0    0  501    0  0.00000000000E+00  0.00000000000E+00 -0.30248400028E+04  0.30248400028E+04  0.25500000920E-02 0.  1.
    10030    2    1    2    0    0  0.00000000000E+00  0.00000000000E+00 -0.20669919976E+04  0.39826880080E+04  0.34043131247E+04 0.  0.
        5    1    3    3  502    0 -0.51075448652E+02 -0.16161123252E+04 -0.41126251589E+03  0.16684084320E+04  0.46999998093E+01 0. -1.
       -5    1    3    3    0  502  0.51075448652E+02  0.16161123252E+04 -0.16557294817E+04  0.23142795760E+04  0.46999998093E+01 0.  1.
</event>
<event>
 5   0  0.6146388E-07  0.3396388E+04  0.7818609E-02  0.8138793E-01
       -1   -1    0    0    0  501  0.00000000000E+00  0.00000000000E+00  0.16353108527E+04  0.16353108527E+04  0.50400001928E-02 0.  1.
        1   -1    0    0  501    0  0.00000000000E+00  0.00000000000E+00 -0.17634950849E+04  0.17634950849E+04  0.50400001928E-02 0. -1.
    10030    2    1    2    0    0  0.00000000000E+00  0.00000000000E+00 -0.12818423222E+03  0.33988059376E+04  0.33963878760E+04 0.  0.
        4    1    3    3  502    0 -0.11817190252E+04  0.44298079426E+03  0.10730131351E+04  0.16565176243E+04  0.12699999809E+01 0.  1.
       -4    1    3    3    0  502  0.11817190252E+04 -0.44298079426E+03 -0.12011973673E+04  0.17422883133E+04  0.12699999809E+01 0. -1.
</event>
<event>
 5   0  0.1911477E-06  0.3537959E+04  0.7818609E-02  0.8104853E-01
        2   -1    0    0  501    0  0.00000000000E+00  0.00000000000E+00  0.22336490765E+04  0.22336490765E+04  0.25500000920E-02 0.  1.
       -2   -1    0    0    0  501  0.00000000000E+00  0.00000000000E+00 -0.14009760329E+04  0.14009760329E+04  0.25500000920E-02 0. -1.
    10030    2    1    2    0    0  0.00000000000E+00  0.00000000000E+00  0.83267304357E+03  0.36346251094E+04  0.35379591983E+04 0.  0.
        5    1    3    3  502    0 -0.40838793180E+03 -0.14965207435E+04  0.12898094058E+04  0.20174204896E+04  0.46999998093E+01 0.  1.
       -5    1    3    3    0  502  0.40838793180E+03  0.14965207435E+04 -0.45713636226E+03  0.16172046198E+04  0.46999998093E+01 0. -1.
</event>
<event>
 5   0  0.1880301E-06  0.3398352E+04  0.7818609E-02  0.8138311E-01
       -2   -1    0    0    0  501  0.00000000000E+00  0.00000000000E+00  0.12391824164E+04  0.12391824164E+04  0.25500000920E-02 0. -1.
        2   -1    0    0  501    0  0.00000000000E+00  0.00000000000E+00 -0.23299231864E+04  0.23299231864E+04  0.25500000920E-02 0.  1.
    10030    2    1    2    0    0  0.00000000000E+00  0.00000000000E+00 -0.10907407699E+04  0.35691056028E+04  0.33983524503E+04 0.  0.
        4    1    3    3  502    0  0.10405208102E+04  0.36341097255E+03  0.81284041561E+03  0.13694751715E+04  0.12699999809E+01 0. -1.
       -4    1    3    3    0  502 -0.10405208102E+04 -0.36341097255E+03 -0.19035811855E+04  0.21996304313E+04  0.12699999809E+01 0.  1.
</event>
<event>
 5   0  0.1880301E-06  0.3320261E+04  0.7818609E-02  0.8157759E-01
        2   -1    0    0  501    0  0.00000000000E+00  0.00000000000E+00  0.16145856545E+04  0.16145856545E+04  0.25500000920E-02 0.  1.
       -2   -1    0    0    0  501  0.00000000000E+00  0.00000000000E+00 -0.17069601839E+04  0.17069601839E+04  0.25500000920E-02 0. -1.
    10030    2    1    2    0    0  0.00000000000E+00  0.00000000000E+00 -0.92374529349E+02  0.33215458384E+04  0.33202610896E+04 0.  0.
        4    1    3    3  502    0  0.42137022234E+03 -0.16050706567E+04  0.10235328836E+01  0.16594599537E+04  0.12699999809E+01 0. -1.
       -4    1    3    3    0  502 -0.42137022234E+03  0.16050706567E+04 -0.93398062233E+02  0.16620858847E+04  0.12699999809E+01 0.  1.
</event>
<event>
 5   0  0.1797075E-06  0.3368705E+04  0.7818609E-02  0.8145630E-01
       -2   -1    0    0    0  501  0.00000000000E+00  0.00000000000E+00  0.13705186216E+04  0.13705186216E+04  0.25500000920E-02 0.  1.
        2   -1    0    0  501    0  0.00000000000E+00  0.00000000000E+00 -0.20700507068E+04  0.20700507068E+04  0.25500000920E-02 0. -1.
    10030    2    1    2    0    0  0.00000000000E+00  0.00000000000E+00 -0.69953208520E+03  0.34405693284E+04  0.33687048201E+04 0.  0.
        2    1    3    3  502    0  0.10853015185E+04  0.12842573846E+04 -0.24841900354E+03  0.16996789159E+04  0.25500000920E-02 0. -1.
       -2    1    3    3    0  502 -0.10853015185E+04 -0.12842573846E+04 -0.45111308166E+03  0.17408904125E+04  0.25500000920E-02 0.  1.
</event>
<event>
 5   0  0.1948507E-06  0.3400882E+04  0.7818609E-02  0.8137690E-01
       -2   -1    0    0    0  501  0.00000000000E+00  0.00000000000E+00  0.12953014570E+04  0.12953014570E+04  0.25500000920E-02 0.  1.
        2   -1    0    0  501    0  0.00000000000E+00  0.00000000000E+00 -0.22322987549E+04  0.22322987549E+04  0.25500000920E-02 0. -1.
    10030    2    1    2    0    0  0.00000000000E+00  0.00000000000E+00 -0.93699729789E+03  0.35276002119E+04  0.34008821383E+04 0.  0.
        1    1    3    3  502    0 -0.67165276017E+03  0.86849834621E+03  0.87838023547E+03  0.14060436144E+04  0.50400001928E-02 0.  1.
       -1    1    3    3    0  502  0.67165276017E+03 -0.86849834621E+03 -0.18153775334E+04  0.21215565975E+04  0.50400001928E-02 0. -1.
</event>
<event>
 5   0  0.1880301E-06  0.2907593E+04  0.7818609E-02  0.8270622E-01
       -2   -1    0    0    0  501  0.00000000000E+00  0.00000000000E+00  0.13416703503E+04  0.13416703503E+04  0.25500000920E-02 0. -1.
        2   -1    0    0  501    0  0.00000000000E+00  0.00000000000E+00 -0.15752936723E+04  0.15752936723E+04  0.25500000920E-02 0.  1.
    10030    2    1    2    0    0  0.00000000000E+00  0.00000000000E+00 -0.23362332198E+03  0.29169640226E+04  0.29075933781E+04 0.  0.
        4    1    3    3  502    0  0.55697051411E+03  0.13345958515E+04 -0.26615700381E+03  0.14704432679E+04  0.12699999809E+01 0. -1.
       -4    1    3    3    0  502 -0.55697051411E+03 -0.13345958515E+04  0.32533681829E+02  0.14465207547E+04  0.12699999809E+01 0.  1.
</event>
<event>
 5   0  0.1339844E-06  0.3392797E+04  0.7818609E-02  0.8139676E-01
        2   -1    0    0  501    0  0.00000000000E+00  0.00000000000E+00  0.18185313422E+04  0.18185313422E+04  0.25500000920E-02 0.  1.
       -2   -1    0    0    0  501  0.00000000000E+00  0.00000000000E+00 -0.15824683323E+04  0.15824683323E+04  0.25500000920E-02 0. -1.
    10030    2    1    2    0    0  0.00000000000E+00  0.00000000000E+00  0.23606300990E+03  0.34009996745E+04  0.33927972296E+04 0.  0.
        3    1    3    3  502    0 -0.70645185714E+03  0.74077133912E+03 -0.12379960557E+04  0.16063781148E+04  0.10100000352E+00 0. -1.
       -3    1    3    3    0  502  0.70645185714E+03 -0.74077133912E+03  0.14740590657E+04  0.17946215597E+04  0.10100000352E+00 0.  1.
</event>
<event>
 5   0  0.6134625E-07  0.3802365E+04  0.7818609E-02  0.8045648E-01
       -3   -1    0    0    0  501  0.00000000000E+00  0.00000000000E+00  0.11847034988E+04  0.11847035031E+04  0.10100000352E+00 0. -1.
        3   -1    0    0  501    0  0.00000000000E+00  0.00000000000E+00 -0.30509699972E+04  0.30509699989E+04  0.10100000352E+00 0.  1.
    10030    2    1    2    0    0  0.00000000000E+00  0.00000000000E+00 -0.18662664984E+04  0.42356735019E+04  0.38023649709E+04 0.  0.
        2    1    3    3  502    0 -0.59462105772E+03  0.16597558740E+03  0.10699387603E+04  0.12352696259E+04  0.25500000920E-02 0. -1.
       -2    1    3    3    0  502  0.59462105772E+03 -0.16597558740E+03 -0.29362052587E+04  0.30004038760E+04  0.25500000920E-02 0.  1.
</event>
<event>
 5   0  0.6134625E-07  0.3402210E+04  0.7818609E-02  0.8137364E-01
       -1   -1    0    0    0  501  0.00000000000E+00  0.00000000000E+00  0.31016133286E+04  0.31016133286E+04  0.50400001928E-02 0.  1.
        1   -1    0    0  501    0  0.00000000000E+00  0.00000000000E+00 -0.93298486523E+03  0.93298486524E+03  0.50400001928E-02 0. -1.
    10030    2    1    2    0    0  0.00000000000E+00  0.00000000000E+00  0.21686284634E+04  0.40345981938E+04  0.34022100426E+04 0.  0.
        1    1    3    3  502    0 -0.11244345179E+04  0.11593654259E+04  0.17177063233E+04  0.23577523595E+04  0.50400001928E-02 0.  1.
       -1    1    3    3    0  502  0.11244345179E+04 -0.11593654259E+04  0.45092214007E+03  0.16768458343E+04  0.50400001928E-02 0. -1.
</event>
<event>
 5   0  0.6134625E-07  0.3333162E+04  0.7818609E-02  0.8154508E-01
        1   -1    0    0  501    0  0.00000000000E+00  0.00000000000E+00  0.15515338327E+04  0.15515338327E+04  0.50400001928E-02 0. -1.
       -1   -1    0    0    0  501  0.00000000000E+00  0.00000000000E+00 -0.17901591541E+04  0.17901591542E+04  0.50400001928E-02 0.  1.
    10030    2    1    2    0    0  0.00000000000E+00  0.00000000000E+00 -0.23862532141E+03  0.33416929869E+04  0.33331621585E+04 0.  0.
        1    1    3    3  502    0  0.70592096953E+03  0.14776484940E+04  0.19087053811E+03  0.16486967730E+04  0.50400001928E-02 0.  1.
       -1    1    3    3    0  502 -0.70592096953E+03 -0.14776484940E+04 -0.42949585952E+03  0.16929962139E+04  0.50400001928E-02 0. -1.
</event>
<event>
 5   0  0.6146388E-07  0.2902709E+04  0.7818609E-02  0.8272072E-01
        1   -1    0    0  501    0  0.00000000000E+00  0.00000000000E+00  0.10000752000E+04  0.10000752000E+04  0.50400001928E-02 0.  1.
       -1   -1    0    0    0  501  0.00000000000E+00  0.00000000000E+00 -0.21062714455E+04  0.21062714455E+04  0.50400001928E-02 0. -1.
    10030    2    1    2    0    0  0.00000000000E+00  0.00000000000E+00 -0.11061962455E+04  0.31063466455E+04  0.29027089673E+04 0.  0.
        4    1    3    3  502    0 -0.39400763256E+03 -0.71297308398E+03 -0.18385560207E+04  0.20109357243E+04  0.12699999809E+01 0. -1.
       -4    1    3    3    0  502  0.39400763256E+03  0.71297308398E+03  0.73235977528E+03  0.10954109212E+04  0.12699999809E+01 0.  1.
</event>
<event>
 5   0  0.6134625E-07  0.3580103E+04  0.7818609E-02  0.8095065E-01
       -1   -1    0    0    0  501  0.00000000000E+00  0.00000000000E+00  0.11031494815E+04  0.11031494815E+04  0.50400001928E-02 0. -1.
        1   -1    0    0  501    0  0.00000000000E+00  0.00000000000E+00 -0.29046685992E+04  0.29046685992E+04  0.50400001928E-02 0.  1.
    10030    2    1    2    0    0  0.00000000000E+00  0.00000000000E+00 -0.18015191177E+04  0.40078180807E+04  0.35801026014E+04 0.  0.
        1    1    3    3  502    0 -0.11766788492E+03  0.58454444413E+03 -0.27902268141E+04  0.28532268772E+04  0.50400001928E-02 0.  1.
       -1    1    3    3    0  502  0.11766788492E+03 -0.58454444413E+03  0.98870769642E+03  0.11545912035E+04  0.50400001928E-02 0. -1.
</event>
<event>
 5   0  0.1948507E-06  0.3435630E+04  0.7818609E-02  0.8129216E-01
        2   -1    0    0  501    0  0.00000000000E+00  0.00000000000E+00  0.17194404672E+04  0.17194404672E+04  0.25500000920E-02 0.  1.
       -2   -1    0    0    0  501  0.00000000000E+00  0.00000000000E+00 -0.17161914657E+04  0.17161914657E+04  0.25500000920E-02 0. -1.
    10030    2    1    2    0    0  0.00000000000E+00  0.00000000000E+00  0.32490015220E+01  0.34356319330E+04  0.34356303967E+04 0.  0.
        1    1    3    3  502    0 -0.45744458273E+03 -0.12082779089E+04 -0.11304970256E+04  0.17167453441E+04  0.50400001928E-02 0. -1.
       -1    1    3    3    0  502  0.45744458273E+03  0.12082779089E+04  0.11337460271E+04  0.17188865889E+04  0.50400001928E-02 0.  1.
</event>
<event>
 5   0  0.1880301E-06  0.3343097E+04  0.7818609E-02  0.8152015E-01
       -2   -1    0    0    0  501  0.00000000000E+00  0.00000000000E+00  0.14506123014E+04  0.14506123014E+04  0.25500000920E-02 0.  1.
        2   -1    0    0  501    0  0.00000000000E+00  0.00000000000E+00 -0.19261340527E+04  0.19261340527E+04  0.25500000920E-02 0. -1.
    10030    2    1    2    0    0  0.00000000000E+00  0.00000000000E+00 -0.47552175129E+03  0.33767463542E+04  0.33430966191E+04 0.  0.
        4    1    3    3  502    0 -0.12742979399E+04 -0.63566258866E+01 -0.13304054340E+04  0.18422420791E+04  0.12699999809E+01 0. -1.
       -4    1    3    3    0  502  0.12742979399E+04  0.63566258866E+01  0.85488368273E+03  0.15345042751E+04  0.12699999809E+01 0.  1.
</event>
<event>
 5   0  0.1797075E-06  0.3650768E+04  0.7818609E-02  0.8078961E-01
        2   -1    0    0  501    0  0.00000000000E+00  0.00000000000E+00  0.17318065619E+04  0.17318065619E+04  0.25500000920E-02 0. -1.
       -2   -1    0    0    0  501  0.00000000000E+00  0.00000000000E+00 -0.19240180833E+04  0.19240180833E+04  0.25500000920E-02 0.  1.
    10030    2    1    2    0    0  0.00000000000E+00  0.00000000000E+00 -0.19221152141E+03  0.36558246451E+04  0.36507682160E+04 0.  0.
        2    1    3    3  502    0 -0.36534080981E+03  0.11405825220E+04 -0.14755567114E+04  0.19004394243E+04  0.25500000920E-02 0.  1.
       -2    1    3    3    0  502  0.36534080981E+03 -0.11405825220E+04  0.12833451900E+04  0.17553852208E+04  0.25500000920E-02 0. -1.
</event>
<event>
 5   0  0.6134625E-07  0.3422296E+04  0.7818609E-02  0.8132456E-01
        1   -1    0    0  501    0  0.00000000000E+00  0.00000000000E+00  0.12407021634E+04  0.12407021635E+04  0.50400001928E-02 0. -1.
       -1   -1    0    0    0  501  0.00000000000E+00  0.00000000000E+00 -0.23599760518E+04  0.23599760518E+04  0.50400001928E-02 0.  1.
    10030    2    1    2    0    0  0.00000000000E+00  0.00000000000E+00 -0.11192738883E+04  0.36006782152E+04  0.34222959505E+04 0.  0.
        5    1    3    3  502    0 -0.47732195157E+02  0.16708819809E+04 -0.17466847365E+03  0.16806713308E+04  0.46999998093E+01 0.  1.
       -5    1    3    3    0  502  0.47732195157E+02 -0.16708819809E+04 -0.94460541469E+03  0.19200068844E+04  0.46999998093E+01 0. -1.
</event>
<event>
 5   0  0.6134625E-07  0.3356880E+04  0.7818609E-02  0.8148571E-01
        1   -1    0    0  501    0  0.00000000000E+00  0.00000000000E+00  0.16687868672E+04  0.16687868672E+04  0.50400001928E-02 0. -1.
       -1   -1    0    0    0  501  0.00000000000E+00  0.00000000000E+00 -0.16881491777E+04  0.16881491778E+04  0.50400001928E-02 0.  1.
    10030    2    1    2    0    0  0.00000000000E+00  0.00000000000E+00 -0.19362310561E+02  0.33569360449E+04  0.33568802050E+04 0.  0.
        3    1    3    3  502    0  0.44470951850E+01 -0.82627450165E+02 -0.16861081869E+04  0.16881374056E+04  0.10100000352E+00 0.  1.
       -3    1    3    3    0  502 -0.44470951850E+01  0.82627450165E+02  0.16667458763E+04  0.16687986393E+04  0.10100000352E+00 0. -1.
</event>
<event>
 5   0  0.1948507E-06  0.3421744E+04  0.7818609E-02  0.8132590E-01
        2   -1    0    0  501    0  0.00000000000E+00  0.00000000000E+00  0.11366100372E+04  0.11366100372E+04  0.25500000920E-02 0.  1.
       -2   -1    0    0    0  501  0.00000000000E+00  0.00000000000E+00 -0.25752739531E+04  0.25752739531E+04  0.25500000920E-02 0. -1.
    10030    2    1    2    0    0  0.00000000000E+00  0.00000000000E+00 -0.14386639159E+04  0.37118839904E+04  0.34217435461E+04 0.  0.
        1    1    3    3  502    0  0.56677006179E+03  0.51709422525E+03  0.93953900539E+03  0.12129914606E+04  0.50400001928E-02 0.  1.
       -1    1    3    3    0  502 -0.56677006179E+03 -0.51709422525E+03 -0.23782029213E+04  0.24988925298E+04  0.50400001928E-02 0. -1.
</event>
<event>
 5   0  0.6146388E-07  0.3442965E+04  0.7818609E-02  0.8127441E-01
       -1   -1    0    0    0  501  0.00000000000E+00  0.00000000000E+00  0.14209503521E+04  0.14209503522E+04  0.50400001928E-02 0. -1.
        1   -1    0    0  501    0  0.00000000000E+00  0.00000000000E+00 -0.20855780271E+04  0.20855780271E+04  0.50400001928E-02 0.  1.
    10030    2    1    2    0    0  0.00000000000E+00  0.00000000000E+00 -0.66462767492E+03  0.35065283792E+04  0.34429654846E+04 0.  0.
        4    1    3    3  502    0  0.13067565004E+04  0.10596638549E+04 -0.70373995622E+03  0.18236643264E+04  0.12699999809E+01 0.  1.
       -4    1    3    3    0  502 -0.13067565004E+04 -0.10596638549E+04  0.39112281293E+02  0.16828640528E+04  0.12699999809E+01 0. -1.
</event>
<event>
 5   0  0.6134625E-07  0.3262818E+04  0.7818609E-02  0.8172421E-01
        1   -1    0    0  501    0  0.00000000000E+00  0.00000000000E+00  0.21821226164E+04  0.21821226164E+04  0.50400001928E-02 0.  1.
       -1   -1    0    0    0  501  0.00000000000E+00  0.00000000000E+00 -0.12196817825E+04  0.12196817825E+04  0.50400001928E-02 0. -1.
    10030    2    1    2    0    0  0.00000000000E+00  0.00000000000E+00  0.96244083385E+03  0.34018043989E+04  0.32628179247E+04 0.  0.
        1    1    3    3  502    0  0.15227057925E+04  0.16853963426E+03 -0.10343085675E+03  0.15354922601E+04  0.50400001928E-02 0. -1.
       -1    1    3    3    0  502 -0.15227057925E+04 -0.16853963426E+03  0.10658716906E+04  0.18663121388E+04  0.50400001928E-02 0.  1.
</event>
<event>
 5   0  0.6146388E-07  0.3340448E+04  0.7818609E-02  0.8152679E-01
        1   -1    0    0  501    0  0.00000000000E+00  0.00000000000E+00  0.14358938657E+04  0.14358938657E+04  0.50400001928E-02 0.  1.
       -1   -1    0    0    0  501  0.00000000000E+00  0.00000000000E+00 -0.19427958505E+04  0.19427958505E+04  0.50400001928E-02 0. -1.
    10030    2    1    2    0    0  0.00000000000E+00  0.00000000000E+00 -0.50690198486E+03  0.33786897162E+04  0.33404482598E+04 0.  0.
        4    1    3    3  502    0 -0.50589942524E+03 -0.95676892694E+03 -0.15401408744E+04  0.18823858621E+04  0.12699999809E+01 0. -1.
       -4    1    3    3    0  502  0.50589942524E+03  0.95676892694E+03  0.10332388896E+04  0.14963038541E+04  0.12699999809E+01 0.  1.
</event>
<event>
 5   0  0.6134625E-07  0.3367235E+04  0.7818609E-02  0.8145995E-01
        1   -1    0    0  501    0  0.00000000000E+00  0.00000000000E+00  0.15636498616E+04  0.15636498616E+04  0.50400001928E-02 0.  1.
       -1   -1    0    0    0  501  0.00000000000E+00  0.00000000000E+00 -0.18127897989E+04  0.18127897989E+04  0.50400001928E-02 0. -1.
    10030    2    1    2    0    0  0.00000000000E+00  0.00000000000E+00 -0.24913993730E+03  0.33764396605E+04  0.33672353753E+04 0.  0.
        5    1    3    3  502    0  0.58905793445E+03 -0.10357187577E+04 -0.13172934536E+04  0.17762282308E+04  0.46999998093E+01 0. -1.
       -5    1    3    3    0  502 -0.58905793445E+03  0.10357187577E+04  0.10681535163E+04  0.16002114296E+04  0.46999998093E+01 0.  1.
</event>
<event>
 5   0  0.6134625E-07  0.2651609E+04  0.7818609E-02  0.8350879E-01
       -1   -1    0    0    0  501  0.00000000000E+00  0.00000000000E+00  0.11988617869E+04  0.11988617869E+04  0.50400001928E-02 0.  1.
        1   -1    0    0  501    0  0.00000000000E+00  0.00000000000E+00 -0.14661881409E+04  0.14661881409E+04  0.50400001928E-02 0. -1.
    10030    2    1    2    0    0  0.00000000000E+00  0.00000000000E+00 -0.26732635395E+03  0.26650499278E+04  0.26516085190E+04 0.  0.
        5    1    3    3  502    0 -0.10597421176E+04  0.79569234034E+03 -0.17329895777E+03  0.13365007576E+04  0.46999998093E+01 0.  1.
       -5    1    3    3    0  502  0.10597421176E+04 -0.79569234034E+03 -0.94027396178E+02  0.13285491702E+04  0.46999998093E+01 0. -1.
</event>
<event>
 5   0  0.6134625E-07  0.3390863E+04  0.7818609E-02  0.8140152E-01
        1   -1    0    0  501    0  0.00000000000E+00  0.00000000000E+00  0.12781423073E+04  0.12781423074E+04  0.50400001928E-02 0. -1.
       -1   -1    0    0    0  501  0.00000000000E+00  0.00000000000E+00 -0.22489582390E+04  0.22489582390E+04  0.50400001928E-02 0.  1.
    10030    2    1    2    0    0  0.00000000000E+00  0.00000000000E+00 -0.97081593164E+03  0.35271005464E+04  0.33908634138E+04 0.  0.
        3    1    3    3  502    0 -0.64687184044E+03 -0.13448800973E+04 -0.13223102914E+04  0.19939032501E+04  0.10100000352E+00 0.  1.
       -3    1    3    3    0  502  0.64687184044E+03  0.13448800973E+04  0.35149435971E+03  0.15331972962E+04  0.10100000352E+00 0. -1.
</event>
<event>
 5   0  0.1880301E-06  0.3398314E+04  0.7818609E-02  0.8138320E-01
       -2   -1    0    0    0  501  0.00000000000E+00  0.00000000000E+00  0.19758093075E+04  0.19758093075E+04  0.25500000920E-02 0. -1.
        2   -1    0    0  501    0  0.00000000000E+00  0.00000000000E+00 -0.14612411818E+04  0.14612411818E+04  0.25500000920E-02 0.  1.
    10030    2    1    2    0    0  0.00000000000E+00  0.00000000000E+00  0.51456812573E+03  0.34370504893E+04  0.33983136568E+04 0.  0.
        4    1    3    3  502    0  0.11924268952E+04 -0.10380752395E+04 -0.37242865350E+03  0.16242496170E+04  0.12699999809E+01 0.  1.
       -4    1    3    3    0  502 -0.11924268952E+04  0.10380752395E+04  0.88699677924E+03  0.18128008723E+04  0.12699999809E+01 0. -1.
</event>
<event>
 5   0  0.1948507E-06  0.3358033E+04  0.7818609E-02  0.8148284E-01
       -2   -1    0    0    0  501  0.00000000000E+00  0.00000000000E+00  0.18765253658E+04  0.18765253658E+04  0.25500000920E-02 0.  1.
        2   -1    0    0  501    0  0.00000000000E+00  0.00000000000E+00 -0.15022962943E+04  0.15022962943E+04  0.25500000920E-02 0. -1.
    10030    2    1    2    0    0  0.00000000000E+00  0.00000000000E+00  0.37422907151E+03  0.33788216601E+04  0.33580334144E+04 0.  0.
        1    1    3    3  502    0 -0.32723270181E+03  0.18774591159E+03  0.18333257968E+04  0.18717406993E+04  0.50400001928E-02 0.  1.
       -1    1    3    3    0  502  0.32723270181E+03 -0.18774591159E+03 -0.14590967253E+04  0.15070809607E+04  0.50400001928E-02 0. -1.
</event>
<event>
 5   0  0.6146388E-07  0.2806512E+04  0.7818609E-02  0.8301250E-01
        1   -1    0    0  501    0  0.00000000000E+00  0.00000000000E+00  0.24100595614E+04  0.24100595614E+04  0.50400001928E-02 0.  1.
       -1   -1    0    0    0  501  0.00000000000E+00  0.00000000000E+00 -0.81704498352E+03  0.81704498353E+03  0.50400001928E-02 0. -1.
    10030    2    1    2    0    0  0.00000000000E+00  0.00000000000E+00  0.15930145779E+04  0.32271045450E+04  0.28065117671E+04 0.  0.
        4    1    3    3  502    0  0.44635461446E+03 -0.49857329263E+03 -0.62175359616E+03  0.91344781854E+03  0.12699999809E+01 0. -1.
       -4    1    3    3    0  502 -0.44635461446E+03  0.49857329263E+03  0.22147681741E+04  0.23136567264E+04  0.12699999809E+01 0.  1.
</event>
<event>
 5   0  0.1911477E-06  0.2494739E+04  0.7818609E-02  0.8404862E-01
       -2   -1    0    0    0  501  0.00000000000E+00  0.00000000000E+00  0.81545637999E+03  0.81545638000E+03  0.25500000920E-02 0. -1.
        2   -1    0    0  501    0  0.00000000000E+00  0.00000000000E+00 -0.19080493614E+04  0.19080493614E+04  0.25500000920E-02 0.  1.
    10030    2    1    2    0    0  0.00000000000E+00  0.00000000000E+00 -0.10925929815E+04  0.27235057414E+04  0.24947392851E+04 0.  0.
        5    1    3    3  502    0  0.23375177576E+03 -0.70308643551E+03 -0.16417768706E+04  0.18012284173E+04  0.46999998093E+01 0.  1.
       -5    1    3    3    0  502 -0.23375177576E+03  0.70308643551E+03  0.54918388917E+03  0.92227732412E+03  0.46999998093E+01 0. -1.
</event>
<event>
 5   0  0.6218695E-07  0.3373747E+04  0.7818609E-02  0.8144380E-01
       -1   -1    0    0    0  501  0.00000000000E+00  0.00000000000E+00  0.14597399049E+04  0.14597399049E+04  0.50400001928E-02 0. -1.
        1   -1    0    0  501    0  0.00000000000E+00  0.00000000000E+00 -0.19493489032E+04  0.19493489032E+04  0.50400001928E-02 0.  1.
    10030    2    1    2    0    0  0.00000000000E+00  0.00000000000E+00 -0.48960899829E+03  0.34090888081E+04  0.33737471053E+04 0.  0.
        2    1    3    3  502    0 -0.10400568618E+04 -0.13767636454E+03  0.10899679810E+04  0.15128460783E+04  0.25500000920E-02 0. -1.
       -2    1    3    3    0  502  0.10400568618E+04  0.13767636454E+03 -0.15795769793E+04  0.18962427298E+04  0.25500000920E-02 0.  1.
</event>
<event>
 5   0  0.6146388E-07  0.3339771E+04  0.7818609E-02  0.8152849E-01
        1   -1    0    0  501    0  0.00000000000E+00  0.00000000000E+00  0.15946661374E+04  0.15946661374E+04  0.50400001928E-02 0.  1.
       -1   -1    0    0    0  501  0.00000000000E+00  0.00000000000E+00 -0.17486532737E+04  0.17486532737E+04  0.50400001928E-02 0. -1.
    10030    2    1    2    0    0  0.00000000000E+00  0.00000000000E+00 -0.15398713635E+03  0.33433194111E+04  0.33397713464E+04 0.  0.
        4    1    3    3  502    0 -0.14399485685E+04 -0.34397202032E+03  0.69632171212E+03  0.16360422276E+04  0.12699999809E+01 0.  1.
       -4    1    3    3    0  502  0.14399485685E+04  0.34397202032E+03 -0.85030884847E+03  0.17072771835E+04  0.12699999809E+01 0. -1.
</event>
<event>
 5   0  0.6134625E-07  0.3362207E+04  0.7818609E-02  0.8147245E-01
       -1   -1    0    0    0  501  0.00000000000E+00  0.00000000000E+00  0.98379766540E+03  0.98379766541E+03  0.50400001928E-02 0. -1.
        1   -1    0    0  501    0  0.00000000000E+00  0.00000000000E+00 -0.28726527535E+04  0.28726527535E+04  0.50400001928E-02 0.  1.
    10030    2    1    2    0    0  0.00000000000E+00  0.00000000000E+00 -0.18888550881E+04  0.38564504190E+04  0.33622070564E+04 0.  0.
        1    1    3    3  502    0 -0.15935401629E+04 -0.53536587561E+03 -0.95710699609E+03  0.19344354922E+04  0.50400001928E-02 0. -1.
       -1    1    3    3    0  502  0.15935401629E+04  0.53536587561E+03 -0.93174809205E+03  0.19220149267E+04  0.50400001928E-02 0.  1.
</event>
<event>
 5   0  0.6134625E-07  0.3386404E+04  0.7818609E-02  0.8141251E-01
        1   -1    0    0  501    0  0.00000000000E+00  0.00000000000E+00  0.17503680113E+04  0.17503680113E+04  0.50400001928E-02 0.  1.
       -1   -1    0    0    0  501  0.00000000000E+00  0.00000000000E+00 -0.16379034791E+04  0.16379034791E+04  0.50400001928E-02 0. -1.
    10030    2    1    2    0    0  0.00000000000E+00  0.00000000000E+00  0.11246453227E+03  0.33882714904E+04  0.33864044977E+04 0.  0.
        1    1    3    3  502    0 -0.12098756575E+04 -0.65996961019E+03  0.10404284068E+04  0.17268034812E+04  0.50400001928E-02 0.  1.
       -1    1    3    3    0  502  0.12098756575E+04  0.65996961019E+03 -0.92796387456E+03  0.16614680092E+04  0.50400001928E-02 0. -1.
</event>
<event>
 5   0  0.1339844E-06  0.3652893E+04  0.7818609E-02  0.8078482E-01
        2   -1    0    0  501    0  0.00000000000E+00  0.00000000000E+00  0.16334849069E+04  0.16334849069E+04  0.25500000920E-02 0. -1.
       -2   -1    0    0    0  501  0.00000000000E+00  0.00000000000E+00 -0.20422020002E+04  0.20422020002E+04  0.25500000920E-02 0.  1.
    10030    2    1    2    0    0  0.00000000000E+00  0.00000000000E+00 -0.40871709329E+03  0.36756869072E+04  0.36528926315E+04 0.  0.
        3    1    3    3  502    0 -0.17078474244E+04  0.33558277875E+03 -0.76148079060E+03  0.18997925232E+04  0.10100000352E+00 0. -1.
       -3    1    3    3    0  502  0.17078474244E+04 -0.33558277875E+03  0.35276369730E+03  0.17758943839E+04  0.10100000352E+00 0.  1.
</event>
<event>
 5   0  0.1948507E-06  0.3370930E+04  0.7818609E-02  0.8145078E-01
        2   -1    0    0  501    0  0.00000000000E+00  0.00000000000E+00  0.13153064636E+04  0.13153064636E+04  0.25500000920E-02 0. -1.
       -2   -1    0    0    0  501  0.00000000000E+00  0.00000000000E+00 -0.21597954877E+04  0.21597954877E+04  0.25500000920E-02 0.  1.
    10030    2    1    2    0    0  0.00000000000E+00  0.00000000000E+00 -0.84448902409E+03  0.34751019512E+04  0.33709304145E+04 0.  0.
        1    1    3    3  502    0  0.11686179155E+04  0.78597163468E+03  0.53231464236E+03  0.15055823197E+04  0.50400001928E-02 0. -1.
       -1    1    3    3    0  502 -0.11686179155E+04 -0.78597163468E+03 -0.13768036664E+04  0.19695196315E+04  0.50400001928E-02 0.  1.
</event>
<event>
 5   0  0.6146388E-07  0.3327981E+04  0.7818609E-02  0.8155812E-01
       -1   -1    0    0    0  501  0.00000000000E+00  0.00000000000E+00  0.88087695713E+03  0.88087695714E+03  0.50400001928E-02 0. -1.
        1   -1    0    0  501    0  0.00000000000E+00  0.00000000000E+00 -0.31433050627E+04  0.31433050627E+04  0.50400001928E-02 0.  1.
    10030    2    1    2    0    0  0.00000000000E+00  0.00000000000E+00 -0.22624281056E+04  0.40241820198E+04  0.33279813695E+04 0.  0.
        4    1    3    3  502    0 -0.13160987419E+04  0.69405204075E+03 -0.20320766972E+04  0.25185633703E+04  0.12699999809E+01 0.  1.
       -4    1    3    3    0  502  0.13160987419E+04 -0.69405204075E+03 -0.23035140837E+03  0.15056186496E+04  0.12699999809E+01 0. -1.
</event>
<event>
 5   0  0.6134625E-07  0.3195541E+04  0.7818609E-02  0.8189996E-01
       -1   -1    0    0    0  501  0.00000000000E+00  0.00000000000E+00  0.12366829659E+04  0.12366829659E+04  0.50400001928E-02 0. -1.
        1   -1    0    0  501    0  0.00000000000E+00  0.00000000000E+00 -0.20642881355E+04  0.20642881355E+04  0.50400001928E-02 0.  1.
    10030    2    1    2    0    0  0.00000000000E+00  0.00000000000E+00 -0.82760516960E+03  0.33009711013E+04  0.31955406264E+04 0.  0.
        3    1    3    3  502    0  0.93645990968E+03  0.67792333117E+03  0.72545933348E+03  0.13648547396E+04  0.10100000352E+00 0. -1.
       -3    1    3    3    0  502 -0.93645990968E+03 -0.67792333117E+03 -0.15530645031E+04  0.19361163618E+04  0.10100000352E+00 0.  1.
</event>
<event>
 5   0  0.1339844E-06  0.3397597E+04  0.7818609E-02  0.8138496E-01
       -2   -1    0    0    0  501  0.00000000000E+00  0.00000000000E+00  0.19042866894E+04  0.19042866894E+04  0.25500000920E-02 0. -1.
        2   -1    0    0  501    0  0.00000000000E+00  0.00000000000E+00 -0.15154846140E+04  0.15154846140E+04  0.25500000920E-02 0.  1.
    10030    2    1    2    0    0  0.00000000000E+00  0.00000000000E+00  0.38880207543E+03  0.34197713034E+04  0.33975974914E+04 0.  0.
        3    1    3    3  502    0  0.15331643961E+04  0.69825968472E+03 -0.25560120685E+02  0.16848777353E+04  0.10100000352E+00 0.  1.
       -3    1    3    3    0  502 -0.15331643961E+04 -0.69825968472E+03  0.41436219611E+03  0.17348935681E+04  0.10100000352E+00 0. -1.
</event>
<event>
 5   0  0.6134625E-07  0.3233344E+04  0.7818609E-02  0.8180066E-01
        1   -1    0    0  501    0  0.00000000000E+00  0.00000000000E+00  0.19746286552E+04  0.19746286552E+04  0.50400001928E-02 0.  1.
       -1   -1    0    0    0  501  0.00000000000E+00  0.00000000000E+00 -0.13236047527E+04  0.13236047527E+04  0.50400001928E-02 0. -1.
    10030    2    1    2    0    0  0.00000000000E+00  0.00000000000E+00  0.65102390251E+03  0.32982334078E+04  0.32333437013E+04 0.  0.
        3    1    3    3  502    0  0.22414782446E+03  0.72898714483E+03  0.17795891028E+04  0.19361306489E+04  0.10100000352E+00 0.  1.
       -3    1    3    3    0  502 -0.22414782446E+03 -0.72898714483E+03 -0.11285652003E+04  0.13621027590E+04  0.10100000352E+00 0. -1.
</event>
<event>
 5   0  0.6134625E-07  0.3452168E+04  0.7818609E-02  0.8125220E-01
       -1   -1    0    0    0  501  0.00000000000E+00  0.00000000000E+00  0.11479823853E+04  0.11479823853E+04  0.50400001928E-02 0.  1.
        1   -1    0    0  501    0  0.00000000000E+00  0.00000000000E+00 -0.25953066471E+04  0.25953066471E+04  0.50400001928E-02 0. -1.
    10030    2    1    2    0    0  0.00000000000E+00  0.00000000000E+00 -0.14473242619E+04  0.37432890324E+04  0.34521681971E+04 0.  0.
        1    1    3    3  502    0 -0.59946932917E+03 -0.33910281313E+03  0.99253167534E+03  0.12080866364E+04  0.50400001928E-02 0.  1.
       -1    1    3    3    0  502  0.59946932917E+03  0.33910281313E+03 -0.24398559372E+04  0.25352023960E+04  0.50400001928E-02 0. -1.
</event>
<event>
 5   0  0.1880301E-06  0.3383347E+04  0.7818609E-02  0.8142006E-01
       -2   -1    0    0    0  501  0.00000000000E+00  0.00000000000E+00  0.12759299709E+04  0.12759299709E+04  0.25500000920E-02 0.  1.
        2   -1    0    0  501    0  0.00000000000E+00  0.00000000000E+00 -0.22428812502E+04  0.22428812502E+04  0.25500000920E-02 0. -1.
    10030    2    1    2    0    0  0.00000000000E+00  0.00000000000E+00 -0.96695127928E+03  0.35188112210E+04  0.33833471050E+04 0.  0.
        4    1    3    3  502    0 -0.40570797571E+03 -0.97046763164E+03  0.89446798284E+03  0.13807537691E+04  0.12699999809E+01 0.  1.
       -4    1    3    3    0  502  0.40570797571E+03  0.97046763164E+03 -0.18614192621E+04  0.21380574520E+04  0.12699999809E+01 0. -1.
</event>
<event>
 5   0  0.1797075E-06  0.3339803E+04  0.7818609E-02  0.8152841E-01
       -2   -1    0    0    0  501  0.00000000000E+00  0.00000000000E+00  0.10697193477E+04  0.10697193477E+04  0.25500000920E-02 0. -1.
        2   -1    0    0  501    0  0.00000000000E+00  0.00000000000E+00 -0.26068249756E+04  0.26068249756E+04  0.25500000920E-02 0.  1.
    10030    2    1    2    0    0  0.00000000000E+00  0.00000000000E+00 -0.15371056279E+04  0.36765443234E+04  0.33398030556E+04 0.  0.
        2    1    3    3  502    0 -0.33814885539E+03  0.18784257501E+02 -0.25686227820E+04  0.25908532365E+04  0.25500000920E-02 0.  1.
       -2    1    3    3    0  502  0.33814885539E+03 -0.18784257501E+02  0.10315171542E+04  0.10856910868E+04  0.25500000920E-02 0. -1.
</event>
<event>
 5   0  0.1911477E-06  0.3449146E+04  0.7818609E-02  0.8125948E-01
        2   -1    0    0  501    0  0.00000000000E+00  0.00000000000E+00  0.20647094121E+04  0.20647094121E+04  0.25500000920E-02 0.  1.
       -2   -1    0    0    0  501  0.00000000000E+00  0.00000000000E+00 -0.14404703187E+04  0.14404703187E+04  0.25500000920E-02 0. -1.
    10030    2    1    2    0    0  0.00000000000E+00  0.00000000000E+00  0.62423909343E+03  0.35051797308E+04  0.34491463436E+04 0.  0.
        5    1    3    3  502    0 -0.61027249077E+03  0.15065974836E+04  0.89755290122E+03  0.18568499646E+04  0.46999998093E+01 0. -1.
       -5    1    3    3    0  502  0.61027249077E+03 -0.15065974836E+04 -0.27331380778E+03  0.16483297662E+04  0.46999998093E+01 0.  1.
</event>
<event>
 5   0  0.1797075E-06  0.3407556E+04  0.7818609E-02  0.8136054E-01
       -2   -1    0    0    0  501  0.00000000000E+00  0.00000000000E+00  0.13025374093E+04  0.13025374093E+04  0.25500000920E-02 0.  1.
        2   -1    0    0  501    0  0.00000000000E+00  0.00000000000E+00 -0.22286193453E+04  0.22286193453E+04  0.25500000920E-02 0. -1.
    10030    2    1    2    0    0  0.00000000000E+00  0.00000000000E+00 -0.92608193608E+03  0.35311567546E+04  0.34075563492E+04 0.  0.
        2    1    3    3  502    0 -0.23153485909E+03  0.48742165176E+03 -0.21377264353E+04  0.22047817510E+04  0.25500000920E-02 0. -1.
       -2    1    3    3    0  502  0.23153485909E+03 -0.48742165176E+03  0.12116444992E+04  0.13263750036E+04  0.25500000920E-02 0.  1.
</event>
<event>
 5   0  0.6218695E-07  0.3382429E+04  0.7818609E-02  0.8142232E-01
        1   -1    0    0  501    0  0.00000000000E+00  0.00000000000E+00  0.19967799301E+04  0.19967799301E+04  0.50400001928E-02 0. -1.
       -1   -1    0    0    0  501  0.00000000000E+00  0.00000000000E+00 -0.14324098028E+04  0.14324098028E+04  0.50400001928E-02 0.  1.
    10030    2    1    2    0    0  0.00000000000E+00  0.00000000000E+00  0.56437012739E+03  0.34291897329E+04  0.33824293908E+04 0.  0.
        2    1    3    3  502    0 -0.14994117464E+04  0.75401252122E+03  0.49348096843E+03  0.17493695818E+04  0.25500000920E-02 0. -1.
       -2    1    3    3    0  502  0.14994117464E+04 -0.75401252122E+03  0.70889158951E+02  0.16798201512E+04  0.25500000920E-02 0.  1.
</event>
<event>
 5   0  0.6134625E-07  0.3350261E+04  0.7818609E-02  0.8150223E-01
        1   -1    0    0  501    0  0.00000000000E+00  0.00000000000E+00  0.20818103157E+04  0.20818103157E+04  0.50400001928E-02 0. -1.
       -1   -1    0    0    0  501  0.00000000000E+00  0.00000000000E+00 -0.13478948447E+04  0.13478948447E+04  0.50400001928E-02 0.  1.
    10030    2    1    2    0    0  0.00000000000E+00  0.00000000000E+00  0.73391547098E+03  0.34297051604E+04  0.33502605225E+04 0.  0.
        5    1    3    3  502    0 -0.14548038774E+04  0.73803039793E+03  0.75663635099E+03  0.17982390963E+04  0.46999998093E+01 0.  1.
       -5    1    3    3    0  502  0.14548038774E+04 -0.73803039793E+03 -0.22720880005E+02  0.16314660641E+04  0.46999998093E+01 0. -1.
</event>
<event>
 5   0  0.6134625E-07  0.3415113E+04  0.7818609E-02  0.8134207E-01
       -1   -1    0    0    0  501  0.00000000000E+00  0.00000000000E+00  0.11839334873E+04  0.11839334873E+04  0.50400001928E-02 0.  1.
        1   -1    0    0  501    0  0.00000000000E+00  0.00000000000E+00 -0.24627638972E+04  0.24627638972E+04  0.50400001928E-02 0. -1.
    10030    2    1    2    0    0  0.00000000000E+00  0.00000000000E+00 -0.12788304099E+04  0.36466973846E+04  0.34151126771E+04 0.  0.
        1    1    3    3  502    0 -0.15270505179E+04 -0.49190674992E+03 -0.12637820965E+04  0.20423027989E+04  0.50400001928E-02 0. -1.
       -1    1    3    3    0  502  0.15270505179E+04  0.49190674992E+03 -0.15048313429E+02  0.16043945857E+04  0.50400001928E-02 0.  1.
</event>
<event>
 5   0  0.1797075E-06  0.3427721E+04  0.7818609E-02  0.8131136E-01
        2   -1    0    0  501    0  0.00000000000E+00  0.00000000000E+00  0.19316265749E+04  0.19316265749E+04  0.25500000920E-02 0. -1.
       -2   -1    0    0    0  501  0.00000000000E+00  0.00000000000E+00 -0.15206451816E+04  0.15206451816E+04  0.25500000920E-02 0.  1.
    10030    2    1    2    0    0  0.00000000000E+00  0.00000000000E+00  0.41098139326E+03  0.34522717565E+04  0.34277214844E+04 0.  0.
        2    1    3    3  502    0 -0.97103471991E+03  0.52885144599E+03 -0.11133637299E+04  0.15691306747E+04  0.25500000920E-02 0.  1.
       -2    1    3    3    0  502  0.97103471991E+03 -0.52885144599E+03  0.15243451232E+04  0.18831410818E+04  0.25500000920E-02 0. -1.
</event>
<event>
 5   0  0.1880301E-06  0.3284735E+04  0.7818609E-02  0.8166791E-01
        2   -1    0    0  501    0  0.00000000000E+00  0.00000000000E+00  0.23056638882E+04  0.23056638882E+04  0.25500000920E-02 0. -1.
       -2   -1    0    0    0  501  0.00000000000E+00  0.00000000000E+00 -0.11698888987E+04  0.11698888988E+04  0.25500000920E-02 0.  1.
    10030    2    1    2    0    0  0.00000000000E+00  0.00000000000E+00  0.11357749894E+04  0.34755527869E+04  0.32847347455E+04 0.  0.
        4    1    3    3  502    0  0.54362059586E+03  0.83139195226E+03  0.19517789028E+04  0.21900179060E+04  0.12699999809E+01 0.  1.
       -4    1    3    3    0  502 -0.54362059586E+03 -0.83139195226E+03 -0.81600391334E+03  0.12855348809E+04  0.12699999809E+01 0. -1.
</event>
<event>
 5   0  0.1948507E-06  0.3400477E+04  0.7818609E-02  0.8137789E-01
       -2   -1    0    0    0  501  0.00000000000E+00  0.00000000000E+00  0.12652921105E+04  0.12652921105E+04  0.25500000920E-02 0.  1.
        2   -1    0    0  501    0  0.00000000000E+00  0.00000000000E+00 -0.22846980781E+04  0.22846980781E+04  0.25500000920E-02 0. -1.
    10030    2    1    2    0    0  0.00000000000E+00  0.00000000000E+00 -0.10194059676E+04  0.35499901885E+04  0.34004767036E+04 0.  0.
        1    1    3    3  502    0 -0.21011369914E+01 -0.13852787867E+04  0.51944480430E+03  0.14794676869E+04  0.50400001928E-02 0.  1.
       -1    1    3    3    0  502  0.21011369914E+01  0.13852787867E+04 -0.15388507719E+04  0.20705225017E+04  0.50400001928E-02 0. -1.
</event>
<event>
 5   0  0.1948507E-06  0.3464314E+04  0.7818609E-02  0.8122300E-01
        2   -1    0    0  501    0  0.00000000000E+00  0.00000000000E+00  0.18797415109E+04  0.18797415109E+04  0.25500000920E-02 0.  1.
       -2   -1    0    0    0  501  0.00000000000E+00  0.00000000000E+00 -0.15961595843E+04  0.15961595843E+04  0.25500000920E-02 0. -1.
    10030    2    1    2    0    0  0.00000000000E+00  0.00000000000E+00  0.28358192661E+03  0.34759010951E+04  0.34643137436E+04 0.  0.
        1    1    3    3  502    0  0.52898222212E+02  0.15142455544E+04  0.98402082871E+03  0.18066640009E+04  0.50400001928E-02 0.  1.
       -1    1    3    3    0  502 -0.52898222212E+02 -0.15142455544E+04 -0.70043890210E+03  0.16692370942E+04  0.50400001928E-02 0. -1.
</event>
<event>
 5   0  0.1911477E-06  0.3022080E+04  0.7818609E-02  0.8237454E-01
       -2   -1    0    0    0  501  0.00000000000E+00  0.00000000000E+00  0.12933303303E+04  0.12933303303E+04  0.25500000920E-02 0. -1.
        2   -1    0    0  501    0  0.00000000000E+00  0.00000000000E+00 -0.17653968608E+04  0.17653968608E+04  0.25500000920E-02 0.  1.
    10030    2    1    2    0    0  0.00000000000E+00  0.00000000000E+00 -0.47206653040E+03  0.30587271911E+04  0.30220796185E+04 0.  0.
        5    1    3    3  502    0 -0.10039840310E+04 -0.51712038784E+02  0.90572501923E+03  0.13531511260E+04  0.46999998093E+01 0. -1.
       -5    1    3    3    0  502  0.10039840310E+04  0.51712038784E+02 -0.13777915496E+04  0.17055760651E+04  0.46999998093E+01 0.  1.
</event>
<event>
 5   0  0.1911477E-06  0.3317410E+04  0.7818609E-02  0.8158480E-01
        2   -1    0    0  501    0  0.00000000000E+00  0.00000000000E+00  0.19277331058E+04  0.19277331058E+04  0.25500000920E-02 0.  1.
       -2   -1    0    0    0  501  0.00000000000E+00  0.00000000000E+00 -0.14272214347E+04  0.14272214347E+04  0.25500000920E-02 0. -1.
    10030    2    1    2    0    0  0.00000000000E+00  0.00000000000E+00  0.50051167107E+03  0.33549545405E+04  0.33174098385E+04 0.  0.
        5    1    3    3  502    0 -0.10169880269E+04  0.99745254193E+03  0.11096399001E+04  0.18056851935E+04  0.46999998093E+01 0.  1.
       -5    1    3    3    0  502  0.10169880269E+04 -0.99745254193E+03 -0.60912822903E+03  0.15492693470E+04  0.46999998093E+01 0. -1.
</event>
<event>
 5   0  0.1948507E-06  0.2827326E+04  0.7818609E-02  0.8294835E-01
        2   -1    0    0  501    0  0.00000000000E+00  0.00000000000E+00  0.21073554761E+04  0.21073554761E+04  0.25500000920E-02 0. -1.
       -2   -1    0    0    0  501  0.00000000000E+00  0.00000000000E+00 -0.94831804501E+03  0.94831804502E+03  0.25500000920E-02 0.  1.
    10030    2    1    2    0    0  0.00000000000E+00  0.00000000000E+00  0.11590374311E+04  0.30556735211E+04  0.28273261045E+04 0.  0.
        1    1    3    3  502    0 -0.14114407347E+04 -0.54860848193E+02  0.51772993615E+03  0.15043998627E+04  0.50400001928E-02 0. -1.
       -1    1    3    3    0  502  0.14114407347E+04  0.54860848193E+02  0.64130749494E+03  0.15512736584E+04  0.50400001928E-02 0.  1.
</event>
<event>
 5   0  0.1911477E-06  0.3354738E+04  0.7818609E-02  0.8149105E-01
       -2   -1    0    0    0  501  0.00000000000E+00  0.00000000000E+00  0.22491102576E+04  0.22491102576E+04  0.25500000920E-02 0.  1.
        2   -1    0    0  501    0  0.00000000000E+00  0.00000000000E+00 -0.12509690716E+04  0.12509690716E+04  0.25500000920E-02 0. -1.
    10030    2    1    2    0    0  0.00000000000E+00  0.00000000000E+00  0.99814118594E+03  0.35000793292E+04  0.33547383629E+04 0.  0.
        5    1    3    3  502    0  0.10844099015E+04 -0.66415879911E+03 -0.64216264284E+03  0.14245864996E+04  0.46999998093E+01 0. -1.
       -5    1    3    3    0  502 -0.10844099015E+04  0.66415879911E+03  0.16403038288E+04  0.20754928296E+04  0.46999998093E+01 0.  1.
</event>
<event>
 5   0  0.1880301E-06  0.3400869E+04  0.7818609E-02  0.8137693E-01
        2   -1    0    0  501    0  0.00000000000E+00  0.00000000000E+00  0.16970304251E+04  0.16970304251E+04  0.25500000920E-02 0. -1.
       -2   -1    0    0    0  501  0.00000000000E+00  0.00000000000E+00 -0.17038449653E+04  0.17038449653E+04  0.25500000920E-02 0.  1.
    10030    2    1    2    0    0  0.00000000000E+00  0.00000000000E+00 -0.68145401238E+01  0.34008753904E+04  0.34008685630E+04 0.  0.
        4    1    3    3  502    0  0.90248857595E+03  0.13653883996E+04 -0.46460665791E+03  0.17013618284E+04  0.12699999809E+01 0.  1.
       -4    1    3    3    0  502 -0.90248857595E+03 -0.13653883996E+04  0.45779211779E+03  0.16995135620E+04  0.12699999809E+01 0. -1.
</event>
<event>
 5   0  0.6134625E-07  0.3539775E+04  0.7818609E-02  0.8104428E-01
        1   -1    0    0  501    0  0.00000000000E+00  0.00000000000E+00  0.26227179374E+04  0.26227179374E+04  0.50400001928E-02 0.  1.
       -1   -1    0    0    0  501  0.00000000000E+00  0.00000000000E+00 -0.11943724439E+04  0.11943724439E+04  0.50400001928E-02 0. -1.
    10030    2    1    2    0    0  0.00000000000E+00  0.00000000000E+00  0.14283454935E+04  0.38170903813E+04  0.35397751525E+04 0.  0.
        1    1    3    3  502    0 -0.78378699877E+03  0.95688193217E+03 -0.65092422014E+03  0.13977293844E+04  0.50400001928E-02 0.  1.
       -1    1    3    3    0  502  0.78378699877E+03 -0.95688193217E+03  0.20792697136E+04  0.24193609969E+04  0.50400001928E-02 0. -1.
</event>
<event>
 5   0  0.1339844E-06  0.3393902E+04  0.7818609E-02  0.8139405E-01
        2   -1    0    0  501    0  0.00000000000E+00  0.00000000000E+00  0.27459474660E+04  0.27459474660E+04  0.25500000920E-02 0.  1.
       -2   -1    0    0    0  501  0.00000000000E+00  0.00000000000E+00 -0.10486883949E+04  0.10486883949E+04  0.25500000920E-02 0. -1.
    10030    2    1    2    0    0  0.00000000000E+00  0.00000000000E+00  0.16972590712E+04  0.37946358609E+04  0.33939023206E+04 0.  0.
        3    1    3    3  502    0  0.90907849130E+03 -0.60742755616E+03 -0.60239318334E+03  0.12483066518E+04  0.10100000352E+00 0. -1.
       -3    1    3    3    0  502 -0.90907849130E+03  0.60742755616E+03  0.22996522545E+04  0.25463292091E+04  0.10100000352E+00 0.  1.
</event>
<event>
 5   0  0.1948507E-06  0.2803946E+04  0.7818609E-02  0.8302044E-01
        2   -1    0    0  501    0  0.00000000000E+00  0.00000000000E+00  0.22317603531E+04  0.22317603531E+04  0.25500000920E-02 0.  1.
       -2   -1    0    0    0  501  0.00000000000E+00  0.00000000000E+00 -0.88070747746E+03  0.88070747747E+03  0.25500000920E-02 0. -1.
    10030    2    1    2    0    0  0.00000000000E+00  0.00000000000E+00  0.13510528757E+04  0.31124678306E+04  0.28039458132E+04 0.  0.
        1    1    3    3  502    0  0.13517175918E+04 -0.18665415141E+03  0.31833115445E+03  0.14011834084E+04  0.50400001928E-02 0. -1.
       -1    1    3    3    0  502 -0.13517175918E+04  0.18665415141E+03  0.10327217212E+04  0.17112844222E+04  0.50400001928E-02 0.  1.
</event>
<event>
 5   0  0.6218695E-07  0.3478953E+04  0.7818609E-02  0.8118796E-01
        1   -1    0    0  501    0  0.00000000000E+00  0.00000000000E+00  0.12548093101E+04  0.12548093101E+04  0.50400001928E-02 0. -1.
       -1   -1    0    0    0  501  0.00000000000E+00  0.00000000000E+00 -0.24113454680E+04  0.24113454680E+04  0.50400001928E-02 0.  1.
    10030    2    1    2    0    0  0.00000000000E+00  0.00000000000E+00 -0.11565361579E+04  0.36661547782E+04  0.34789531433E+04 0.  0.
        2    1    3    3  502    0  0.99660667844E+03  0.14460816353E+03 -0.20729115238E+04  0.23045820832E+04  0.25500000920E-02 0.  1.
       -2    1    3    3    0  502 -0.99660667844E+03 -0.14460816353E+03  0.91637536593E+03  0.13615726950E+04  0.25500000920E-02 0. -1.
</event>
<event>
 5   0  0.1339844E-06  0.3332740E+04  0.7818609E-02  0.8154614E-01
        2   -1    0    0  501    0  0.00000000000E+00  0.00000000000E+00  0.21939973444E+04  0.21939973444E+04  0.25500000920E-02 0.  1.
       -2   -1    0    0    0  501  0.00000000000E+00  0.00000000000E+00 -0.12656302088E+04  0.12656302088E+04  0.25500000920E-02 0. -1.
    10030    2    1    2    0    0  0.00000000000E+00  0.00000000000E+00  0.92836713554E+03  0.34596275532E+04  0.33327402041E+04 0.  0.
        3    1    3    3  502    0  0.95161360154E+03 -0.80472701463E+03  0.16124796521E+04  0.20379510920E+04  0.10100000352E+00 0.  1.
       -3    1    3    3    0  502 -0.95161360154E+03  0.80472701463E+03 -0.68411251657E+03  0.14216764612E+04  0.10100000352E+00 0. -1.
</event>
<event>
 5   0  0.1948507E-06  0.3485154E+04  0.7818609E-02  0.8117317E-01
        2   -1    0    0  501    0  0.00000000000E+00  0.00000000000E+00  0.27921132863E+04  0.27921132863E+04  0.25500000920E-02 0. -1.
       -2   -1    0    0    0  501  0.00000000000E+00  0.00000000000E+00 -0.10875539644E+04  0.10875539644E+04  0.25500000920E-02 0.  1.
    10030    2    1    2    0    0  0.00000000000E+00  0.00000000000E+00  0.17045593219E+04  0.38796672506E+04  0.34851535825E+04 0.  0.
        1    1    3    3  502    0 -0.87956670519E+03  0.14672054831E+04  0.12218956396E+04  0.21022270269E+04  0.50400001928E-02 0. -1.
       -1    1    3    3    0  502  0.87956670519E+03 -0.14672054831E+04  0.48266368227E+03  0.17774402237E+04  0.50400001928E-02 0.  1.
</event>
<event>
 5   0  0.6218695E-07  0.3379796E+04  0.7818609E-02  0.8142883E-01
        1   -1    0    0  501    0  0.00000000000E+00  0.00000000000E+00  0.18051564144E+04  0.18051564144E+04  0.50400001928E-02 0. -1.
       -1   -1    0    0    0  501  0.00000000000E+00  0.00000000000E+00 -0.15819990743E+04  0.15819990743E+04  0.50400001928E-02 0.  1.
    10030    2    1    2    0    0  0.00000000000E+00  0.00000000000E+00  0.22315734008E+03  0.33871554887E+04  0.33797963113E+04 0.  0.
        2    1    3    3  502    0  0.43455203184E+03  0.11456880249E+04  0.12778648593E+04  0.17704166508E+04  0.25500000920E-02 0. -1.
       -2    1    3    3    0  502 -0.43455203184E+03 -0.11456880249E+04 -0.10547075193E+04  0.16167388379E+04  0.25500000920E-02 0.  1.
</event>
<event>
 5   0  0.1339844E-06  0.3447416E+04  0.7818609E-02  0.8126366E-01
       -2   -1    0    0    0  501  0.00000000000E+00  0.00000000000E+00  0.13325696257E+04  0.13325696257E+04  0.25500000920E-02 0. -1.
        2   -1    0    0  501    0  0.00000000000E+00  0.00000000000E+00 -0.22296544811E+04  0.22296544811E+04  0.25500000920E-02 0.  1.
    10030    2    1    2    0    0  0.00000000000E+00  0.00000000000E+00 -0.89708485539E+03  0.35622241068E+04  0.34474163296E+04 0.  0.
        3    1    3    3  502    0 -0.30258725272E+03  0.63738320470E+03 -0.20736068926E+04  0.21903565806E+04  0.10100000352E+00 0.  1.
       -3    1    3    3    0  502  0.30258725272E+03 -0.63738320470E+03  0.11765220372E+04  0.13718675262E+04  0.10100000352E+00 0. -1.
</event>
<event>
 5   0  0.6134625E-07  0.3448483E+04  0.7818609E-02  0.8126108E-01
        1   -1    0    0  501    0  0.00000000000E+00  0.00000000000E+00  0.15592142149E+04  0.15592142149E+04  0.50400001928E-02 0.  1.
       -1   -1    0    0    0  501  0.00000000000E+00  0.00000000000E+00 -0.19067352191E+04  0.19067352191E+04  0.50400001928E-02 0. -1.
    10030    2    1    2    0    0  0.00000000000E+00  0.00000000000E+00 -0.34752100420E+03  0.34659494340E+04  0.34484829463E+04 0.  0.
        1    1    3    3  502    0  0.13155079537E+04 -0.60631316635E+03 -0.11138223487E+04  0.18272320751E+04  0.50400001928E-02 0. -1.
       -1    1    3    3    0  502 -0.13155079537E+04  0.60631316635E+03  0.76630134449E+03  0.16387173589E+04  0.50400001928E-02 0.  1.
</event>
<event>
 5   0  0.1948507E-06  0.3373445E+04  0.7818609E-02  0.8144455E-01
        2   -1    0    0  501    0  0.00000000000E+00  0.00000000000E+00  0.22609909721E+04  0.22609909721E+04  0.25500000920E-02 0. -1.
       -2   -1    0    0    0  501  0.00000000000E+00  0.00000000000E+00 -0.12583120127E+04  0.12583120127E+04  0.25500000920E-02 0.  1.
    10030    2    1    2    0    0  0.00000000000E+00  0.00000000000E+00  0.10026789593E+04  0.35193029848E+04  0.33734445903E+04 0.  0.
        1    1    3    3  502    0 -0.77707828256E+03  0.13171296446E+04  0.12436897793E+04  0.19711533236E+04  0.50400001928E-02 0. -1.
       -1    1    3    3    0  502  0.77707828256E+03 -0.13171296446E+04 -0.24101082002E+03  0.15481496612E+04  0.50400001928E-02 0.  1.
</event>
<event>
 5   0  0.1797075E-06  0.3387597E+04  0.7818609E-02  0.8140957E-01
       -2   -1    0    0    0  501  0.00000000000E+00  0.00000000000E+00  0.20997641350E+04  0.20997641350E+04  0.25500000920E-02 0. -1.
        2   -1    0    0  501    0  0.00000000000E+00  0.00000000000E+00 -0.13663215462E+04  0.13663215462E+04  0.25500000920E-02 0.  1.
    10030    2    1    2    0    0  0.00000000000E+00  0.00000000000E+00  0.73344258881E+03  0.34660856812E+04  0.33875967762E+04 0.  0.
        2    1    3    3  502    0  0.80806730456E+03  0.40989794955E+03 -0.10975067810E+04  0.14232042131E+04  0.25500000920E-02 0.  1.
       -2    1    3    3    0  502 -0.80806730456E+03 -0.40989794955E+03  0.18309493699E+04  0.20428814681E+04  0.25500000920E-02 0. -1.
</event>
<event>
 5   0  0.6134625E-07  0.3403623E+04  0.7818609E-02  0.8137018E-01
       -1   -1    0    0    0  501  0.00000000000E+00  0.00000000000E+00  0.26415556676E+04  0.26415556676E+04  0.50400001928E-02 0. -1.
        1   -1    0    0  501    0  0.00000000000E+00  0.00000000000E+00 -0.10963853626E+04  0.10963853626E+04  0.50400001928E-02 0.  1.
    10030    2    1    2    0    0  0.00000000000E+00  0.00000000000E+00  0.15451703050E+04  0.37379410303E+04  0.34036233449E+04 0.  0.
        5    1    3    3  502    0 -0.14421872931E+04  0.61392021484E+02  0.17624912668E+04  0.22781726722E+04  0.46999998093E+01 0. -1.
       -5    1    3    3    0  502  0.14421872931E+04 -0.61392021484E+02 -0.21732096182E+03  0.14597683581E+04  0.46999998093E+01 0.  1.
</event>
<event>
 5   0  0.6134625E-07  0.3399793E+04  0.7818609E-02  0.8137957E-01
       -1   -1    0    0    0  501  0.00000000000E+00  0.00000000000E+00  0.10746753315E+04  0.10746753315E+04  0.50400001928E-02 0. -1.
        1   -1    0    0  501    0  0.00000000000E+00  0.00000000000E+00 -0.26888567495E+04  0.26888567495E+04  0.50400001928E-02 0.  1.
    10030    2    1    2    0    0  0.00000000000E+00  0.00000000000E+00 -0.16141814180E+04  0.37635320810E+04  0.33997929458E+04 0.  0.
        3    1    3    3  502    0 -0.14008870268E+04  0.38004020122E+03 -0.17864678737E+04  0.23018215592E+04  0.10100000352E+00 0.  1.
       -3    1    3    3    0  502  0.14008870268E+04 -0.38004020122E+03  0.17228645565E+03  0.14617105218E+04  0.10100000352E+00 0. -1.
</event>
<event>
 5   0  0.1948507E-06  0.2579852E+04  0.7818609E-02  0.8375077E-01
        2   -1    0    0  501    0  0.00000000000E+00  0.00000000000E+00  0.21148759519E+04  0.21148759519E+04  0.25500000920E-02 0. -1.
       -2   -1    0    0    0  501  0.00000000000E+00  0.00000000000E+00 -0.78676451942E+03  0.78676451942E+03  0.25500000920E-02 0.  1.
    10030    2    1    2    0    0  0.00000000000E+00  0.00000000000E+00  0.13281114324E+04  0.29016404713E+04  0.25798522143E+04 0.  0.
        1    1    3    3  502    0  0.77514606065E+03  0.18562503310E+03 -0.47664655121E+03  0.92870878270E+03  0.50400001928E-02 0.  1.
       -1    1    3    3    0  502 -0.77514606065E+03 -0.18562503310E+03  0.18047579836E+04  0.19729316886E+04  0.50400001928E-02 0. -1.
</event>
<event>
 5   0  0.1911477E-06  0.3383529E+04  0.7818609E-02  0.8141961E-01
       -2   -1    0    0    0  501  0.00000000000E+00  0.00000000000E+00  0.16497501478E+04  0.16497501478E+04  0.25500000920E-02 0. -1.
        2   -1    0    0  501    0  0.00000000000E+00  0.00000000000E+00 -0.17348489286E+04  0.17348489286E+04  0.25500000920E-02 0.  1.
    10030    2    1    2    0    0  0.00000000000E+00  0.00000000000E+00 -0.85098780758E+02  0.33845990764E+04  0.33835290903E+04 0.  0.
        5    1    3    3  502    0  0.97349327792E+03  0.10727512208E+04 -0.91664540688E+03  0.17142768843E+04  0.46999998093E+01 0.  1.
       -5    1    3    3    0  502 -0.97349327792E+03 -0.10727512208E+04  0.83154662612E+03  0.16703221921E+04  0.46999998093E+01 0. -1.
</event>
<event>
 5   0  0.6134625E-07  0.3454910E+04  0.7818609E-02  0.8124560E-01
        1   -1    0    0  501    0  0.00000000000E+00  0.00000000000E+00  0.33306919051E+04  0.33306919051E+04  0.50400001928E-02 0. -1.
       -1   -1    0    0    0  501  0.00000000000E+00  0.00000000000E+00 -0.89594013094E+03  0.89594013095E+03  0.50400001928E-02 0.  1.
    10030    2    1    2    0    0  0.00000000000E+00  0.00000000000E+00  0.24347517742E+04  0.42266320361E+04  0.34549098637E+04 0.  0.
        5    1    3    3  502    0  0.49524127975E+03  0.12231705322E+03 -0.80168565770E+03  0.95023542895E+03  0.46999998093E+01 0.  1.
       -5    1    3    3    0  502 -0.49524127975E+03 -0.12231705322E+03  0.32364374319E+04  0.32763966071E+04  0.46999998093E+01 0. -1.
</event>
<event>
 5   0  0.1948507E-06  0.3396401E+04  0.7818609E-02  0.8138790E-01
       -2   -1    0    0    0  501  0.00000000000E+00  0.00000000000E+00  0.12489786192E+04  0.12489786192E+04  0.25500000920E-02 0. -1.
        2   -1    0    0  501    0  0.00000000000E+00  0.00000000000E+00 -0.23089952407E+04  0.23089952407E+04  0.25500000920E-02 0.  1.
    10030    2    1    2    0    0  0.00000000000E+00  0.00000000000E+00 -0.10600166215E+04  0.35579738600E+04  0.33964014413E+04 0.  0.
        1    1    3    3  502    0 -0.13958060185E+04  0.55960585920E+03  0.29648026404E+03  0.15327536351E+04  0.50400001928E-02 0. -1.
       -1    1    3    3    0  502  0.13958060185E+04 -0.55960585920E+03 -0.13564968856E+04  0.20252202249E+04  0.50400001928E-02 0.  1.
</event>
<event>
 5   0  0.6146388E-07  0.3329851E+04  0.7818609E-02  0.8155341E-01
        1   -1    0    0  501    0  0.00000000000E+00  0.00000000000E+00  0.23658149104E+04  0.23658149104E+04  0.50400001928E-02 0. -1.
       -1   -1    0    0    0  501  0.00000000000E+00  0.00000000000E+00 -0.11716796940E+04  0.11716796941E+04  0.50400001928E-02 0.  1.
    10030    2    1    2    0    0  0.00000000000E+00  0.00000000000E+00  0.11941352163E+04  0.35374946044E+04  0.33298512221E+04 0.  0.
        4    1    3    3  502    0  0.76024395824E+02 -0.16414128487E+04  0.31208653494E+03  0.16725475977E+04  0.12699999809E+01 0. -1.
       -4    1    3    3    0  502 -0.76024395824E+02  0.16414128487E+04  0.88204868137E+03  0.18649470067E+04  0.12699999809E+01 0.  1.
</event>
<event>
 5   0  0.1339844E-06  0.3323139E+04  0.7818609E-02  0.8157033E-01
        2   -1    0    0  501    0  0.00000000000E+00  0.00000000000E+00  0.10335427749E+04  0.10335427749E+04  0.25500000920E-02 0. -1.
       -2   -1    0    0    0  501  0.00000000000E+00  0.00000000000E+00 -0.26712125039E+04  0.26712125039E+04  0.25500000920E-02 0.  1.
    10030    2    1    2    0    0  0.00000000000E+00  0.00000000000E+00 -0.16376697290E+04  0.37047552788E+04  0.33231385066E+04 0.  0.
        3    1    3    3  502    0  0.26337231748E+03 -0.83583192514E+03  0.75495400399E+03  0.11566916370E+04  0.10100000352E+00 0. -1.
       -3    1    3    3    0  502 -0.26337231748E+03  0.83583192514E+03 -0.23926237330E+04  0.25480636418E+04  0.10100000352E+00 0.  1.
</event>
<event>
 5   0  0.6134625E-07  0.3478343E+04  0.7818609E-02  0.8118942E-01
       -3   -1    0    0    0  501  0.00000000000E+00  0.00000000000E+00  0.18378534160E+04  0.18378534188E+04  0.10100000352E+00 0.  1.
        3   -1    0    0  501    0  0.00000000000E+00  0.00000000000E+00 -0.16457878694E+04  0.16457878725E+04  0.10100000352E+00 0. -1.
    10030    2    1    2    0    0  0.00000000000E+00  0.00000000000E+00  0.19206554659E+03  0.34836412914E+04  0.34783426330E+04 0.  0.
        4    1    3    3  502    0 -0.12653955777E+04  0.27929123202E+03  0.12577504887E+04  0.18058702792E+04  0.12699999809E+01 0.  1.
       -4    1    3    3    0  502  0.12653955777E+04 -0.27929123202E+03 -0.10656849422E+04  0.16777710122E+04  0.12699999809E+01 0. -1.
</event>
<event>
 5   0  0.1880301E-06  0.3369117E+04  0.7818609E-02  0.8145528E-01
       -2   -1    0    0    0  501  0.00000000000E+00  0.00000000000E+00  0.10880622897E+04  0.10880622897E+04  0.25500000920E-02 0. -1.
        2   -1    0    0  501    0  0.00000000000E+00  0.00000000000E+00 -0.26080648474E+04  0.26080648474E+04  0.25500000920E-02 0.  1.
    10030    2    1    2    0    0  0.00000000000E+00  0.00000000000E+00 -0.15200025576E+04  0.36961271371E+04  0.33691168039E+04 0.  0.
        4    1    3    3  502    0  0.87586805064E+03 -0.96914817070E+03 -0.19268857524E+04  0.23279354232E+04  0.12699999809E+01 0.  1.
       -4    1    3    3    0  502 -0.87586805064E+03  0.96914817070E+03  0.40688319473E+03  0.13681917139E+04  0.12699999809E+01 0. -1.
</event>
<event>
 5   0  0.1797075E-06  0.2785938E+04  0.7818609E-02  0.8307647E-01
        2   -1    0    0  501    0  0.00000000000E+00  0.00000000000E+00  0.29753048865E+04  0.29753048865E+04  0.25500000920E-02 0. -1.
       -2   -1    0    0    0  501  0.00000000000E+00  0.00000000000E+00 -0.65215608000E+03  0.65215608000E+03  0.25500000920E-02 0.  1.
    10030    2    1    2    0    0  0.00000000000E+00  0.00000000000E+00  0.23231488065E+04  0.36274609665E+04  0.27859383853E+04 0.  0.
        2    1    3    3  502    0 -0.10943976215E+04 -0.86155184073E+03  0.11360114211E+04  0.17973590841E+04  0.25500000920E-02 0.  1.
       -2    1    3    3    0  502  0.10943976215E+04  0.86155184073E+03  0.11871373855E+04  0.18301018825E+04  0.25500000920E-02 0. -1.
</event>
<event>
 5   0  0.1797075E-06  0.3384874E+04  0.7818609E-02  0.8141629E-01
       -2   -1    0    0    0  501  0.00000000000E+00  0.00000000000E+00  0.22275317190E+04  0.22275317190E+04  0.25500000920E-02 0. -1.
        2   -1    0    0  501    0  0.00000000000E+00  0.00000000000E+00 -0.12858822570E+04  0.12858822570E+04  0.25500000920E-02 0.  1.
    10030    2    1    2    0    0  0.00000000000E+00  0.00000000000E+00  0.94164946201E+03  0.35134139760E+04  0.33848743045E+04 0.  0.
        2    1    3    3  502    0  0.13685135975E+03 -0.92848657081E+03 -0.99103578466E+03  0.13649056866E+04  0.25500000920E-02 0.  1.
       -2    1    3    3    0  502 -0.13685135975E+03  0.92848657081E+03  0.19326852467E+04  0.21485082894E+04  0.25500000920E-02 0. -1.
</event>
<event>
 5   0  0.1948507E-06  0.3090830E+04  0.7818609E-02  0.8218259E-01
        2   -1    0    0  501    0  0.00000000000E+00  0.00000000000E+00  0.18417555263E+04  0.18417555263E+04  0.25500000920E-02 0. -1.
       -2   -1    0    0    0  501  0.00000000000E+00  0.00000000000E+00 -0.12967563137E+04  0.12967563137E+04  0.25500000920E-02 0.  1.
    10030    2    1    2    0    0  0.00000000000E+00  0.00000000000E+00  0.54499921257E+03  0.31385118400E+04  0.30908303784E+04 0.  0.
        1    1    3    3  502    0  0.81860729524E+03 -0.78858834460E+03  0.13357045702E+04  0.17538803209E+04  0.50400001928E-02 0. -1.
       -1    1    3    3    0  502 -0.81860729524E+03  0.78858834460E+03 -0.79070535768E+03  0.13846315191E+04  0.50400001928E-02 0.  1.
</event>
<event>
 5   0  0.6134625E-07  0.3290942E+04  0.7818609E-02  0.8165204E-01
        1   -1    0    0  501    0  0.00000000000E+00  0.00000000000E+00  0.21193097684E+04  0.21193097684E+04  0.50400001928E-02 0. -1.
       -1   -1    0    0    0  501  0.00000000000E+00  0.00000000000E+00 -0.12775738921E+04  0.12775738921E+04  0.50400001928E-02 0.  1.
    10030    2    1    2    0    0  0.00000000000E+00  0.00000000000E+00  0.84173587636E+03  0.33968836605E+04  0.32909420106E+04 0.  0.
        5    1    3    3  502    0 -0.95194126209E+03 -0.54592292330E+03 -0.84470570796E+03  0.13848371123E+04  0.46999998093E+01 0.  1.
       -5    1    3    3    0  502  0.95194126209E+03  0.54592292330E+03  0.16864415843E+04  0.20120465482E+04  0.46999998093E+01 0. -1.
</event>
<event>
 5   0  0.6134625E-07  0.2572754E+04  0.7818609E-02  0.8377515E-01
        1   -1    0    0  501    0  0.00000000000E+00  0.00000000000E+00  0.13498335112E+04  0.13498335113E+04  0.50400001928E-02 0. -1.
       -1   -1    0    0    0  501  0.00000000000E+00  0.00000000000E+00 -0.12259037194E+04  0.12259037194E+04  0.50400001928E-02 0.  1.
    10030    2    1    2    0    0  0.00000000000E+00  0.00000000000E+00  0.12392979185E+03  0.25757372307E+04  0.25727541056E+04 0.  0.
        1    1    3    3  502    0  0.83863761671E+02  0.67965500074E+03 -0.10282430455E+04  0.12354140242E+04  0.50400001928E-02 0.  1.
       -1    1    3    3    0  502 -0.83863761671E+02 -0.67965500074E+03  0.11521728374E+04  0.13403232064E+04  0.50400001928E-02 0. -1.
</event>
<event>
 5   0  0.1948507E-06  0.3232487E+04  0.7818609E-02  0.8180290E-01
       -2   -1    0    0    0  501  0.00000000000E+00  0.00000000000E+00  0.13087255876E+04  0.13087255876E+04  0.25500000920E-02 0.  1.
        2   -1    0    0  501    0  0.00000000000E+00  0.00000000000E+00 -0.19960205384E+04  0.19960205384E+04  0.25500000920E-02 0. -1.
    10030    2    1    2    0    0  0.00000000000E+00  0.00000000000E+00 -0.68729495080E+03  0.33047461261E+04  0.32324870624E+04 0.  0.
        1    1    3    3  502    0  0.80659781540E+03  0.13704171550E+04 -0.48047574898E+02  0.15908965346E+04  0.50400001928E-02 0. -1.
       -1    1    3    3    0  502 -0.80659781540E+03 -0.13704171550E+04 -0.63924737590E+03  0.17138495914E+04  0.50400001928E-02 0.  1.
</event>
<event>
 5   0  0.6218695E-07  0.3374242E+04  0.7818609E-02  0.8144257E-01
        1   -1    0    0  501    0  0.00000000000E+00  0.00000000000E+00  0.10232216764E+04  0.10232216764E+04  0.50400001928E-02 0.  1.
       -1   -1    0    0    0  501  0.00000000000E+00  0.00000000000E+00 -0.27817791041E+04  0.27817791041E+04  0.50400001928E-02 0. -1.
    10030    2    1    2    0    0  0.00000000000E+00  0.00000000000E+00 -0.17585574278E+04  0.38050007805E+04  0.33742416500E+04 0.  0.
        2    1    3    3  502    0  0.12494501011E+04 -0.11195339951E+04 -0.67788856789E+03  0.18094238950E+04  0.25500000920E-02 0. -1.
       -2    1    3    3    0  502 -0.12494501011E+04  0.11195339951E+04 -0.10806688599E+04  0.19955768855E+04  0.25500000920E-02 0.  1.
</event>
<event>
 5   0  0.6134625E-07  0.3385932E+04  0.7818609E-02  0.8141368E-01
       -1   -1    0    0    0  501  0.00000000000E+00  0.00000000000E+00  0.15526235638E+04  0.15526235638E+04  0.50400001928E-02 0. -1.
        1   -1    0    0  501    0  0.00000000000E+00  0.00000000000E+00 -0.18459944608E+04  0.18459944608E+04  0.50400001928E-02 0.  1.
    10030    2    1    2    0    0  0.00000000000E+00  0.00000000000E+00 -0.29337089696E+03  0.33986180246E+04  0.33859323671E+04 0.  0.
        3    1    3    3  502    0  0.33564326635E+03 -0.16282250758E+04 -0.46782347738E+03  0.17270298538E+04  0.10100000352E+00 0.  1.
       -3    1    3    3    0  502 -0.33564326635E+03  0.16282250758E+04  0.17445258043E+03  0.16715881708E+04  0.10100000352E+00 0. -1.
</event>
<event>
 5   0  0.6146388E-07  0.3394897E+04  0.7818609E-02  0.8139160E-01
        1   -1    0    0  501    0  0.00000000000E+00  0.00000000000E+00  0.20761356581E+04  0.20761356581E+04  0.50400001928E-02 0. -1.
       -1   -1    0    0    0  501  0.00000000000E+00  0.00000000000E+00 -0.13878341360E+04  0.13878341360E+04  0.50400001928E-02 0.  1.
    10030    2    1    2    0    0  0.00000000000E+00  0.00000000000E+00  0.68830152208E+03  0.34639697941E+04  0.33948973106E+04 0.  0.
        4    1    3    3  502    0 -0.56054367273E+03 -0.99631140755E+02  0.19758095937E+04  0.20562005585E+04  0.12699999809E+01 0. -1.
       -4    1    3    3    0  502  0.56054367273E+03  0.99631140755E+02 -0.12875080717E+04  0.14077692356E+04  0.12699999809E+01 0.  1.
</event>
<event>
 5   0  0.1948507E-06  0.3399205E+04  0.7818609E-02  0.8138101E-01
       -2   -1    0    0    0  501  0.00000000000E+00  0.00000000000E+00  0.16145663974E+04  0.16145663974E+04  0.25500000920E-02 0.  1.
        2   -1    0    0  501    0  0.00000000000E+00  0.00000000000E+00 -0.17891175808E+04  0.17891175808E+04  0.25500000920E-02 0. -1.
    10030    2    1    2    0    0  0.00000000000E+00  0.00000000000E+00 -0.17455118336E+03  0.34036839782E+04  0.33992052759E+04 0.  0.
        1    1    3    3  502    0  0.13309679719E+04  0.42418325531E+03 -0.10566637223E+04  0.17515551371E+04  0.50400001928E-02 0.  1.
       -1    1    3    3    0  502 -0.13309679719E+04 -0.42418325531E+03  0.88211253892E+03  0.16521288411E+04  0.50400001928E-02 0. -1.
</event>
<event>
 5   0  0.6218695E-07  0.3378757E+04  0.7818609E-02  0.8143140E-01
        1   -1    0    0  501    0  0.00000000000E+00  0.00000000000E+00  0.16571700143E+04  0.16571700143E+04  0.50400001928E-02 0.  1.
       -1   -1    0    0    0  501  0.00000000000E+00  0.00000000000E+00 -0.17222125359E+04  0.17222125359E+04  0.50400001928E-02 0. -1.
    10030    2    1    2    0    0  0.00000000000E+00  0.00000000000E+00 -0.65042521638E+02  0.33793825502E+04  0.33787565599E+04 0.  0.
        2    1    3    3  502    0  0.12637054540E+04  0.11112725329E+04 -0.18127963419E+03  0.16925544075E+04  0.25500000920E-02 0.  1.
       -2    1    3    3    0  502 -0.12637054540E+04 -0.11112725329E+04  0.11623711255E+03  0.16868281427E+04  0.25500000920E-02 0. -1.
</event>
<event>
 5   0  0.6134625E-07  0.3419539E+04  0.7818609E-02  0.8133127E-01
        1   -1    0    0  501    0  0.00000000000E+00  0.00000000000E+00  0.10753771808E+04  0.10753771808E+04  0.50400001928E-02 0.  1.
       -1   -1    0    0    0  501  0.00000000000E+00  0.00000000000E+00 -0.27184061066E+04  0.27184061066E+04  0.50400001928E-02 0. -1.
    10030    2    1    2    0    0  0.00000000000E+00  0.00000000000E+00 -0.16430289257E+04  0.37937832874E+04  0.34195390890E+04 0.  0.
        3    1    3    3  502    0 -0.62932387498E+03 -0.36183438999E+03 -0.25389446584E+04  0.26406841261E+04  0.10100000352E+00 0. -1.
       -3    1    3    3    0  502  0.62932387498E+03  0.36183438999E+03  0.89591573268E+03  0.11530991612E+04  0.10100000352E+00 0.  1.
</event>
<event>
 5   0  0.6134625E-07  0.3384047E+04  0.7818609E-02  0.8141833E-01
        1   -1    0    0  501    0  0.00000000000E+00  0.00000000000E+00  0.15722346000E+04  0.15722346000E+04  0.50400001928E-02 0. -1.
       -1   -1    0    0    0  501  0.00000000000E+00  0.00000000000E+00 -0.18209390462E+04  0.18209390463E+04  0.50400001928E-02 0.  1.
    10030    2    1    2    0    0  0.00000000000E+00  0.00000000000E+00 -0.24870444627E+03  0.33931736462E+04  0.33840469104E+04 0.  0.
        5    1    3    3  502    0 -0.10743994099E+04  0.96486723191E+03  0.75985280281E+03  0.16317785509E+04  0.46999998093E+01 0. -1.
       -5    1    3    3    0  502  0.10743994099E+04 -0.96486723191E+03 -0.10085572491E+04  0.17613950953E+04  0.46999998093E+01 0.  1.
</event>
<event>
 5   0  0.1948507E-06  0.3565917E+04  0.7818609E-02  0.8098344E-01
        2   -1    0    0  501    0  0.00000000000E+00  0.00000000000E+00  0.24091503333E+04  0.24091503333E+04  0.25500000920E-02 0.  1.
       -2   -1    0    0    0  501  0.00000000000E+00  0.00000000000E+00 -0.13195279123E+04  0.13195279123E+04  0.25500000920E-02 0. -1.
    10030    2    1    2    0    0  0.00000000000E+00  0.00000000000E+00  0.10896224210E+04  0.37286782456E+04  0.35659170544E+04 0.  0.
        1    1    3    3  502    0  0.12279943357E+04  0.12855354402E+04  0.40309022935E+03  0.18229243510E+04  0.50400001928E-02 0.  1.
       -1    1    3    3    0  502 -0.12279943357E+04 -0.12855354402E+04  0.68653219166E+03  0.19057538946E+04  0.50400001928E-02 0. -1.
</event>
<event>
 5   0  0.6134625E-07  0.3353712E+04  0.7818609E-02  0.8149361E-01
        1   -1    0    0  501    0  0.00000000000E+00  0.00000000000E+00  0.14824638077E+04  0.14824638077E+04  0.50400001928E-02 0. -1.
       -1   -1    0    0    0  501  0.00000000000E+00  0.00000000000E+00 -0.18967385436E+04  0.18967385436E+04  0.50400001928E-02 0.  1.
    10030    2    1    2    0    0  0.00000000000E+00  0.00000000000E+00 -0.41427473582E+03  0.33792023513E+04  0.33537121186E+04 0.  0.
        5    1    3    3  502    0 -0.14333339627E+04 -0.37507687147E+03  0.58413084338E+03  0.15925953159E+04  0.46999998093E+01 0. -1.
       -5    1    3    3    0  502  0.14333339627E+04  0.37507687147E+03 -0.99840557920E+03  0.17866070354E+04  0.46999998093E+01 0.  1.
</event>
<event>
 5   0  0.6134625E-07  0.3371333E+04  0.7818609E-02  0.8144978E-01
       -1   -1    0    0    0  501  0.00000000000E+00  0.00000000000E+00  0.14151805854E+04  0.14151805854E+04  0.50400001928E-02 0.  1.
        1   -1    0    0  501    0  0.00000000000E+00  0.00000000000E+00 -0.20078502948E+04  0.20078502948E+04  0.50400001928E-02 0. -1.
    10030    2    1    2    0    0  0.00000000000E+00  0.00000000000E+00 -0.59266970944E+03  0.34230308802E+04  0.33713325292E+04 0.  0.
        3    1    3    3  502    0  0.94847457784E+03  0.13879352906E+04 -0.16991712403E+03  0.16896272474E+04  0.10100000352E+00 0.  1.
       -3    1    3    3    0  502 -0.94847457784E+03 -0.13879352906E+04 -0.42275258540E+03  0.17334036329E+04  0.10100000352E+00 0. -1.
</event>
<event>
 5   0  0.6134625E-07  0.2504166E+04  0.7818609E-02  0.8401503E-01
       -1   -1    0    0    0  501  0.00000000000E+00  0.00000000000E+00  0.11445483336E+04  0.11445483337E+04  0.50400001928E-02 0.  1.
        1   -1    0    0  501    0  0.00000000000E+00  0.00000000000E+00 -0.13697206777E+04  0.13697206777E+04  0.50400001928E-02 0. -1.
    10030    2    1    2    0    0  0.00000000000E+00  0.00000000000E+00 -0.22517234403E+03  0.25142690113E+04  0.25041657447E+04 0.  0.
        5    1    3    3  502    0  0.49319606911E+03 -0.15806896691E+03 -0.12571245032E+04  0.13596368146E+04  0.46999998093E+01 0. -1.
       -5    1    3    3    0  502 -0.49319606911E+03  0.15806896691E+03  0.10319521592E+04  0.11546321968E+04  0.46999998093E+01 0.  1.
</event>
<event>
 5   0  0.1797075E-06  0.3353265E+04  0.7818609E-02  0.8149473E-01
       -2   -1    0    0    0  501  0.00000000000E+00  0.00000000000E+00  0.12751237267E+04  0.12751237267E+04  0.25500000920E-02 0. -1.
        2   -1    0    0  501    0  0.00000000000E+00  0.00000000000E+00 -0.22045676067E+04  0.22045676067E+04  0.25500000920E-02 0.  1.
    10030    2    1    2    0    0  0.00000000000E+00  0.00000000000E+00 -0.92944388009E+03  0.34796913334E+04  0.33532649537E+04 0.  0.
        2    1    3    3  502    0  0.64948830965E+03  0.95196948687E+03  0.79898303637E+03  0.14023034125E+04  0.25500000920E-02 0. -1.
       -2    1    3    3    0  502 -0.64948830965E+03 -0.95196948687E+03 -0.17284269165E+04  0.20773879209E+04  0.25500000920E-02 0.  1.
</event>
<event>
 5   0  0.6218695E-07  0.3114130E+04  0.7818609E-02  0.8211871E-01
        1   -1    0    0  501    0  0.00000000000E+00  0.00000000000E+00  0.15063894475E+04  0.15063894475E+04  0.50400001928E-02 0.  1.
       -1   -1    0    0    0  501  0.00000000000E+00  0.00000000000E+00 -0.16094454848E+04  0.16094454848E+04  0.50400001928E-02 0. -1.
    10030    2    1    2    0    0  0.00000000000E+00  0.00000000000E+00 -0.10305603730E+03  0.31158349324E+04  0.31141301801E+04 0.  0.
        2    1    3    3  502    0  0.14926127907E+04  0.19730677575E+03 -0.44877028104E+03  0.15710562281E+04  0.25500000920E-02 0. -1.
       -2    1    3    3    0  502 -0.14926127907E+04 -0.19730677575E+03  0.34571424374E+03  0.15447787042E+04  0.25500000920E-02 0.  1.
</event>
<event>
 5   0  0.1911477E-06  0.2428406E+04  0.7818609E-02  0.8428945E-01
        2   -1    0    0  501    0  0.00000000000E+00  0.00000000000E+00  0.20631430564E+04  0.20631430564E+04  0.25500000920E-02 0.  1.
       -2   -1    0    0    0  501  0.00000000000E+00  0.00000000000E+00 -0.71458415651E+03  0.71458415651E+03  0.25500000920E-02 0. -1.
    10030    2    1    2    0    0  0.00000000000E+00  0.00000000000E+00  0.13485588999E+04  0.27777272129E+04  0.24284063422E+04 0.  0.
        5    1    3    3  502    0  0.39141795782E+03 -0.94464893171E+03 -0.74654944509E+02  0.10252634162E+04  0.46999998093E+01 0. -1.
       -5    1    3    3    0  502 -0.39141795782E+03  0.94464893171E+03  0.14232138444E+04  0.17524637967E+04  0.46999998093E+01 0.  1.
</event>
<event>
 5   0  0.1880301E-06  0.3244501E+04  0.7818609E-02  0.8177162E-01
        2   -1    0    0  501    0  0.00000000000E+00  0.00000000000E+00  0.32819639366E+04  0.32819639366E+04  0.25500000920E-02 0.  1.
       -2   -1    0    0    0  501  0.00000000000E+00  0.00000000000E+00 -0.80186637501E+03  0.80186637501E+03  0.25500000920E-02 0. -1.
    10030    2    1    2    0    0  0.00000000000E+00  0.00000000000E+00  0.24800975616E+04  0.40838303116E+04  0.32445009014E+04 0.  0.
        4    1    3    3  502    0 -0.23772684311E+03 -0.13063785392E+04  0.24131046440E+04  0.27543083661E+04  0.12699999809E+01 0.  1.
       -4    1    3    3    0  502  0.23772684311E+03  0.13063785392E+04  0.66992917569E+02  0.13295219455E+04  0.12699999809E+01 0. -1.
</event>
<event>
 5   0  0.1880301E-06  0.3424332E+04  0.7818609E-02  0.8131960E-01
       -2   -1    0    0    0  501  0.00000000000E+00  0.00000000000E+00  0.14277202986E+04  0.14277202986E+04  0.25500000920E-02 0.  1.
        2   -1    0    0  501    0  0.00000000000E+00  0.00000000000E+00 -0.20532822766E+04  0.20532822766E+04  0.25500000920E-02 0. -1.
    10030    2    1    2    0    0  0.00000000000E+00  0.00000000000E+00 -0.62556197798E+03  0.34810025753E+04  0.34243322182E+04 0.  0.
        4    1    3    3  502    0  0.72421798000E+03  0.13350083171E+04  0.49072539176E+03  0.15961052322E+04  0.12699999809E+01 0. -1.
       -4    1    3    3    0  502 -0.72421798000E+03 -0.13350083171E+04 -0.11162873697E+04  0.18848973431E+04  0.12699999809E+01 0.  1.
</event>
<event>
 5   0  0.6134625E-07  0.3456210E+04  0.7818609E-02  0.8124247E-01
        1   -1    0    0  501    0  0.00000000000E+00  0.00000000000E+00  0.25230385120E+04  0.25230385120E+04  0.50400001928E-02 0. -1.
       -1   -1    0    0    0  501  0.00000000000E+00  0.00000000000E+00 -0.11836308667E+04  0.11836308667E+04  0.50400001928E-02 0.  1.
    10030    2    1    2    0    0  0.00000000000E+00  0.00000000000E+00  0.13394076453E+04  0.37066693787E+04  0.34562096353E+04 0.  0.
        5    1    3    3  502    0  0.48805294313E+03 -0.10115933304E+04  0.20781948373E+04  0.23622939303E+04  0.46999998093E+01 0. -1.
       -5    1    3    3    0  502 -0.48805294313E+03  0.10115933304E+04 -0.73878719196E+03  0.13443754485E+04  0.46999998093E+01 0.  1.
</event>
<event>
 5   0  0.6134625E-07  0.3393767E+04  0.7818609E-02  0.8139438E-01
        1   -1    0    0  501    0  0.00000000000E+00  0.00000000000E+00  0.95359729127E+03  0.95359729128E+03  0.50400001928E-02 0. -1.
       -1   -1    0    0    0  501  0.00000000000E+00  0.00000000000E+00 -0.30195286006E+04  0.30195286006E+04  0.50400001928E-02 0.  1.
    10030    2    1    2    0    0  0.00000000000E+00  0.00000000000E+00 -0.20659313093E+04  0.39731258918E+04  0.33937674018E+04 0.  0.
        5    1    3    3  502    0  0.14633202076E+04  0.22644398333E+03 -0.62749871950E+02  0.14820737309E+04  0.46999998093E+01 0. -1.
       -5    1    3    3    0  502 -0.14633202076E+04 -0.22644398333E+03 -0.20031814373E+04  0.24910521609E+04  0.46999998093E+01 0.  1.
</event>
<event>
 5   0  0.6134625E-07  0.3431668E+04  0.7818609E-02  0.8130177E-01
        1   -1    0    0  501    0  0.00000000000E+00  0.00000000000E+00  0.11999737521E+04  0.11999737521E+04  0.50400001928E-02 0. -1.
       -1   -1    0    0    0  501  0.00000000000E+00  0.00000000000E+00 -0.24534596203E+04  0.24534596203E+04  0.50400001928E-02 0.  1.
    10030    2    1    2    0    0  0.00000000000E+00  0.00000000000E+00 -0.12534858682E+04  0.36534333724E+04  0.34316684841E+04 0.  0.
        5    1    3    3  502    0  0.12150835770E+04 -0.97324590406E+03 -0.13947704206E+04  0.20902254197E+04  0.46999998093E+01 0.  1.
       -5    1    3    3    0  502 -0.12150835770E+04  0.97324590406E+03  0.14128455236E+03  0.15632079528E+04  0.46999998093E+01 0. -1.
</event>
<event>
 5   0  0.1880301E-06  0.3399356E+04  0.7818609E-02  0.8138064E-01
        2   -1    0    0  501    0  0.00000000000E+00  0.00000000000E+00  0.14655281809E+04  0.14655281809E+04  0.25500000920E-02 0.  1.
       -2   -1    0    0    0  501  0.00000000000E+00  0.00000000000E+00 -0.19712378723E+04  0.19712378723E+04  0.25500000920E-02 0. -1.
    10030    2    1    2    0    0  0.00000000000E+00  0.00000000000E+00 -0.50570969138E+03  0.34367660533E+04  0.33993556173E+04 0.  0.
        4    1    3    3  502    0 -0.63137985913E+03  0.10013137680E+04  0.98025370330E+03  0.15369348471E+04  0.12699999809E+01 0.  1.
       -4    1    3    3    0  502  0.63137985913E+03 -0.10013137680E+04 -0.14859633947E+04  0.18998312061E+04  0.12699999809E+01 0. -1.
</event>
<event>
 5   0  0.1339844E-06  0.3482036E+04  0.7818609E-02  0.8118060E-01
       -2   -1    0    0    0  501  0.00000000000E+00  0.00000000000E+00  0.26211250377E+04  0.26211250377E+04  0.25500000920E-02 0.  1.
        2   -1    0    0  501    0  0.00000000000E+00  0.00000000000E+00 -0.11564282583E+04  0.11564282583E+04  0.25500000920E-02 0. -1.
    10030    2    1    2    0    0  0.00000000000E+00  0.00000000000E+00  0.14646967794E+04  0.37775532960E+04  0.34820356473E+04 0.  0.
        3    1    3    3  502    0 -0.10601444605E+04  0.13605226577E+04  0.47512941469E+03  0.17890433617E+04  0.10100000352E+00 0.  1.
       -3    1    3    3    0  502  0.10601444605E+04 -0.13605226577E+04  0.98956736472E+03  0.19885099343E+04  0.10100000352E+00 0. -1.
</event>
<event>
 5   0  0.6134625E-07  0.2747193E+04  0.7818609E-02  0.8319853E-01
       -1   -1    0    0    0  501  0.00000000000E+00  0.00000000000E+00  0.11342222996E+04  0.11342222997E+04  0.50400001928E-02 0. -1.
        1   -1    0    0  501    0  0.00000000000E+00  0.00000000000E+00 -0.16634904499E+04  0.16634904499E+04  0.50400001928E-02 0.  1.
    10030    2    1    2    0    0  0.00000000000E+00  0.00000000000E+00 -0.52926815024E+03  0.27977127495E+04  0.27471934504E+04 0.  0.
        3    1    3    3  502    0  0.74160244563E+03  0.72356244436E+01  0.91280265861E+03  0.11761102182E+04  0.10100000352E+00 0. -1.
       -3    1    3    3    0  502 -0.74160244563E+03 -0.72356244436E+01 -0.14420708089E+04  0.16216025313E+04  0.10100000352E+00 0.  1.
</event>
<event>
 5   0  0.1880301E-06  0.3343701E+04  0.7818609E-02  0.8151864E-01
       -2   -1    0    0    0  501  0.00000000000E+00  0.00000000000E+00  0.15534183957E+04  0.15534183957E+04  0.25500000920E-02 0. -1.
        2   -1    0    0  501    0  0.00000000000E+00  0.00000000000E+00 -0.17993117770E+04  0.17993117770E+04  0.25500000920E-02 0.  1.
    10030    2    1    2    0    0  0.00000000000E+00  0.00000000000E+00 -0.24589338126E+03  0.33527301727E+04  0.33437009519E+04 0.  0.
        4    1    3    3  502    0  0.14349796827E+04 -0.85766953604E+03 -0.14084645418E+03  0.16776778772E+04  0.12699999809E+01 0.  1.
       -4    1    3    3    0  502 -0.14349796827E+04  0.85766953604E+03 -0.10504692708E+03  0.16750522955E+04  0.12699999809E+01 0. -1.
</event>
<event>
 5   0  0.1948507E-06  0.3789769E+04  0.7818609E-02  0.8048354E-01
        2   -1    0    0  501    0  0.00000000000E+00  0.00000000000E+00  0.22958202932E+04  0.22958202932E+04  0.25500000920E-02 0.  1.
       -2   -1    0    0    0  501  0.00000000000E+00  0.00000000000E+00 -0.15639672631E+04  0.15639672631E+04  0.25500000920E-02 0. -1.
    10030    2    1    2    0    0  0.00000000000E+00  0.00000000000E+00  0.73185303008E+03  0.38597875564E+04  0.37897692704E+04 0.  0.
        1    1    3    3  502    0  0.46848387819E+03 -0.17270670852E+04  0.10006173713E+04  0.20502372996E+04  0.50400001928E-02 0.  1.
       -1    1    3    3    0  502 -0.46848387819E+03  0.17270670852E+04 -0.26876434120E+03  0.18095502568E+04  0.50400001928E-02 0. -1.
</event>
<event>
 5   0  0.6134625E-07  0.3014180E+04  0.7818609E-02  0.8239693E-01
        1   -1    0    0  501    0  0.00000000000E+00  0.00000000000E+00  0.13880610226E+04  0.13880610226E+04  0.50400001928E-02 0. -1.
       -1   -1    0    0    0  501  0.00000000000E+00  0.00000000000E+00 -0.16363256585E+04  0.16363256585E+04  0.50400001928E-02 0.  1.
    10030    2    1    2    0    0  0.00000000000E+00  0.00000000000E+00 -0.24826463586E+03  0.30243866811E+04  0.30141797338E+04 0.  0.
        5    1    3    3  502    0 -0.95160623853E+03 -0.69868662389E+03  0.81583253621E+03  0.14350338842E+04  0.46999998093E+01 0. -1.
       -5    1    3    3    0  502  0.95160623853E+03  0.69868662389E+03 -0.10640971721E+04  0.15893527970E+04  0.46999998093E+01 0.  1.
</event>
<event>
 5   0  0.6134625E-07  0.3275355E+04  0.7818609E-02  0.8169195E-01
        1   -1    0    0  501    0  0.00000000000E+00  0.00000000000E+00  0.17519205838E+04  0.17519205838E+04  0.50400001928E-02 0.  1.
       -1   -1    0    0    0  501  0.00000000000E+00  0.00000000000E+00 -0.15308838526E+04  0.15308838526E+04  0.50400001928E-02 0. -1.
    10030    2    1    2    0    0  0.00000000000E+00  0.00000000000E+00  0.22103673123E+03  0.32828044364E+04  0.32753545962E+04 0.  0.
        1    1    3    3  502    0 -0.89380468145E+03  0.13716839008E+04  0.15040083790E+03  0.16440875720E+04  0.50400001928E-02 0. -1.
       -1    1    3    3    0  502  0.89380468145E+03 -0.13716839008E+04  0.70635893324E+02  0.16387168644E+04  0.50400001928E-02 0.  1.
</event>
<event>
 5   0  0.1339844E-06  0.3386605E+04  0.7818609E-02  0.8141202E-01
        2   -1    0    0  501    0  0.00000000000E+00  0.00000000000E+00  0.16566430859E+04  0.16566430859E+04  0.25500000920E-02 0. -1.
       -2   -1    0    0    0  501  0.00000000000E+00  0.00000000000E+00 -0.17307730668E+04  0.17307730668E+04  0.25500000920E-02 0.  1.
    10030    2    1    2    0    0  0.00000000000E+00  0.00000000000E+00 -0.74129980935E+02  0.33874161527E+04  0.33866049279E+04 0.  0.
        3    1    3    3  502    0  0.80079967996E+03 -0.10166157877E+04  0.10552064041E+04  0.16698048846E+04  0.10100000352E+00 0. -1.
       -3    1    3    3    0  502 -0.80079967996E+03  0.10166157877E+04 -0.11293363851E+04  0.17176112680E+04  0.10100000352E+00 0.  1.
</event>
<event>
 5   0  0.6134625E-07  0.3311720E+04  0.7818609E-02  0.8159920E-01
       -1   -1    0    0    0  501  0.00000000000E+00  0.00000000000E+00  0.16605324185E+04  0.16605324185E+04  0.50400001928E-02 0.  1.
        1   -1    0    0  501    0  0.00000000000E+00  0.00000000000E+00 -0.16512004252E+04  0.16512004252E+04  0.50400001928E-02 0. -1.
    10030    2    1    2    0    0  0.00000000000E+00  0.00000000000E+00  0.93319933072E+01  0.33117328437E+04  0.33117196956E+04 0.  0.
        1    1    3    3  502    0  0.11597793647E+04  0.70256816621E+03  0.95502845605E+03  0.16585444084E+04  0.50400001928E-02 0.  1.
       -1    1    3    3    0  502 -0.11597793647E+04 -0.70256816621E+03 -0.94569646274E+03  0.16531884353E+04  0.50400001928E-02 0. -1.
</event>
<event>
 5   0  0.6134625E-07  0.3376942E+04  0.7818609E-02  0.8143589E-01
       -1   -1    0    0    0  501  0.00000000000E+00  0.00000000000E+00  0.13527228694E+04  0.13527228694E+04  0.50400001928E-02 0. -1.
        1   -1    0    0  501    0  0.00000000000E+00  0.00000000000E+00 -0.21075518468E+04  0.21075518468E+04  0.50400001928E-02 0.  1.
    10030    2    1    2    0    0  0.00000000000E+00  0.00000000000E+00 -0.75482897745E+03  0.34602747162E+04  0.33769415640E+04 0.  0.
        3    1    3    3  502    0  0.11141488641E+02  0.11968325900E+04 -0.15977705919E+04  0.19963474787E+04  0.10100000352E+00 0.  1.
       -3    1    3    3    0  502 -0.11141488641E+02 -0.11968325900E+04  0.84294161447E+03  0.14639272375E+04  0.10100000352E+00 0. -1.
</event>
<event>
 5   0  0.6134625E-07  0.3372634E+04  0.7818609E-02  0.8144656E-01
        1   -1    0    0  501    0  0.00000000000E+00  0.00000000000E+00  0.18862526914E+04  0.18862526914E+04  0.50400001928E-02 0.  1.
       -1   -1    0    0    0  501  0.00000000000E+00  0.00000000000E+00 -0.15075740658E+04  0.15075740658E+04  0.50400001928E-02 0. -1.
    10030    2    1    2    0    0  0.00000000000E+00  0.00000000000E+00  0.37867862559E+03  0.33938267572E+04  0.33726343645E+04 0.  0.
        5    1    3    3  502    0  0.17228538094E+03  0.33252599219E+03 -0.14651904357E+04  0.15123031743E+04  0.46999998093E+01 0. -1.
       -5    1    3    3    0  502 -0.17228538094E+03 -0.33252599219E+03  0.18438690613E+04  0.18815235829E+04  0.46999998093E+01 0.  1.
</event>
<event>
 5   0  0.6134625E-07  0.3538987E+04  0.7818609E-02  0.8104612E-01
        1   -1    0    0  501    0  0.00000000000E+00  0.00000000000E+00  0.19508600894E+04  0.19508600894E+04  0.50400001928E-02 0. -1.
       -1   -1    0    0    0  501  0.00000000000E+00  0.00000000000E+00 -0.16049883594E+04  0.16049883594E+04  0.50400001928E-02 0.  1.
    10030    2    1    2    0    0  0.00000000000E+00  0.00000000000E+00  0.34587173003E+03  0.35558484488E+04  0.35389872757E+04 0.  0.
        1    1    3    3  502    0 -0.42981142659E+03 -0.10884020409E+04 -0.11606976131E+04  0.16482038145E+04  0.50400001928E-02 0.  1.
       -1    1    3    3    0  502  0.42981142659E+03  0.10884020409E+04  0.15065693432E+04  0.19076446343E+04  0.50400001928E-02 0. -1.
</event>
<event>
 5   0  0.6146388E-07  0.3376289E+04  0.7818609E-02  0.8143750E-01
        1   -1    0    0  501    0  0.00000000000E+00  0.00000000000E+00  0.15817568695E+04  0.15817568695E+04  0.50400001928E-02 0.  1.
       -1   -1    0    0    0  501  0.00000000000E+00  0.00000000000E+00 -0.18016873707E+04  0.18016873707E+04  0.50400001928E-02 0. -1.
    10030    2    1    2    0    0  0.00000000000E+00  0.00000000000E+00 -0.21993050117E+03  0.33834442402E+04  0.33762887171E+04 0.  0.
        4    1    3    3  502    0  0.88700693725E+03  0.23838470799E+03 -0.15293784922E+04  0.17839867603E+04  0.12699999809E+01 0. -1.
       -4    1    3    3    0  502 -0.88700693725E+03 -0.23838470799E+03  0.13094479911E+04  0.15994574799E+04  0.12699999809E+01 0.  1.
</event>
<event>
 5   0  0.6134625E-07  0.3376269E+04  0.7818609E-02  0.8143755E-01
       -1   -1    0    0    0  501  0.00000000000E+00  0.00000000000E+00  0.10554200217E+04  0.10554200217E+04  0.50400001928E-02 0. -1.
        1   -1    0    0  501    0  0.00000000000E+00  0.00000000000E+00 -0.27001561736E+04  0.27001561736E+04  0.50400001928E-02 0.  1.
    10030    2    1    2    0    0  0.00000000000E+00  0.00000000000E+00 -0.16447361519E+04  0.37555761953E+04  0.33762694723E+04 0.  0.
        5    1    3    3  502    0  0.91276675007E+03  0.74070415956E+03 -0.21700927298E+04  0.24680174914E+04  0.46999998093E+01 0.  1.
       -5    1    3    3    0  502 -0.91276675007E+03 -0.74070415956E+03  0.52535657788E+03  0.12875587039E+04  0.46999998093E+01 0. -1.
</event>
<event>
 5   0  0.1339844E-06  0.3409660E+04  0.7818609E-02  0.8135540E-01
        2   -1    0    0  501    0  0.00000000000E+00  0.00000000000E+00  0.22869860099E+04  0.22869860099E+04  0.25500000920E-02 0. -1.
       -2   -1    0    0    0  501  0.00000000000E+00  0.00000000000E+00 -0.12708624292E+04  0.12708624292E+04  0.25500000920E-02 0.  1.
    10030    2    1    2    0    0  0.00000000000E+00  0.00000000000E+00  0.10161235806E+04  0.35578484391E+04  0.34096595702E+04 0.  0.
        3    1    3    3  502    0 -0.10373964789E+04 -0.80274000091E+03  0.16443629000E+04  0.21034524765E+04  0.10100000352E+00 0. -1.
       -3    1    3    3    0  502  0.10373964789E+04  0.80274000091E+03 -0.62823931939E+03  0.14543959626E+04  0.10100000352E+00 0.  1.
</event>
<event>
 5   0  0.6134625E-07  0.3386457E+04  0.7818609E-02  0.8141238E-01
        3   -1    0    0  501    0  0.00000000000E+00  0.00000000000E+00  0.14870193983E+04  0.14870194017E+04  0.10100000352E+00 0. -1.
       -3   -1    0    0    0  501  0.00000000000E+00  0.00000000000E+00 -0.19280334605E+04  0.19280334631E+04  0.10100000352E+00 0.  1.
    10030    2    1    2    0    0  0.00000000000E+00  0.00000000000E+00 -0.44101406220E+03  0.34150528649E+04  0.33864572442E+04 0.  0.
        4    1    3    3  502    0  0.18697871037E+03 -0.16802934765E+04 -0.31442966670E+03  0.17196554403E+04  0.12699999809E+01 0.  1.
       -4    1    3    3    0  502 -0.18697871037E+03  0.16802934765E+04 -0.12658439549E+03  0.16953974246E+04  0.12699999809E+01 0. -1.
</event>
<event>
 5   0  0.6134625E-07  0.3416839E+04  0.7818609E-02  0.8133786E-01
        1   -1    0    0  501    0  0.00000000000E+00  0.00000000000E+00  0.17099669738E+04  0.17099669739E+04  0.50400001928E-02 0. -1.
       -1   -1    0    0    0  501  0.00000000000E+00  0.00000000000E+00 -0.17068731895E+04  0.17068731895E+04  0.50400001928E-02 0.  1.
    10030    2    1    2    0    0  0.00000000000E+00  0.00000000000E+00  0.30937843063E+01  0.34168401634E+04  0.34168387628E+04 0.  0.
        1    1    3    3  502    0 -0.83142908899E+03 -0.21295385699E+03  0.14787316796E+04  0.17097576014E+04  0.50400001928E-02 0. -1.
       -1    1    3    3    0  502  0.83142908899E+03  0.21295385699E+03 -0.14756378953E+04  0.17070825620E+04  0.50400001928E-02 0.  1.
</event>
<event>
 5   0  0.6218695E-07  0.2735267E+04  0.7818609E-02  0.8323652E-01
        1   -1    0    0  501    0  0.00000000000E+00  0.00000000000E+00  0.25353063854E+04  0.25353063854E+04  0.50400001928E-02 0.  1.
       -1   -1    0    0    0  501  0.00000000000E+00  0.00000000000E+00 -0.73774974975E+03  0.73774974977E+03  0.50400001928E-02 0. -1.
    10030    2    1    2    0    0  0.00000000000E+00  0.00000000000E+00  0.17975566357E+04  0.32730561352E+04  0.27352671909E+04 0.  0.
        2    1    3    3  502    0 -0.11294163810E+04  0.43530955835E+03  0.13693339390E+03  0.12181241840E+04  0.25500000920E-02 0. -1.
       -2    1    3    3    0  502  0.11294163810E+04 -0.43530955835E+03  0.16606232418E+04  0.20549319513E+04  0.25500000920E-02 0.  1.
</event>
<event>
 5   0  0.6134625E-07  0.2559435E+04  0.7818609E-02  0.8382112E-01
       -1   -1    0    0    0  501  0.00000000000E+00  0.00000000000E+00  0.78308705171E+03  0.78308705172E+03  0.50400001928E-02 0. -1.
        1   -1    0    0  501    0  0.00000000000E+00  0.00000000000E+00 -0.20913095015E+04  0.20913095015E+04  0.50400001928E-02 0.  1.
    10030    2    1    2    0    0  0.00000000000E+00  0.00000000000E+00 -0.13082224498E+04  0.28743965532E+04  0.25594354000E+04 0.  0.
        3    1    3    3  502    0 -0.31842222747E+03  0.12365696682E+04 -0.55894815789E+03  0.13938867647E+04  0.10100000352E+00 0. -1.
       -3    1    3    3    0  502  0.31842222747E+03 -0.12365696682E+04 -0.74927429187E+03  0.14805097885E+04  0.10100000352E+00 0.  1.
</event>
<event>
 5   0  0.1880301E-06  0.3395503E+04  0.7818609E-02  0.8139011E-01
        2   -1    0    0  501    0  0.00000000000E+00  0.00000000000E+00  0.15469221289E+04  0.15469221289E+04  0.25500000920E-02 0. -1.
       -2   -1    0    0    0  501  0.00000000000E+00  0.00000000000E+00 -0.18632868459E+04  0.18632868459E+04  0.25500000920E-02 0.  1.
    10030    2    1    2    0    0  0.00000000000E+00  0.00000000000E+00 -0.31636471702E+03  0.34102089748E+04  0.33955027047E+04 0.  0.
        4    1    3    3  502    0  0.36093436081E+03  0.92627371815E+01 -0.18242821844E+04  0.18596683877E+04  0.12699999809E+01 0.  1.
       -4    1    3    3    0  502 -0.36093436081E+03 -0.92627371815E+01  0.15079174674E+04  0.15505405871E+04  0.12699999809E+01 0. -1.
</event>
<event>
 5   0  0.1339844E-06  0.3443467E+04  0.7818609E-02  0.8127320E-01
        2   -1    0    0  501    0  0.00000000000E+00  0.00000000000E+00  0.11966509030E+04  0.11966509031E+04  0.25500000920E-02 0. -1.
       -2   -1    0    0    0  501  0.00000000000E+00  0.00000000000E+00 -0.24772182857E+04  0.24772182857E+04  0.25500000920E-02 0.  1.
    10030    2    1    2    0    0  0.00000000000E+00  0.00000000000E+00 -0.12805673826E+04  0.36738691887E+04  0.34434665665E+04 0.  0.
        3    1    3    3  502    0  0.16658876578E+04 -0.41516232544E+03 -0.77866996340E+03  0.18851706466E+04  0.10100000352E+00 0.  1.
       -3    1    3    3    0  502 -0.16658876578E+04  0.41516232544E+03 -0.50189741922E+03  0.17886985421E+04  0.10100000352E+00 0. -1.
</event>
<event>
 5   0  0.6146388E-07  0.3351917E+04  0.7818609E-02  0.8149809E-01
       -1   -1    0    0    0  501  0.00000000000E+00  0.00000000000E+00  0.22547619206E+04  0.22547619206E+04  0.50400001928E-02 0.  1.
        1   -1    0    0  501    0  0.00000000000E+00  0.00000000000E+00 -0.12457356965E+04  0.12457356965E+04  0.50400001928E-02 0. -1.
    10030    2    1    2    0    0  0.00000000000E+00  0.00000000000E+00  0.10090262241E+04  0.35004976171E+04  0.33519173090E+04 0.  0.
        4    1    3    3  502    0 -0.56075304730E+03  0.11009976826E+04  0.16870472466E+04  0.20911169031E+04  0.12699999809E+01 0.  1.
       -4    1    3    3    0  502  0.56075304730E+03 -0.11009976826E+04 -0.67802102251E+03  0.14093807140E+04  0.12699999809E+01 0. -1.
</event>
<event>
 5   0  0.1911477E-06  0.3362819E+04  0.7818609E-02  0.8147092E-01
       -2   -1    0    0    0  501  0.00000000000E+00  0.00000000000E+00  0.14093785868E+04  0.14093785868E+04  0.25500000920E-02 0. -1.
        2   -1    0    0  501    0  0.00000000000E+00  0.00000000000E+00 -0.20059466780E+04  0.20059466780E+04  0.25500000920E-02 0.  1.
    10030    2    1    2    0    0  0.00000000000E+00  0.00000000000E+00 -0.59656809118E+03  0.34153252647E+04  0.33628192304E+04 0.  0.
        5    1    3    3  502    0 -0.11012535620E+04  0.42221520565E+03  0.91879713299E+03  0.14950703493E+04  0.46999998093E+01 0. -1.
       -5    1    3    3    0  502  0.11012535620E+04 -0.42221520565E+03 -0.15153652242E+04  0.19202549155E+04  0.46999998093E+01 0.  1.
</event>
<event>
 5   0  0.6218695E-07  0.3385691E+04  0.7818609E-02  0.8141427E-01
        1   -1    0    0  501    0  0.00000000000E+00  0.00000000000E+00  0.23580459367E+04  0.23580459367E+04  0.50400001928E-02 0. -1.
       -1   -1    0    0    0  501  0.00000000000E+00  0.00000000000E+00 -0.12152967094E+04  0.12152967094E+04  0.50400001928E-02 0.  1.
    10030    2    1    2    0    0  0.00000000000E+00  0.00000000000E+00  0.11427492273E+04  0.35733426461E+04  0.33856907522E+04 0.  0.
        2    1    3    3  502    0 -0.11590844140E+04  0.66438698000E+03  0.16686302600E+04  0.21375719128E+04  0.25500000920E-02 0. -1.
       -2    1    3    3    0  502  0.11590844140E+04 -0.66438698000E+03 -0.52588103268E+03  0.14357707332E+04  0.25500000920E-02 0.  1.
</event>
<event>
 5   0  0.6134625E-07  0.3321820E+04  0.7818609E-02  0.8157365E-01
       -1   -1    0    0    0  501  0.00000000000E+00  0.00000000000E+00  0.18482551136E+04  0.18482551136E+04  0.50400001928E-02 0. -1.
        1   -1    0    0  501    0  0.00000000000E+00  0.00000000000E+00 -0.14925545187E+04  0.14925545187E+04  0.50400001928E-02 0.  1.
    10030    2    1    2    0    0  0.00000000000E+00  0.00000000000E+00  0.35570059483E+03  0.33408096323E+04  0.33218196950E+04 0.  0.
        1    1    3    3  502    0 -0.56263089151E+03 -0.15612533687E+03 -0.13859318085E+04  0.15039067853E+04  0.50400001928E-02 0.  1.
       -1    1    3    3    0  502  0.56263089151E+03  0.15612533687E+03  0.17416324034E+04  0.18369028470E+04  0.50400001928E-02 0. -1.
</event>
<event>
 5   0  0.6134625E-07  0.3400316E+04  0.7818609E-02  0.8137829E-01
        1   -1    0    0  501    0  0.00000000000E+00  0.00000000000E+00  0.21247661273E+04  0.21247661273E+04  0.50400001928E-02 0. -1.
       -1   -1    0    0    0  501  0.00000000000E+00  0.00000000000E+00 -0.13604021473E+04  0.13604021473E+04  0.50400001928E-02 0.  1.
    10030    2    1    2    0    0  0.00000000000E+00  0.00000000000E+00  0.76436398003E+03  0.34851682746E+04  0.34003155160E+04 0.  0.
        5    1    3    3  502    0 -0.13595918580E+04  0.78186661355E+03  0.10548433066E+04  0.18901116139E+04  0.46999998093E+01 0.  1.
       -5    1    3    3    0  502  0.13595918580E+04 -0.78186661355E+03 -0.29047932658E+03  0.15950566607E+04  0.46999998093E+01 0. -1.
</event>
<event>
 5   0  0.6146388E-07  0.2499087E+04  0.7818609E-02  0.8403311E-01
        1   -1    0    0  501    0  0.00000000000E+00  0.00000000000E+00  0.11449978285E+04  0.11449978285E+04  0.50400001928E-02 0.  1.
       -1   -1    0    0    0  501  0.00000000000E+00  0.00000000000E+00 -0.13636350878E+04  0.13636350878E+04  0.50400001928E-02 0. -1.
    10030    2    1    2    0    0  0.00000000000E+00  0.00000000000E+00 -0.21863725931E+03  0.25086329163E+04  0.24990872049E+04 0.  0.
        4    1    3    3  502    0  0.12576100215E+03  0.23753786068E+03 -0.13342737984E+04  0.13610761356E+04  0.12699999809E+01 0. -1.
       -4    1    3    3    0  502 -0.12576100215E+03 -0.23753786068E+03  0.11156365391E+04  0.11475567808E+04  0.12699999809E+01 0.  1.
</event>
<event>
 5   0  0.1880301E-06  0.3431277E+04  0.7818609E-02  0.8130272E-01
       -2   -1    0    0    0  501  0.00000000000E+00  0.00000000000E+00  0.13080640912E+04  0.13080640912E+04  0.25500000920E-02 0.  1.
        2   -1    0    0  501    0  0.00000000000E+00  0.00000000000E+00 -0.22502071315E+04  0.22502071315E+04  0.25500000920E-02 0. -1.
    10030    2    1    2    0    0  0.00000000000E+00  0.00000000000E+00 -0.94214304030E+03  0.35582712228E+04  0.34312768158E+04 0.  0.
        4    1    3    3  502    0  0.15632204933E+03 -0.88299064403E+03  0.10456979974E+04  0.13775322048E+04  0.12699999809E+01 0.  1.
       -4    1    3    3    0  502 -0.15632204933E+03  0.88299064403E+03 -0.19878410377E+04  0.21807390180E+04  0.12699999809E+01 0. -1.
</event>
<event>
 5   0  0.6134625E-07  0.3395400E+04  0.7818609E-02  0.8139036E-01
        1   -1    0    0  501    0  0.00000000000E+00  0.00000000000E+00  0.19795441399E+04  0.19795441399E+04  0.50400001928E-02 0.  1.
       -1   -1    0    0    0  501  0.00000000000E+00  0.00000000000E+00 -0.14559847082E+04  0.14559847082E+04  0.50400001928E-02 0. -1.
    10030    2    1    2    0    0  0.00000000000E+00  0.00000000000E+00  0.52355943165E+03  0.34355288481E+04  0.33954004164E+04 0.  0.
        5    1    3    3  502    0 -0.15169502867E+04 -0.65732585378E+02 -0.50660628887E+03  0.16006657887E+04  0.46999998093E+01 0.  1.
       -5    1    3    3    0  502  0.15169502867E+04  0.65732585378E+02  0.10301657205E+04  0.18348630594E+04  0.46999998093E+01 0. -1.
</event>
<event>
 5   0  0.1880301E-06  0.3079235E+04  0.7818609E-02  0.8221460E-01
        2   -1    0    0  501    0  0.00000000000E+00  0.00000000000E+00  0.17879888422E+04  0.17879888422E+04  0.25500000920E-02 0. -1.
       -2   -1    0    0    0  501  0.00000000000E+00  0.00000000000E+00 -0.13257472901E+04  0.13257472901E+04  0.25500000920E-02 0.  1.
    10030    2    1    2    0    0  0.00000000000E+00  0.00000000000E+00  0.46224155216E+03  0.31137361323E+04  0.30792345557E+04 0.  0.
        4    1    3    3  502    0  0.52612289768E+03 -0.22429184560E+03 -0.12143386685E+04  0.13422861655E+04  0.12699999809E+01 0.  1.
       -4    1    3    3    0  502 -0.52612289768E+03  0.22429184560E+03  0.16765802207E+04  0.17714499667E+04  0.12699999809E+01 0. -1.
</event>
<event>
 5   0  0.6134625E-07  0.3398754E+04  0.7818609E-02  0.8138212E-01
       -1   -1    0    0    0  501  0.00000000000E+00  0.00000000000E+00  0.14778613375E+04  0.14778613375E+04  0.50400001928E-02 0. -1.
        1   -1    0    0  501    0  0.00000000000E+00  0.00000000000E+00 -0.19540953010E+04  0.19540953010E+04  0.50400001928E-02 0.  1.
    10030    2    1    2    0    0  0.00000000000E+00  0.00000000000E+00 -0.47623396355E+03  0.34319566385E+04  0.33987538276E+04 0.  0.
        1    1    3    3  502    0 -0.16956765098E+04  0.21807738758E+02 -0.34913415856E+03  0.17313835693E+04  0.50400001928E-02 0. -1.
       -1    1    3    3    0  502  0.16956765098E+04 -0.21807738758E+02 -0.12709980498E+03  0.17005730692E+04  0.50400001928E-02 0.  1.
</event>
<event>
 5   0  0.6218695E-07  0.3358777E+04  0.7818609E-02  0.8148099E-01
        1   -1    0    0  501    0  0.00000000000E+00  0.00000000000E+00  0.27003858237E+04  0.27003858237E+04  0.50400001928E-02 0. -1.
       -1   -1    0    0    0  501  0.00000000000E+00  0.00000000000E+00 -0.10444230464E+04  0.10444230464E+04  0.50400001928E-02 0.  1.
    10030    2    1    2    0    0  0.00000000000E+00  0.00000000000E+00  0.16559627774E+04  0.37448088701E+04  0.33587766752E+04 0.  0.
        2    1    3    3  502    0 -0.76484931058E+03 -0.14772879080E+04  0.10845882473E+04  0.19858765563E+04  0.25500000920E-02 0. -1.
       -2    1    3    3    0  502  0.76484931058E+03  0.14772879080E+04  0.57137453012E+03  0.17589323138E+04  0.25500000920E-02 0.  1.
</event>
<event>
 5   0  0.1880301E-06  0.3412932E+04  0.7818609E-02  0.8134740E-01
        2   -1    0    0  501    0  0.00000000000E+00  0.00000000000E+00  0.17146858059E+04  0.17146858059E+04  0.25500000920E-02 0. -1.
       -2   -1    0    0    0  501  0.00000000000E+00  0.00000000000E+00 -0.16982856148E+04  0.16982856148E+04  0.25500000920E-02 0.  1.
    10030    2    1    2    0    0  0.00000000000E+00  0.00000000000E+00  0.16400191077E+02  0.34129714207E+04  0.34129320169E+04 0.  0.
        4    1    3    3  502    0  0.16098559397E+04 -0.56602748104E+03  0.93702354127E+01  0.17064913332E+04  0.12699999809E+01 0. -1.
       -4    1    3    3    0  502 -0.16098559397E+04  0.56602748104E+03  0.70299556645E+01  0.17064800875E+04  0.12699999809E+01 0.  1.
</event>
<event>
 5   0  0.1880301E-06  0.3375272E+04  0.7818609E-02  0.8144002E-01
        2   -1    0    0  501    0  0.00000000000E+00  0.00000000000E+00  0.15659583384E+04  0.15659583384E+04  0.25500000920E-02 0.  1.
       -2   -1    0    0    0  501  0.00000000000E+00  0.00000000000E+00 -0.18187678625E+04  0.18187678625E+04  0.25500000920E-02 0. -1.
    10030    2    1    2    0    0  0.00000000000E+00  0.00000000000E+00 -0.25280952412E+03  0.33847262010E+04  0.33752716631E+04 0.  0.
        4    1    3    3  502    0 -0.13467423327E+03 -0.11780418863E+04 -0.13306821711E+04  0.17823121187E+04  0.12699999809E+01 0. -1.
       -4    1    3    3    0  502  0.13467423327E+03  0.11780418863E+04  0.10778726470E+04  0.16024140823E+04  0.12699999809E+01 0.  1.
</event>
<event>
 5   0  0.1911477E-06  0.3515358E+04  0.7818609E-02  0.8110160E-01
        2   -1    0    0  501    0  0.00000000000E+00  0.00000000000E+00  0.22491441524E+04  0.22491441524E+04  0.25500000920E-02 0. -1.
       -2   -1    0    0    0  501  0.00000000000E+00  0.00000000000E+00 -0.13736052534E+04  0.13736052534E+04  0.25500000920E-02 0.  1.
    10030    2    1    2    0    0  0.00000000000E+00  0.00000000000E+00  0.87553889907E+03  0.36227494058E+04  0.35153584303E+04 0.  0.
        5    1    3    3  502    0 -0.81703339219E+03  0.35632219106E+03  0.19989424915E+04  0.21886759107E+04  0.46999998093E+01 0. -1.
       -5    1    3    3    0  502  0.81703339219E+03 -0.35632219106E+03 -0.11234035924E+04  0.14340734951E+04  0.46999998093E+01 0.  1.
</event>
<event>
 5   0  0.1948507E-06  0.2671995E+04  0.7818609E-02  0.8344149E-01
       -2   -1    0    0    0  501  0.00000000000E+00  0.00000000000E+00  0.89671208694E+03  0.89671208694E+03  0.25500000920E-02 0. -1.
        2   -1    0    0  501    0  0.00000000000E+00  0.00000000000E+00 -0.19904826265E+04  0.19904826265E+04  0.25500000920E-02 0.  1.
    10030    2    1    2    0    0  0.00000000000E+00  0.00000000000E+00 -0.10937705395E+04  0.28871947134E+04  0.26719953817E+04 0.  0.
        1    1    3    3  502    0 -0.16343333448E+03  0.49792215791E+03  0.78101423768E+03  0.94054248689E+03  0.50400001928E-02 0. -1.
       -1    1    3    3    0  502  0.16343333448E+03 -0.49792215791E+03 -0.18747847772E+04  0.19466522265E+04  0.50400001928E-02 0.  1.
</event>
<event>
 5   0  0.6134625E-07  0.3383587E+04  0.7818609E-02  0.8141946E-01
       -1   -1    0    0    0  501  0.00000000000E+00  0.00000000000E+00  0.17251522920E+04  0.17251522920E+04  0.50400001928E-02 0.  1.
        1   -1    0    0  501    0  0.00000000000E+00  0.00000000000E+00 -0.16590794308E+04  0.16590794308E+04  0.50400001928E-02 0. -1.
    10030    2    1    2    0    0  0.00000000000E+00  0.00000000000E+00  0.66072861204E+02  0.33842317228E+04  0.33835866667E+04 0.  0.
        5    1    3    3  502    0 -0.16238113237E+04  0.35277885651E+03  0.35078624011E+03  0.16983195262E+04  0.46999998093E+01 0. -1.
       -5    1    3    3    0  502  0.16238113237E+04 -0.35277885651E+03 -0.28471337890E+03  0.16859121967E+04  0.46999998093E+01 0.  1.
</event>
<event>
 5   0  0.1339844E-06  0.3409666E+04  0.7818609E-02  0.8135538E-01
       -2   -1    0    0    0  501  0.00000000000E+00  0.00000000000E+00  0.17026944369E+04  0.17026944369E+04  0.25500000920E-02 0.  1.
        2   -1    0    0  501    0  0.00000000000E+00  0.00000000000E+00 -0.17069744445E+04  0.17069744445E+04  0.25500000920E-02 0. -1.
    10030    2    1    2    0    0  0.00000000000E+00  0.00000000000E+00 -0.42800075645E+01  0.34096688814E+04  0.34096661951E+04 0.  0.
        3    1    3    3  502    0  0.22162797192E+03  0.16717710920E+04  0.24789686701E+03  0.17045205804E+04  0.10100000352E+00 0.  1.
       -3    1    3    3    0  502 -0.22162797192E+03 -0.16717710920E+04 -0.25217687458E+03  0.17051483010E+04  0.10100000352E+00 0. -1.
</event>
<event>
 5   0  0.1911477E-06  0.3410422E+04  0.7818609E-02  0.8135353E-01
       -2   -1    0    0    0  501  0.00000000000E+00  0.00000000000E+00  0.17205848859E+04  0.17205848859E+04  0.25500000920E-02 0. -1.
        2   -1    0    0  501    0  0.00000000000E+00  0.00000000000E+00 -0.16899746820E+04  0.16899746820E+04  0.25500000920E-02 0.  1.
    10030    2    1    2    0    0  0.00000000000E+00  0.00000000000E+00  0.30610203931E+02  0.34105595679E+04  0.34104221999E+04 0.  0.
        5    1    3    3  502    0 -0.60526367859E+03 -0.67455174648E+03 -0.14291763628E+04  0.16923153799E+04  0.46999998093E+01 0.  1.
       -5    1    3    3    0  502  0.60526367859E+03  0.67455174648E+03  0.14597865667E+04  0.17182441880E+04  0.46999998093E+01 0. -1.
</event>
<event>
 5   0  0.1339844E-06  0.3498433E+04  0.7818609E-02  0.8114161E-01
       -2   -1    0    0    0  501  0.00000000000E+00  0.00000000000E+00  0.17171970432E+04  0.17171970432E+04  0.25500000920E-02 0. -1.
        2   -1    0    0  501    0  0.00000000000E+00  0.00000000000E+00 -0.17818326791E+04  0.17818326791E+04  0.25500000920E-02 0.  1.
    10030    2    1    2    0    0  0.00000000000E+00  0.00000000000E+00 -0.64635635851E+02  0.34990297223E+04  0.34984326823E+04 0.  0.
        3    1    3    3  502    0 -0.32037793719E+03 -0.72261889257E+03 -0.15930128143E+04  0.17783447144E+04  0.10100000352E+00 0.  1.
       -3    1    3    3    0  502  0.32037793719E+03  0.72261889257E+03  0.15283771785E+04  0.17206850079E+04  0.10100000352E+00 0. -1.
</event>
<event>
 5   0  0.6134625E-07  0.3444015E+04  0.7818609E-02  0.8127187E-01
       -1   -1    0    0    0  501  0.00000000000E+00  0.00000000000E+00  0.13894988557E+04  0.13894988557E+04  0.50400001928E-02 0. -1.
        1   -1    0    0  501    0  0.00000000000E+00  0.00000000000E+00 -0.21340863864E+04  0.21340863864E+04  0.50400001928E-02 0.  1.
    10030    2    1    2    0    0  0.00000000000E+00  0.00000000000E+00 -0.74458753070E+03  0.35235852421E+04  0.34440154424E+04 0.  0.
        1    1    3    3  502    0 -0.33763712739E+03 -0.88012014158E+03  0.11020766404E+04  0.14502355721E+04  0.50400001928E-02 0. -1.
       -1    1    3    3    0  502  0.33763712739E+03  0.88012014158E+03 -0.18466641711E+04  0.20733496700E+04  0.50400001928E-02 0.  1.
</event>
<event>
 5   0  0.6218695E-07  0.2628276E+04  0.7818609E-02  0.8358660E-01
       -1   -1    0    0    0  501  0.00000000000E+00  0.00000000000E+00  0.79820569666E+03  0.79820569668E+03  0.50400001928E-02 0. -1.
        1   -1    0    0  501    0  0.00000000000E+00  0.00000000000E+00 -0.21635505147E+04  0.21635505147E+04  0.50400001928E-02 0.  1.
    10030    2    1    2    0    0  0.00000000000E+00  0.00000000000E+00 -0.13653448180E+04  0.29617562113E+04  0.26282757434E+04 0.  0.
        2    1    3    3  502    0 -0.11553874778E+04  0.12161077775E+03  0.94651157978E+01  0.11618085012E+04  0.25500000920E-02 0. -1.
       -2    1    3    3    0  502  0.11553874778E+04 -0.12161077775E+03 -0.13748099338E+04  0.17999477101E+04  0.25500000920E-02 0.  1.
</event>
<event>
 5   0  0.6134625E-07  0.2967132E+04  0.7818609E-02  0.8253179E-01
       -1   -1    0    0    0  501  0.00000000000E+00  0.00000000000E+00  0.14713570515E+04  0.14713570515E+04  0.50400001928E-02 0. -1.
        1   -1    0    0  501    0  0.00000000000E+00  0.00000000000E+00 -0.14958758671E+04  0.14958758671E+04  0.50400001928E-02 0.  1.
    10030    2    1    2    0    0  0.00000000000E+00  0.00000000000E+00 -0.24518815641E+02  0.29672329186E+04  0.29671316150E+04 0.  0.
        3    1    3    3  502    0  0.14096482748E+04 -0.10096940015E+02  0.45009530947E+03  0.14797959334E+04  0.10100000352E+00 0. -1.
       -3    1    3    3    0  502 -0.14096482748E+04  0.10096940015E+02 -0.47461412511E+03  0.14874369851E+04  0.10100000352E+00 0.  1.
</event>
<event>
 5   0  0.6134625E-07  0.2612601E+04  0.7818609E-02  0.8363933E-01
       -1   -1    0    0    0  501  0.00000000000E+00  0.00000000000E+00  0.98707544391E+03  0.98707544392E+03  0.50400001928E-02 0.  1.
        1   -1    0    0  501    0  0.00000000000E+00  0.00000000000E+00 -0.17287647403E+04  0.17287647403E+04  0.50400001928E-02 0. -1.
    10030    2    1    2    0    0  0.00000000000E+00  0.00000000000E+00 -0.74168929642E+03  0.27158401843E+04  0.26126011739E+04 0.  0.
        3    1    3    3  502    0  0.10134079635E+04 -0.26568737270E+03 -0.11819572690E+04  0.15794329604E+04  0.10100000352E+00 0.  1.
       -3    1    3    3    0  502 -0.10134079635E+04  0.26568737270E+03  0.44026797254E+03  0.11364072239E+04  0.10100000352E+00 0. -1.
</event>
<event>
 5   0  0.1797075E-06  0.3407648E+04  0.7818609E-02  0.8136032E-01
        2   -1    0    0  501    0  0.00000000000E+00  0.00000000000E+00  0.18781713080E+04  0.18781713080E+04  0.25500000920E-02 0.  1.
       -2   -1    0    0    0  501  0.00000000000E+00  0.00000000000E+00 -0.15456607296E+04  0.15456607296E+04  0.25500000920E-02 0. -1.
    10030    2    1    2    0    0  0.00000000000E+00  0.00000000000E+00  0.33251057837E+03  0.34238320376E+04  0.34076476545E+04 0.  0.
        2    1    3    3  502    0  0.59415216118E+03 -0.10510548451E+03 -0.14347213182E+04  0.15564347768E+04  0.25500000920E-02 0. -1.
       -2    1    3    3    0  502 -0.59415216118E+03  0.10510548451E+03  0.17672318966E+04  0.18673972608E+04  0.25500000920E-02 0.  1.
</event>
<event>
 5   0  0.6134625E-07  0.3409554E+04  0.7818609E-02  0.8135565E-01
        1   -1    0    0  501    0  0.00000000000E+00  0.00000000000E+00  0.26865760728E+04  0.26865760728E+04  0.50400001928E-02 0. -1.
       -1   -1    0    0    0  501  0.00000000000E+00  0.00000000000E+00 -0.10817725268E+04  0.10817725268E+04  0.50400001928E-02 0.  1.
    10030    2    1    2    0    0  0.00000000000E+00  0.00000000000E+00  0.16048035461E+04  0.37683485996E+04  0.34095537459E+04 0.  0.
        3    1    3    3  502    0 -0.16684129997E+04 -0.32761872569E+03  0.93923741865E+03  0.19424476584E+04  0.10100000352E+00 0. -1.
       -3    1    3    3    0  502  0.16684129997E+04  0.32761872569E+03  0.66556612741E+03  0.18259009412E+04  0.10100000352E+00 0.  1.
</event>
<event>
 5   0  0.1911477E-06  0.3401222E+04  0.7818609E-02  0.8137607E-01
        2   -1    0    0  501    0  0.00000000000E+00  0.00000000000E+00  0.23379088045E+04  0.23379088045E+04  0.25500000920E-02 0.  1.
       -2   -1    0    0    0  501  0.00000000000E+00  0.00000000000E+00 -0.12370359726E+04  0.12370359726E+04  0.25500000920E-02 0. -1.
    10030    2    1    2    0    0  0.00000000000E+00  0.00000000000E+00  0.11008728320E+04  0.35749447771E+04  0.34012217168E+04 0.  0.
        5    1    3    3  502    0  0.49622825567E+03 -0.78328763302E+03  0.20488283952E+04  0.22488890326E+04  0.46999998093E+01 0.  1.
       -5    1    3    3    0  502 -0.49622825567E+03  0.78328763302E+03 -0.94795556324E+03  0.13260557445E+04  0.46999998093E+01 0. -1.
</event>
<event>
 5   0  0.6134625E-07  0.3462814E+04  0.7818609E-02  0.8122659E-01
       -1   -1    0    0    0  501  0.00000000000E+00  0.00000000000E+00  0.18499512259E+04  0.18499512260E+04  0.50400001928E-02 0. -1.
        1   -1    0    0  501    0  0.00000000000E+00  0.00000000000E+00 -0.16204593569E+04  0.16204593569E+04  0.50400001928E-02 0.  1.
    10030    2    1    2    0    0  0.00000000000E+00  0.00000000000E+00  0.22949186904E+03  0.34704105829E+04  0.34628143317E+04 0.  0.
        1    1    3    3  502    0  0.82886503843E+03  0.60160648435E+03 -0.12843189905E+04  0.16426877011E+04  0.50400001928E-02 0.  1.
       -1    1    3    3    0  502 -0.82886503843E+03 -0.60160648435E+03  0.15138108596E+04  0.18277228818E+04  0.50400001928E-02 0. -1.
</event>
<event>
 5   0  0.1948507E-06  0.3338764E+04  0.7818609E-02  0.8153101E-01
        2   -1    0    0  501    0  0.00000000000E+00  0.00000000000E+00  0.21720101668E+04  0.21720101668E+04  0.25500000920E-02 0.  1.
       -2   -1    0    0    0  501  0.00000000000E+00  0.00000000000E+00 -0.12830680165E+04  0.12830680165E+04  0.25500000920E-02 0. -1.
    10030    2    1    2    0    0  0.00000000000E+00  0.00000000000E+00  0.88894215030E+03  0.34550781834E+04  0.33387643083E+04 0.  0.
        1    1    3    3  502    0  0.13120980407E+04 -0.56516228403E+03 -0.44922777083E+03  0.14976031737E+04  0.50400001928E-02 0. -1.
       -1    1    3    3    0  502 -0.13120980407E+04  0.56516228403E+03  0.13381699211E+04  0.19574750097E+04  0.50400001928E-02 0.  1.
</event>
<event>
 5   0  0.1797075E-06  0.3429434E+04  0.7818609E-02  0.8130720E-01
       -2   -1    0    0    0  501  0.00000000000E+00  0.00000000000E+00  0.12795916022E+04  0.12795916022E+04  0.25500000920E-02 0.  1.
        2   -1    0    0  501    0  0.00000000000E+00  0.00000000000E+00 -0.22978075068E+04  0.22978075068E+04  0.25500000920E-02 0. -1.
    10030    2    1    2    0    0  0.00000000000E+00  0.00000000000E+00 -0.10182159046E+04  0.35773991089E+04  0.34294344659E+04 0.  0.
        2    1    3    3  502    0  0.61312202387E+03 -0.85386429463E+03 -0.19222726488E+04  0.21909210360E+04  0.25500000920E-02 0. -1.
       -2    1    3    3    0  502 -0.61312202387E+03  0.85386429463E+03  0.90405674421E+03  0.13864780729E+04  0.25500000920E-02 0.  1.
</event>
<event>
 5   0  0.6134625E-07  0.3461276E+04  0.7818609E-02  0.8123029E-01
        3   -1    0    0  501    0  0.00000000000E+00  0.00000000000E+00  0.18879695180E+04  0.18879695207E+04  0.10100000352E+00 0. -1.
       -3   -1    0    0    0  501  0.00000000000E+00  0.00000000000E+00 -0.15864174670E+04  0.15864174702E+04  0.10100000352E+00 0.  1.
    10030    2    1    2    0    0  0.00000000000E+00  0.00000000000E+00  0.30155205097E+03  0.34743869909E+04  0.34612759674E+04 0.  0.
        5    1    3    3  502    0  0.14494877273E+04 -0.10476474955E+03 -0.79251516501E+03  0.16553225369E+04  0.46999998093E+01 0.  1.
       -5    1    3    3    0  502 -0.14494877273E+04  0.10476474955E+03  0.10940672160E+04  0.18190644539E+04  0.46999998093E+01 0. -1.
</event>
<event>
 5   0  0.6134625E-07  0.2656582E+04  0.7818609E-02  0.8349232E-01
        1   -1    0    0  501    0  0.00000000000E+00  0.00000000000E+00  0.11462974430E+04  0.11462974430E+04  0.50400001928E-02 0.  1.
       -1   -1    0    0    0  501  0.00000000000E+00  0.00000000000E+00 -0.15391786620E+04  0.15391786620E+04  0.50400001928E-02 0. -1.
    10030    2    1    2    0    0  0.00000000000E+00  0.00000000000E+00 -0.39288121902E+03  0.26854761050E+04  0.26565816868E+04 0.  0.
        3    1    3    3  502    0  0.12739968996E+04  0.33521851519E+03 -0.36834016148E+03  0.13678867051E+04  0.10100000352E+00 0.  1.
       -3    1    3    3    0  502 -0.12739968996E+04 -0.33521851519E+03 -0.24541057539E+02  0.13175894000E+04  0.10100000352E+00 0. -1.
</event>
<event>
 5   0  0.1948507E-06  0.3360340E+04  0.7818609E-02  0.8147709E-01
       -2   -1    0    0    0  501  0.00000000000E+00  0.00000000000E+00  0.21686965564E+04  0.21686965564E+04  0.25500000920E-02 0.  1.
        2   -1    0    0  501    0  0.00000000000E+00  0.00000000000E+00 -0.13016901413E+04  0.13016901413E+04  0.25500000920E-02 0. -1.
    10030    2    1    2    0    0  0.00000000000E+00  0.00000000000E+00  0.86700641510E+03  0.34703866977E+04  0.33603398203E+04 0.  0.
        1    1    3    3  502    0  0.82439747119E+03 -0.18941210073E+01  0.19454615162E+04  0.21129257652E+04  0.50400001928E-02 0.  1.
       -1    1    3    3    0  502 -0.82439747119E+03  0.18941210073E+01 -0.10784551011E+04  0.13574609325E+04  0.50400001928E-02 0. -1.
</event>
<event>
 5   0  0.6134625E-07  0.2516792E+04  0.7818609E-02  0.8397028E-01
       -1   -1    0    0    0  501  0.00000000000E+00  0.00000000000E+00  0.11198440742E+04  0.11198440742E+04  0.50400001928E-02 0.  1.
        1   -1    0    0  501    0  0.00000000000E+00  0.00000000000E+00 -0.14140898045E+04  0.14140898045E+04  0.50400001928E-02 0. -1.
    10030    2    1    2    0    0  0.00000000000E+00  0.00000000000E+00 -0.29424573031E+03  0.25339338787E+04  0.25167916782E+04 0.  0.
        1    1    3    3  502    0  0.73478054213E+03  0.96837327712E+02  0.87679968770E+03  0.11480668994E+04  0.50400001928E-02 0.  1.
       -1    1    3    3    0  502 -0.73478054213E+03 -0.96837327712E+02 -0.11710454180E+04  0.13858669793E+04  0.50400001928E-02 0. -1.
</event>
<event>
 5   0  0.6134625E-07  0.3416722E+04  0.7818609E-02  0.8133814E-01
        1   -1    0    0  501    0  0.00000000000E+00  0.00000000000E+00  0.16060916461E+04  0.16060916461E+04  0.50400001928E-02 0. -1.
       -1   -1    0    0    0  501  0.00000000000E+00  0.00000000000E+00 -0.18171428576E+04  0.18171428576E+04  0.50400001928E-02 0.  1.
    10030    2    1    2    0    0  0.00000000000E+00  0.00000000000E+00 -0.21105121155E+03  0.34232345037E+04  0.34167223846E+04 0.  0.
        1    1    3    3  502    0  0.16840963605E+04  0.25188553010E+03  0.32108311637E+02  0.17031317669E+04  0.50400001928E-02 0. -1.
       -1    1    3    3    0  502 -0.16840963605E+04 -0.25188553010E+03 -0.24315952319E+03  0.17201027369E+04  0.50400001928E-02 0.  1.
</event>
<event>
 5   0  0.1880301E-06  0.3425487E+04  0.7818609E-02  0.8131679E-01
        2   -1    0    0  501    0  0.00000000000E+00  0.00000000000E+00  0.12655774258E+04  0.12655774258E+04  0.25500000920E-02 0.  1.
       -2   -1    0    0    0  501  0.00000000000E+00  0.00000000000E+00 -0.23179061573E+04  0.23179061573E+04  0.25500000920E-02 0. -1.
    10030    2    1    2    0    0  0.00000000000E+00  0.00000000000E+00 -0.10523287315E+04  0.35834835830E+04  0.34254866560E+04 0.  0.
        4    1    3    3  502    0  0.39939109653E+03 -0.10648050300E+03  0.12126172168E+04  0.12811297642E+04  0.12699999809E+01 0.  1.
       -4    1    3    3    0  502 -0.39939109653E+03  0.10648050300E+03 -0.22649459483E+04  0.23023538188E+04  0.12699999809E+01 0. -1.
</event>
<event>
 5   0  0.1911477E-06  0.3443193E+04  0.7818609E-02  0.8127386E-01
       -2   -1    0    0    0  501  0.00000000000E+00  0.00000000000E+00  0.21494503156E+04  0.21494503156E+04  0.25500000920E-02 0. -1.
        2   -1    0    0  501    0  0.00000000000E+00  0.00000000000E+00 -0.13789080430E+04  0.13789080430E+04  0.25500000920E-02 0.  1.
    10030    2    1    2    0    0  0.00000000000E+00  0.00000000000E+00  0.77054227266E+03  0.35283583586E+04  0.34431928951E+04 0.  0.
        5    1    3    3  502    0  0.16153918178E+04  0.57002091403E+03  0.56114873904E+03  0.18025882959E+04  0.46999998093E+01 0. -1.
       -5    1    3    3    0  502 -0.16153918178E+04 -0.57002091403E+03  0.20939353362E+03  0.17257700627E+04  0.46999998093E+01 0.  1.
</event>
<event>
 5   0  0.6134625E-07  0.3543960E+04  0.7818609E-02  0.8103450E-01
        1   -1    0    0  501    0  0.00000000000E+00  0.00000000000E+00  0.23632101217E+04  0.23632101217E+04  0.50400001928E-02 0.  1.
       -1   -1    0    0    0  501  0.00000000000E+00  0.00000000000E+00 -0.13286640303E+04  0.13286640303E+04  0.50400001928E-02 0. -1.
    10030    2    1    2    0    0  0.00000000000E+00  0.00000000000E+00  0.10345460914E+04  0.36918741520E+04  0.35439595283E+04 0.  0.
        5    1    3    3  502    0  0.72278330659E+03 -0.15657627955E+03 -0.11602013718E+04  0.13758710524E+04  0.46999998093E+01 0. -1.
       -5    1    3    3    0  502 -0.72278330659E+03  0.15657627955E+03  0.21947474633E+04  0.23160030996E+04  0.46999998093E+01 0.  1.
</event>
<event>
 5   0  0.1948507E-06  0.2524155E+04  0.7818609E-02  0.8394430E-01
        2   -1    0    0  501    0  0.00000000000E+00  0.00000000000E+00  0.21948863623E+04  0.21948863623E+04  0.25500000920E-02 0. -1.
       -2   -1    0    0    0  501  0.00000000000E+00  0.00000000000E+00 -0.72570508509E+03  0.72570508510E+03  0.25500000920E-02 0.  1.
    10030    2    1    2    0    0  0.00000000000E+00  0.00000000000E+00  0.14691812772E+04  0.29205914474E+04  0.25241554582E+04 0.  0.
        1    1    3    3  502    0 -0.60992398354E+03 -0.10846200243E+04  0.97848640487E+03  0.15829856308E+04  0.50400001928E-02 0. -1.
       -1    1    3    3    0  502  0.60992398354E+03  0.10846200243E+04  0.49069487230E+03  0.13376058166E+04  0.50400001928E-02 0.  1.
</event>
<event>
 5   0  0.1339844E-06  0.3422533E+04  0.7818609E-02  0.8132398E-01
        2   -1    0    0  501    0  0.00000000000E+00  0.00000000000E+00  0.30855991565E+04  0.30855991565E+04  0.25500000920E-02 0.  1.
       -2   -1    0    0    0  501  0.00000000000E+00  0.00000000000E+00 -0.94906475328E+03  0.94906475329E+03  0.25500000920E-02 0. -1.
    10030    2    1    2    0    0  0.00000000000E+00  0.00000000000E+00  0.21365344032E+04  0.40346639097E+04  0.34225332151E+04 0.  0.
        3    1    3    3  502    0  0.12936828400E+04 -0.24052581170E+03  0.23580022346E+04  0.27003041505E+04  0.10100000352E+00 0.  1.
       -3    1    3    3    0  502 -0.12936828400E+04  0.24052581170E+03 -0.22146783147E+03  0.13343597592E+04  0.10100000352E+00 0. -1.
</event>
<event>
 5   0  0.1880301E-06  0.3439610E+04  0.7818609E-02  0.8128253E-01
        2   -1    0    0  501    0  0.00000000000E+00  0.00000000000E+00  0.14015115032E+04  0.14015115032E+04  0.25500000920E-02 0.  1.
       -2   -1    0    0    0  501  0.00000000000E+00  0.00000000000E+00 -0.21103847951E+04  0.21103847951E+04  0.25500000920E-02 0. -1.
    10030    2    1    2    0    0  0.00000000000E+00  0.00000000000E+00 -0.70887329188E+03  0.35118962983E+04  0.34396096095E+04 0.  0.
        4    1    3    3  502    0 -0.38824036160E+03 -0.15555847467E+04  0.28085558945E+03  0.16277149498E+04  0.12699999809E+01 0.  1.
       -4    1    3    3    0  502  0.38824036160E+03  0.15555847467E+04 -0.98972888133E+03  0.18841813485E+04  0.12699999809E+01 0. -1.
</event>
<event>
 5   0  0.6134625E-07  0.3455448E+04  0.7818609E-02  0.8124430E-01
       -1   -1    0    0    0  501  0.00000000000E+00  0.00000000000E+00  0.13579752767E+04  0.13579752767E+04  0.50400001928E-02 0. -1.
        1   -1    0    0  501    0  0.00000000000E+00  0.00000000000E+00 -0.21981477489E+04  0.21981477489E+04  0.50400001928E-02 0.  1.
    10030    2    1    2    0    0  0.00000000000E+00  0.00000000000E+00 -0.84017247227E+03  0.35561230256E+04  0.34554480448E+04 0.  0.
        3    1    3    3  502    0  0.20607978599E+03  0.15177946073E+04 -0.12426613713E+04  0.19724037726E+04  0.10100000352E+00 0.  1.
       -3    1    3    3    0  502 -0.20607978599E+03 -0.15177946073E+04  0.40248889907E+03  0.15837192530E+04  0.10100000352E+00 0. -1.
</event>
<event>
 5   0  0.6134625E-07  0.3375926E+04  0.7818609E-02  0.8143840E-01
       -1   -1    0    0    0  501  0.00000000000E+00  0.00000000000E+00  0.14900244340E+04  0.14900244340E+04  0.50400001928E-02 0. -1.
        1   -1    0    0  501    0  0.00000000000E+00  0.00000000000E+00 -0.19121965540E+04  0.19121965540E+04  0.50400001928E-02 0.  1.
    10030    2    1    2    0    0  0.00000000000E+00  0.00000000000E+00 -0.42217212000E+03  0.34022209880E+04  0.33759262954E+04 0.  0.
        3    1    3    3  502    0  0.13038504866E+03  0.39087193132E+03  0.14385625887E+04  0.14964101909E+04  0.10100000352E+00 0. -1.
       -3    1    3    3    0  502 -0.13038504866E+03 -0.39087193132E+03 -0.18607347087E+04  0.19058107970E+04  0.10100000352E+00 0.  1.
</event>
<event>
 5   0  0.1339844E-06  0.2480502E+04  0.7818609E-02  0.8409965E-01
        2   -1    0    0  501    0  0.00000000000E+00  0.00000000000E+00  0.12404374119E+04  0.12404374119E+04  0.25500000920E-02 0. -1.
       -2   -1    0    0    0  501  0.00000000000E+00  0.00000000000E+00 -0.12400650032E+04  0.12400650032E+04  0.25500000920E-02 0.  1.
    10030    2    1    2    0    0  0.00000000000E+00  0.00000000000E+00  0.37240871516E+00  0.24805024150E+04  0.24805023871E+04 0.  0.
        3    1    3    3  502    0 -0.66857328497E+03  0.79707902020E+03  0.67538826399E+03  0.12403525786E+04  0.10100000352E+00 0.  1.
       -3    1    3    3    0  502  0.66857328497E+03 -0.79707902020E+03 -0.67501585527E+03  0.12401498365E+04  0.10100000352E+00 0. -1.
</event>
<event>
 5   0  0.1880301E-06  0.3410368E+04  0.7818609E-02  0.8135366E-01
        2   -1    0    0  501    0  0.00000000000E+00  0.00000000000E+00  0.19201487087E+04  0.19201487087E+04  0.25500000920E-02 0.  1.
       -2   -1    0    0    0  501  0.00000000000E+00  0.00000000000E+00 -0.15142850968E+04  0.15142850968E+04  0.25500000920E-02 0. -1.
    10030    2    1    2    0    0  0.00000000000E+00  0.00000000000E+00  0.40586361187E+03  0.34344338056E+04  0.34103680583E+04 0.  0.
        4    1    3    3  502    0 -0.93685579957E+03  0.13098557457E+04 -0.36158618566E+03  0.16505050883E+04  0.12699999809E+01 0. -1.
       -4    1    3    3    0  502  0.93685579957E+03 -0.13098557457E+04  0.76744979753E+03  0.17839287173E+04  0.12699999809E+01 0.  1.
</event>
<event>
 5   0  0.6218695E-07  0.3404567E+04  0.7818609E-02  0.8136786E-01
       -1   -1    0    0    0  501  0.00000000000E+00  0.00000000000E+00  0.15410627715E+04  0.15410627715E+04  0.50400001928E-02 0.  1.
        1   -1    0    0  501    0  0.00000000000E+00  0.00000000000E+00 -0.18803710343E+04  0.18803710343E+04  0.50400001928E-02 0. -1.
    10030    2    1    2    0    0  0.00000000000E+00  0.00000000000E+00 -0.33930826278E+03  0.34214338058E+04  0.34045674014E+04 0.  0.
        2    1    3    3  502    0  0.54462337942E+02  0.10320218502E+02  0.15401555507E+04  0.15411527418E+04  0.25500000920E-02 0.  1.
       -2    1    3    3    0  502 -0.54462337942E+02 -0.10320218502E+02 -0.18794638135E+04  0.18802810640E+04  0.25500000920E-02 0. -1.
</event>
<event>
 5   0  0.6134625E-07  0.3440005E+04  0.7818609E-02  0.8128157E-01
        1   -1    0    0  501    0  0.00000000000E+00  0.00000000000E+00  0.13858475496E+04  0.13858475496E+04  0.50400001928E-02 0. -1.
       -1   -1    0    0    0  501  0.00000000000E+00  0.00000000000E+00 -0.21347286595E+04  0.21347286595E+04  0.50400001928E-02 0.  1.
    10030    2    1    2    0    0  0.00000000000E+00  0.00000000000E+00 -0.74888110998E+03  0.35205762091E+04  0.34400049313E+04 0.  0.
        1    1    3    3  502    0 -0.12139136016E+04  0.78057747931E+03  0.58316791867E+03  0.15565899443E+04  0.50400001928E-02 0. -1.
       -1    1    3    3    0  502  0.12139136016E+04 -0.78057747931E+03 -0.13320490287E+04  0.19639862648E+04  0.50400001928E-02 0.  1.
</event>
<event>
 5   0  0.1911477E-06  0.3367866E+04  0.7818609E-02  0.8145838E-01
        2   -1    0    0  501    0  0.00000000000E+00  0.00000000000E+00  0.25034642577E+04  0.25034642577E+04  0.25500000920E-02 0.  1.
       -2   -1    0    0    0  501  0.00000000000E+00  0.00000000000E+00 -0.11326822727E+04  0.11326822727E+04  0.25500000920E-02 0. -1.
    10030    2    1    2    0    0  0.00000000000E+00  0.00000000000E+00  0.13707819850E+04  0.36361465304E+04  0.33678655466E+04 0.  0.
        5    1    3    3  502    0  0.11955809223E+04  0.11153853278E+04  0.11200919814E+04  0.19819501276E+04  0.46999998093E+01 0.  1.
       -5    1    3    3    0  502 -0.11955809223E+04 -0.11153853278E+04  0.25069000355E+03  0.16541964028E+04  0.46999998093E+01 0. -1.
</event>
<event>
 5   0  0.6134625E-07  0.3412587E+04  0.7818609E-02  0.8134824E-01
       -1   -1    0    0    0  501  0.00000000000E+00  0.00000000000E+00  0.36506073401E+04  0.36506073401E+04  0.50400001928E-02 0. -1.
        1   -1    0    0  501    0  0.00000000000E+00  0.00000000000E+00 -0.79752129428E+03  0.79752129429E+03  0.50400001928E-02 0.  1.
    10030    2    1    2    0    0  0.00000000000E+00  0.00000000000E+00  0.28530860458E+04  0.44481286343E+04  0.34125867554E+04 0.  0.
        5    1    3    3  502    0 -0.80387432172E+03  0.95641804858E+03 -0.88187576691E+02  0.12524969251E+04  0.46999998093E+01 0. -1.
       -5    1    3    3    0  502  0.80387432172E+03 -0.95641804858E+03  0.29412736225E+04  0.31956317092E+04  0.46999998093E+01 0.  1.
</event>
<event>
 5   0  0.1880301E-06  0.2965017E+04  0.7818609E-02  0.8253792E-01
        2   -1    0    0  501    0  0.00000000000E+00  0.00000000000E+00  0.22432809865E+04  0.22432809865E+04  0.25500000920E-02 0.  1.
       -2   -1    0    0    0  501  0.00000000000E+00  0.00000000000E+00 -0.97973986944E+03  0.97973986945E+03  0.25500000920E-02 0. -1.
    10030    2    1    2    0    0  0.00000000000E+00  0.00000000000E+00  0.12635411170E+04  0.32230208559E+04  0.29650172484E+04 0.  0.
        4    1    3    3  502    0  0.21163720301E+02  0.14253358422E+04  0.10743876799E+04  0.17850323991E+04  0.12699999809E+01 0.  1.
       -4    1    3    3    0  502 -0.21163720301E+02 -0.14253358422E+04  0.18915343713E+03  0.14379884568E+04  0.12699999809E+01 0. -1.
</event>
<event>
 5   0  0.1880301E-06  0.3359652E+04  0.7818609E-02  0.8147881E-01
       -2   -1    0    0    0  501  0.00000000000E+00  0.00000000000E+00  0.97891054528E+03  0.97891054529E+03  0.25500000920E-02 0. -1.
        2   -1    0    0  501    0  0.00000000000E+00  0.00000000000E+00 -0.28826082598E+04  0.28826082598E+04  0.25500000920E-02 0.  1.
    10030    2    1    2    0    0  0.00000000000E+00  0.00000000000E+00 -0.19036977146E+04  0.38615188051E+04  0.33596521388E+04 0.  0.
        4    1    3    3  502    0  0.15148560528E+04 -0.48334565971E+03 -0.32926842359E+03  0.16238322559E+04  0.12699999809E+01 0. -1.
       -4    1    3    3    0  502 -0.15148560528E+04  0.48334565971E+03 -0.15744292910E+04  0.22376865493E+04  0.12699999809E+01 0.  1.
</event>
<event>
 5   0  0.1911477E-06  0.3398942E+04  0.7818609E-02  0.8138166E-01
       -2   -1    0    0    0  501  0.00000000000E+00  0.00000000000E+00  0.11202929570E+04  0.11202929570E+04  0.25500000920E-02 0.  1.
        2   -1    0    0  501    0  0.00000000000E+00  0.00000000000E+00 -0.25780766061E+04  0.25780766061E+04  0.25500000920E-02 0. -1.
    10030    2    1    2    0    0  0.00000000000E+00  0.00000000000E+00 -0.14577836491E+04  0.36983695631E+04  0.33989416379E+04 0.  0.
        5    1    3    3  502    0 -0.75310176644E+03  0.81521906561E+03 -0.21292971150E+04  0.24011815195E+04  0.46999998093E+01 0. -1.
       -5    1    3    3    0  502  0.75310176644E+03 -0.81521906561E+03  0.67151346595E+03  0.12971880436E+04  0.46999998093E+01 0.  1.
</event>
<event>
 5   0  0.6134625E-07  0.3598032E+04  0.7818609E-02  0.8090943E-01
       -1   -1    0    0    0  501  0.00000000000E+00  0.00000000000E+00  0.16092511118E+04  0.16092511118E+04  0.50400001928E-02 0. -1.
        1   -1    0    0  501    0  0.00000000000E+00  0.00000000000E+00 -0.20111577415E+04  0.20111577415E+04  0.50400001928E-02 0.  1.
    10030    2    1    2    0    0  0.00000000000E+00  0.00000000000E+00 -0.40190662968E+03  0.36204088533E+04  0.35980315905E+04 0.  0.
        5    1    3    3  502    0  0.35511584608E+03 -0.47078286431E+03  0.15092323564E+04  0.16203543332E+04  0.46999998093E+01 0. -1.
       -5    1    3    3    0  502 -0.35511584608E+03  0.47078286431E+03 -0.19111389861E+04  0.20000545202E+04  0.46999998093E+01 0.  1.
</event>
<event>
 5   0  0.6134625E-07  0.3394682E+04  0.7818609E-02  0.8139213E-01
       -1   -1    0    0    0  501  0.00000000000E+00  0.00000000000E+00  0.13532955804E+04  0.13532955804E+04  0.50400001928E-02 0. -1.
        1   -1    0    0  501    0  0.00000000000E+00  0.00000000000E+00 -0.21288519543E+04  0.21288519543E+04  0.50400001928E-02 0.  1.
    10030    2    1    2    0    0  0.00000000000E+00  0.00000000000E+00 -0.77555637396E+03  0.34821475347E+04  0.33946816882E+04 0.  0.
        3    1    3    3  502    0  0.69062375743E+03  0.82054193015E+03 -0.17372411713E+04  0.20416309978E+04  0.10100000352E+00 0.  1.
       -3    1    3    3    0  502 -0.69062375743E+03 -0.82054193015E+03  0.96168479737E+03  0.14405165369E+04  0.10100000352E+00 0. -1.
</event>
<event>
 5   0  0.6134625E-07  0.3384695E+04  0.7818609E-02  0.8141673E-01
       -4   -1    0    0    0  501  0.00000000000E+00  0.00000000000E+00  0.16664225146E+04  0.16664229985E+04  0.12699999809E+01 0. -1.
        4   -1    0    0  501    0  0.00000000000E+00  0.00000000000E+00 -0.17186752381E+04  0.17186757073E+04  0.12699999809E+01 0.  1.
    10030    2    1    2    0    0  0.00000000000E+00  0.00000000000E+00 -0.52252723515E+02  0.33850987058E+04  0.33846953926E+04 0.  0.
        3    1    3    3  502    0  0.10766963663E+04  0.49359987304E+03  0.11827876323E+04  0.16738884351E+04  0.10100000352E+00 0. -1.
       -3    1    3    3    0  502 -0.10766963663E+04 -0.49359987304E+03 -0.12350403558E+04  0.17112102707E+04  0.10100000352E+00 0.  1.
</event>
<event>
 5   0  0.1948507E-06  0.3362267E+04  0.7818609E-02  0.8147230E-01
       -2   -1    0    0    0  501  0.00000000000E+00  0.00000000000E+00  0.13541373817E+04  0.13541373817E+04  0.25500000920E-02 0. -1.
        2   -1    0    0  501    0  0.00000000000E+00  0.00000000000E+00 -0.20870925192E+04  0.20870925192E+04  0.25500000920E-02 0.  1.
    10030    2    1    2    0    0  0.00000000000E+00  0.00000000000E+00 -0.73295513759E+03  0.34412299009E+04  0.33622670919E+04 0.  0.
        1    1    3    3  502    0 -0.45097466908E+03 -0.33839728857E+03 -0.19874397125E+04  0.20658672484E+04  0.50400001928E-02 0.  1.
       -1    1    3    3    0  502  0.45097466908E+03  0.33839728857E+03  0.12544845749E+04  0.13753626525E+04  0.50400001928E-02 0. -1.
</event>
<event>
 5   0  0.6218695E-07  0.3431518E+04  0.7818609E-02  0.8130214E-01
        1   -1    0    0  501    0  0.00000000000E+00  0.00000000000E+00  0.15551364399E+04  0.15551364399E+04  0.50400001928E-02 0.  1.
       -1   -1    0    0    0  501  0.00000000000E+00  0.00000000000E+00 -0.18929717985E+04  0.18929717985E+04  0.50400001928E-02 0. -1.
    10030    2    1    2    0    0  0.00000000000E+00  0.00000000000E+00 -0.33783535859E+03  0.34481082385E+04  0.34315182784E+04 0.  0.
        2    1    3    3  502    0  0.15183551908E+04 -0.73880202245E+03  0.13685351716E+03  0.16940955696E+04  0.25500000920E-02 0.  1.
       -2    1    3    3    0  502 -0.15183551908E+04  0.73880202245E+03 -0.47468887575E+03  0.17540126689E+04  0.25500000920E-02 0. -1.
</event>
<event>
 5   0  0.1880301E-06  0.3302598E+04  0.7818609E-02  0.8162235E-01
       -2   -1    0    0    0  501  0.00000000000E+00  0.00000000000E+00  0.19126172189E+04  0.19126172189E+04  0.25500000920E-02 0.  1.
        2   -1    0    0  501    0  0.00000000000E+00  0.00000000000E+00 -0.14256846419E+04  0.14256846419E+04  0.25500000920E-02 0. -1.
    10030    2    1    2    0    0  0.00000000000E+00  0.00000000000E+00  0.48693257700E+03  0.33383018608E+04  0.33025983678E+04 0.  0.
        4    1    3    3  502    0 -0.75976168135E+03  0.28894933453E+02 -0.12382300759E+04  0.14530272067E+04  0.12699999809E+01 0. -1.
       -4    1    3    3    0  502  0.75976168135E+03 -0.28894933453E+02  0.17251626529E+04  0.18852746541E+04  0.12699999809E+01 0.  1.
</event>
<event>
 5   0  0.6134625E-07  0.3218415E+04  0.7818609E-02  0.8183971E-01
        1   -1    0    0  501    0  0.00000000000E+00  0.00000000000E+00  0.25401205695E+04  0.25401205695E+04  0.50400001928E-02 0. -1.
       -1   -1    0    0    0  501  0.00000000000E+00  0.00000000000E+00 -0.10194588493E+04  0.10194588493E+04  0.50400001928E-02 0.  1.
    10030    2    1    2    0    0  0.00000000000E+00  0.00000000000E+00  0.15206617202E+04  0.35595794188E+04  0.32184147607E+04 0.  0.
        5    1    3    3  502    0 -0.11420075489E+03  0.12972888048E+04  0.18057978696E+04  0.22264159745E+04  0.46999998093E+01 0. -1.
       -5    1    3    3    0  502  0.11420075489E+03 -0.12972888048E+04 -0.28513614943E+03  0.13331634443E+04  0.46999998093E+01 0.  1.
</event>
<event>
 5   0  0.1797075E-06  0.3442660E+04  0.7818609E-02  0.8127515E-01
       -2   -1    0    0    0  501  0.00000000000E+00  0.00000000000E+00  0.12194839800E+04  0.12194839800E+04  0.25500000920E-02 0.  1.
        2   -1    0    0  501    0  0.00000000000E+00  0.00000000000E+00 -0.24296980207E+04  0.24296980207E+04  0.25500000920E-02 0. -1.
    10030    2    1    2    0    0  0.00000000000E+00  0.00000000000E+00 -0.12102140407E+04  0.36491820007E+04  0.34426604900E+04 0.  0.
        2    1    3    3  502    0  0.59749980639E+03 -0.22694762992E+03  0.10890413416E+04  0.12627439523E+04  0.25500000920E-02 0.  1.
       -2    1    3    3    0  502 -0.59749980639E+03  0.22694762992E+03 -0.22992553823E+04  0.23864380483E+04  0.25500000920E-02 0. -1.
</event>
<event>
 5   0  0.6146388E-07  0.3372667E+04  0.7818609E-02  0.8144647E-01
        1   -1    0    0  501    0  0.00000000000E+00  0.00000000000E+00  0.17205636479E+04  0.17205636479E+04  0.50400001928E-02 0.  1.
       -1   -1    0    0    0  501  0.00000000000E+00  0.00000000000E+00 -0.16527845907E+04  0.16527845907E+04  0.50400001928E-02 0. -1.
    10030    2    1    2    0    0  0.00000000000E+00  0.00000000000E+00  0.67779057134E+02  0.33733482386E+04  0.33726672439E+04 0.  0.
        4    1    3    3  502    0  0.77888134894E+03 -0.14956101916E+04  0.19275945319E+02  0.16863804956E+04  0.12699999809E+01 0.  1.
       -4    1    3    3    0  502 -0.77888134894E+03  0.14956101916E+04  0.48503111815E+02  0.16869677430E+04  0.12699999809E+01 0. -1.
</event>
<event>
 5   0  0.1880301E-06  0.3398338E+04  0.7818609E-02  0.8138314E-01
       -2   -1    0    0    0  501  0.00000000000E+00  0.00000000000E+00  0.12623956179E+04  0.12623956179E+04  0.25500000920E-02 0.  1.
        2   -1    0    0  501    0  0.00000000000E+00  0.00000000000E+00 -0.22870600035E+04  0.22870600035E+04  0.25500000920E-02 0. -1.
    10030    2    1    2    0    0  0.00000000000E+00  0.00000000000E+00 -0.10246643856E+04  0.35494556214E+04  0.33983375502E+04 0.  0.
        4    1    3    3  502    0 -0.11951922293E+04  0.37443623921E+03  0.68698204536E+03  0.14285072298E+04  0.12699999809E+01 0.  1.
       -4    1    3    3    0  502  0.11951922293E+04 -0.37443623921E+03 -0.17116464310E+04  0.21209483916E+04  0.12699999809E+01 0. -1.
</event>
<event>
 5   0  0.6134625E-07  0.3411309E+04  0.7818609E-02  0.8135136E-01
       -1   -1    0    0    0  501  0.00000000000E+00  0.00000000000E+00  0.10748521320E+04  0.10748521320E+04  0.50400001928E-02 0.  1.
        1   -1    0    0  501    0  0.00000000000E+00  0.00000000000E+00 -0.27066584863E+04  0.27066584863E+04  0.50400001928E-02 0. -1.
    10030    2    1    2    0    0  0.00000000000E+00  0.00000000000E+00 -0.16318063543E+04  0.37815106184E+04  0.34113092177E+04 0.  0.
        3    1    3    3  502    0 -0.16558749548E+03  0.81074107138E+03  0.83744410417E+03  0.11772990025E+04  0.10100000352E+00 0.  1.
       -3    1    3    3    0  502  0.16558749548E+03 -0.81074107138E+03 -0.24692504584E+04  0.26042116159E+04  0.10100000352E+00 0. -1.
</event>
<event>
 5   0  0.1339844E-06  0.3489650E+04  0.7818609E-02  0.8116247E-01
        2   -1    0    0  501    0  0.00000000000E+00  0.00000000000E+00  0.17066510235E+04  0.17066510235E+04  0.25500000920E-02 0.  1.
       -2   -1    0    0    0  501  0.00000000000E+00  0.00000000000E+00 -0.17838526215E+04  0.17838526215E+04  0.25500000920E-02 0. -1.
    10030    2    1    2    0    0  0.00000000000E+00  0.00000000000E+00 -0.77201597993E+02  0.34905036451E+04  0.34896497832E+04 0.  0.
        3    1    3    3  502    0  0.68019186869E+03 -0.30839723090E+03 -0.16158962993E+04  0.17801378291E+04  0.10100000352E+00 0. -1.
       -3    1    3    3    0  502 -0.68019186869E+03  0.30839723090E+03  0.15386947013E+04  0.17103658160E+04  0.10100000352E+00 0.  1.
</event>
<event>
 5   0  0.1911477E-06  0.3386008E+04  0.7818609E-02  0.8141349E-01
       -2   -1    0    0    0  501  0.00000000000E+00  0.00000000000E+00  0.19065556328E+04  0.19065556328E+04  0.25500000920E-02 0.  1.
        2   -1    0    0  501    0  0.00000000000E+00  0.00000000000E+00 -0.15033724910E+04  0.15033724910E+04  0.25500000920E-02 0. -1.
    10030    2    1    2    0    0  0.00000000000E+00  0.00000000000E+00  0.40318314187E+03  0.34099281238E+04  0.33860084411E+04 0.  0.
        5    1    3    3  502    0 -0.61253809170E+03 -0.12582501839E+04  0.11611313515E+04  0.18184181435E+04  0.46999998093E+01 0.  1.
       -5    1    3    3    0  502  0.61253809170E+03  0.12582501839E+04 -0.75794820960E+03  0.15915099803E+04  0.46999998093E+01 0. -1.
</event>
<event>
 5   0  0.1948507E-06  0.3279952E+04  0.7818609E-02  0.8168015E-01
        2   -1    0    0  501    0  0.00000000000E+00  0.00000000000E+00  0.14178988845E+04  0.14178988845E+04  0.25500000920E-02 0.  1.
       -2   -1    0    0    0  501  0.00000000000E+00  0.00000000000E+00 -0.18968359394E+04  0.18968359394E+04  0.25500000920E-02 0. -1.
    10030    2    1    2    0    0  0.00000000000E+00  0.00000000000E+00 -0.47893705487E+03  0.33147348239E+04  0.32799521719E+04 0.  0.
        1    1    3    3  502    0  0.53029558322E+03  0.57729418880E+03  0.12163071939E+04  0.14470263218E+04  0.50400001928E-02 0.  1.
       -1    1    3    3    0  502 -0.53029558322E+03 -0.57729418880E+03 -0.16952442487E+04  0.18677085021E+04  0.50400001928E-02 0. -1.
</event>
<event>
 5   0  0.6218695E-07  0.3147151E+04  0.7818609E-02  0.8202916E-01
       -1   -1    0    0    0  501  0.00000000000E+00  0.00000000000E+00  0.11836752953E+04  0.11836752953E+04  0.50400001928E-02 0.  1.
        1   -1    0    0  501    0  0.00000000000E+00  0.00000000000E+00 -0.20919075081E+04  0.20919075081E+04  0.50400001928E-02 0. -1.
    10030    2    1    2    0    0  0.00000000000E+00  0.00000000000E+00 -0.90823221283E+03  0.32755828034E+04  0.31471506080E+04 0.  0.
        2    1    3    3  502    0 -0.58881207664E+03  0.14034367183E+04 -0.38046325384E+02  0.15224262894E+04  0.25500000920E-02 0. -1.
       -2    1    3    3    0  502  0.58881207664E+03 -0.14034367183E+04 -0.87018588744E+03  0.17531565140E+04  0.25500000920E-02 0.  1.
</event>
<event>
 5   0  0.6134625E-07  0.3478890E+04  0.7818609E-02  0.8118811E-01
       -1   -1    0    0    0  501  0.00000000000E+00  0.00000000000E+00  0.18012046539E+04  0.18012046539E+04  0.50400001928E-02 0. -1.
        1   -1    0    0  501    0  0.00000000000E+00  0.00000000000E+00 -0.16798028420E+04  0.16798028420E+04  0.50400001928E-02 0.  1.
    10030    2    1    2    0    0  0.00000000000E+00  0.00000000000E+00  0.12140181195E+03  0.34810074959E+04  0.34788898785E+04 0.  0.
        1    1    3    3  502    0  0.52918784629E+03  0.14844333205E+04 -0.67601259286E+03  0.17148105101E+04  0.50400001928E-02 0.  1.
       -1    1    3    3    0  502 -0.52918784629E+03 -0.14844333205E+04  0.79741440482E+03  0.17661969858E+04  0.50400001928E-02 0. -1.
</event>
<event>
 5   0  0.6134625E-07  0.3402225E+04  0.7818609E-02  0.8137361E-01
       -1   -1    0    0    0  501  0.00000000000E+00  0.00000000000E+00  0.15293244072E+04  0.15293244072E+04  0.50400001928E-02 0.  1.
        1   -1    0    0  501    0  0.00000000000E+00  0.00000000000E+00 -0.18921971308E+04  0.18921971308E+04  0.50400001928E-02 0. -1.
    10030    2    1    2    0    0  0.00000000000E+00  0.00000000000E+00 -0.36287272363E+03  0.34215215380E+04  0.34022247165E+04 0.  0.
        1    1    3    3  502    0  0.11255439933E+04 -0.11682219896E+04  0.33351411997E+03  0.16561472055E+04  0.50400001928E-02 0. -1.
       -1    1    3    3    0  502 -0.11255439933E+04  0.11682219896E+04 -0.69638684361E+03  0.17653743325E+04  0.50400001928E-02 0.  1.
</event>
<event>
 5   0  0.1880301E-06  0.3135497E+04  0.7818609E-02  0.8206063E-01
        2   -1    0    0  501    0  0.00000000000E+00  0.00000000000E+00  0.33129638367E+04  0.33129638367E+04  0.25500000920E-02 0. -1.
       -2   -1    0    0    0  501  0.00000000000E+00  0.00000000000E+00 -0.74188392182E+03  0.74188392183E+03  0.25500000920E-02 0.  1.
    10030    2    1    2    0    0  0.00000000000E+00  0.00000000000E+00  0.25710799149E+04  0.40548477586E+04  0.31354965183E+04 0.  0.
        4    1    3    3  502    0 -0.33835584905E+03 -0.15002155150E+04  0.16792823031E+04  0.22770862826E+04  0.12699999809E+01 0. -1.
       -4    1    3    3    0  502  0.33835584905E+03  0.15002155150E+04  0.89179761183E+03  0.17777614760E+04  0.12699999809E+01 0.  1.
</event>
<event>
 5   0  0.6134625E-07  0.3379768E+04  0.7818609E-02  0.8142890E-01
       -1   -1    0    0    0  501  0.00000000000E+00  0.00000000000E+00  0.10877280135E+04  0.10877280135E+04  0.50400001928E-02 0.  1.
        1   -1    0    0  501    0  0.00000000000E+00  0.00000000000E+00 -0.26253879681E+04  0.26253879681E+04  0.50400001928E-02 0. -1.
    10030    2    1    2    0    0  0.00000000000E+00  0.00000000000E+00 -0.15376599546E+04  0.37131159816E+04  0.33797680626E+04 0.  0.
        5    1    3    3  502    0  0.96500528513E+02  0.16134682814E+04 -0.22715537752E+03  0.16322419865E+04  0.46999998093E+01 0.  1.
       -5    1    3    3    0  502 -0.96500528513E+02 -0.16134682814E+04 -0.13105045771E+04  0.20808739951E+04  0.46999998093E+01 0. -1.
</event>
<event>
 5   0  0.6146388E-07  0.3401491E+04  0.7818609E-02  0.8137540E-01
        1   -1    0    0  501    0  0.00000000000E+00  0.00000000000E+00  0.15578553312E+04  0.15578553312E+04  0.50400001928E-02 0.  1.
       -1   -1    0    0    0  501  0.00000000000E+00  0.00000000000E+00 -0.18567420856E+04  0.18567420856E+04  0.50400001928E-02 0. -1.
    10030    2    1    2    0    0  0.00000000000E+00  0.00000000000E+00 -0.29888675436E+03  0.34145974168E+04  0.34014911770E+04 0.  0.
        4    1    3    3  502    0 -0.77615806119E+03  0.44190329842E+03 -0.16023743243E+04  0.18344767508E+04  0.12699999809E+01 0. -1.
       -4    1    3    3    0  502  0.77615806119E+03 -0.44190329842E+03  0.13034875700E+04  0.15801206660E+04  0.12699999809E+01 0.  1.
</event>
<event>
 5   0  0.6218695E-07  0.3382091E+04  0.7818609E-02  0.8142316E-01
        1   -1    0    0  501    0  0.00000000000E+00  0.00000000000E+00  0.18870844070E+04  0.18870844070E+04  0.50400001928E-02 0. -1.
       -1   -1    0    0    0  501  0.00000000000E+00  0.00000000000E+00 -0.15153715697E+04  0.15153715698E+04  0.50400001928E-02 0.  1.
    10030    2    1    2    0    0  0.00000000000E+00  0.00000000000E+00  0.37171283722E+03  0.34024559767E+04  0.33820905133E+04 0.  0.
        2    1    3    3  502    0 -0.37897544378E+03  0.70157998751E+03 -0.13143633276E+04  0.15373313966E+04  0.25500000920E-02 0.  1.
       -2    1    3    3    0  502  0.37897544378E+03 -0.70157998751E+03  0.16860761648E+04  0.18651245802E+04  0.25500000920E-02 0. -1.
</event>
<event>
 5   0  0.1339844E-06  0.3443661E+04  0.7818609E-02  0.8127273E-01
        2   -1    0    0  501    0  0.00000000000E+00  0.00000000000E+00  0.21668574821E+04  0.21668574821E+04  0.25500000920E-02 0. -1.
       -2   -1    0    0    0  501  0.00000000000E+00  0.00000000000E+00 -0.13682025683E+04  0.13682025683E+04  0.25500000920E-02 0.  1.
    10030    2    1    2    0    0  0.00000000000E+00  0.00000000000E+00  0.79865491383E+03  0.35350600504E+04  0.34436608266E+04 0.  0.
        3    1    3    3  502    0  0.39480129625E+03  0.12639028693E+04 -0.73051237670E+03  0.15122720884E+04  0.10100000352E+00 0.  1.
       -3    1    3    3    0  502 -0.39480129625E+03 -0.12639028693E+04  0.15291672905E+04  0.20227879620E+04  0.10100000352E+00 0. -1.
</event>
<event>
 5   0  0.1880301E-06  0.3265041E+04  0.7818609E-02  0.8171848E-01
        2   -1    0    0  501    0  0.00000000000E+00  0.00000000000E+00  0.16660758093E+04  0.16660758093E+04  0.25500000920E-02 0.  1.
       -2   -1    0    0    0  501  0.00000000000E+00  0.00000000000E+00 -0.15996410242E+04  0.15996410242E+04  0.25500000920E-02 0. -1.
    10030    2    1    2    0    0  0.00000000000E+00  0.00000000000E+00  0.66434785077E+02  0.32657168335E+04  0.32650410191E+04 0.  0.
        4    1    3    3  502    0  0.90350884951E+03 -0.44908414260E+03 -0.12504487324E+04  0.16067446759E+04  0.12699999809E+01 0. -1.
       -4    1    3    3    0  502 -0.90350884951E+03  0.44908414260E+03  0.13168835175E+04  0.16589721576E+04  0.12699999809E+01 0.  1.
</event>
<event>
 5   0  0.1948507E-06  0.3402581E+04  0.7818609E-02  0.8137273E-01
        2   -1    0    0  501    0  0.00000000000E+00  0.00000000000E+00  0.17311173525E+04  0.17311173525E+04  0.25500000920E-02 0.  1.
       -2   -1    0    0    0  501  0.00000000000E+00  0.00000000000E+00 -0.16719776461E+04  0.16719776461E+04  0.25500000920E-02 0. -1.
    10030    2    1    2    0    0  0.00000000000E+00  0.00000000000E+00  0.59139706392E+02  0.34030949985E+04  0.34025810885E+04 0.  0.
        1    1    3    3  502    0  0.96025820511E+03 -0.10422624780E+04  0.97097851684E+03  0.17179074986E+04  0.50400001928E-02 0.  1.
       -1    1    3    3    0  502 -0.96025820511E+03  0.10422624780E+04 -0.91183881045E+03  0.16851874999E+04  0.50400001928E-02 0. -1.
</event>
<event>
 5   0  0.1339844E-06  0.3425818E+04  0.7818609E-02  0.8131599E-01
        2   -1    0    0  501    0  0.00000000000E+00  0.00000000000E+00  0.16135670144E+04  0.16135670144E+04  0.25500000920E-02 0.  1.
       -2   -1    0    0    0  501  0.00000000000E+00  0.00000000000E+00 -0.18183673384E+04  0.18183673384E+04  0.25500000920E-02 0. -1.
    10030    2    1    2    0    0  0.00000000000E+00  0.00000000000E+00 -0.20480032402E+03  0.34319343528E+04  0.34258181839E+04 0.  0.
        3    1    3    3  502    0  0.95458481503E+03  0.14127731572E+04 -0.26669718163E+03  0.17257715839E+04  0.10100000352E+00 0. -1.
       -3    1    3    3    0  502 -0.95458481503E+03 -0.14127731572E+04  0.61896857610E+02  0.17061627689E+04  0.10100000352E+00 0.  1.
</event>
<event>
 5   0  0.6134625E-07  0.3266655E+04  0.7818609E-02  0.8171432E-01
       -1   -1    0    0    0  501  0.00000000000E+00  0.00000000000E+00  0.12508115878E+04  0.12508115878E+04  0.50400001928E-02 0.  1.
        1   -1    0    0  501    0  0.00000000000E+00  0.00000000000E+00 -0.21328227322E+04  0.21328227322E+04  0.50400001928E-02 0. -1.
    10030    2    1    2    0    0  0.00000000000E+00  0.00000000000E+00 -0.88201114443E+03  0.33836343201E+04  0.32666554077E+04 0.  0.
        5    1    3    3  502    0  0.64450463377E+03  0.11319241094E+04 -0.14617377955E+04  0.19578911832E+04  0.46999998093E+01 0. -1.
       -5    1    3    3    0  502 -0.64450463377E+03 -0.11319241094E+04  0.57972665109E+03  0.14257431369E+04  0.46999998093E+01 0.  1.
</event>
<event>
 5   0  0.6218695E-07  0.3407870E+04  0.7818609E-02  0.8135977E-01
       -1   -1    0    0    0  501  0.00000000000E+00  0.00000000000E+00  0.15399742800E+04  0.15399742800E+04  0.50400001928E-02 0. -1.
        1   -1    0    0  501    0  0.00000000000E+00  0.00000000000E+00 -0.18853525217E+04  0.18853525217E+04  0.50400001928E-02 0.  1.
    10030    2    1    2    0    0  0.00000000000E+00  0.00000000000E+00 -0.34537824169E+03  0.34253268016E+04  0.34078699459E+04 0.  0.
        2    1    3    3  502    0  0.24798425293E+02 -0.14543070098E+04 -0.10648000731E+04  0.18026156097E+04  0.25500000920E-02 0.  1.
       -2    1    3    3    0  502 -0.24798425293E+02  0.14543070098E+04  0.71942183144E+03  0.16227111919E+04  0.25500000920E-02 0. -1.
</event>
<event>
 5   0  0.6134625E-07  0.3246699E+04  0.7818609E-02  0.8176592E-01
       -1   -1    0    0    0  501  0.00000000000E+00  0.00000000000E+00  0.14207573431E+04  0.14207573431E+04  0.50400001928E-02 0. -1.
        1   -1    0    0  501    0  0.00000000000E+00  0.00000000000E+00 -0.18548305520E+04  0.18548305520E+04  0.50400001928E-02 0.  1.
    10030    2    1    2    0    0  0.00000000000E+00  0.00000000000E+00 -0.43407320887E+03  0.32755878951E+04  0.32466993251E+04 0.  0.
        3    1    3    3  502    0 -0.26450364008E+03 -0.12163154876E+04 -0.12683636070E+04  0.17771133309E+04  0.10100000352E+00 0.  1.
       -3    1    3    3    0  502  0.26450364008E+03  0.12163154876E+04  0.83429039811E+03  0.14984745642E+04  0.10100000352E+00 0. -1.
</event>
<event>
 5   0  0.6134625E-07  0.3356723E+04  0.7818609E-02  0.8148610E-01
        1   -1    0    0  501    0  0.00000000000E+00  0.00000000000E+00  0.20540754147E+04  0.20540754148E+04  0.50400001928E-02 0. -1.
       -1   -1    0    0    0  501  0.00000000000E+00  0.00000000000E+00 -0.13713702765E+04  0.13713702765E+04  0.50400001928E-02 0.  1.
    10030    2    1    2    0    0  0.00000000000E+00  0.00000000000E+00  0.68270513829E+03  0.34254456912E+04  0.33567233841E+04 0.  0.
        1    1    3    3  502    0  0.63495270237E+03 -0.15361165601E+04  0.57866235832E+03  0.17600196435E+04  0.50400001928E-02 0. -1.
       -1    1    3    3    0  502 -0.63495270237E+03  0.15361165601E+04  0.10404277997E+03  0.16654260478E+04  0.50400001928E-02 0.  1.
</event>
<event>
 5   0  0.1880301E-06  0.3494645E+04  0.7818609E-02  0.8115060E-01
       -2   -1    0    0    0  501  0.00000000000E+00  0.00000000000E+00  0.14039432444E+04  0.14039432444E+04  0.25500000920E-02 0.  1.
        2   -1    0    0  501    0  0.00000000000E+00  0.00000000000E+00 -0.21746863583E+04  0.21746863583E+04  0.25500000920E-02 0. -1.
    10030    2    1    2    0    0  0.00000000000E+00  0.00000000000E+00 -0.77074311389E+03  0.35786296027E+04  0.34946451731E+04 0.  0.
        4    1    3    3  502    0  0.24659509995E+03  0.12917833112E+04  0.79276476155E+03  0.15355750866E+04  0.12699999809E+01 0.  1.
       -4    1    3    3    0  502 -0.24659509995E+03 -0.12917833112E+04 -0.15635078754E+04  0.20430545162E+04  0.12699999809E+01 0. -1.
</event>
<event>
 5   0  0.1948507E-06  0.3433301E+04  0.7818609E-02  0.8129781E-01
       -2   -1    0    0    0  501  0.00000000000E+00  0.00000000000E+00  0.10767446218E+04  0.10767446218E+04  0.25500000920E-02 0. -1.
        2   -1    0    0  501    0  0.00000000000E+00  0.00000000000E+00 -0.27368507231E+04  0.27368507231E+04  0.25500000920E-02 0.  1.
    10030    2    1    2    0    0  0.00000000000E+00  0.00000000000E+00 -0.16601061014E+04  0.38135953449E+04  0.34333012083E+04 0.  0.
        1    1    3    3  502    0 -0.14287667945E+04  0.43616615252E+03  0.10936493462E+03  0.14978571877E+04  0.50400001928E-02 0. -1.
       -1    1    3    3    0  502  0.14287667945E+04 -0.43616615252E+03 -0.17694710360E+04  0.23157381572E+04  0.50400001928E-02 0.  1.
</event>
<event>
 5   0  0.1797075E-06  0.3430832E+04  0.7818609E-02  0.8130380E-01
       -2   -1    0    0    0  501  0.00000000000E+00  0.00000000000E+00  0.16711577580E+04  0.16711577580E+04  0.25500000920E-02 0.  1.
        2   -1    0    0  501    0  0.00000000000E+00  0.00000000000E+00 -0.17608467343E+04  0.17608467343E+04  0.25500000920E-02 0. -1.
    10030    2    1    2    0    0  0.00000000000E+00  0.00000000000E+00 -0.89688976326E+02  0.34320044922E+04  0.34308323658E+04 0.  0.
        2    1    3    3  502    0 -0.15443559327E+04  0.38006225961E+03 -0.68784719083E+03  0.17328059112E+04  0.25500000920E-02 0. -1.
       -2    1    3    3    0  502  0.15443559327E+04 -0.38006225961E+03  0.59815821450E+03  0.16991985810E+04  0.25500000920E-02 0.  1.
</event>
<event>
 5   0  0.6134625E-07  0.3704731E+04  0.7818609E-02  0.8066914E-01
        1   -1    0    0  501    0  0.00000000000E+00  0.00000000000E+00  0.25790462879E+04  0.25790462879E+04  0.50400001928E-02 0. -1.
       -1   -1    0    0    0  501  0.00000000000E+00  0.00000000000E+00 -0.13304368611E+04  0.13304368611E+04  0.50400001928E-02 0.  1.
    10030    2    1    2    0    0  0.00000000000E+00  0.00000000000E+00  0.12486094268E+04  0.39094831490E+04  0.37047311632E+04 0.  0.
        1    1    3    3  502    0 -0.95204011098E+03 -0.15838022903E+04  0.48896614668E+03  0.19115171881E+04  0.50400001928E-02 0.  1.
       -1    1    3    3    0  502  0.95204011098E+03  0.15838022903E+04  0.75964328016E+03  0.19979659609E+04  0.50400001928E-02 0. -1.
</event>
<event>
 5   0  0.1339844E-06  0.3348197E+04  0.7818609E-02  0.8150739E-01
        2   -1    0    0  501    0  0.00000000000E+00  0.00000000000E+00  0.16441615976E+04  0.16441615976E+04  0.25500000920E-02 0.  1.
       -2   -1    0    0    0  501  0.00000000000E+00  0.00000000000E+00 -0.17045809460E+04  0.17045809460E+04  0.25500000920E-02 0. -1.
    10030    2    1    2    0    0  0.00000000000E+00  0.00000000000E+00 -0.60419348412E+02  0.33487425435E+04  0.33481974442E+04 0.  0.
        3    1    3    3  502    0  0.10158498324E+04 -0.62377551860E+03  0.11453793801E+04  0.16531608252E+04  0.10100000352E+00 0.  1.
       -3    1    3    3    0  502 -0.10158498324E+04  0.62377551860E+03 -0.12057987285E+04  0.16955817183E+04  0.10100000352E+00 0. -1.
</event>
<event>
 5   0  0.1911477E-06  0.3280676E+04  0.7818609E-02  0.8167830E-01
       -2   -1    0    0    0  501  0.00000000000E+00  0.00000000000E+00  0.13371030080E+04  0.13371030080E+04  0.25500000920E-02 0. -1.
        2   -1    0    0  501    0  0.00000000000E+00  0.00000000000E+00 -0.20123422941E+04  0.20123422941E+04  0.25500000920E-02 0.  1.
    10030    2    1    2    0    0  0.00000000000E+00  0.00000000000E+00 -0.67523928608E+03  0.33494453021E+04  0.32806761100E+04 0.  0.
        5    1    3    3  502    0 -0.10634562854E+04  0.82211481041E+03 -0.12974730547E+04  0.18682265521E+04  0.46999998093E+01 0.  1.
       -5    1    3    3    0  502  0.10634562854E+04 -0.82211481041E+03  0.62223376863E+03  0.14812187500E+04  0.46999998093E+01 0. -1.
</event>
<event>
 5   0  0.1948507E-06  0.3429079E+04  0.7818609E-02  0.8130806E-01
        2   -1    0    0  501    0  0.00000000000E+00  0.00000000000E+00  0.19846381455E+04  0.19846381455E+04  0.25500000920E-02 0.  1.
       -2   -1    0    0    0  501  0.00000000000E+00  0.00000000000E+00 -0.14812002548E+04  0.14812002548E+04  0.25500000920E-02 0. -1.
    10030    2    1    2    0    0  0.00000000000E+00  0.00000000000E+00  0.50343789066E+03  0.34658384004E+04  0.34290794840E+04 0.  0.
        1    1    3    3  502    0  0.63378919348E+03  0.11021761854E+04  0.14143390588E+04  0.19017981120E+04  0.50400001928E-02 0.  1.
       -1    1    3    3    0  502 -0.63378919348E+03 -0.11021761854E+04 -0.91090116812E+03  0.15640402884E+04  0.50400001928E-02 0. -1.
</event>
<event>
 5   0  0.6134625E-07  0.3568891E+04  0.7818609E-02  0.8097655E-01
       -1   -1    0    0    0  501  0.00000000000E+00  0.00000000000E+00  0.14293168482E+04  0.14293168482E+04  0.50400001928E-02 0. -1.
        1   -1    0    0  501    0  0.00000000000E+00  0.00000000000E+00 -0.22278096185E+04  0.22278096186E+04  0.50400001928E-02 0.  1.
    10030    2    1    2    0    0  0.00000000000E+00  0.00000000000E+00 -0.79849277036E+03  0.36571264668E+04  0.35688910448E+04 0.  0.
        1    1    3    3  502    0 -0.39333671151E+03  0.16802907309E+04 -0.86451498651E+03  0.19301494426E+04  0.50400001928E-02 0.  1.
       -1    1    3    3    0  502  0.39333671151E+03 -0.16802907309E+04  0.66022216149E+02  0.17269770241E+04  0.50400001928E-02 0. -1.
</event>
<event>
 5   0  0.6146388E-07  0.2851075E+04  0.7818609E-02  0.8287585E-01
        1   -1    0    0  501    0  0.00000000000E+00  0.00000000000E+00  0.18376217304E+04  0.18376217304E+04  0.50400001928E-02 0.  1.
       -1   -1    0    0    0  501  0.00000000000E+00  0.00000000000E+00 -0.11058624498E+04  0.11058624498E+04  0.50400001928E-02 0. -1.
    10030    2    1    2    0    0  0.00000000000E+00  0.00000000000E+00  0.73175928062E+03  0.29434841802E+04  0.28510747928E+04 0.  0.
        4    1    3    3  502    0 -0.68158149010E+03 -0.11836616374E+04  0.78720885692E+03  0.15764858378E+04  0.12699999809E+01 0.  1.
       -4    1    3    3    0  502  0.68158149010E+03  0.11836616374E+04 -0.55449576294E+02  0.13669983423E+04  0.12699999809E+01 0. -1.
</event>
<event>
 5   0  0.6134625E-07  0.3278299E+04  0.7818609E-02  0.8168439E-01
       -1   -1    0    0    0  501  0.00000000000E+00  0.00000000000E+00  0.16575360325E+04  0.16575360325E+04  0.50400001928E-02 0.  1.
        1   -1    0    0  501    0  0.00000000000E+00  0.00000000000E+00 -0.16209670844E+04  0.16209670844E+04  0.50400001928E-02 0. -1.
    10030    2    1    2    0    0  0.00000000000E+00  0.00000000000E+00  0.36568948148E+02  0.32785031169E+04  0.32782991626E+04 0.  0.
        3    1    3    3  502    0  0.81699980464E+02  0.13385071444E+04 -0.92439555565E+03  0.16287367546E+04  0.10100000352E+00 0. -1.
       -3    1    3    3    0  502 -0.81699980464E+02 -0.13385071444E+04  0.96096450380E+03  0.16497663623E+04  0.10100000352E+00 0.  1.
</event>
<event>
 5   0  0.1880301E-06  0.3332855E+04  0.7818609E-02  0.8154585E-01
        2   -1    0    0  501    0  0.00000000000E+00  0.00000000000E+00  0.22984242482E+04  0.22984242482E+04  0.25500000920E-02 0.  1.
       -2   -1    0    0    0  501  0.00000000000E+00  0.00000000000E+00 -0.12082109301E+04  0.12082109301E+04  0.25500000920E-02 0. -1.
    10030    2    1    2    0    0  0.00000000000E+00  0.00000000000E+00  0.10902133181E+04  0.35066351782E+04  0.33328554116E+04 0.  0.
        4    1    3    3  502    0 -0.74529581165E+03  0.21797083712E+03  0.20964364659E+04  0.22356262212E+04  0.12699999809E+01 0.  1.
       -4    1    3    3    0  502  0.74529581165E+03 -0.21797083712E+03 -0.10062231478E+04  0.12710089570E+04  0.12699999809E+01 0. -1.
</event>
<event>
 5   0  0.1911477E-06  0.3322553E+04  0.7818609E-02  0.8157180E-01
       -2   -1    0    0    0  501  0.00000000000E+00  0.00000000000E+00  0.13461724918E+04  0.13461724918E+04  0.25500000920E-02 0. -1.
        2   -1    0    0  501    0  0.00000000000E+00  0.00000000000E+00 -0.20501384879E+04  0.20501384879E+04  0.25500000920E-02 0.  1.
    10030    2    1    2    0    0  0.00000000000E+00  0.00000000000E+00 -0.70396599609E+03  0.33963109796E+04  0.33225532572E+04 0.  0.
        5    1    3    3  502    0 -0.12922626267E+04  0.10439314048E+04 -0.36126602238E+03  0.17000796168E+04  0.46999998093E+01 0. -1.
       -5    1    3    3    0  502  0.12922626267E+04 -0.10439314048E+04 -0.34269997371E+03  0.16962313629E+04  0.46999998093E+01 0.  1.
</event>
<event>
 5   0  0.1797075E-06  0.3399957E+04  0.7818609E-02  0.8137917E-01
       -2   -1    0    0    0  501  0.00000000000E+00  0.00000000000E+00  0.16942279668E+04  0.16942279668E+04  0.25500000920E-02 0.  1.
        2   -1    0    0  501    0  0.00000000000E+00  0.00000000000E+00 -0.17057487353E+04  0.17057487353E+04  0.25500000920E-02 0. -1.
    10030    2    1    2    0    0  0.00000000000E+00  0.00000000000E+00 -0.11520768437E+02  0.33999767021E+04  0.33999571831E+04 0.  0.
        2    1    3    3  502    0  0.11058880214E+04  0.58154130984E+03 -0.11584805833E+04  0.17038943256E+04  0.25500000920E-02 0. -1.
       -2    1    3    3    0  502 -0.11058880214E+04 -0.58154130984E+03  0.11469598148E+04  0.16960823765E+04  0.25500000920E-02 0.  1.
</event>
<event>
 5   0  0.1339844E-06  0.3411557E+04  0.7818609E-02  0.8135076E-01
       -2   -1    0    0    0  501  0.00000000000E+00  0.00000000000E+00  0.14861979720E+04  0.14861979720E+04  0.25500000920E-02 0. -1.
        2   -1    0    0  501    0  0.00000000000E+00  0.00000000000E+00 -0.19578013981E+04  0.19578013981E+04  0.25500000920E-02 0.  1.
    10030    2    1    2    0    0  0.00000000000E+00  0.00000000000E+00 -0.47160342612E+03  0.34439993701E+04  0.34115571033E+04 0.  0.
        3    1    3    3  502    0  0.45693836677E+03 -0.16421021947E+04 -0.30267490638E+03  0.17311569536E+04  0.10100000352E+00 0.  1.
       -3    1    3    3    0  502 -0.45693836677E+03  0.16421021947E+04 -0.16892851974E+03  0.17128424165E+04  0.10100000352E+00 0. -1.
</event>
<event>
 5   0  0.1797075E-06  0.3250933E+04  0.7818609E-02  0.8175494E-01
       -2   -1    0    0    0  501  0.00000000000E+00  0.00000000000E+00  0.15529583585E+04  0.15529583585E+04  0.25500000920E-02 0. -1.
        2   -1    0    0  501    0  0.00000000000E+00  0.00000000000E+00 -0.17013600516E+04  0.17013600516E+04  0.25500000920E-02 0.  1.
    10030    2    1    2    0    0  0.00000000000E+00  0.00000000000E+00 -0.14840169319E+03  0.32543184101E+04  0.32509329817E+04 0.  0.
        2    1    3    3  502    0 -0.52253277289E+03  0.14778857658E+04 -0.50471204329E+03  0.16467911471E+04  0.25500000920E-02 0.  1.
       -2    1    3    3    0  502  0.52253277289E+03 -0.14778857658E+04  0.35631035010E+03  0.16075272630E+04  0.25500000920E-02 0. -1.
</event>
<event>
 5   0  0.1339844E-06  0.3430722E+04  0.7818609E-02  0.8130407E-01
        2   -1    0    0  501    0  0.00000000000E+00  0.00000000000E+00  0.21762410688E+04  0.21762410688E+04  0.25500000920E-02 0. -1.
       -2   -1    0    0    0  501  0.00000000000E+00  0.00000000000E+00 -0.13520852240E+04  0.13520852240E+04  0.25500000920E-02 0.  1.
    10030    2    1    2    0    0  0.00000000000E+00  0.00000000000E+00  0.82415584480E+03  0.35283262928E+04  0.34307220191E+04 0.  0.
        3    1    3    3  502    0  0.80873160416E+03  0.95965134451E+03 -0.79058697497E+03  0.14832414793E+04  0.10100000352E+00 0.  1.
       -3    1    3    3    0  502 -0.80873160416E+03 -0.95965134451E+03  0.16147428198E+04  0.20450848136E+04  0.10100000352E+00 0. -1.
</event>
<event>
 5   0  0.1339844E-06  0.3409125E+04  0.7818609E-02  0.8135670E-01
        2   -1    0    0  501    0  0.00000000000E+00  0.00000000000E+00  0.22775446829E+04  0.22775446829E+04  0.25500000920E-02 0.  1.
       -2   -1    0    0    0  501  0.00000000000E+00  0.00000000000E+00 -0.12757303252E+04  0.12757303252E+04  0.25500000920E-02 0. -1.
    10030    2    1    2    0    0  0.00000000000E+00  0.00000000000E+00  0.10018143577E+04  0.35532750082E+04  0.34091247083E+04 0.  0.
        3    1    3    3  502    0  0.10480154023E+04 -0.22249745776E+03  0.18827455488E+04  0.21662345704E+04  0.10100000352E+00 0.  1.
       -3    1    3    3    0  502 -0.10480154023E+04  0.22249745776E+03 -0.88093119115E+03  0.13870404378E+04  0.10100000352E+00 0. -1.
</event>
<event>
 5   0  0.1797075E-06  0.3419693E+04  0.7818609E-02  0.8133090E-01
       -2   -1    0    0    0  501  0.00000000000E+00  0.00000000000E+00  0.88360895311E+03  0.88360895311E+03  0.25500000920E-02 0. -1.
        2   -1    0    0  501    0  0.00000000000E+00  0.00000000000E+00 -0.33086743419E+04  0.33086743419E+04  0.25500000920E-02 0.  1.
    10030    2    1    2    0    0  0.00000000000E+00  0.00000000000E+00 -0.24250653888E+04  0.41922832950E+04  0.34196925426E+04 0.  0.
        2    1    3    3  502    0  0.53359781873E+03  0.69408889748E+03 -0.30130508999E+04  0.31376682035E+04  0.25500000920E-02 0.  1.
       -2    1    3    3    0  502 -0.53359781873E+03 -0.69408889748E+03  0.58798551118E+03  0.10546150915E+04  0.25500000920E-02 0. -1.
</event>
<event>
 5   0  0.6134625E-07  0.3395983E+04  0.7818609E-02  0.8138893E-01
       -1   -1    0    0    0  501  0.00000000000E+00  0.00000000000E+00  0.14824177942E+04  0.14824177942E+04  0.50400001928E-02 0.  1.
        1   -1    0    0  501    0  0.00000000000E+00  0.00000000000E+00 -0.19449144926E+04  0.19449144927E+04  0.50400001928E-02 0. -1.
    10030    2    1    2    0    0  0.00000000000E+00  0.00000000000E+00 -0.46249669842E+03  0.34273322869E+04  0.33959834229E+04 0.  0.
        3    1    3    3  502    0  0.72530725675E+03 -0.99810887930E+03 -0.14085864184E+04  0.18725404294E+04  0.10100000352E+00 0. -1.
       -3    1    3    3    0  502 -0.72530725675E+03  0.99810887930E+03  0.94608971996E+03  0.15547918575E+04  0.10100000352E+00 0.  1.
</event>
<event>
 5   0  0.6218695E-07  0.3392106E+04  0.7818609E-02  0.8139846E-01
       -1   -1    0    0    0  501  0.00000000000E+00  0.00000000000E+00  0.16326001284E+04  0.16326001284E+04  0.50400001928E-02 0. -1.
        1   -1    0    0  501    0  0.00000000000E+00  0.00000000000E+00 -0.17619719690E+04  0.17619719690E+04  0.50400001928E-02 0.  1.
    10030    2    1    2    0    0  0.00000000000E+00  0.00000000000E+00 -0.12937184067E+03  0.33945720974E+04  0.33921059316E+04 0.  0.
        2    1    3    3  502    0 -0.21439750344E+03  0.16223780301E+04  0.38119261066E+03  0.16802930008E+04  0.25500000920E-02 0.  1.
       -2    1    3    3    0  502  0.21439750344E+03 -0.16223780301E+04 -0.51056445134E+03  0.17142790966E+04  0.25500000920E-02 0. -1.
</event>
<event>
 5   0  0.6218695E-07  0.3369988E+04  0.7818609E-02  0.8145312E-01
        1   -1    0    0  501    0  0.00000000000E+00  0.00000000000E+00  0.29568436349E+04  0.29568436349E+04  0.50400001928E-02 0. -1.
       -1   -1    0    0    0  501  0.00000000000E+00  0.00000000000E+00 -0.96021472064E+03  0.96021472065E+03  0.50400001928E-02 0.  1.
    10030    2    1    2    0    0  0.00000000000E+00  0.00000000000E+00  0.19966289143E+04  0.39170583556E+04  0.33699880029E+04 0.  0.
        2    1    3    3  502    0  0.63427738719E+03 -0.15283574248E+04  0.13677482164E+04  0.21468393991E+04  0.25500000920E-02 0. -1.
       -2    1    3    3    0  502 -0.63427738719E+03  0.15283574248E+04  0.62888069786E+03  0.17702189565E+04  0.25500000920E-02 0.  1.
</event>
<event>
 5   0  0.6134625E-07  0.3421838E+04  0.7818609E-02  0.8132567E-01
       -1   -1    0    0    0  501  0.00000000000E+00  0.00000000000E+00  0.12226720144E+04  0.12226720145E+04  0.50400001928E-02 0. -1.
        1   -1    0    0  501    0  0.00000000000E+00  0.00000000000E+00 -0.23941369338E+04  0.23941369338E+04  0.50400001928E-02 0.  1.
    10030    2    1    2    0    0  0.00000000000E+00  0.00000000000E+00 -0.11714649194E+04  0.36168089483E+04  0.34218382356E+04 0.  0.
        3    1    3    3  502    0 -0.40507328208E+03 -0.11569518810E+04  0.67585088648E+03  0.13997844298E+04  0.10100000352E+00 0. -1.
       -3    1    3    3    0  502  0.40507328208E+03  0.11569518810E+04 -0.18473158058E+04  0.22170245185E+04  0.10100000352E+00 0.  1.
</event>
<event>
 5   0  0.1948507E-06  0.3329840E+04  0.7818609E-02  0.8155344E-01
       -2   -1    0    0    0  501  0.00000000000E+00  0.00000000000E+00  0.16277291553E+04  0.16277291553E+04  0.25500000920E-02 0.  1.
        2   -1    0    0  501    0  0.00000000000E+00  0.00000000000E+00 -0.17029609275E+04  0.17029609275E+04  0.25500000920E-02 0. -1.
    10030    2    1    2    0    0  0.00000000000E+00  0.00000000000E+00 -0.75231772126E+02  0.33306900828E+04  0.33298403277E+04 0.  0.
        1    1    3    3  502    0  0.12837171962E+04 -0.45868386984E+03  0.91847238876E+03  0.16437494521E+04  0.50400001928E-02 0. -1.
       -1    1    3    3    0  502 -0.12837171962E+04  0.45868386984E+03 -0.99370416088E+03  0.16869406307E+04  0.50400001928E-02 0.  1.
</event>
<event>
 5   0  0.6134625E-07  0.3420213E+04  0.7818609E-02  0.8132963E-01
       -1   -1    0    0    0  501  0.00000000000E+00  0.00000000000E+00  0.14452733730E+04  0.14452733730E+04  0.50400001928E-02 0. -1.
        1   -1    0    0  501    0  0.00000000000E+00  0.00000000000E+00 -0.20234674021E+04  0.20234674021E+04  0.50400001928E-02 0.  1.
    10030    2    1    2    0    0  0.00000000000E+00  0.00000000000E+00 -0.57819402905E+03  0.34687407751E+04  0.34202126001E+04 0.  0.
        3    1    3    3  502    0  0.10780133446E+04 -0.10177482580E+04 -0.11535637500E+04  0.18784657631E+04  0.10100000352E+00 0.  1.
       -3    1    3    3    0  502 -0.10780133446E+04  0.10177482580E+04  0.57536972099E+03  0.15902750120E+04  0.10100000352E+00 0. -1.
</event>
<event>
 5   0  0.1339844E-06  0.3426036E+04  0.7818609E-02  0.8131546E-01
       -2   -1    0    0    0  501  0.00000000000E+00  0.00000000000E+00  0.13077087251E+04  0.13077087251E+04  0.25500000920E-02 0. -1.
        2   -1    0    0  501    0  0.00000000000E+00  0.00000000000E+00 -0.22439476305E+04  0.22439476305E+04  0.25500000920E-02 0.  1.
    10030    2    1    2    0    0  0.00000000000E+00  0.00000000000E+00 -0.93623890534E+03  0.35516563556E+04  0.34260355486E+04 0.  0.
        3    1    3    3  502    0  0.38658514199E+03 -0.16537129129E+04 -0.23581496480E+03  0.17145912569E+04  0.10100000352E+00 0. -1.
       -3    1    3    3    0  502 -0.38658514199E+03  0.16537129129E+04 -0.70042394054E+03  0.18370650987E+04  0.10100000352E+00 0.  1.
</event>
<event>
 5   0  0.6134625E-07  0.3500848E+04  0.7818609E-02  0.8113589E-01
       -1   -1    0    0    0  501  0.00000000000E+00  0.00000000000E+00  0.17338376531E+04  0.17338376531E+04  0.50400001928E-02 0.  1.
        1   -1    0    0  501    0  0.00000000000E+00  0.00000000000E+00 -0.17671693307E+04  0.17671693307E+04  0.50400001928E-02 0. -1.
    10030    2    1    2    0    0  0.00000000000E+00  0.00000000000E+00 -0.33331677604E+02  0.35010069838E+04  0.35008483114E+04 0.  0.
        1    1    3    3  502    0 -0.12366164184E+04  0.80071652374E+03 -0.96202218101E+03  0.17595038489E+04  0.50400001928E-02 0. -1.
       -1    1    3    3    0  502  0.12366164184E+04 -0.80071652374E+03  0.92869050341E+03  0.17415031348E+04  0.50400001928E-02 0.  1.
</event>
<event>
 5   0  0.1880301E-06  0.3375737E+04  0.7818609E-02  0.8143887E-01
        2   -1    0    0  501    0  0.00000000000E+00  0.00000000000E+00  0.17681618516E+04  0.17681618516E+04  0.25500000920E-02 0.  1.
       -2   -1    0    0    0  501  0.00000000000E+00  0.00000000000E+00 -0.16112210569E+04  0.16112210569E+04  0.25500000920E-02 0. -1.
    10030    2    1    2    0    0  0.00000000000E+00  0.00000000000E+00  0.15694079467E+03  0.33793829085E+04  0.33757367239E+04 0.  0.
        4    1    3    3  502    0 -0.35082074283E+03  0.14232579033E+04 -0.75918887993E+03  0.16507899991E+04  0.12699999809E+01 0.  1.
       -4    1    3    3    0  502  0.35082074283E+03 -0.14232579033E+04  0.91612967460E+03  0.17285929094E+04  0.12699999809E+01 0. -1.
</event>
<event>
 5   0  0.1880301E-06  0.3089131E+04  0.7818609E-02  0.8218727E-01
       -2   -1    0    0    0  501  0.00000000000E+00  0.00000000000E+00  0.14199732845E+04  0.14199732845E+04  0.25500000920E-02 0. -1.
        2   -1    0    0  501    0  0.00000000000E+00  0.00000000000E+00 -0.16800898589E+04  0.16800898589E+04  0.25500000920E-02 0.  1.
    10030    2    1    2    0    0  0.00000000000E+00  0.00000000000E+00 -0.26011657440E+03  0.31000631433E+04  0.30891310850E+04 0.  0.
        4    1    3    3  502    0  0.40574655029E+03  0.45288011286E+03 -0.15549246302E+04  0.16695876371E+04  0.12699999809E+01 0.  1.
       -4    1    3    3    0  502 -0.40574655029E+03 -0.45288011286E+03  0.12948080558E+04  0.14304755062E+04  0.12699999809E+01 0. -1.
</event>
<event>
 5   0  0.6134625E-07  0.3237570E+04  0.7818609E-02  0.8178965E-01
       -1   -1    0    0    0  501  0.00000000000E+00  0.00000000000E+00  0.23252019591E+04  0.23252019591E+04  0.50400001928E-02 0.  1.
        1   -1    0    0  501    0  0.00000000000E+00  0.00000000000E+00 -0.11269839135E+04  0.11269839135E+04  0.50400001928E-02 0. -1.
    10030    2    1    2    0    0  0.00000000000E+00  0.00000000000E+00  0.11982180456E+04  0.34521858725E+04  0.32375702021E+04 0.  0.
        3    1    3    3  502    0 -0.11908007363E+04 -0.84766468852E+03  0.13408687959E+04  0.19835500891E+04  0.10100000352E+00 0.  1.
       -3    1    3    3    0  502  0.11908007363E+04  0.84766468852E+03 -0.14265075029E+03  0.14686357835E+04  0.10100000352E+00 0. -1.
</event>
<event>
 5   0  0.6134625E-07  0.3394477E+04  0.7818609E-02  0.8139263E-01
       -1   -1    0    0    0  501  0.00000000000E+00  0.00000000000E+00  0.15642533627E+04  0.15642533627E+04  0.50400001928E-02 0.  1.
        1   -1    0    0  501    0  0.00000000000E+00  0.00000000000E+00 -0.18415298701E+04  0.18415298701E+04  0.50400001928E-02 0. -1.
    10030    2    1    2    0    0  0.00000000000E+00  0.00000000000E+00 -0.27727650743E+03  0.34057832328E+04  0.33944774512E+04 0.  0.
        1    1    3    3  502    0 -0.21494995546E+03  0.32976324184E+03  0.15178214386E+04  0.15680335450E+04  0.50400001928E-02 0.  1.
       -1    1    3    3    0  502  0.21494995546E+03 -0.32976324184E+03 -0.17950979460E+04  0.18377496877E+04  0.50400001928E-02 0. -1.
</event>
<event>
 5   0  0.6218695E-07  0.3446798E+04  0.7818609E-02  0.8126515E-01
        1   -1    0    0  501    0  0.00000000000E+00  0.00000000000E+00  0.26102879941E+04  0.26102879941E+04  0.50400001928E-02 0.  1.
       -1   -1    0    0    0  501  0.00000000000E+00  0.00000000000E+00 -0.11378450688E+04  0.11378450688E+04  0.50400001928E-02 0. -1.
    10030    2    1    2    0    0  0.00000000000E+00  0.00000000000E+00  0.14724429253E+04  0.37481330629E+04  0.34467975410E+04 0.  0.
        2    1    3    3  502    0  0.10588868781E+04 -0.51744677427E+03  0.21035735878E+04  0.24112267468E+04  0.25500000920E-02 0.  1.
       -2    1    3    3    0  502 -0.10588868781E+04  0.51744677427E+03 -0.63113066256E+03  0.13369063161E+04  0.25500000920E-02 0. -1.
</event>
<event>
 5   0  0.1880301E-06  0.3428621E+04  0.7818609E-02  0.8130917E-01
       -2   -1    0    0    0  501  0.00000000000E+00  0.00000000000E+00  0.15756490105E+04  0.15756490105E+04  0.25500000920E-02 0. -1.
        2   -1    0    0  501    0  0.00000000000E+00  0.00000000000E+00 -0.18651750811E+04  0.18651750811E+04  0.25500000920E-02 0.  1.
    10030    2    1    2    0    0  0.00000000000E+00  0.00000000000E+00 -0.28952607056E+03  0.34408240916E+04  0.34286214553E+04 0.  0.
        4    1    3    3  502    0  0.16024708230E+04  0.56464029110E+03 -0.37389176693E+03  0.17396919449E+04  0.12699999809E+01 0. -1.
       -4    1    3    3    0  502 -0.16024708230E+04 -0.56464029110E+03  0.84365696368E+02  0.17011321467E+04  0.12699999809E+01 0.  1.
</event>
<event>
 5   0  0.6134625E-07  0.3374418E+04  0.7818609E-02  0.8144214E-01
        1   -1    0    0  501    0  0.00000000000E+00  0.00000000000E+00  0.29770590901E+04  0.29770590901E+04  0.50400001928E-02 0.  1.
       -1   -1    0    0    0  501  0.00000000000E+00  0.00000000000E+00 -0.95620373062E+03  0.95620373064E+03  0.50400001928E-02 0. -1.
    10030    2    1    2    0    0  0.00000000000E+00  0.00000000000E+00  0.20208553595E+04  0.39332628207E+04  0.33744184733E+04 0.  0.
        3    1    3    3  502    0 -0.14322529671E+03 -0.11385305767E+04  0.24521675786E+04  0.27073771816E+04  0.10100000352E+00 0.  1.
       -3    1    3    3    0  502  0.14322529671E+03  0.11385305767E+04 -0.43131221910E+03  0.12258856392E+04  0.10100000352E+00 0. -1.
</event>
<event>
 5   0  0.1797075E-06  0.3403800E+04  0.7818609E-02  0.8136974E-01
       -2   -1    0    0    0  501  0.00000000000E+00  0.00000000000E+00  0.10972861251E+04  0.10972861251E+04  0.25500000920E-02 0.  1.
        2   -1    0    0  501    0  0.00000000000E+00  0.00000000000E+00 -0.26396613411E+04  0.26396613411E+04  0.25500000920E-02 0. -1.
    10030    2    1    2    0    0  0.00000000000E+00  0.00000000000E+00 -0.15423752159E+04  0.37369474662E+04  0.34038000909E+04 0.  0.
        2    1    3    3  502    0 -0.84926732884E+03 -0.48645150397E+03  0.75741327343E+03  0.12375641108E+04  0.25500000920E-02 0.  1.
       -2    1    3    3    0  502  0.84926732884E+03  0.48645150397E+03 -0.22997884894E+04  0.24993833554E+04  0.25500000920E-02 0. -1.
</event>
<event>
 5   0  0.1880301E-06  0.3416884E+04  0.7818609E-02  0.8133775E-01
        2   -1    0    0  501    0  0.00000000000E+00  0.00000000000E+00  0.16693783203E+04  0.16693783203E+04  0.25500000920E-02 0. -1.
       -2   -1    0    0    0  501  0.00000000000E+00  0.00000000000E+00 -0.17484200150E+04  0.17484200150E+04  0.25500000920E-02 0.  1.
    10030    2    1    2    0    0  0.00000000000E+00  0.00000000000E+00 -0.79041694784E+02  0.34177983353E+04  0.34168842344E+04 0.  0.
        4    1    3    3  502    0  0.98253032739E+03 -0.13703463873E+04 -0.31447215573E+03  0.17152578276E+04  0.12699999809E+01 0.  1.
       -4    1    3    3    0  502 -0.98253032739E+03  0.13703463873E+04  0.23543046095E+03  0.17025405077E+04  0.12699999809E+01 0. -1.
</event>
<event>
 5   0  0.6134625E-07  0.3573342E+04  0.7818609E-02  0.8096625E-01
        1   -1    0    0  501    0  0.00000000000E+00  0.00000000000E+00  0.19641049412E+04  0.19641049412E+04  0.50400001928E-02 0. -1.
       -1   -1    0    0    0  501  0.00000000000E+00  0.00000000000E+00 -0.16252660685E+04  0.16252660685E+04  0.50400001928E-02 0.  1.
    10030    2    1    2    0    0  0.00000000000E+00  0.00000000000E+00  0.33883887272E+03  0.35893710097E+04  0.35733419181E+04 0.  0.
        3    1    3    3  502    0 -0.15087973840E+04 -0.42280556236E+03  0.10317334522E+04  0.18760884883E+04  0.10100000352E+00 0. -1.
       -3    1    3    3    0  502  0.15087973840E+04  0.42280556236E+03 -0.69289457947E+03  0.17132825213E+04  0.10100000352E+00 0.  1.
</event>
<event>
 5   0  0.1911477E-06  0.3276182E+04  0.7818609E-02  0.8168982E-01
       -2   -1    0    0    0  501  0.00000000000E+00  0.00000000000E+00  0.12616330250E+04  0.12616330250E+04  0.25500000920E-02 0.  1.
        2   -1    0    0  501    0  0.00000000000E+00  0.00000000000E+00 -0.21268801315E+04  0.21268801315E+04  0.25500000920E-02 0. -1.
    10030    2    1    2    0    0  0.00000000000E+00  0.00000000000E+00 -0.86524710647E+03  0.33885131565E+04  0.32761820549E+04 0.  0.
        5    1    3    3  502    0  0.95308284368E+03 -0.16224182669E+03 -0.18003215529E+04  0.20434943360E+04  0.46999998093E+01 0. -1.
       -5    1    3    3    0  502 -0.95308284368E+03  0.16224182669E+03  0.93507444645E+03  0.13450188206E+04  0.46999998093E+01 0.  1.
</event>
<event>
 5   0  0.1797075E-06  0.3348211E+04  0.7818609E-02  0.8150735E-01
        2   -1    0    0  501    0  0.00000000000E+00  0.00000000000E+00  0.21350104734E+04  0.21350104734E+04  0.25500000920E-02 0. -1.
       -2   -1    0    0    0  501  0.00000000000E+00  0.00000000000E+00 -0.13127007976E+04  0.13127007976E+04  0.25500000920E-02 0.  1.
    10030    2    1    2    0    0  0.00000000000E+00  0.00000000000E+00  0.82230967576E+03  0.34477112710E+04  0.33482114338E+04 0.  0.
        2    1    3    3  502    0  0.49864824155E+03  0.10880983696E+04 -0.79410797104E+03  0.14363897801E+04  0.25500000920E-02 0.  1.
       -2    1    3    3    0  502 -0.49864824155E+03 -0.10880983696E+04  0.16164176468E+04  0.20113214909E+04  0.25500000920E-02 0. -1.
</event>
<event>
 5   0  0.1339844E-06  0.3387746E+04  0.7818609E-02  0.8140920E-01
        2   -1    0    0  501    0  0.00000000000E+00  0.00000000000E+00  0.21473349384E+04  0.21473349384E+04  0.25500000920E-02 0.  1.
       -2   -1    0    0    0  501  0.00000000000E+00  0.00000000000E+00 -0.13361707127E+04  0.13361707127E+04  0.25500000920E-02 0. -1.
    10030    2    1    2    0    0  0.00000000000E+00  0.00000000000E+00  0.81116422574E+03  0.34835056510E+04  0.33877461858E+04 0.  0.
        3    1    3    3  502    0  0.15690577978E+04  0.79770633933E+02  0.10566463715E+04  0.18933587330E+04  0.10100000352E+00 0.  1.
       -3    1    3    3    0  502 -0.15690577978E+04 -0.79770633933E+02 -0.24548214578E+03  0.15901469181E+04  0.10100000352E+00 0. -1.
</event>
<event>
 5   0  0.1339844E-06  0.3384882E+04  0.7818609E-02  0.8141627E-01
        2   -1    0    0  501    0  0.00000000000E+00  0.00000000000E+00  0.11315232746E+04  0.11315232746E+04  0.25500000920E-02 0. -1.
       -2   -1    0    0    0  501  0.00000000000E+00  0.00000000000E+00 -0.25314161818E+04  0.25314161818E+04  0.25500000920E-02 0.  1.
    10030    2    1    2    0    0  0.00000000000E+00  0.00000000000E+00 -0.13998929072E+04  0.36629394564E+04  0.33848818753E+04 0.  0.
        3    1    3    3  502    0 -0.14420092985E+04 -0.56042832480E+03  0.42634703018E+02  0.15476719460E+04  0.10100000352E+00 0. -1.
       -3    1    3    3    0  502  0.14420092985E+04  0.56042832480E+03 -0.14425276102E+04  0.21152675104E+04  0.10100000352E+00 0.  1.
</event>
<event>
 5   0  0.6218695E-07  0.3416704E+04  0.7818609E-02  0.8133819E-01
        1   -1    0    0  501    0  0.00000000000E+00  0.00000000000E+00  0.16758807032E+04  0.16758807032E+04  0.50400001928E-02 0.  1.
       -1   -1    0    0    0  501  0.00000000000E+00  0.00000000000E+00 -0.17414524700E+04  0.17414524700E+04  0.50400001928E-02 0. -1.
    10030    2    1    2    0    0  0.00000000000E+00  0.00000000000E+00 -0.65571766803E+02  0.34173331733E+04  0.34167040200E+04 0.  0.
        2    1    3    3  502    0 -0.10048743953E+04 -0.93205480032E+03 -0.10527618265E+04  0.17282378784E+04  0.25500000920E-02 0. -1.
       -2    1    3    3    0  502  0.10048743953E+04  0.93205480032E+03  0.98719005967E+03  0.16890952948E+04  0.25500000920E-02 0.  1.
</event>
<event>
 5   0  0.1797075E-06  0.2901152E+04  0.7818609E-02  0.8272535E-01
        2   -1    0    0  501    0  0.00000000000E+00  0.00000000000E+00  0.13375897072E+04  0.13375897072E+04  0.25500000920E-02 0.  1.
       -2   -1    0    0    0  501  0.00000000000E+00  0.00000000000E+00 -0.15731059909E+04  0.15731059909E+04  0.25500000920E-02 0. -1.
    10030    2    1    2    0    0  0.00000000000E+00  0.00000000000E+00 -0.23551628369E+03  0.29106956980E+04  0.29011517586E+04 0.  0.
        2    1    3    3  502    0  0.90965256298E+03 -0.59909997725E+03  0.84340272532E+03  0.13775763954E+04  0.25500000920E-02 0.  1.
       -2    1    3    3    0  502 -0.90965256298E+03  0.59909997725E+03 -0.10789190090E+04  0.15331193026E+04  0.25500000920E-02 0. -1.
</event>
<event>
 5   0  0.1911477E-06  0.2933415E+04  0.7818609E-02  0.8263004E-01
        2   -1    0    0  501    0  0.00000000000E+00  0.00000000000E+00  0.14153470350E+04  0.14153470350E+04  0.25500000920E-02 0. -1.
       -2   -1    0    0    0  501  0.00000000000E+00  0.00000000000E+00 -0.15199321314E+04  0.15199321314E+04  0.25500000920E-02 0.  1.
    10030    2    1    2    0    0  0.00000000000E+00  0.00000000000E+00 -0.10458509636E+03  0.29352791664E+04  0.29334153716E+04 0.  0.
        5    1    3    3  502    0  0.12902278817E+04  0.27438268704E+03 -0.69397645533E+03  0.14905030212E+04  0.46999998093E+01 0. -1.
       -5    1    3    3    0  502 -0.12902278817E+04 -0.27438268704E+03  0.58939135897E+03  0.14447761452E+04  0.46999998093E+01 0.  1.
</event>
<event>
 5   0  0.1339844E-06  0.3367672E+04  0.7818609E-02  0.8145886E-01
        2   -1    0    0  501    0  0.00000000000E+00  0.00000000000E+00  0.21667446509E+04  0.21667446509E+04  0.25500000920E-02 0. -1.
       -2   -1    0    0    0  501  0.00000000000E+00  0.00000000000E+00 -0.13085549441E+04  0.13085549441E+04  0.25500000920E-02 0.  1.
    10030    2    1    2    0    0  0.00000000000E+00  0.00000000000E+00  0.85818970686E+03  0.34752995950E+04  0.33676724458E+04 0.  0.
        3    1    3    3  502    0  0.10356531936E+04  0.29823221668E+03  0.17641898462E+04  0.20673378572E+04  0.10100000352E+00 0. -1.
       -3    1    3    3    0  502 -0.10356531936E+04 -0.29823221668E+03 -0.90600013933E+03  0.14079617378E+04  0.10100000352E+00 0.  1.
</event>
<event>
 5   0  0.6146388E-07  0.3373082E+04  0.7818609E-02  0.8144545E-01
       -1   -1    0    0    0  501  0.00000000000E+00  0.00000000000E+00  0.13008677048E+04  0.13008677048E+04  0.50400001928E-02 0. -1.
        1   -1    0    0  501    0  0.00000000000E+00  0.00000000000E+00 -0.21865561542E+04  0.21865561543E+04  0.50400001928E-02 0.  1.
    10030    2    1    2    0    0  0.00000000000E+00  0.00000000000E+00 -0.88568844944E+03  0.34874238591E+04  0.33730818465E+04 0.  0.
        4    1    3    3  502    0 -0.48791185257E+02  0.94451894351E+02 -0.21830880642E+04  0.21856753759E+04  0.12699999809E+01 0.  1.
       -4    1    3    3    0  502  0.48791185257E+02 -0.94451894351E+02  0.12973996147E+04  0.13017484831E+04  0.12699999809E+01 0. -1.
</event>
<event>
 5   0  0.6218695E-07  0.3589319E+04  0.7818609E-02  0.8092943E-01
        1   -1    0    0  501    0  0.00000000000E+00  0.00000000000E+00  0.21457124759E+04  0.21457124759E+04  0.50400001928E-02 0.  1.
       -1   -1    0    0    0  501  0.00000000000E+00  0.00000000000E+00 -0.15010414349E+04  0.15010414350E+04  0.50400001928E-02 0. -1.
    10030    2    1    2    0    0  0.00000000000E+00  0.00000000000E+00  0.64467104093E+03  0.36467539108E+04  0.35893193415E+04 0.  0.
        2    1    3    3  502    0 -0.42453492638E+02  0.53508741878E+03  0.20622459090E+04  0.21309573046E+04  0.25500000920E-02 0.  1.
       -2    1    3    3    0  502  0.42453492638E+02 -0.53508741878E+03 -0.14175748681E+04  0.15157966062E+04  0.25500000920E-02 0. -1.
</event>
<event>
 5   0  0.6134625E-07  0.3376384E+04  0.7818609E-02  0.8143727E-01
       -1   -1    0    0    0  501  0.00000000000E+00  0.00000000000E+00  0.11302711693E+04  0.11302711693E+04  0.50400001928E-02 0.  1.
        1   -1    0    0  501    0  0.00000000000E+00  0.00000000000E+00 -0.25215117534E+04  0.25215117534E+04  0.50400001928E-02 0. -1.
    10030    2    1    2    0    0  0.00000000000E+00  0.00000000000E+00 -0.13912405842E+04  0.36517829227E+04  0.33763838869E+04 0.  0.
        1    1    3    3  502    0  0.10903165789E+04  0.84009813745E+03  0.36157237678E+03  0.14231267359E+04  0.50400001928E-02 0.  1.
       -1    1    3    3    0  502 -0.10903165789E+04 -0.84009813745E+03 -0.17528129609E+04  0.22286561868E+04  0.50400001928E-02 0. -1.
</event>
<event>
 5   0  0.1911477E-06  0.3413398E+04  0.7818609E-02  0.8134626E-01
        2   -1    0    0  501    0  0.00000000000E+00  0.00000000000E+00  0.16083500157E+04  0.16083500157E+04  0.25500000920E-02 0. -1.
       -2   -1    0    0    0  501  0.00000000000E+00  0.00000000000E+00 -0.18110614851E+04  0.18110614851E+04  0.25500000920E-02 0.  1.
    10030    2    1    2    0    0  0.00000000000E+00  0.00000000000E+00 -0.20271146938E+03  0.34194115008E+04  0.34133975848E+04 0.  0.
        5    1    3    3  502    0 -0.16528198185E+04  0.75201175636E+01  0.32475091385E+03  0.16844450572E+04  0.46999998093E+01 0.  1.
       -5    1    3    3    0  502  0.16528198185E+04 -0.75201175636E+01 -0.52746238323E+03  0.17349664436E+04  0.46999998093E+01 0. -1.
</event>
<event>
 5   0  0.6134625E-07  0.3361916E+04  0.7818609E-02  0.8147317E-01
       -1   -1    0    0    0  501  0.00000000000E+00  0.00000000000E+00  0.11709249487E+04  0.11709249488E+04  0.50400001928E-02 0. -1.
        1   -1    0    0  501    0  0.00000000000E+00  0.00000000000E+00 -0.24131512502E+04  0.24131512502E+04  0.50400001928E-02 0.  1.
    10030    2    1    2    0    0  0.00000000000E+00  0.00000000000E+00 -0.12422263015E+04  0.35840761990E+04  0.33619155278E+04 0.  0.
        3    1    3    3  502    0 -0.38985580221E+03 -0.14594205799E+04 -0.14072158667E+04  0.20644981185E+04  0.10100000352E+00 0.  1.
       -3    1    3    3    0  502  0.38985580221E+03  0.14594205799E+04  0.16498956524E+03  0.15195780804E+04  0.10100000352E+00 0. -1.
</event>
<event>
 5   0  0.6134625E-07  0.3409433E+04  0.7818609E-02  0.8135595E-01
        1   -1    0    0  501    0  0.00000000000E+00  0.00000000000E+00  0.17267407064E+04  0.17267407064E+04  0.50400001928E-02 0. -1.
       -1   -1    0    0    0  501  0.00000000000E+00  0.00000000000E+00 -0.16829734232E+04  0.16829734232E+04  0.50400001928E-02 0.  1.
    10030    2    1    2    0    0  0.00000000000E+00  0.00000000000E+00  0.43767283202E+02  0.34097141296E+04  0.34094332184E+04 0.  0.
        1    1    3    3  502    0 -0.12769414990E+04 -0.27998768898E+03  0.11160880509E+04  0.17189023344E+04  0.50400001928E-02 0. -1.
       -1    1    3    3    0  502  0.12769414990E+04  0.27998768898E+03 -0.10723207677E+04  0.16908117952E+04  0.50400001928E-02 0.  1.
</event>
<event>
 5   0  0.1948507E-06  0.3300548E+04  0.7818609E-02  0.8162756E-01
       -2   -1    0    0    0  501  0.00000000000E+00  0.00000000000E+00  0.15762064154E+04  0.15762064155E+04  0.25500000920E-02 0.  1.
        2   -1    0    0  501    0  0.00000000000E+00  0.00000000000E+00 -0.17278222610E+04  0.17278222610E+04  0.25500000920E-02 0. -1.
    10030    2    1    2    0    0  0.00000000000E+00  0.00000000000E+00 -0.15161584560E+03  0.33040286765E+04  0.33005481561E+04 0.  0.
        1    1    3    3  502    0 -0.12241484260E+04 -0.11067031977E+04 -0.67243443819E+02  0.16516213299E+04  0.50400001928E-02 0.  1.
       -1    1    3    3    0  502  0.12241484260E+04  0.11067031977E+04 -0.84372401777E+02  0.16524073466E+04  0.50400001928E-02 0. -1.
</event>
<event>
 5   0  0.6134625E-07  0.3042215E+04  0.7818609E-02  0.8231778E-01
       -1   -1    0    0    0  501  0.00000000000E+00  0.00000000000E+00  0.94207470008E+03  0.94207470010E+03  0.50400001928E-02 0.  1.
        1   -1    0    0  501    0  0.00000000000E+00  0.00000000000E+00 -0.24560343501E+04  0.24560343501E+04  0.50400001928E-02 0. -1.
    10030    2    1    2    0    0  0.00000000000E+00  0.00000000000E+00 -0.15139596500E+04  0.33981090502E+04  0.30422148667E+04 0.  0.
        1    1    3    3  502    0 -0.13762543112E+04 -0.23128928204E+03 -0.81044855679E+02  0.13979051934E+04  0.50400001928E-02 0.  1.
       -1    1    3    3    0  502  0.13762543112E+04  0.23128928204E+03 -0.14329147943E+04  0.20002038568E+04  0.50400001928E-02 0. -1.
</event>
<event>
 5   0  0.1339844E-06  0.3484169E+04  0.7818609E-02  0.8117552E-01
       -2   -1    0    0    0  501  0.00000000000E+00  0.00000000000E+00  0.16015845002E+04  0.16015845003E+04  0.25500000920E-02 0. -1.
        2   -1    0    0  501    0  0.00000000000E+00  0.00000000000E+00 -0.18949102811E+04  0.18949102811E+04  0.25500000920E-02 0.  1.
    10030    2    1    2    0    0  0.00000000000E+00  0.00000000000E+00 -0.29332578086E+03  0.34964947814E+04  0.34841693045E+04 0.  0.
        3    1    3    3  502    0  0.91121479174E+03 -0.14496567909E+04  0.17547378913E+03  0.17212228993E+04  0.10100000352E+00 0.  1.
       -3    1    3    3    0  502 -0.91121479174E+03  0.14496567909E+04 -0.46879956999E+03  0.17752718821E+04  0.10100000352E+00 0. -1.
</event>
<event>
 5   0  0.6134625E-07  0.3419582E+04  0.7818609E-02  0.8133117E-01
       -1   -1    0    0    0  501  0.00000000000E+00  0.00000000000E+00  0.30440163580E+04  0.30440163580E+04  0.50400001928E-02 0. -1.
        1   -1    0    0  501    0  0.00000000000E+00  0.00000000000E+00 -0.96037108424E+03  0.96037108425E+03  0.50400001928E-02 0.  1.
    10030    2    1    2    0    0  0.00000000000E+00  0.00000000000E+00  0.20836452737E+04  0.40043874422E+04  0.34195820155E+04 0.  0.
        1    1    3    3  502    0  0.18761005009E+03  0.12606898760E+04  0.23763957295E+04  0.26966262547E+04  0.50400001928E-02 0. -1.
       -1    1    3    3    0  502 -0.18761005009E+03 -0.12606898760E+04 -0.29275045574E+03  0.13077611876E+04  0.50400001928E-02 0.  1.
</event>
<event>
 5   0  0.6146388E-07  0.3583173E+04  0.7818609E-02  0.8094357E-01
        1   -1    0    0  501    0  0.00000000000E+00  0.00000000000E+00  0.33411442743E+04  0.33411442743E+04  0.50400001928E-02 0. -1.
       -1   -1    0    0    0  501  0.00000000000E+00  0.00000000000E+00 -0.96068371184E+03  0.96068371186E+03  0.50400001928E-02 0.  1.
    10030    2    1    2    0    0  0.00000000000E+00  0.00000000000E+00  0.23804605625E+04  0.43018279862E+04  0.35831733886E+04 0.  0.
        4    1    3    3  502    0 -0.17755460324E+04  0.14640343359E+03  0.96312502640E+03  0.20252429750E+04  0.12699999809E+01 0.  1.
       -4    1    3    3    0  502  0.17755460324E+04 -0.14640343359E+03  0.14173355361E+04  0.22765850112E+04  0.12699999809E+01 0. -1.
</event>
<event>
 5   0  0.1948507E-06  0.3382869E+04  0.7818609E-02  0.8142124E-01
        2   -1    0    0  501    0  0.00000000000E+00  0.00000000000E+00  0.23987262758E+04  0.23987262758E+04  0.25500000920E-02 0.  1.
       -2   -1    0    0    0  501  0.00000000000E+00  0.00000000000E+00 -0.11926954395E+04  0.11926954395E+04  0.25500000920E-02 0. -1.
    10030    2    1    2    0    0  0.00000000000E+00  0.00000000000E+00  0.12060308363E+04  0.35914217153E+04  0.33828685401E+04 0.  0.
        1    1    3    3  502    0 -0.45382260498E+03  0.17049862566E+03 -0.11173569343E+04  0.12179947688E+04  0.50400001928E-02 0. -1.
       -1    1    3    3    0  502  0.45382260498E+03 -0.17049862566E+03  0.23233877706E+04  0.23734269466E+04  0.50400001928E-02 0.  1.
</event>
<event>
 5   0  0.6134625E-07  0.3363310E+04  0.7818609E-02  0.8146970E-01
        1   -1    0    0  501    0  0.00000000000E+00  0.00000000000E+00  0.23878565577E+04  0.23878565578E+04  0.50400001928E-02 0. -1.
       -1   -1    0    0    0  501  0.00000000000E+00  0.00000000000E+00 -0.11843103263E+04  0.11843103263E+04  0.50400001928E-02 0.  1.
    10030    2    1    2    0    0  0.00000000000E+00  0.00000000000E+00  0.12035462315E+04  0.35721668841E+04  0.33633097860E+04 0.  0.
        1    1    3    3  502    0  0.16750180557E+03 -0.31920881338E+03  0.23463367376E+04  0.23738675632E+04  0.50400001928E-02 0. -1.
       -1    1    3    3    0  502 -0.16750180557E+03  0.31920881338E+03 -0.11427905061E+04  0.11982993209E+04  0.50400001928E-02 0.  1.
</event>
<event>
 5   0  0.6134625E-07  0.3262283E+04  0.7818609E-02  0.8172559E-01
        1   -1    0    0  501    0  0.00000000000E+00  0.00000000000E+00  0.17024050302E+04  0.17024050302E+04  0.50400001928E-02 0. -1.
       -1   -1    0    0    0  501  0.00000000000E+00  0.00000000000E+00 -0.15628608625E+04  0.15628608625E+04  0.50400001928E-02 0.  1.
    10030    2    1    2    0    0  0.00000000000E+00  0.00000000000E+00  0.13954416769E+03  0.32652658927E+04  0.32622827553E+04 0.  0.
        1    1    3    3  502    0  0.97551236949E+03  0.85552535143E+03  0.10591466022E+04  0.16749147844E+04  0.50400001928E-02 0. -1.
       -1    1    3    3    0  502 -0.97551236949E+03 -0.85552535143E+03 -0.91960243454E+03  0.15903511083E+04  0.50400001928E-02 0.  1.
</event>
<event>
 5   0  0.1339844E-06  0.3127992E+04  0.7818609E-02  0.8208098E-01
       -2   -1    0    0    0  501  0.00000000000E+00  0.00000000000E+00  0.14922460297E+04  0.14922460297E+04  0.25500000920E-02 0. -1.
        2   -1    0    0  501    0  0.00000000000E+00  0.00000000000E+00 -0.16391956849E+04  0.16391956849E+04  0.25500000920E-02 0.  1.
    10030    2    1    2    0    0  0.00000000000E+00  0.00000000000E+00 -0.14694965519E+03  0.31314417147E+04  0.31279918496E+04 0.  0.
        3    1    3    3  502    0  0.32319291598E+03  0.30712002070E+03 -0.15742302113E+04  0.16361470400E+04  0.10100000352E+00 0.  1.
       -3    1    3    3    0  502 -0.32319291598E+03 -0.30712002070E+03  0.14272805561E+04  0.14952946747E+04  0.10100000352E+00 0. -1.
</event>
<event>
 5   0  0.1339844E-06  0.3358313E+04  0.7818609E-02  0.8148214E-01
       -2   -1    0    0    0  501  0.00000000000E+00  0.00000000000E+00  0.17751553918E+04  0.17751553918E+04  0.25500000920E-02 0. -1.
        2   -1    0    0  501    0  0.00000000000E+00  0.00000000000E+00 -0.15883494467E+04  0.15883494467E+04  0.25500000920E-02 0.  1.
    10030    2    1    2    0    0  0.00000000000E+00  0.00000000000E+00  0.18680594504E+03  0.33635048385E+04  0.33583133173E+04 0.  0.
        3    1    3    3  502    0  0.79527167848E+02 -0.16261652712E+04 -0.31812028781E+03  0.16588967983E+04  0.10100000352E+00 0.  1.
       -3    1    3    3    0  502 -0.79527167848E+02  0.16261652712E+04  0.50492623285E+03  0.17046080402E+04  0.10100000352E+00 0. -1.
</event>
<event>
 5   0  0.6134625E-07  0.3383111E+04  0.7818609E-02  0.8142064E-01
        3   -1    0    0  501    0  0.00000000000E+00  0.00000000000E+00  0.22108025584E+04  0.22108025607E+04  0.10100000352E+00 0. -1.
       -3   -1    0    0    0  501  0.00000000000E+00  0.00000000000E+00 -0.12942630917E+04  0.12942630957E+04  0.10100000352E+00 0.  1.
    10030    2    1    2    0    0  0.00000000000E+00  0.00000000000E+00  0.91653946666E+03  0.35050656564E+04  0.33831110921E+04 0.  0.
        3    1    3    3  502    0  0.16005688074E+04 -0.46698042140E+03  0.75398647698E+03  0.18298597867E+04  0.10100000352E+00 0.  1.
       -3    1    3    3    0  502 -0.16005688074E+04  0.46698042140E+03  0.16255298968E+03  0.16752058697E+04  0.10100000352E+00 0. -1.
</event>
<event>
 5   0  0.1797075E-06  0.3394366E+04  0.7818609E-02  0.8139290E-01
       -2   -1    0    0    0  501  0.00000000000E+00  0.00000000000E+00  0.19771373136E+04  0.19771373137E+04  0.25500000920E-02 0.  1.
        2   -1    0    0  501    0  0.00000000000E+00  0.00000000000E+00 -0.14568692122E+04  0.14568692122E+04  0.25500000920E-02 0. -1.
    10030    2    1    2    0    0  0.00000000000E+00  0.00000000000E+00  0.52026810145E+03  0.34340065259E+04  0.33943662033E+04 0.  0.
        2    1    3    3  502    0  0.25494268446E+03  0.14996084503E+04 -0.50139106971E+03  0.16016286340E+04  0.25500000920E-02 0. -1.
       -2    1    3    3    0  502 -0.25494268446E+03 -0.14996084503E+04  0.10216591712E+04  0.18323778918E+04  0.25500000920E-02 0.  1.
</event>
<event>
 5   0  0.1797075E-06  0.3173571E+04  0.7818609E-02  0.8195832E-01
       -2   -1    0    0    0  501  0.00000000000E+00  0.00000000000E+00  0.16566347226E+04  0.16566347226E+04  0.25500000920E-02 0.  1.
        2   -1    0    0  501    0  0.00000000000E+00  0.00000000000E+00 -0.15198811786E+04  0.15198811786E+04  0.25500000920E-02 0. -1.
    10030    2    1    2    0    0  0.00000000000E+00  0.00000000000E+00  0.13675354395E+03  0.31765159012E+04  0.31735708183E+04 0.  0.
        2    1    3    3  502    0 -0.35140174399E+03 -0.13592486056E+04  0.80855472432E+03  0.16201236680E+04  0.25500000920E-02 0.  1.
       -2    1    3    3    0  502  0.35140174399E+03  0.13592486056E+04 -0.67180118038E+03  0.15563922332E+04  0.25500000920E-02 0. -1.
</event>
<event>
 5   0  0.1339844E-06  0.3318369E+04  0.7818609E-02  0.8158237E-01
       -2   -1    0    0    0  501  0.00000000000E+00  0.00000000000E+00  0.19561092236E+04  0.19561092236E+04  0.25500000920E-02 0.  1.
        2   -1    0    0  501    0  0.00000000000E+00  0.00000000000E+00 -0.14073314150E+04  0.14073314150E+04  0.25500000920E-02 0. -1.
    10030    2    1    2    0    0  0.00000000000E+00  0.00000000000E+00  0.54877780852E+03  0.33634406386E+04  0.33183694560E+04 0.  0.
        3    1    3    3  502    0 -0.64227280773E+02 -0.14840624954E+04 -0.47478991125E+03  0.15594845635E+04  0.10100000352E+00 0. -1.
       -3    1    3    3    0  502  0.64227280773E+02  0.14840624954E+04  0.10235677198E+04  0.18039560751E+04  0.10100000352E+00 0.  1.
</event>
<event>
 5   0  0.6134625E-07  0.3392623E+04  0.7818609E-02  0.8139719E-01
       -4   -1    0    0    0  501  0.00000000000E+00  0.00000000000E+00  0.17829614352E+04  0.17829618875E+04  0.12699999809E+01 0.  1.
        4   -1    0    0  501    0  0.00000000000E+00  0.00000000000E+00 -0.16138714615E+04  0.16138719612E+04  0.12699999809E+01 0. -1.
    10030    2    1    2    0    0  0.00000000000E+00  0.00000000000E+00  0.16908997370E+03  0.33968338488E+04  0.33926226989E+04 0.  0.
        3    1    3    3  502    0  0.15022749299E+04 -0.73602277239E+03  0.36580771550E+03  0.17124178174E+04  0.10100000352E+00 0.  1.
       -3    1    3    3    0  502 -0.15022749299E+04  0.73602277239E+03 -0.19671774181E+03  0.16844160313E+04  0.10100000352E+00 0. -1.
</event>
<event>
 5   0  0.1948507E-06  0.3439593E+04  0.7818609E-02  0.8128257E-01
        2   -1    0    0  501    0  0.00000000000E+00  0.00000000000E+00  0.18795975272E+04  0.18795975272E+04  0.25500000920E-02 0.  1.
       -2   -1    0    0    0  501  0.00000000000E+00  0.00000000000E+00 -0.15735819569E+04  0.15735819569E+04  0.25500000920E-02 0. -1.
    10030    2    1    2    0    0  0.00000000000E+00  0.00000000000E+00  0.30601557029E+03  0.34531794841E+04  0.34395934382E+04 0.  0.
        1    1    3    3  502    0  0.63578280554E+03  0.61165483282E+03  0.16351042206E+04  0.18579308982E+04  0.50400001928E-02 0.  1.
       -1    1    3    3    0  502 -0.63578280554E+03 -0.61165483282E+03 -0.13290886503E+04  0.15952485859E+04  0.50400001928E-02 0. -1.
</event>
<event>
 5   0  0.6134625E-07  0.3408673E+04  0.7818609E-02  0.8135781E-01
        1   -1    0    0  501    0  0.00000000000E+00  0.00000000000E+00  0.16180465595E+04  0.16180465595E+04  0.50400001928E-02 0.  1.
       -1   -1    0    0    0  501  0.00000000000E+00  0.00000000000E+00 -0.17952284215E+04  0.17952284215E+04  0.50400001928E-02 0. -1.
    10030    2    1    2    0    0  0.00000000000E+00  0.00000000000E+00 -0.17718186199E+03  0.34132749810E+04  0.34086731559E+04 0.  0.
        1    1    3    3  502    0 -0.34328912172E+03 -0.15259997312E+04  0.58925764077E+03  0.16714506179E+04  0.50400001928E-02 0.  1.
       -1    1    3    3    0  502  0.34328912172E+03  0.15259997312E+04 -0.76643950277E+03  0.17418243632E+04  0.50400001928E-02 0. -1.
</event>
<event>
 5   0  0.6134625E-07  0.3460623E+04  0.7818609E-02  0.8123186E-01
       -1   -1    0    0    0  501  0.00000000000E+00  0.00000000000E+00  0.24637617062E+04  0.24637617063E+04  0.50400001928E-02 0.  1.
        1   -1    0    0  501    0  0.00000000000E+00  0.00000000000E+00 -0.12152056885E+04  0.12152056885E+04  0.50400001928E-02 0. -1.
    10030    2    1    2    0    0  0.00000000000E+00  0.00000000000E+00  0.12485560178E+04  0.36789673947E+04  0.34606226263E+04 0.  0.
        3    1    3    3  502    0  0.12298058590E+04  0.11132922230E+04  0.10115880276E+03  0.16619491985E+04  0.10100000352E+00 0. -1.
       -3    1    3    3    0  502 -0.12298058590E+04 -0.11132922230E+04  0.11473972150E+04  0.20170181962E+04  0.10100000352E+00 0.  1.
</event>
<event>
 5   0  0.6218695E-07  0.3016065E+04  0.7818609E-02  0.8239158E-01
       -1   -1    0    0    0  501  0.00000000000E+00  0.00000000000E+00  0.22738934535E+04  0.22738934535E+04  0.50400001928E-02 0. -1.
        1   -1    0    0  501    0  0.00000000000E+00  0.00000000000E+00 -0.10001182339E+04  0.10001182340E+04  0.50400001928E-02 0.  1.
    10030    2    1    2    0    0  0.00000000000E+00  0.00000000000E+00  0.12737752196E+04  0.32740116875E+04  0.30160651882E+04 0.  0.
        2    1    3    3  502    0 -0.78920026133E+03 -0.11200289263E+04  0.13207337742E+04  0.19030605745E+04  0.25500000920E-02 0. -1.
       -2    1    3    3    0  502  0.78920026133E+03  0.11200289263E+04 -0.46958554623E+02  0.13709511129E+04  0.25500000920E-02 0.  1.
</event>
<event>
 5   0  0.1880301E-06  0.2483989E+04  0.7818609E-02  0.8408712E-01
       -2   -1    0    0    0  501  0.00000000000E+00  0.00000000000E+00  0.58392174431E+03  0.58392174432E+03  0.25500000920E-02 0.  1.
        2   -1    0    0  501    0  0.00000000000E+00  0.00000000000E+00 -0.26417065201E+04  0.26417065201E+04  0.25500000920E-02 0. -1.
    10030    2    1    2    0    0  0.00000000000E+00  0.00000000000E+00 -0.20577847758E+04  0.32256282644E+04  0.24839886305E+04 0.  0.
        4    1    3    3  502    0 -0.40868027939E+03  0.52210954489E+03 -0.23926549054E+04  0.24828244112E+04  0.12699999809E+01 0. -1.
       -4    1    3    3    0  502  0.40868027939E+03 -0.52210954489E+03  0.33487012967E+03  0.74280385316E+03  0.12699999809E+01 0.  1.
</event>
<event>
 5   0  0.6134625E-07  0.3471719E+04  0.7818609E-02  0.8120525E-01
       -1   -1    0    0    0  501  0.00000000000E+00  0.00000000000E+00  0.14290412748E+04  0.14290412748E+04  0.50400001928E-02 0. -1.
        1   -1    0    0  501    0  0.00000000000E+00  0.00000000000E+00 -0.21085517552E+04  0.21085517552E+04  0.50400001928E-02 0.  1.
    10030    2    1    2    0    0  0.00000000000E+00  0.00000000000E+00 -0.67951048048E+03  0.35375930300E+04  0.34717185878E+04 0.  0.
        3    1    3    3  502    0  0.26002705962E+03 -0.21421013506E+03 -0.20749189066E+04  0.21020914663E+04  0.10100000352E+00 0.  1.
       -3    1    3    3    0  502 -0.26002705962E+03  0.21421013506E+03  0.13954084261E+04  0.14355015637E+04  0.10100000352E+00 0. -1.
</event>
<event>
 5   0  0.1339844E-06  0.3407027E+04  0.7818609E-02  0.8136184E-01
        2   -1    0    0  501    0  0.00000000000E+00  0.00000000000E+00  0.19782653257E+04  0.19782653257E+04  0.25500000920E-02 0.  1.
       -2   -1    0    0    0  501  0.00000000000E+00  0.00000000000E+00 -0.14669202274E+04  0.14669202274E+04  0.25500000920E-02 0. -1.
    10030    2    1    2    0    0  0.00000000000E+00  0.00000000000E+00  0.51134509831E+03  0.34451855531E+04  0.34070265168E+04 0.  0.
        3    1    3    3  502    0 -0.11054791357E+04 -0.11511470683E+04 -0.34659344153E+03  0.16332025950E+04  0.10100000352E+00 0.  1.
       -3    1    3    3    0  502  0.11054791357E+04  0.11511470683E+04  0.85793853984E+03  0.18119829582E+04  0.10100000352E+00 0. -1.
</event>
<event>
 5   0  0.6134625E-07  0.3244628E+04  0.7818609E-02  0.8177129E-01
        1   -1    0    0  501    0  0.00000000000E+00  0.00000000000E+00  0.16555308347E+04  0.16555308347E+04  0.50400001928E-02 0. -1.
       -1   -1    0    0    0  501  0.00000000000E+00  0.00000000000E+00 -0.15897639995E+04  0.15897639995E+04  0.50400001928E-02 0.  1.
    10030    2    1    2    0    0  0.00000000000E+00  0.00000000000E+00  0.65766835197E+02  0.32452948342E+04  0.32446283738E+04 0.  0.
        3    1    3    3  502    0 -0.14538165883E+04  0.24131885835E+02 -0.68680471172E+03  0.16080627297E+04  0.10100000352E+00 0.  1.
       -3    1    3    3    0  502  0.14538165883E+04 -0.24131885835E+02  0.75257154692E+03  0.16372321045E+04  0.10100000352E+00 0. -1.
</event>
<event>
 5   0  0.1948507E-06  0.3017653E+04  0.7818609E-02  0.8238708E-01
        2   -1    0    0  501    0  0.00000000000E+00  0.00000000000E+00  0.21641391817E+04  0.21641391817E+04  0.25500000920E-02 0. -1.
       -2   -1    0    0    0  501  0.00000000000E+00  0.00000000000E+00 -0.10519458723E+04  0.10519458723E+04  0.25500000920E-02 0.  1.
    10030    2    1    2    0    0  0.00000000000E+00  0.00000000000E+00  0.11121933094E+04  0.32160850540E+04  0.30176529153E+04 0.  0.
        1    1    3    3  502    0  0.37753117809E+03  0.22965134641E+03 -0.98143583981E+03  0.10763298003E+04  0.50400001928E-02 0.  1.
       -1    1    3    3    0  502 -0.37753117809E+03 -0.22965134641E+03  0.20936291492E+04  0.21397552537E+04  0.50400001928E-02 0. -1.
</event>
<event>
 5   0  0.6134625E-07  0.3308628E+04  0.7818609E-02  0.8160703E-01
       -1   -1    0    0    0  501  0.00000000000E+00  0.00000000000E+00  0.21045208941E+04  0.21045208941E+04  0.50400001928E-02 0. -1.
        1   -1    0    0  501    0  0.00000000000E+00  0.00000000000E+00 -0.13004171956E+04  0.13004171956E+04  0.50400001928E-02 0.  1.
    10030    2    1    2    0    0  0.00000000000E+00  0.00000000000E+00  0.80410369848E+03  0.34049380896E+04  0.33086282107E+04 0.  0.
        1    1    3    3  502    0  0.53121703030E+03 -0.10903206123E+04 -0.75575928600E+03  0.14290425708E+04  0.50400001928E-02 0.  1.
       -1    1    3    3    0  502 -0.53121703030E+03  0.10903206123E+04  0.15598629845E+04  0.19758955188E+04  0.50400001928E-02 0. -1.
</event>
<event>
 5   0  0.1911477E-06  0.3409978E+04  0.7818609E-02  0.8135462E-01
       -2   -1    0    0    0  501  0.00000000000E+00  0.00000000000E+00  0.21910292255E+04  0.21910292255E+04  0.25500000920E-02 0. -1.
        2   -1    0    0  501    0  0.00000000000E+00  0.00000000000E+00 -0.13267678326E+04  0.13267678326E+04  0.25500000920E-02 0.  1.
    10030    2    1    2    0    0  0.00000000000E+00  0.00000000000E+00  0.86426139288E+03  0.35177970581E+04  0.34099777693E+04 0.  0.
        5    1    3    3  502    0 -0.55102807938E+03  0.92811619692E+03  0.17936851196E+04  0.20934087077E+04  0.46999998093E+01 0. -1.
       -5    1    3    3    0  502  0.55102807938E+03 -0.92811619692E+03 -0.92942372668E+03  0.14243883505E+04  0.46999998093E+01 0.  1.
</event>
<event>
 5   0  0.1339844E-06  0.3140761E+04  0.7818609E-02  0.8204639E-01
        2   -1    0    0  501    0  0.00000000000E+00  0.00000000000E+00  0.15805208295E+04  0.15805208296E+04  0.25500000920E-02 0.  1.
       -2   -1    0    0    0  501  0.00000000000E+00  0.00000000000E+00 -0.15603057190E+04  0.15603057190E+04  0.25500000920E-02 0. -1.
    10030    2    1    2    0    0  0.00000000000E+00  0.00000000000E+00  0.20215110595E+02  0.31408265485E+04  0.31407614932E+04 0.  0.
        3    1    3    3  502    0  0.25975748549E+03 -0.12911230689E+04 -0.84525976791E+03  0.15649079257E+04  0.10100000352E+00 0. -1.
       -3    1    3    3    0  502 -0.25975748549E+03  0.12911230689E+04  0.86547487851E+03  0.15759186229E+04  0.10100000352E+00 0.  1.
</event>
<event>
 5   0  0.6134625E-07  0.3420452E+04  0.7818609E-02  0.8132905E-01
       -1   -1    0    0    0  501  0.00000000000E+00  0.00000000000E+00  0.28114404213E+04  0.28114404213E+04  0.50400001928E-02 0.  1.
        1   -1    0    0  501    0  0.00000000000E+00  0.00000000000E+00 -0.10403467600E+04  0.10403467600E+04  0.50400001928E-02 0. -1.
    10030    2    1    2    0    0  0.00000000000E+00  0.00000000000E+00  0.17710936613E+04  0.38517871813E+04  0.34204519779E+04 0.  0.
        5    1    3    3  502    0  0.22966942800E+03  0.32157173424E+03  0.27593169046E+04  0.27874734611E+04  0.46999998093E+01 0.  1.
       -5    1    3    3    0  502 -0.22966942800E+03 -0.32157173424E+03 -0.98822324328E+03  0.10643137202E+04  0.46999998093E+01 0. -1.
</event>
<event>
 5   0  0.1339844E-06  0.3323544E+04  0.7818609E-02  0.8156930E-01
        2   -1    0    0  501    0  0.00000000000E+00  0.00000000000E+00  0.21019654628E+04  0.21019654628E+04  0.25500000920E-02 0.  1.
       -2   -1    0    0    0  501  0.00000000000E+00  0.00000000000E+00 -0.13137636517E+04  0.13137636517E+04  0.25500000920E-02 0. -1.
    10030    2    1    2    0    0  0.00000000000E+00  0.00000000000E+00  0.78820181107E+03  0.34157291145E+04  0.33235437847E+04 0.  0.
        3    1    3    3  502    0 -0.11789267582E+04 -0.68944062250E+03 -0.57888395734E+03  0.14833419428E+04  0.10100000352E+00 0. -1.
       -3    1    3    3    0  502  0.11789267582E+04  0.68944062250E+03  0.13670857684E+04  0.19323871717E+04  0.10100000352E+00 0.  1.
</event>
<event>
 5   0  0.6146388E-07  0.3320633E+04  0.7818609E-02  0.8157665E-01
       -1   -1    0    0    0  501  0.00000000000E+00  0.00000000000E+00  0.10978567588E+04  0.10978567588E+04  0.50400001928E-02 0. -1.
        1   -1    0    0  501    0  0.00000000000E+00  0.00000000000E+00 -0.25109378640E+04  0.25109378640E+04  0.50400001928E-02 0.  1.
    10030    2    1    2    0    0  0.00000000000E+00  0.00000000000E+00 -0.14130811052E+04  0.36087946227E+04  0.33206325330E+04 0.  0.
        4    1    3    3  502    0 -0.70226426808E+03 -0.72604705927E+03 -0.21385878602E+04  0.23651382799E+04  0.12699999809E+01 0.  1.
       -4    1    3    3    0  502  0.70226426808E+03  0.72604705927E+03  0.72550675500E+03  0.12436563428E+04  0.12699999809E+01 0. -1.
</event>
<event>
 5   0  0.6146388E-07  0.2810503E+04  0.7818609E-02  0.8300015E-01
        1   -1    0    0  501    0  0.00000000000E+00  0.00000000000E+00  0.24241988368E+04  0.24241988368E+04  0.50400001928E-02 0.  1.
       -1   -1    0    0    0  501  0.00000000000E+00  0.00000000000E+00 -0.81459176375E+03  0.81459176377E+03  0.50400001928E-02 0. -1.
    10030    2    1    2    0    0  0.00000000000E+00  0.00000000000E+00  0.16096070730E+04  0.32387906006E+04  0.28105034468E+04 0.  0.
        4    1    3    3  502    0 -0.40166029489E+03  0.72421370737E+03 -0.50350679253E+03  0.96919409277E+03  0.12699999809E+01 0. -1.
       -4    1    3    3    0  502  0.40166029489E+03 -0.72421370737E+03  0.21131138656E+04  0.22695965078E+04  0.12699999809E+01 0.  1.
</event>
<event>
 5   0  0.6134625E-07  0.3396931E+04  0.7818609E-02  0.8138660E-01
        1   -1    0    0  501    0  0.00000000000E+00  0.00000000000E+00  0.30374706231E+04  0.30374706231E+04  0.50400001928E-02 0.  1.
       -1   -1    0    0    0  501  0.00000000000E+00  0.00000000000E+00 -0.94973262180E+03  0.94973262181E+03  0.50400001928E-02 0. -1.
    10030    2    1    2    0    0  0.00000000000E+00  0.00000000000E+00  0.20877380013E+04  0.39872032449E+04  0.33969309316E+04 0.  0.
        1    1    3    3  502    0 -0.59201909128E+03  0.14351730526E+02 -0.82463003223E+03  0.10152375420E+04  0.50400001928E-02 0. -1.
       -1    1    3    3    0  502  0.59201909128E+03 -0.14351730526E+02  0.29123680335E+04  0.29719657029E+04  0.50400001928E-02 0.  1.
</event>
<event>
 5   0  0.6134625E-07  0.3449258E+04  0.7818609E-02  0.8125922E-01
       -1   -1    0    0    0  501  0.00000000000E+00  0.00000000000E+00  0.30451461455E+04  0.30451461455E+04  0.50400001928E-02 0. -1.
        1   -1    0    0  501    0  0.00000000000E+00  0.00000000000E+00 -0.97674947668E+03  0.97674947669E+03  0.50400001928E-02 0.  1.
    10030    2    1    2    0    0  0.00000000000E+00  0.00000000000E+00  0.20683966688E+04  0.40218956222E+04  0.34492578356E+04 0.  0.
        5    1    3    3  502    0  0.58414806183E+03  0.27639718684E+03  0.28986232155E+04  0.29697917433E+04  0.46999998093E+01 0. -1.
       -5    1    3    3    0  502 -0.58414806183E+03 -0.27639718684E+03 -0.83022654673E+03  0.10521038789E+04  0.46999998093E+01 0.  1.
</event>
<event>
 5   0  0.6134625E-07  0.3273830E+04  0.7818609E-02  0.8169586E-01
        1   -1    0    0  501    0  0.00000000000E+00  0.00000000000E+00  0.83044267703E+03  0.83044267705E+03  0.50400001928E-02 0. -1.
       -1   -1    0    0    0  501  0.00000000000E+00  0.00000000000E+00 -0.32265807074E+04  0.32265807074E+04  0.50400001928E-02 0.  1.
    10030    2    1    2    0    0  0.00000000000E+00  0.00000000000E+00 -0.23961380304E+04  0.40570233844E+04  0.32738297575E+04 0.  0.
        3    1    3    3  502    0 -0.69923375751E+03  0.61005280154E+03  0.47300580991E+03  0.10415501787E+04  0.10100000352E+00 0. -1.
       -3    1    3    3    0  502  0.69923375751E+03 -0.61005280154E+03 -0.28691438403E+04  0.30154732058E+04  0.10100000352E+00 0.  1.
</event>
<event>
 5   0  0.6218695E-07  0.3415377E+04  0.7818609E-02  0.8134143E-01
       -1   -1    0    0    0  501  0.00000000000E+00  0.00000000000E+00  0.12967738638E+04  0.12967738638E+04  0.50400001928E-02 0. -1.
        1   -1    0    0  501    0  0.00000000000E+00  0.00000000000E+00 -0.22488113511E+04  0.22488113511E+04  0.50400001928E-02 0.  1.
    10030    2    1    2    0    0  0.00000000000E+00  0.00000000000E+00 -0.95203748726E+03  0.35455852149E+04  0.34153768663E+04 0.  0.
        2    1    3    3  502    0 -0.88227423408E+03  0.11323303816E+04  0.48424321735E+03  0.15149493096E+04  0.25500000920E-02 0. -1.
       -2    1    3    3    0  502  0.88227423408E+03 -0.11323303816E+04 -0.14362807046E+04  0.20306359052E+04  0.25500000920E-02 0.  1.
</event>
<event>
 5   0  0.1911477E-06  0.2452669E+04  0.7818609E-02  0.8420044E-01
        2   -1    0    0  501    0  0.00000000000E+00  0.00000000000E+00  0.11004333574E+04  0.11004333574E+04  0.25500000920E-02 0.  1.
       -2   -1    0    0    0  501  0.00000000000E+00  0.00000000000E+00 -0.13666405529E+04  0.13666405529E+04  0.25500000920E-02 0. -1.
    10030    2    1    2    0    0  0.00000000000E+00  0.00000000000E+00 -0.26620719547E+03  0.24670739103E+04  0.24526694453E+04 0.  0.
        5    1    3    3  502    0  0.37947625132E+03  0.25959074180E+03  0.10104484249E+04  0.11101430935E+04  0.46999998093E+01 0.  1.
       -5    1    3    3    0  502 -0.37947625132E+03 -0.25959074180E+03 -0.12766556204E+04  0.13569308168E+04  0.46999998093E+01 0. -1.
</event>
<event>
 5   0  0.1797075E-06  0.3416519E+04  0.7818609E-02  0.8133864E-01
        2   -1    0    0  501    0  0.00000000000E+00  0.00000000000E+00  0.21412317130E+04  0.21412317130E+04  0.25500000920E-02 0.  1.
       -2   -1    0    0    0  501  0.00000000000E+00  0.00000000000E+00 -0.13628370710E+04  0.13628370710E+04  0.25500000920E-02 0. -1.
    10030    2    1    2    0    0  0.00000000000E+00  0.00000000000E+00  0.77839464201E+03  0.35040687841E+04  0.34165186703E+04 0.  0.
        2    1    3    3  502    0  0.32468176454E+03 -0.82085754337E+03 -0.11107864565E+04  0.14188276522E+04  0.25500000920E-02 0. -1.
       -2    1    3    3    0  502 -0.32468176454E+03  0.82085754337E+03  0.18891810986E+04  0.20852411318E+04  0.25500000920E-02 0.  1.
</event>
<event>
 5   0  0.6134625E-07  0.3196790E+04  0.7818609E-02  0.8189666E-01
       -1   -1    0    0    0  501  0.00000000000E+00  0.00000000000E+00  0.13850924257E+04  0.13850924257E+04  0.50400001928E-02 0. -1.
        1   -1    0    0  501    0  0.00000000000E+00  0.00000000000E+00 -0.18445453942E+04  0.18445453942E+04  0.50400001928E-02 0.  1.
    10030    2    1    2    0    0  0.00000000000E+00  0.00000000000E+00 -0.45945296855E+03  0.32296378199E+04  0.31967895485E+04 0.  0.
        3    1    3    3  502    0  0.86207667784E+03 -0.13459500440E+04 -0.24023163091E+03  0.16163133874E+04  0.10100000352E+00 0.  1.
       -3    1    3    3    0  502 -0.86207667784E+03  0.13459500440E+04 -0.21922133763E+03  0.16133244325E+04  0.10100000352E+00 0. -1.
</event>
<event>
 5   0  0.6134625E-07  0.3430675E+04  0.7818609E-02  0.8130418E-01
       -1   -1    0    0    0  501  0.00000000000E+00  0.00000000000E+00  0.17661600285E+04  0.17661600286E+04  0.50400001928E-02 0. -1.
        1   -1    0    0  501    0  0.00000000000E+00  0.00000000000E+00 -0.16659773210E+04  0.16659773211E+04  0.50400001928E-02 0.  1.
    10030    2    1    2    0    0  0.00000000000E+00  0.00000000000E+00  0.10018270750E+03  0.34321373496E+04  0.34306748916E+04 0.  0.
        1    1    3    3  502    0  0.13018488957E+04  0.13348754591E+03  0.11595064086E+04  0.17484520536E+04  0.50400001928E-02 0. -1.
       -1    1    3    3    0  502 -0.13018488957E+04 -0.13348754591E+03 -0.10593237011E+04  0.16836852960E+04  0.50400001928E-02 0.  1.
</event>
<event>
 5   0  0.1797075E-06  0.3186674E+04  0.7818609E-02  0.8192345E-01
       -2   -1    0    0    0  501  0.00000000000E+00  0.00000000000E+00  0.13395839030E+04  0.13395839030E+04  0.25500000920E-02 0. -1.
        2   -1    0    0  501    0  0.00000000000E+00  0.00000000000E+00 -0.18951582343E+04  0.18951582343E+04  0.25500000920E-02 0.  1.
    10030    2    1    2    0    0  0.00000000000E+00  0.00000000000E+00 -0.55557433129E+03  0.32347421373E+04  0.31866744197E+04 0.  0.
        2    1    3    3  502    0  0.85086486595E+03  0.52344833458E+03 -0.15377817077E+04  0.18337780017E+04  0.25500000920E-02 0.  1.
       -2    1    3    3    0  502 -0.85086486595E+03 -0.52344833458E+03  0.98220737638E+03  0.14009641356E+04  0.25500000920E-02 0. -1.
</event>
<event>
 5   0  0.6218695E-07  0.3451292E+04  0.7818609E-02  0.8125431E-01
       -1   -1    0    0    0  501  0.00000000000E+00  0.00000000000E+00  0.22286916081E+04  0.22286916081E+04  0.50400001928E-02 0.  1.
        1   -1    0    0  501    0  0.00000000000E+00  0.00000000000E+00 -0.13361447123E+04  0.13361447123E+04  0.50400001928E-02 0. -1.
    10030    2    1    2    0    0  0.00000000000E+00  0.00000000000E+00  0.89254689580E+03  0.35648363205E+04  0.34512922262E+04 0.  0.
        2    1    3    3  502    0  0.94151885762E+03 -0.13519984149E+03 -0.10409281588E+04  0.14100596399E+04  0.25500000920E-02 0. -1.
       -2    1    3    3    0  502 -0.94151885762E+03  0.13519984149E+03  0.19334750546E+04  0.21547766805E+04  0.25500000920E-02 0.  1.
</event>
<event>
 5   0  0.6134625E-07  0.3412052E+04  0.7818609E-02  0.8134955E-01
       -1   -1    0    0    0  501  0.00000000000E+00  0.00000000000E+00  0.10678306635E+04  0.10678306635E+04  0.50400001928E-02 0. -1.
        1   -1    0    0  501    0  0.00000000000E+00  0.00000000000E+00 -0.27256424552E+04  0.27256424552E+04  0.50400001928E-02 0.  1.
    10030    2    1    2    0    0  0.00000000000E+00  0.00000000000E+00 -0.16578117918E+04  0.37934731187E+04  0.34120519289E+04 0.  0.
        3    1    3    3  502    0 -0.11808808450E+04 -0.91162997652E+03  0.91244869916E+02  0.14946151413E+04  0.10100000352E+00 0. -1.
       -3    1    3    3    0  502  0.11808808450E+04  0.91162997652E+03 -0.17490566617E+04  0.22988579774E+04  0.10100000352E+00 0.  1.
</event>
<event>
 5   0  0.1948507E-06  0.3123424E+04  0.7818609E-02  0.8209339E-01
       -2   -1    0    0    0  501  0.00000000000E+00  0.00000000000E+00  0.13370167774E+04  0.13370167774E+04  0.25500000920E-02 0.  1.
        2   -1    0    0  501    0  0.00000000000E+00  0.00000000000E+00 -0.18241682825E+04  0.18241682825E+04  0.25500000920E-02 0. -1.
    10030    2    1    2    0    0  0.00000000000E+00  0.00000000000E+00 -0.48715150504E+03  0.31611850599E+04  0.31234235054E+04 0.  0.
        1    1    3    3  502    0 -0.12097145990E+04  0.25609865394E+03 -0.12090201228E+04  0.17293714433E+04  0.50400001928E-02 0. -1.
       -1    1    3    3    0  502  0.12097145990E+04 -0.25609865394E+03  0.72186861773E+03  0.14318136166E+04  0.50400001928E-02 0.  1.
</event>
<event>
 5   0  0.1797075E-06  0.3432512E+04  0.7818609E-02  0.8129973E-01
        2   -1    0    0  501    0  0.00000000000E+00  0.00000000000E+00  0.25266043777E+04  0.25266043777E+04  0.25500000920E-02 0. -1.
       -2   -1    0    0    0  501  0.00000000000E+00  0.00000000000E+00 -0.11658076809E+04  0.11658076809E+04  0.25500000920E-02 0.  1.
    10030    2    1    2    0    0  0.00000000000E+00  0.00000000000E+00  0.13607966968E+04  0.36924120586E+04  0.34325120773E+04 0.  0.
        2    1    3    3  502    0 -0.59132803939E+03 -0.15908959324E+04  0.95447636594E+03  0.19472143824E+04  0.25500000920E-02 0.  1.
       -2    1    3    3    0  502  0.59132803939E+03  0.15908959324E+04  0.40632033086E+03  0.17451976762E+04  0.25500000920E-02 0. -1.
</event>
<event>
 5   0  0.1880301E-06  0.3091141E+04  0.7818609E-02  0.8218173E-01
       -2   -1    0    0    0  501  0.00000000000E+00  0.00000000000E+00  0.13665070006E+04  0.13665070006E+04  0.25500000920E-02 0. -1.
        2   -1    0    0  501    0  0.00000000000E+00  0.00000000000E+00 -0.17480978257E+04  0.17480978257E+04  0.25500000920E-02 0.  1.
    10030    2    1    2    0    0  0.00000000000E+00  0.00000000000E+00 -0.38159082519E+03  0.31146048263E+04  0.30911408357E+04 0.  0.
        4    1    3    3  502    0 -0.75636557261E+03 -0.43156527220E+03 -0.14773782325E+04  0.17149301789E+04  0.12699999809E+01 0.  1.
       -4    1    3    3    0  502  0.75636557261E+03  0.43156527220E+03  0.10957874074E+04  0.13996746474E+04  0.12699999809E+01 0. -1.
</event>
<event>
 5   0  0.1339844E-06  0.2601719E+04  0.7818609E-02  0.8367618E-01
       -2   -1    0    0    0  501  0.00000000000E+00  0.00000000000E+00  0.14204752581E+04  0.14204752581E+04  0.25500000920E-02 0. -1.
        2   -1    0    0  501    0  0.00000000000E+00  0.00000000000E+00 -0.11913160171E+04  0.11913160171E+04  0.25500000920E-02 0.  1.
    10030    2    1    2    0    0  0.00000000000E+00  0.00000000000E+00  0.22915924101E+03  0.26117912752E+04  0.26017186065E+04 0.  0.
        3    1    3    3  502    0 -0.88847874155E+03  0.79851373075E+03  0.63156495165E+03  0.13512560641E+04  0.10100000352E+00 0. -1.
       -3    1    3    3    0  502  0.88847874155E+03 -0.79851373075E+03 -0.40240571063E+03  0.12605352111E+04  0.10100000352E+00 0.  1.
</event>
<event>
 5   0  0.1880301E-06  0.3281627E+04  0.7818609E-02  0.8167586E-01
       -2   -1    0    0    0  501  0.00000000000E+00  0.00000000000E+00  0.11988170491E+04  0.11988170491E+04  0.25500000920E-02 0. -1.
        2   -1    0    0  501    0  0.00000000000E+00  0.00000000000E+00 -0.22457714551E+04  0.22457714551E+04  0.25500000920E-02 0.  1.
    10030    2    1    2    0    0  0.00000000000E+00  0.00000000000E+00 -0.10469544061E+04  0.34445885042E+04  0.32816271018E+04 0.  0.
        4    1    3    3  502    0  0.13522924974E+04 -0.71826326924E+03  0.95439153396E+02  0.15341797050E+04  0.12699999809E+01 0. -1.
       -4    1    3    3    0  502 -0.13522924974E+04  0.71826326924E+03 -0.11423935595E+04  0.19104087992E+04  0.12699999809E+01 0.  1.
</event>
<event>
 5   0  0.1948507E-06  0.3692526E+04  0.7818609E-02  0.8069620E-01
        2   -1    0    0  501    0  0.00000000000E+00  0.00000000000E+00  0.11936776228E+04  0.11936776228E+04  0.25500000920E-02 0.  1.
       -2   -1    0    0    0  501  0.00000000000E+00  0.00000000000E+00 -0.28556175831E+04  0.28556175831E+04  0.25500000920E-02 0. -1.
    10030    2    1    2    0    0  0.00000000000E+00  0.00000000000E+00 -0.16619399603E+04  0.40492952059E+04  0.36925258608E+04 0.  0.
        1    1    3    3  502    0 -0.16935739590E+04  0.16293392558E+03 -0.44802839101E+02  0.17019834057E+04  0.50400001928E-02 0.  1.
       -1    1    3    3    0  502  0.16935739590E+04 -0.16293392558E+03 -0.16171371212E+04  0.23473118002E+04  0.50400001928E-02 0. -1.
</event>
<event>
 5   0  0.6218695E-07  0.3399346E+04  0.7818609E-02  0.8138067E-01
        1   -1    0    0  501    0  0.00000000000E+00  0.00000000000E+00  0.18723789227E+04  0.18723789227E+04  0.50400001928E-02 0.  1.
       -1   -1    0    0    0  501  0.00000000000E+00  0.00000000000E+00 -0.15428972550E+04  0.15428972550E+04  0.50400001928E-02 0. -1.
    10030    2    1    2    0    0  0.00000000000E+00  0.00000000000E+00  0.32948166768E+03  0.34152761777E+04  0.33993459961E+04 0.  0.
        2    1    3    3  502    0 -0.11018551667E+04 -0.54239640750E+03 -0.10157589372E+04  0.15937518281E+04  0.25500000920E-02 0. -1.
       -2    1    3    3    0  502  0.11018551667E+04  0.54239640750E+03  0.13452406049E+04  0.18215243496E+04  0.25500000920E-02 0.  1.
</event>
<event>
 5   0  0.1797075E-06  0.3462737E+04  0.7818609E-02  0.8122678E-01
       -2   -1    0    0    0  501  0.00000000000E+00  0.00000000000E+00  0.14241323599E+04  0.14241323599E+04  0.25500000920E-02 0. -1.
        2   -1    0    0  501    0  0.00000000000E+00  0.00000000000E+00 -0.21048864890E+04  0.21048864890E+04  0.25500000920E-02 0.  1.
    10030    2    1    2    0    0  0.00000000000E+00  0.00000000000E+00 -0.68075412907E+03  0.35290188488E+04  0.34627370462E+04 0.  0.
        2    1    3    3  502    0  0.63942226414E+03  0.51826455992E+03 -0.18927466123E+04  0.20639643224E+04  0.25500000920E-02 0.  1.
       -2    1    3    3    0  502 -0.63942226414E+03 -0.51826455992E+03  0.12119924832E+04  0.14650545264E+04  0.25500000920E-02 0. -1.
</event>
<event>
 5   0  0.1339844E-06  0.3403507E+04  0.7818609E-02  0.8137046E-01
       -2   -1    0    0    0  501  0.00000000000E+00  0.00000000000E+00  0.10692730557E+04  0.10692730557E+04  0.25500000920E-02 0.  1.
        2   -1    0    0  501    0  0.00000000000E+00  0.00000000000E+00 -0.27083491621E+04  0.27083491621E+04  0.25500000920E-02 0. -1.
    10030    2    1    2    0    0  0.00000000000E+00  0.00000000000E+00 -0.16390761064E+04  0.37776222178E+04  0.34035068882E+04 0.  0.
        3    1    3    3  502    0  0.62246592078E+03 -0.38226678505E+02  0.93786951929E+03  0.11262878615E+04  0.10100000352E+00 0.  1.
       -3    1    3    3    0  502 -0.62246592078E+03  0.38226678505E+02 -0.25769456257E+04  0.26513343564E+04  0.10100000352E+00 0. -1.
</event>
<event>
 5   0  0.1911477E-06  0.3482723E+04  0.7818609E-02  0.8117897E-01
        2   -1    0    0  501    0  0.00000000000E+00  0.00000000000E+00  0.14063370921E+04  0.14063370921E+04  0.25500000920E-02 0.  1.
       -2   -1    0    0    0  501  0.00000000000E+00  0.00000000000E+00 -0.21561974326E+04  0.21561974326E+04  0.25500000920E-02 0. -1.
    10030    2    1    2    0    0  0.00000000000E+00  0.00000000000E+00 -0.74986034046E+03  0.35625345247E+04  0.34827233180E+04 0.  0.
        5    1    3    3  502    0  0.76468765816E+03  0.34556206589E+03 -0.19357268465E+04  0.21097916651E+04  0.46999998093E+01 0. -1.
       -5    1    3    3    0  502 -0.76468765816E+03 -0.34556206589E+03  0.11858665060E+04  0.14527428596E+04  0.46999998093E+01 0.  1.
</event>
<event>
 5   0  0.1948507E-06  0.3355929E+04  0.7818609E-02  0.8148808E-01
        2   -1    0    0  501    0  0.00000000000E+00  0.00000000000E+00  0.21364512816E+04  0.21364512816E+04  0.25500000920E-02 0.  1.
       -2   -1    0    0    0  501  0.00000000000E+00  0.00000000000E+00 -0.13178699651E+04  0.13178699651E+04  0.25500000920E-02 0. -1.
    10030    2    1    2    0    0  0.00000000000E+00  0.00000000000E+00  0.81858131649E+03  0.34543212467E+04  0.33559290671E+04 0.  0.
        1    1    3    3  502    0 -0.56360570723E+03  0.11859297747E+04  0.14846625193E+04  0.19819948587E+04  0.50400001928E-02 0.  1.
       -1    1    3    3    0  502  0.56360570723E+03 -0.11859297747E+04 -0.66608120283E+03  0.14723263879E+04  0.50400001928E-02 0. -1.
</event>
<event>
 5   0  0.6146388E-07  0.3430642E+04  0.7818609E-02  0.8130426E-01
       -1   -1    0    0    0  501  0.00000000000E+00  0.00000000000E+00  0.24612900389E+04  0.24612900389E+04  0.50400001928E-02 0. -1.
        1   -1    0    0  501    0  0.00000000000E+00  0.00000000000E+00 -0.11954409830E+04  0.11954409830E+04  0.50400001928E-02 0.  1.
    10030    2    1    2    0    0  0.00000000000E+00  0.00000000000E+00  0.12658490559E+04  0.36567310219E+04  0.34306424958E+04 0.  0.
        4    1    3    3  502    0 -0.12288864996E+04  0.61764258080E+03  0.17255038811E+04  0.22065832509E+04  0.12699999809E+01 0. -1.
       -4    1    3    3    0  502  0.12288864996E+04 -0.61764258080E+03 -0.45965482523E+03  0.14501477710E+04  0.12699999809E+01 0.  1.
</event>
<event>
 5   0  0.1797075E-06  0.3408507E+04  0.7818609E-02  0.8135822E-01
       -2   -1    0    0    0  501  0.00000000000E+00  0.00000000000E+00  0.13725931656E+04  0.13725931656E+04  0.25500000920E-02 0. -1.
        2   -1    0    0  501    0  0.00000000000E+00  0.00000000000E+00 -0.21160531373E+04  0.21160531373E+04  0.25500000920E-02 0.  1.
    10030    2    1    2    0    0  0.00000000000E+00  0.00000000000E+00 -0.74345997166E+03  0.34886463029E+04  0.34085070481E+04 0.  0.
        2    1    3    3  502    0  0.16178923590E+04  0.25714769486E+03  0.10918916314E+03  0.16418352218E+04  0.25500000920E-02 0. -1.
       -2    1    3    3    0  502 -0.16178923590E+04 -0.25714769486E+03 -0.85264913480E+03  0.18468110811E+04  0.25500000920E-02 0.  1.
</event>
<event>
 5   0  0.6134625E-07  0.3339178E+04  0.7818609E-02  0.8152998E-01
       -1   -1    0    0    0  501  0.00000000000E+00  0.00000000000E+00  0.13096127154E+04  0.13096127154E+04  0.50400001928E-02 0. -1.
        1   -1    0    0  501    0  0.00000000000E+00  0.00000000000E+00 -0.21285126178E+04  0.21285126178E+04  0.50400001928E-02 0.  1.
    10030    2    1    2    0    0  0.00000000000E+00  0.00000000000E+00 -0.81889990234E+03  0.34381253332E+04  0.33391778564E+04 0.  0.
        3    1    3    3  502    0 -0.12490435345E+04 -0.13460124829E+03 -0.15417177774E+04  0.19887485921E+04  0.10100000352E+00 0.  1.
       -3    1    3    3    0  502  0.12490435345E+04  0.13460124829E+03  0.72281787509E+03  0.14493767412E+04  0.10100000352E+00 0. -1.
</event>
<event>
 5   0  0.1339844E-06  0.3360778E+04  0.7818609E-02  0.8147600E-01
       -2   -1    0    0    0  501  0.00000000000E+00  0.00000000000E+00  0.12258727293E+04  0.12258727293E+04  0.25500000920E-02 0. -1.
        2   -1    0    0  501    0  0.00000000000E+00  0.00000000000E+00 -0.23034265098E+04  0.23034265098E+04  0.25500000920E-02 0.  1.
    10030    2    1    2    0    0  0.00000000000E+00  0.00000000000E+00 -0.10775537805E+04  0.35292992391E+04  0.33607783279E+04 0.  0.
        3    1    3    3  502    0 -0.88284296046E+03 -0.43795421296E+03  0.89053432770E+03  0.13282571229E+04  0.10100000352E+00 0. -1.
       -3    1    3    3    0  502  0.88284296046E+03  0.43795421296E+03 -0.19680881082E+04  0.22010421162E+04  0.10100000352E+00 0.  1.
</event>
<event>
 5   0  0.6218695E-07  0.3421876E+04  0.7818609E-02  0.8132558E-01
        1   -1    0    0  501    0  0.00000000000E+00  0.00000000000E+00  0.32641215814E+04  0.32641215814E+04  0.50400001928E-02 0. -1.
       -1   -1    0    0    0  501  0.00000000000E+00  0.00000000000E+00 -0.89681388069E+03  0.89681388070E+03  0.50400001928E-02 0.  1.
    10030    2    1    2    0    0  0.00000000000E+00  0.00000000000E+00  0.23673077007E+04  0.41609354621E+04  0.34218764107E+04 0.  0.
        2    1    3    3  502    0 -0.83901601092E+03  0.14908270661E+04  0.12179680989E+04  0.20999903566E+04  0.25500000920E-02 0. -1.
       -2    1    3    3    0  502  0.83901601092E+03 -0.14908270661E+04  0.11493396018E+04  0.20609451055E+04  0.25500000920E-02 0.  1.
</event>
<event>
 5   0  0.1880301E-06  0.3400579E+04  0.7818609E-02  0.8137764E-01
       -2   -1    0    0    0  501  0.00000000000E+00  0.00000000000E+00  0.14476779953E+04  0.14476779953E+04  0.25500000920E-02 0. -1.
        2   -1    0    0  501    0  0.00000000000E+00  0.00000000000E+00 -0.19969800779E+04  0.19969800779E+04  0.25500000920E-02 0.  1.
    10030    2    1    2    0    0  0.00000000000E+00  0.00000000000E+00 -0.54930208260E+03  0.34446580732E+04  0.34005788424E+04 0.  0.
        4    1    3    3  502    0 -0.15138405979E+04 -0.41191295140E+03  0.38928129872E+03  0.16164551271E+04  0.12699999809E+01 0. -1.
       -4    1    3    3    0  502  0.15138405979E+04  0.41191295140E+03 -0.93858338133E+03  0.18282029461E+04  0.12699999809E+01 0.  1.
</event>
<event>
 5   0  0.6134625E-07  0.3373822E+04  0.7818609E-02  0.8144361E-01
       -1   -1    0    0    0  501  0.00000000000E+00  0.00000000000E+00  0.94072039461E+03  0.94072039463E+03  0.50400001928E-02 0. -1.
        1   -1    0    0  501    0  0.00000000000E+00  0.00000000000E+00 -0.30249893625E+04  0.30249893625E+04  0.50400001928E-02 0.  1.
    10030    2    1    2    0    0  0.00000000000E+00  0.00000000000E+00 -0.20842689678E+04  0.39657097571E+04  0.33738222756E+04 0.  0.
        1    1    3    3  502    0 -0.14752853605E+03  0.19334376612E+03 -0.30042746027E+04  0.30141022493E+04  0.50400001928E-02 0.  1.
       -1    1    3    3    0  502  0.14752853605E+03 -0.19334376612E+03  0.92000563481E+03  0.95160750782E+03  0.50400001928E-02 0. -1.
</event>
<event>
 5   0  0.1948507E-06  0.3381070E+04  0.7818609E-02  0.8142568E-01
       -2   -1    0    0    0  501  0.00000000000E+00  0.00000000000E+00  0.86273068420E+03  0.86273068420E+03  0.25500000920E-02 0.  1.
        2   -1    0    0  501    0  0.00000000000E+00  0.00000000000E+00 -0.33126321011E+04  0.33126321011E+04  0.25500000920E-02 0. -1.
    10030    2    1    2    0    0  0.00000000000E+00  0.00000000000E+00 -0.24499014169E+04  0.41753627854E+04  0.33810704572E+04 0.  0.
        1    1    3    3  502    0  0.43616860769E+03 -0.85897976066E+03  0.49057963895E+03  0.10810909609E+04  0.50400001928E-02 0.  1.
       -1    1    3    3    0  502 -0.43616860769E+03  0.85897976066E+03 -0.29404810559E+04  0.30942718245E+04  0.50400001928E-02 0. -1.
</event>
<event>
 5   0  0.6218695E-07  0.2817332E+04  0.7818609E-02  0.8297908E-01
        1   -1    0    0  501    0  0.00000000000E+00  0.00000000000E+00  0.19490584974E+04  0.19490584974E+04  0.50400001928E-02 0. -1.
       -1   -1    0    0    0  501  0.00000000000E+00  0.00000000000E+00 -0.10181014661E+04  0.10181014661E+04  0.50400001928E-02 0.  1.
    10030    2    1    2    0    0  0.00000000000E+00  0.00000000000E+00  0.93095703137E+03  0.29671599635E+04  0.28173315841E+04 0.  0.
        2    1    3    3  502    0 -0.10452328345E+04 -0.83172040751E+03 -0.55993285413E+01  0.13357776264E+04  0.25500000920E-02 0.  1.
       -2    1    3    3    0  502  0.10452328345E+04  0.83172040751E+03  0.93655635991E+03  0.16313823371E+04  0.25500000920E-02 0. -1.
</event>
<event>
 5   0  0.6134625E-07  0.3375977E+04  0.7818609E-02  0.8143828E-01
        1   -1    0    0  501    0  0.00000000000E+00  0.00000000000E+00  0.31424981975E+04  0.31424981975E+04  0.50400001928E-02 0. -1.
       -1   -1    0    0    0  501  0.00000000000E+00  0.00000000000E+00 -0.90670071551E+03  0.90670071553E+03  0.50400001928E-02 0.  1.
    10030    2    1    2    0    0  0.00000000000E+00  0.00000000000E+00  0.22357974820E+04  0.40491989131E+04  0.33759771114E+04 0.  0.
        5    1    3    3  502    0 -0.74027565098E+03  0.10261016064E+04 -0.22222495156E+03  0.12846394689E+04  0.46999998093E+01 0.  1.
       -5    1    3    3    0  502  0.74027565098E+03 -0.10261016064E+04  0.24580224336E+04  0.27645594441E+04  0.46999998093E+01 0. -1.
</event>
<event>
 5   0  0.1339844E-06  0.3221437E+04  0.7818609E-02  0.8183178E-01
        2   -1    0    0  501    0  0.00000000000E+00  0.00000000000E+00  0.20426297794E+04  0.20426297794E+04  0.25500000920E-02 0.  1.
       -2   -1    0    0    0  501  0.00000000000E+00  0.00000000000E+00 -0.12701344704E+04  0.12701344704E+04  0.25500000920E-02 0. -1.
    10030    2    1    2    0    0  0.00000000000E+00  0.00000000000E+00  0.77249530895E+03  0.33127642498E+04  0.32214372526E+04 0.  0.
        3    1    3    3  502    0  0.15977730342E+04 -0.19684923927E+03  0.44052846413E+03  0.16690397328E+04  0.10100000352E+00 0.  1.
       -3    1    3    3    0  502 -0.15977730342E+04  0.19684923927E+03  0.33196684482E+03  0.16437245171E+04  0.10100000352E+00 0. -1.
</event>
<event>
 5   0  0.6134625E-07  0.2626054E+04  0.7818609E-02  0.8359405E-01
       -1   -1    0    0    0  501  0.00000000000E+00  0.00000000000E+00  0.91846994222E+03  0.91846994223E+03  0.50400001928E-02 0. -1.
        1   -1    0    0  501    0  0.00000000000E+00  0.00000000000E+00 -0.18770780628E+04  0.18770780628E+04  0.50400001928E-02 0.  1.
    10030    2    1    2    0    0  0.00000000000E+00  0.00000000000E+00 -0.95860812055E+03  0.27955480050E+04  0.26260539064E+04 0.  0.
        3    1    3    3  502    0  0.82979814898E+03  0.48864664269E+03 -0.14294942111E+04  0.17235992049E+04  0.10100000352E+00 0.  1.
       -3    1    3    3    0  502 -0.82979814898E+03 -0.48864664269E+03  0.47088609057E+03  0.10719488001E+04  0.10100000352E+00 0. -1.
</event>
<event>
 5   0  0.1948507E-06  0.2914882E+04  0.7818609E-02  0.8268463E-01
       -2   -1    0    0    0  501  0.00000000000E+00  0.00000000000E+00  0.14712217823E+04  0.14712217823E+04  0.25500000920E-02 0.  1.
        2   -1    0    0  501    0  0.00000000000E+00  0.00000000000E+00 -0.14437896360E+04  0.14437896360E+04  0.25500000920E-02 0. -1.
    10030    2    1    2    0    0  0.00000000000E+00  0.00000000000E+00  0.27432146349E+02  0.29150114183E+04  0.29148823383E+04 0.  0.
        1    1    3    3  502    0 -0.14107288331E+04 -0.35274543316E+03  0.11144235443E+03  0.14584253768E+04  0.50400001928E-02 0.  1.
       -1    1    3    3    0  502  0.14107288331E+04  0.35274543316E+03 -0.84010208078E+02  0.14565860415E+04  0.50400001928E-02 0. -1.
</event>
<event>
 5   0  0.6218695E-07  0.3391462E+04  0.7818609E-02  0.8140005E-01
       -1   -1    0    0    0  501  0.00000000000E+00  0.00000000000E+00  0.25061079987E+04  0.25061079987E+04  0.50400001928E-02 0.  1.
        1   -1    0    0  501    0  0.00000000000E+00  0.00000000000E+00 -0.11473980554E+04  0.11473980554E+04  0.50400001928E-02 0. -1.
    10030    2    1    2    0    0  0.00000000000E+00  0.00000000000E+00  0.13587099434E+04  0.36535060541E+04  0.33914618938E+04 0.  0.
        2    1    3    3  502    0  0.12291215181E+03 -0.50554882065E+03  0.24180021156E+04  0.24733421191E+04  0.25500000920E-02 0.  1.
       -2    1    3    3    0  502 -0.12291215181E+03  0.50554882065E+03 -0.10592921723E+04  0.11801639350E+04  0.25500000920E-02 0. -1.
</event>
<event>
 5   0  0.1339844E-06  0.3395039E+04  0.7818609E-02  0.8139125E-01
        2   -1    0    0  501    0  0.00000000000E+00  0.00000000000E+00  0.24998838528E+04  0.24998838528E+04  0.25500000920E-02 0. -1.
       -2   -1    0    0    0  501  0.00000000000E+00  0.00000000000E+00 -0.11526828028E+04  0.11526828028E+04  0.25500000920E-02 0.  1.
    10030    2    1    2    0    0  0.00000000000E+00  0.00000000000E+00  0.13472010501E+04  0.36525666556E+04  0.33950393966E+04 0.  0.
        3    1    3    3  502    0 -0.64095976645E+03  0.12983460533E+04 -0.27963355770E+03  0.14746955052E+04  0.10100000352E+00 0.  1.
       -3    1    3    3    0  502  0.64095976645E+03 -0.12983460533E+04  0.16268346078E+04  0.21778711504E+04  0.10100000352E+00 0. -1.
</event>
<event>
 5   0  0.6146388E-07  0.3395621E+04  0.7818609E-02  0.8138982E-01
       -1   -1    0    0    0  501  0.00000000000E+00  0.00000000000E+00  0.17757002592E+04  0.17757002592E+04  0.50400001928E-02 0.  1.
        1   -1    0    0  501    0  0.00000000000E+00  0.00000000000E+00 -0.16233375352E+04  0.16233375352E+04  0.50400001928E-02 0. -1.
    10030    2    1    2    0    0  0.00000000000E+00  0.00000000000E+00  0.15236272401E+03  0.33990377944E+04  0.33956212286E+04 0.  0.
        4    1    3    3  502    0 -0.81804907583E+03  0.66621280967E+03  0.14077511583E+04  0.17592068482E+04  0.12699999809E+01 0. -1.
       -4    1    3    3    0  502  0.81804907583E+03 -0.66621280967E+03 -0.12553884343E+04  0.16398309462E+04  0.12699999809E+01 0.  1.
</event>
<event>
 5   0  0.6134625E-07  0.3438918E+04  0.7818609E-02  0.8128420E-01
       -1   -1    0    0    0  501  0.00000000000E+00  0.00000000000E+00  0.18514962461E+04  0.18514962461E+04  0.50400001928E-02 0.  1.
        1   -1    0    0  501    0  0.00000000000E+00  0.00000000000E+00 -0.15968377831E+04  0.15968377831E+04  0.50400001928E-02 0. -1.
    10030    2    1    2    0    0  0.00000000000E+00  0.00000000000E+00  0.25465846295E+03  0.34483340292E+04  0.34389179467E+04 0.  0.
        5    1    3    3  502    0  0.11466765499E+04  0.98851039224E+03 -0.69006972828E+03  0.16638023397E+04  0.46999998093E+01 0. -1.
       -5    1    3    3    0  502 -0.11466765499E+04 -0.98851039224E+03  0.94472819122E+03  0.17845316895E+04  0.46999998093E+01 0.  1.
</event>
<event>
 5   0  0.6218695E-07  0.3410349E+04  0.7818609E-02  0.8135371E-01
        1   -1    0    0  501    0  0.00000000000E+00  0.00000000000E+00  0.10394433405E+04  0.10394433405E+04  0.50400001928E-02 0. -1.
       -1   -1    0    0    0  501  0.00000000000E+00  0.00000000000E+00 -0.27972863220E+04  0.27972863220E+04  0.50400001928E-02 0.  1.
    10030    2    1    2    0    0  0.00000000000E+00  0.00000000000E+00 -0.17578429815E+04  0.38367296625E+04  0.34103493304E+04 0.  0.
        2    1    3    3  502    0 -0.15978288613E+03 -0.12398406992E+04 -0.21836042548E+04  0.25161206393E+04  0.25500000920E-02 0.  1.
       -2    1    3    3    0  502  0.15978288613E+03  0.12398406992E+04  0.42576127324E+03  0.13206090231E+04  0.25500000920E-02 0. -1.
</event>
<event>
 5   0  0.6134625E-07  0.3406344E+04  0.7818609E-02  0.8136351E-01
       -1   -1    0    0    0  501  0.00000000000E+00  0.00000000000E+00  0.14710670713E+04  0.14710670713E+04  0.50400001928E-02 0.  1.
        1   -1    0    0  501    0  0.00000000000E+00  0.00000000000E+00 -0.19718987943E+04  0.19718987943E+04  0.50400001928E-02 0. -1.
    10030    2    1    2    0    0  0.00000000000E+00  0.00000000000E+00 -0.50083172300E+03  0.34429658655E+04  0.34063443068E+04 0.  0.
        3    1    3    3  502    0  0.13057592211E+04 -0.97346260007E+03 -0.75392691719E+03  0.17947262699E+04  0.10100000352E+00 0. -1.
       -3    1    3    3    0  502 -0.13057592211E+04  0.97346260007E+03  0.25309519419E+03  0.16482395956E+04  0.10100000352E+00 0.  1.
</event>
<event>
 5   0  0.1797075E-06  0.2990707E+04  0.7818609E-02  0.8246390E-01
       -2   -1    0    0    0  501  0.00000000000E+00  0.00000000000E+00  0.15835056649E+04  0.15835056649E+04  0.25500000920E-02 0. -1.
        2   -1    0    0  501    0  0.00000000000E+00  0.00000000000E+00 -0.14121082777E+04  0.14121082777E+04  0.25500000920E-02 0.  1.
    10030    2    1    2    0    0  0.00000000000E+00  0.00000000000E+00  0.17139738719E+03  0.29956139426E+04  0.29907065768E+04 0.  0.
        2    1    3    3  502    0 -0.21261760108E+03  0.99167046918E+03 -0.10149514481E+04  0.14348320479E+04  0.25500000920E-02 0.  1.
       -2    1    3    3    0  502  0.21261760108E+03 -0.99167046918E+03  0.11863488353E+04  0.15607818947E+04  0.25500000920E-02 0. -1.
</event>
<event>
 5   0  0.1880301E-06  0.3418483E+04  0.7818609E-02  0.8133385E-01
       -2   -1    0    0    0  501  0.00000000000E+00  0.00000000000E+00  0.16209733494E+04  0.16209733494E+04  0.25500000920E-02 0. -1.
        2   -1    0    0  501    0  0.00000000000E+00  0.00000000000E+00 -0.18023160019E+04  0.18023160019E+04  0.25500000920E-02 0.  1.
    10030    2    1    2    0    0  0.00000000000E+00  0.00000000000E+00 -0.18134265255E+03  0.34232893513E+04  0.34184828251E+04 0.  0.
        4    1    3    3  502    0  0.12185971991E+04 -0.28420067865E+03 -0.12566775909E+04  0.17734117795E+04  0.12699999809E+01 0.  1.
       -4    1    3    3    0  502 -0.12185971991E+04  0.28420067865E+03  0.10753349384E+04  0.16498775718E+04  0.12699999809E+01 0. -1.
</event>
<event>
 5   0  0.1339844E-06  0.3263977E+04  0.7818609E-02  0.8172122E-01
       -2   -1    0    0    0  501  0.00000000000E+00  0.00000000000E+00  0.16926621791E+04  0.16926621791E+04  0.25500000920E-02 0. -1.
        2   -1    0    0  501    0  0.00000000000E+00  0.00000000000E+00 -0.15734892893E+04  0.15734892893E+04  0.25500000920E-02 0.  1.
    10030    2    1    2    0    0  0.00000000000E+00  0.00000000000E+00  0.11917288986E+03  0.32661514684E+04  0.32639765987E+04 0.  0.
        3    1    3    3  502    0 -0.11913061838E+04 -0.37564754253E+03  0.11105549449E+04  0.16714226861E+04  0.10100000352E+00 0. -1.
       -3    1    3    3    0  502  0.11913061838E+04  0.37564754253E+03 -0.99138205508E+03  0.15947287823E+04  0.10100000352E+00 0.  1.
</event>
<event>
 5   0  0.1911477E-06  0.3402797E+04  0.7818609E-02  0.8137220E-01
       -2   -1    0    0    0  501  0.00000000000E+00  0.00000000000E+00  0.15483237137E+04  0.15483237137E+04  0.25500000920E-02 0. -1.
        2   -1    0    0  501    0  0.00000000000E+00  0.00000000000E+00 -0.18696072260E+04  0.18696072260E+04  0.25500000920E-02 0.  1.
    10030    2    1    2    0    0  0.00000000000E+00  0.00000000000E+00 -0.32128351232E+03  0.34179309398E+04  0.34027972043E+04 0.  0.
        5    1    3    3  502    0 -0.55125213108E+03  0.12671195429E+04 -0.11576610942E+04  0.18026847054E+04  0.46999998093E+01 0.  1.
       -5    1    3    3    0  502  0.55125213108E+03 -0.12671195429E+04  0.83637758185E+03  0.16152462343E+04  0.46999998093E+01 0. -1.
</event>
<event>
 5   0  0.6218695E-07  0.3349578E+04  0.7818609E-02  0.8150394E-01
        1   -1    0    0  501    0  0.00000000000E+00  0.00000000000E+00  0.18821408247E+04  0.18821408247E+04  0.50400001928E-02 0.  1.
       -1   -1    0    0    0  501  0.00000000000E+00  0.00000000000E+00 -0.14902803048E+04  0.14902803048E+04  0.50400001928E-02 0. -1.
    10030    2    1    2    0    0  0.00000000000E+00  0.00000000000E+00  0.39186051990E+03  0.33724211295E+04  0.33495775267E+04 0.  0.
        2    1    3    3  502    0 -0.84727000633E+03 -0.17703434304E+03  0.16394830437E+04  0.18539450566E+04  0.25500000920E-02 0.  1.
       -2    1    3    3    0  502  0.84727000633E+03  0.17703434304E+03 -0.12476225238E+04  0.15184760729E+04  0.25500000920E-02 0. -1.
</event>
<event>
 5   0  0.6146388E-07  0.3384716E+04  0.7818609E-02  0.8141668E-01
        1   -1    0    0  501    0  0.00000000000E+00  0.00000000000E+00  0.17277884521E+04  0.17277884521E+04  0.50400001928E-02 0. -1.
       -1   -1    0    0    0  501  0.00000000000E+00  0.00000000000E+00 -0.16576541271E+04  0.16576541271E+04  0.50400001928E-02 0.  1.
    10030    2    1    2    0    0  0.00000000000E+00  0.00000000000E+00  0.70134324984E+02  0.33854425793E+04  0.33847160345E+04 0.  0.
        4    1    3    3  502    0  0.93420222503E+03 -0.11964177050E+04  0.78350909762E+03  0.17082263436E+04  0.12699999809E+01 0.  1.
       -4    1    3    3    0  502 -0.93420222503E+03  0.11964177050E+04 -0.71337477263E+03  0.16772162357E+04  0.12699999809E+01 0. -1.
</event>
<event>
 5   0  0.1339844E-06  0.3792661E+04  0.7818609E-02  0.8047732E-01
        2   -1    0    0  501    0  0.00000000000E+00  0.00000000000E+00  0.16239824589E+04  0.16239824589E+04  0.25500000920E-02 0.  1.
       -2   -1    0    0    0  501  0.00000000000E+00  0.00000000000E+00 -0.22143519391E+04  0.22143519391E+04  0.25500000920E-02 0. -1.
    10030    2    1    2    0    0  0.00000000000E+00  0.00000000000E+00 -0.59036948026E+03  0.38383343980E+04  0.37926606529E+04 0.  0.
        3    1    3    3  502    0  0.61550829319E+03 -0.51748200406E+03  0.14428878624E+04  0.16518363954E+04  0.10100000352E+00 0.  1.
       -3    1    3    3    0  502 -0.61550829319E+03  0.51748200406E+03 -0.20332573427E+04  0.21864980026E+04  0.10100000352E+00 0. -1.
</event>
<event>
 5   0  0.1948507E-06  0.3376628E+04  0.7818609E-02  0.8143666E-01
       -2   -1    0    0    0  501  0.00000000000E+00  0.00000000000E+00  0.95492639012E+03  0.95492639012E+03  0.25500000920E-02 0. -1.
        2   -1    0    0  501    0  0.00000000000E+00  0.00000000000E+00 -0.29849468900E+04  0.29849468900E+04  0.25500000920E-02 0.  1.
    10030    2    1    2    0    0  0.00000000000E+00  0.00000000000E+00 -0.20300204999E+04  0.39398732801E+04  0.33766282344E+04 0.  0.
        1    1    3    3  502    0  0.15212498745E+04 -0.61900937118E+03 -0.14714551894E+04  0.22051199869E+04  0.50400001928E-02 0. -1.
       -1    1    3    3    0  502 -0.15212498745E+04  0.61900937118E+03 -0.55856531047E+03  0.17347532932E+04  0.50400001928E-02 0.  1.
</event>
<event>
 5   0  0.6134625E-07  0.3399644E+04  0.7818609E-02  0.8137994E-01
       -1   -1    0    0    0  501  0.00000000000E+00  0.00000000000E+00  0.18292145508E+04  0.18292145508E+04  0.50400001928E-02 0. -1.
        1   -1    0    0  501    0  0.00000000000E+00  0.00000000000E+00 -0.15795825569E+04  0.15795825569E+04  0.50400001928E-02 0.  1.
    10030    2    1    2    0    0  0.00000000000E+00  0.00000000000E+00  0.24963199389E+03  0.34087971077E+04  0.33996443327E+04 0.  0.
        5    1    3    3  502    0  0.13216765681E+04  0.89924232322E+03  0.70421910586E+03  0.17468292263E+04  0.46999998093E+01 0. -1.
       -5    1    3    3    0  502 -0.13216765681E+04 -0.89924232322E+03 -0.45458711197E+03  0.16619678815E+04  0.46999998093E+01 0.  1.
</event>
<event>
 5   0  0.1339844E-06  0.3415665E+04  0.7818609E-02  0.8134072E-01
       -2   -1    0    0    0  501  0.00000000000E+00  0.00000000000E+00  0.10825264101E+04  0.10825264101E+04  0.25500000920E-02 0. -1.
        2   -1    0    0  501    0  0.00000000000E+00  0.00000000000E+00 -0.26943378839E+04  0.26943378839E+04  0.25500000920E-02 0.  1.
    10030    2    1    2    0    0  0.00000000000E+00  0.00000000000E+00 -0.16118114737E+04  0.37768642940E+04  0.34156650404E+04 0.  0.
        3    1    3    3  502    0  0.67978396712E+03 -0.10341368720E+04  0.49547380496E+03  0.13330564930E+04  0.10100000352E+00 0. -1.
       -3    1    3    3    0  502 -0.67978396712E+03  0.10341368720E+04 -0.21072852787E+04  0.24438078010E+04  0.10100000352E+00 0.  1.
</event>
<event>
 5   0  0.6134625E-07  0.3396794E+04  0.7818609E-02  0.8138694E-01
        1   -1    0    0  501    0  0.00000000000E+00  0.00000000000E+00  0.21340169620E+04  0.21340169620E+04  0.50400001928E-02 0. -1.
       -1   -1    0    0    0  501  0.00000000000E+00  0.00000000000E+00 -0.13517009780E+04  0.13517009780E+04  0.50400001928E-02 0.  1.
    10030    2    1    2    0    0  0.00000000000E+00  0.00000000000E+00  0.78231598396E+03  0.34857179400E+04  0.33967942620E+04 0.  0.
        3    1    3    3  502    0 -0.16503487538E+04 -0.11996485162E+03  0.78394487210E+03  0.18310139670E+04  0.10100000352E+00 0. -1.
       -3    1    3    3    0  502  0.16503487538E+04  0.11996485162E+03 -0.16288881337E+01  0.16547039730E+04  0.10100000352E+00 0.  1.
</event>
<event>
 5   0  0.6134625E-07  0.3362583E+04  0.7818609E-02  0.8147151E-01
        1   -1    0    0  501    0  0.00000000000E+00  0.00000000000E+00  0.17650540059E+04  0.17650540059E+04  0.50400001928E-02 0.  1.
       -1   -1    0    0    0  501  0.00000000000E+00  0.00000000000E+00 -0.16015042363E+04  0.16015042363E+04  0.50400001928E-02 0. -1.
    10030    2    1    2    0    0  0.00000000000E+00  0.00000000000E+00  0.16354976962E+03  0.33665582422E+04  0.33625832140E+04 0.  0.
        5    1    3    3  502    0 -0.48169567569E+03 -0.16030875437E+04 -0.75888195974E+02  0.16756197376E+04  0.46999998093E+01 0. -1.
       -5    1    3    3    0  502  0.48169567569E+03  0.16030875437E+04  0.23943796559E+03  0.16909385046E+04  0.46999998093E+01 0.  1.
</event>
<event>
 5   0  0.1797075E-06  0.3422110E+04  0.7818609E-02  0.8132501E-01
        2   -1    0    0  501    0  0.00000000000E+00  0.00000000000E+00  0.13841929234E+04  0.13841929234E+04  0.25500000920E-02 0.  1.
       -2   -1    0    0    0  501  0.00000000000E+00  0.00000000000E+00 -0.21151016016E+04  0.21151016016E+04  0.25500000920E-02 0. -1.
    10030    2    1    2    0    0  0.00000000000E+00  0.00000000000E+00 -0.73090867827E+03  0.34992945250E+04  0.34221096822E+04 0.  0.
        2    1    3    3  502    0  0.67080992606E+03  0.61181554891E+03  0.11175689326E+04  0.14398835168E+04  0.25500000920E-02 0.  1.
       -2    1    3    3    0  502 -0.67080992606E+03 -0.61181554891E+03 -0.18484776109E+04  0.20594110082E+04  0.25500000920E-02 0. -1.
</event>
<event>
 5   0  0.6134625E-07  0.2867503E+04  0.7818609E-02  0.8282612E-01
       -1   -1    0    0    0  501  0.00000000000E+00  0.00000000000E+00  0.15384756841E+04  0.15384756841E+04  0.50400001928E-02 0.  1.
        1   -1    0    0  501    0  0.00000000000E+00  0.00000000000E+00 -0.13361557784E+04  0.13361557784E+04  0.50400001928E-02 0. -1.
    10030    2    1    2    0    0  0.00000000000E+00  0.00000000000E+00  0.20231990570E+03  0.28746314625E+04  0.28675028685E+04 0.  0.
        1    1    3    3  502    0 -0.65784113784E+02  0.97032410862E+03 -0.95492311878E+03  0.13629873764E+04  0.50400001928E-02 0. -1.
       -1    1    3    3    0  502  0.65784113784E+02 -0.97032410862E+03  0.11572430245E+04  0.15116440861E+04  0.50400001928E-02 0.  1.
</event>
<event>
 5   0  0.1339844E-06  0.3354769E+04  0.7818609E-02  0.8149098E-01
        2   -1    0    0  501    0  0.00000000000E+00  0.00000000000E+00  0.20054592115E+04  0.20054592115E+04  0.25500000920E-02 0. -1.
       -2   -1    0    0    0  501  0.00000000000E+00  0.00000000000E+00 -0.14029798333E+04  0.14029798333E+04  0.25500000920E-02 0.  1.
    10030    2    1    2    0    0  0.00000000000E+00  0.00000000000E+00  0.60247937820E+03  0.34084390447E+04  0.33547690413E+04 0.  0.
        3    1    3    3  502    0  0.10454824584E+03 -0.11360778471E+04  0.15505520656E+04  0.19250493315E+04  0.10100000352E+00 0. -1.
       -3    1    3    3    0  502 -0.10454824584E+03  0.11360778471E+04 -0.94807268740E+03  0.14833897132E+04  0.10100000352E+00 0.  1.
</event>
<event>
 5   0  0.1797075E-06  0.3416602E+04  0.7818609E-02  0.8133844E-01
       -2   -1    0    0    0  501  0.00000000000E+00  0.00000000000E+00  0.17751622726E+04  0.17751622726E+04  0.25500000920E-02 0. -1.
        2   -1    0    0  501    0  0.00000000000E+00  0.00000000000E+00 -0.16439581204E+04  0.16439581204E+04  0.25500000920E-02 0.  1.
    10030    2    1    2    0    0  0.00000000000E+00  0.00000000000E+00  0.13120415213E+03  0.34191203930E+04  0.34166020740E+04 0.  0.
        2    1    3    3  502    0 -0.16680306230E+04 -0.23835977728E+03  0.34714712540E+03  0.17203641096E+04  0.25500000920E-02 0. -1.
       -2    1    3    3    0  502  0.16680306230E+04  0.23835977728E+03 -0.21594297327E+03  0.16987562834E+04  0.25500000920E-02 0.  1.
</event>
<event>
 5   0  0.6134625E-07  0.3386315E+04  0.7818609E-02  0.8141273E-01
       -1   -1    0    0    0  501  0.00000000000E+00  0.00000000000E+00  0.16795909509E+04  0.16795909509E+04  0.50400001928E-02 0. -1.
        1   -1    0    0  501    0  0.00000000000E+00  0.00000000000E+00 -0.17068332565E+04  0.17068332565E+04  0.50400001928E-02 0.  1.
    10030    2    1    2    0    0  0.00000000000E+00  0.00000000000E+00 -0.27242305619E+02  0.33864242074E+04  0.33863146294E+04 0.  0.
        1    1    3    3  502    0 -0.11033123723E+04 -0.69000426765E+03  0.10696394586E+04  0.16844977446E+04  0.50400001928E-02 0. -1.
       -1    1    3    3    0  502  0.11033123723E+04  0.69000426765E+03 -0.10968817642E+04  0.17019264628E+04  0.50400001928E-02 0.  1.
</event>
<event>
 5   0  0.1339844E-06  0.3791848E+04  0.7818609E-02  0.8047907E-01
        2   -1    0    0  501    0  0.00000000000E+00  0.00000000000E+00  0.14743404993E+04  0.14743404993E+04  0.25500000920E-02 0.  1.
       -2   -1    0    0    0  501  0.00000000000E+00  0.00000000000E+00 -0.24380576742E+04  0.24380576742E+04  0.25500000920E-02 0. -1.
    10030    2    1    2    0    0  0.00000000000E+00  0.00000000000E+00 -0.96371717496E+03  0.39123981735E+04  0.37918476598E+04 0.  0.
        3    1    3    3  502    0  0.12909362236E+04  0.49462315798E+03  0.85683291858E+03  0.16264473746E+04  0.10100000352E+00 0.  1.
       -3    1    3    3    0  502 -0.12909362236E+04 -0.49462315798E+03 -0.18205500935E+04  0.22859507989E+04  0.10100000352E+00 0. -1.
</event>
<event>
 5   0  0.1797075E-06  0.3423806E+04  0.7818609E-02  0.8132088E-01
       -2   -1    0    0    0  501  0.00000000000E+00  0.00000000000E+00  0.12329888145E+04  0.12329888145E+04  0.25500000920E-02 0.  1.
        2   -1    0    0  501    0  0.00000000000E+00  0.00000000000E+00 -0.23768360314E+04  0.23768360314E+04  0.25500000920E-02 0. -1.
    10030    2    1    2    0    0  0.00000000000E+00  0.00000000000E+00 -0.11438472169E+04  0.36098248459E+04  0.34238062099E+04 0.  0.
        2    1    3    3  502    0  0.17340147080E+03 -0.13793997077E+04 -0.16250944791E+04  0.21386312655E+04  0.25500000920E-02 0.  1.
       -2    1    3    3    0  502 -0.17340147080E+03  0.13793997077E+04  0.48124726225E+03  0.14711935804E+04  0.25500000920E-02 0. -1.
</event>
<event>
 5   0  0.1911477E-06  0.3067170E+04  0.7818609E-02  0.8224806E-01
       -2   -1    0    0    0  501  0.00000000000E+00  0.00000000000E+00  0.13504684946E+04  0.13504684946E+04  0.25500000920E-02 0.  1.
        2   -1    0    0  501    0  0.00000000000E+00  0.00000000000E+00 -0.17415308655E+04  0.17415308655E+04  0.25500000920E-02 0. -1.
    10030    2    1    2    0    0  0.00000000000E+00  0.00000000000E+00 -0.39106237095E+03  0.30919993601E+04  0.30671697483E+04 0.  0.
        5    1    3    3  502    0 -0.54519674641E+03 -0.14333937907E+04 -0.19734144582E+03  0.15462286338E+04  0.46999998093E+01 0. -1.
       -5    1    3    3    0  502  0.54519674641E+03  0.14333937907E+04 -0.19372092512E+03  0.15457707264E+04  0.46999998093E+01 0.  1.
</event>
<event>
 5   0  0.6146388E-07  0.3308841E+04  0.7818609E-02  0.8160649E-01
       -1   -1    0    0    0  501  0.00000000000E+00  0.00000000000E+00  0.13294077885E+04  0.13294077885E+04  0.50400001928E-02 0. -1.
        1   -1    0    0  501    0  0.00000000000E+00  0.00000000000E+00 -0.20588925515E+04  0.20588925515E+04  0.50400001928E-02 0.  1.
    10030    2    1    2    0    0  0.00000000000E+00  0.00000000000E+00 -0.72948476304E+03  0.33883003400E+04  0.33088413644E+04 0.  0.
        4    1    3    3  502    0  0.97492371809E+03 -0.48744602947E+03 -0.16392291992E+04  0.19685410507E+04  0.12699999809E+01 0.  1.
       -4    1    3    3    0  502 -0.97492371809E+03  0.48744602947E+03  0.90974443616E+03  0.14197592894E+04  0.12699999809E+01 0. -1.
</event>
<event>
 5   0  0.1880301E-06  0.3376665E+04  0.7818609E-02  0.8143657E-01
        2   -1    0    0  501    0  0.00000000000E+00  0.00000000000E+00  0.19225752613E+04  0.19225752613E+04  0.25500000920E-02 0.  1.
       -2   -1    0    0    0  501  0.00000000000E+00  0.00000000000E+00 -0.14826290961E+04  0.14826290961E+04  0.25500000920E-02 0. -1.
    10030    2    1    2    0    0  0.00000000000E+00  0.00000000000E+00  0.43994616512E+03  0.34052043574E+04  0.33766646395E+04 0.  0.
        4    1    3    3  502    0 -0.10559565839E+04 -0.12649216835E+04 -0.15109511578E+03  0.16546608472E+04  0.12699999809E+01 0. -1.
       -4    1    3    3    0  502  0.10559565839E+04  0.12649216835E+04  0.59104128090E+03  0.17505435102E+04  0.12699999809E+01 0.  1.
</event>
<event>
 5   0  0.1339844E-06  0.3375183E+04  0.7818609E-02  0.8144024E-01
       -2   -1    0    0    0  501  0.00000000000E+00  0.00000000000E+00  0.14089359833E+04  0.14089359833E+04  0.25500000920E-02 0. -1.
        2   -1    0    0  501    0  0.00000000000E+00  0.00000000000E+00 -0.20213592775E+04  0.20213592775E+04  0.25500000920E-02 0.  1.
    10030    2    1    2    0    0  0.00000000000E+00  0.00000000000E+00 -0.61242329417E+03  0.34302952608E+04  0.33751834447E+04 0.  0.
        3    1    3    3  502    0 -0.14718354378E+04  0.63744809320E+03  0.22707152367E+03  0.16199386145E+04  0.10100000352E+00 0. -1.
       -3    1    3    3    0  502  0.14718354378E+04 -0.63744809320E+03 -0.83949481784E+03  0.18103566463E+04  0.10100000352E+00 0.  1.
</event>
<event>
 5   0  0.1911477E-06  0.3426630E+04  0.7818609E-02  0.8131401E-01
        2   -1    0    0  501    0  0.00000000000E+00  0.00000000000E+00  0.26282599110E+04  0.26282599110E+04  0.25500000920E-02 0. -1.
       -2   -1    0    0    0  501  0.00000000000E+00  0.00000000000E+00 -0.11168790245E+04  0.11168790245E+04  0.25500000920E-02 0.  1.
    10030    2    1    2    0    0  0.00000000000E+00  0.00000000000E+00  0.15113808866E+04  0.37451389355E+04  0.34266300445E+04 0.  0.
        5    1    3    3  502    0  0.53787590131E+03 -0.16266100155E+04  0.77316562071E+03  0.18796217159E+04  0.46999998093E+01 0.  1.
       -5    1    3    3    0  502 -0.53787590131E+03  0.16266100155E+04  0.73821526585E+03  0.18655172196E+04  0.46999998093E+01 0. -1.
</event>
<event>
 5   0  0.1339844E-06  0.3465599E+04  0.7818609E-02  0.8121991E-01
       -2   -1    0    0    0  501  0.00000000000E+00  0.00000000000E+00  0.16436404930E+04  0.16436404930E+04  0.25500000920E-02 0.  1.
        2   -1    0    0  501    0  0.00000000000E+00  0.00000000000E+00 -0.18267952238E+04  0.18267952238E+04  0.25500000920E-02 0. -1.
    10030    2    1    2    0    0  0.00000000000E+00  0.00000000000E+00 -0.18315473081E+03  0.34704357167E+04  0.34655992856E+04 0.  0.
        3    1    3    3  502    0 -0.53115750599E+03 -0.15169058085E+04 -0.74014089161E+03  0.17694462630E+04  0.10100000352E+00 0.  1.
       -3    1    3    3    0  502  0.53115750599E+03  0.15169058085E+04  0.55698616080E+03  0.17009894537E+04  0.10100000352E+00 0. -1.
</event>
<event>
 5   0  0.6134625E-07  0.3390829E+04  0.7818609E-02  0.8140161E-01
       -1   -1    0    0    0  501  0.00000000000E+00  0.00000000000E+00  0.14168542511E+04  0.14168542511E+04  0.50400001928E-02 0. -1.
        1   -1    0    0  501    0  0.00000000000E+00  0.00000000000E+00 -0.20287411390E+04  0.20287411390E+04  0.50400001928E-02 0.  1.
    10030    2    1    2    0    0  0.00000000000E+00  0.00000000000E+00 -0.61188688791E+03  0.34455953902E+04  0.33908291065E+04 0.  0.
        1    1    3    3  502    0 -0.13532595819E+04 -0.80962044434E+03  0.32671479063E+03  0.16104469300E+04  0.50400001928E-02 0. -1.
       -1    1    3    3    0  502  0.13532595819E+04  0.80962044434E+03 -0.93860167854E+03  0.18351484602E+04  0.50400001928E-02 0.  1.
</event>
<event>
 5   0  0.6134625E-07  0.3411654E+04  0.7818609E-02  0.8135052E-01
       -1   -1    0    0    0  501  0.00000000000E+00  0.00000000000E+00  0.26085353027E+04  0.26085353027E+04  0.50400001928E-02 0.  1.
        1   -1    0    0  501    0  0.00000000000E+00  0.00000000000E+00 -0.11155096556E+04  0.11155096556E+04  0.50400001928E-02 0. -1.
    10030    2    1    2    0    0  0.00000000000E+00  0.00000000000E+00  0.14930256470E+04  0.37240449583E+04  0.34116543302E+04 0.  0.
        3    1    3    3  502    0 -0.12445449183E+04 -0.84070071905E+03 -0.13635843938E+03  0.15080661083E+04  0.10100000352E+00 0. -1.
       -3    1    3    3    0  502  0.12445449183E+04  0.84070071905E+03  0.16293840864E+04  0.22159788501E+04  0.10100000352E+00 0.  1.
</event>
<event>
 5   0  0.1880301E-06  0.2520160E+04  0.7818609E-02  0.8395839E-01
       -2   -1    0    0    0  501  0.00000000000E+00  0.00000000000E+00  0.66070832739E+03  0.66070832740E+03  0.25500000920E-02 0. -1.
        2   -1    0    0  501    0  0.00000000000E+00  0.00000000000E+00 -0.24031799799E+04  0.24031799799E+04  0.25500000920E-02 0.  1.
    10030    2    1    2    0    0  0.00000000000E+00  0.00000000000E+00 -0.17424716525E+04  0.30638883073E+04  0.25201595386E+04 0.  0.
        4    1    3    3  502    0 -0.64919624084E+03  0.54021979255E+03  0.26567485879E+03  0.88536880839E+03  0.12699999809E+01 0. -1.
       -4    1    3    3    0  502  0.64919624084E+03 -0.54021979255E+03 -0.20081465113E+04  0.21785194989E+04  0.12699999809E+01 0.  1.
</event>
<event>
 5   0  0.6134625E-07  0.3439799E+04  0.7818609E-02  0.8128207E-01
       -1   -1    0    0    0  501  0.00000000000E+00  0.00000000000E+00  0.16488531951E+04  0.16488531951E+04  0.50400001928E-02 0.  1.
        1   -1    0    0  501    0  0.00000000000E+00  0.00000000000E+00 -0.17940074029E+04  0.17940074029E+04  0.50400001928E-02 0. -1.
    10030    2    1    2    0    0  0.00000000000E+00  0.00000000000E+00 -0.14515420786E+03  0.34428605980E+04  0.34397993188E+04 0.  0.
        3    1    3    3  502    0  0.89530421883E+03 -0.72470577700E+03  0.12057779204E+04  0.16675336611E+04  0.10100000352E+00 0.  1.
       -3    1    3    3    0  502 -0.89530421883E+03  0.72470577700E+03 -0.13509321283E+04  0.17753269369E+04  0.10100000352E+00 0. -1.
</event>
<event>
 5   0  0.6134625E-07  0.3381517E+04  0.7818609E-02  0.8142458E-01
       -1   -1    0    0    0  501  0.00000000000E+00  0.00000000000E+00  0.14040418828E+04  0.14040418828E+04  0.50400001928E-02 0. -1.
        1   -1    0    0  501    0  0.00000000000E+00  0.00000000000E+00 -0.20360248810E+04  0.20360248810E+04  0.50400001928E-02 0.  1.
    10030    2    1    2    0    0  0.00000000000E+00  0.00000000000E+00 -0.63198299820E+03  0.34400667639E+04  0.33815169421E+04 0.  0.
        5    1    3    3  502    0  0.23641766938E+03 -0.87785568637E+03  0.11342147962E+04  0.14536124705E+04  0.46999998093E+01 0. -1.
       -5    1    3    3    0  502 -0.23641766938E+03  0.87785568637E+03 -0.17661977944E+04  0.19864542933E+04  0.46999998093E+01 0.  1.
</event>
<event>
 5   0  0.6134625E-07  0.3366601E+04  0.7818609E-02  0.8146152E-01
       -1   -1    0    0    0  501  0.00000000000E+00  0.00000000000E+00  0.87985225435E+03  0.87985225436E+03  0.50400001928E-02 0. -1.
        1   -1    0    0  501    0  0.00000000000E+00  0.00000000000E+00 -0.32204285656E+04  0.32204285656E+04  0.50400001928E-02 0.  1.
    10030    2    1    2    0    0  0.00000000000E+00  0.00000000000E+00 -0.23405763112E+04  0.41002808199E+04  0.33666014516E+04 0.  0.
        3    1    3    3  502    0 -0.86058174872E+03 -0.13878386067E+03 -0.29241222770E+04  0.30512871066E+04  0.10100000352E+00 0.  1.
       -3    1    3    3    0  502  0.86058174872E+03  0.13878386067E+03  0.58354596575E+03  0.10489937133E+04  0.10100000352E+00 0. -1.
</event>
<event>
 5   0  0.6134625E-07  0.3403950E+04  0.7818609E-02  0.8136937E-01
        1   -1    0    0  501    0  0.00000000000E+00  0.00000000000E+00  0.82243001766E+03  0.82243001768E+03  0.50400001928E-02 0.  1.
       -1   -1    0    0    0  501  0.00000000000E+00  0.00000000000E+00 -0.35221469868E+04  0.35221469868E+04  0.50400001928E-02 0. -1.
    10030    2    1    2    0    0  0.00000000000E+00  0.00000000000E+00 -0.26997169691E+04  0.43445770045E+04  0.34039502985E+04 0.  0.
        5    1    3    3  502    0 -0.15026548382E+04 -0.65397763510E+03 -0.76352370249E+03  0.18079404980E+04  0.46999998093E+01 0.  1.
       -5    1    3    3    0  502  0.15026548382E+04  0.65397763510E+03 -0.19361932666E+04  0.25366365064E+04  0.46999998093E+01 0. -1.
</event>
<event>
 5   0  0.6134625E-07  0.3416111E+04  0.7818609E-02  0.8133963E-01
        1   -1    0    0  501    0  0.00000000000E+00  0.00000000000E+00  0.23027626754E+04  0.23027626754E+04  0.50400001928E-02 0. -1.
       -1   -1    0    0    0  501  0.00000000000E+00  0.00000000000E+00 -0.12669365305E+04  0.12669365305E+04  0.50400001928E-02 0.  1.
    10030    2    1    2    0    0  0.00000000000E+00  0.00000000000E+00  0.10358261449E+04  0.35696992059E+04  0.34161113298E+04 0.  0.
        1    1    3    3  502    0 -0.12934160279E+04  0.29226475813E+03 -0.60711152119E+03  0.14583991598E+04  0.50400001928E-02 0.  1.
       -1    1    3    3    0  502  0.12934160279E+04 -0.29226475813E+03  0.16429376661E+04  0.21113000461E+04  0.50400001928E-02 0. -1.
</event>
<event>
 5   0  0.1948507E-06  0.3440688E+04  0.7818609E-02  0.8127992E-01
        2   -1    0    0  501    0  0.00000000000E+00  0.00000000000E+00  0.20013453767E+04  0.20013453767E+04  0.25500000920E-02 0.  1.
       -2   -1    0    0    0  501  0.00000000000E+00  0.00000000000E+00 -0.14787968068E+04  0.14787968068E+04  0.25500000920E-02 0. -1.
    10030    2    1    2    0    0  0.00000000000E+00  0.00000000000E+00  0.52254856990E+03  0.34801421835E+04  0.34406878105E+04 0.  0.
        1    1    3    3  502    0  0.16513088942E+04  0.45912323200E+03  0.41118975386E+03  0.17625811243E+04  0.50400001928E-02 0. -1.
       -1    1    3    3    0  502 -0.16513088942E+04 -0.45912323200E+03  0.11135881604E+03  0.17175610592E+04  0.50400001928E-02 0.  1.
</event>
<event>
 5   0  0.6218695E-07  0.3397404E+04  0.7818609E-02  0.8138544E-01
        1   -1    0    0  501    0  0.00000000000E+00  0.00000000000E+00  0.15580223727E+04  0.15580223728E+04  0.50400001928E-02 0.  1.
       -1   -1    0    0    0  501  0.00000000000E+00  0.00000000000E+00 -0.18520839846E+04  0.18520839846E+04  0.50400001928E-02 0. -1.
    10030    2    1    2    0    0  0.00000000000E+00  0.00000000000E+00 -0.29406161188E+03  0.34101063574E+04  0.33974038820E+04 0.  0.
        2    1    3    3  502    0 -0.49648719594E+03 -0.65626536299E+03  0.13445955882E+04  0.15764266739E+04  0.25500000920E-02 0.  1.
       -2    1    3    3    0  502  0.49648719594E+03  0.65626536299E+03 -0.16386572001E+04  0.18336796835E+04  0.25500000920E-02 0. -1.
</event>
<event>
 5   0  0.6134625E-07  0.3344814E+04  0.7818609E-02  0.8151585E-01
       -1   -1    0    0    0  501  0.00000000000E+00  0.00000000000E+00  0.14505835610E+04  0.14505835610E+04  0.50400001928E-02 0.  1.
        1   -1    0    0  501    0  0.00000000000E+00  0.00000000000E+00 -0.19281521394E+04  0.19281521394E+04  0.50400001928E-02 0. -1.
    10030    2    1    2    0    0  0.00000000000E+00  0.00000000000E+00 -0.47756857844E+03  0.33787357004E+04  0.33448143724E+04 0.  0.
        3    1    3    3  502    0 -0.10827180976E+04 -0.36230906618E+03 -0.14732248786E+04  0.18638502867E+04  0.10100000352E+00 0. -1.
       -3    1    3    3    0  502  0.10827180976E+04  0.36230906618E+03  0.99565630017E+03  0.15148854136E+04  0.10100000352E+00 0.  1.
</event>
<event>
 5   0  0.6134625E-07  0.3045879E+04  0.7818609E-02  0.8230750E-01
       -4   -1    0    0    0  501  0.00000000000E+00  0.00000000000E+00  0.14849496179E+04  0.14849501610E+04  0.12699999809E+01 0.  1.
        4   -1    0    0  501    0  0.00000000000E+00  0.00000000000E+00 -0.15619005742E+04  0.15619010906E+04  0.12699999809E+01 0. -1.
    10030    2    1    2    0    0  0.00000000000E+00  0.00000000000E+00 -0.76950956337E+02  0.30468512515E+04  0.30458793639E+04 0.  0.
        5    1    3    3  502    0  0.10881729405E+04 -0.96863774846E+03  0.40544957342E+03  0.15122139011E+04  0.46999998093E+01 0.  1.
       -5    1    3    3    0  502 -0.10881729405E+04  0.96863774846E+03 -0.48240052976E+03  0.15346373504E+04  0.46999998093E+01 0. -1.
</event>
<event>
 5   0  0.6134625E-07  0.3352457E+04  0.7818609E-02  0.8149674E-01
       -1   -1    0    0    0  501  0.00000000000E+00  0.00000000000E+00  0.34101293262E+04  0.34101293262E+04  0.50400001928E-02 0. -1.
        1   -1    0    0  501    0  0.00000000000E+00  0.00000000000E+00 -0.82394013504E+03  0.82394013505E+03  0.50400001928E-02 0.  1.
    10030    2    1    2    0    0  0.00000000000E+00  0.00000000000E+00  0.25861891911E+04  0.42340694612E+04  0.33524572585E+04 0.  0.
        3    1    3    3  502    0  0.10258647316E+04 -0.27072268370E+03 -0.34588154302E+03  0.11159405320E+04  0.10100000352E+00 0.  1.
       -3    1    3    3    0  502 -0.10258647316E+04  0.27072268370E+03  0.29320707342E+04  0.31181289292E+04  0.10100000352E+00 0. -1.
</event>
<event>
 5   0  0.1911477E-06  0.3389396E+04  0.7818609E-02  0.8140514E-01
       -2   -1    0    0    0  501  0.00000000000E+00  0.00000000000E+00  0.17422175422E+04  0.17422175422E+04  0.25500000920E-02 0.  1.
        2   -1    0    0  501    0  0.00000000000E+00  0.00000000000E+00 -0.16484743152E+04  0.16484743152E+04  0.25500000920E-02 0. -1.
    10030    2    1    2    0    0  0.00000000000E+00  0.00000000000E+00  0.93743227030E+02  0.33906918573E+04  0.33893957395E+04 0.  0.
        5    1    3    3  502    0  0.41327426273E+03 -0.11869975708E+04 -0.10903216062E+04  0.16639056897E+04  0.46999998093E+01 0. -1.
       -5    1    3    3    0  502 -0.41327426273E+03  0.11869975708E+04  0.11840648332E+04  0.17267861676E+04  0.46999998093E+01 0.  1.
</event>
<event>
 5   0  0.1948507E-06  0.3394532E+04  0.7818609E-02  0.8139250E-01
        2   -1    0    0  501    0  0.00000000000E+00  0.00000000000E+00  0.22723889746E+04  0.22723889746E+04  0.25500000920E-02 0. -1.
       -2   -1    0    0    0  501  0.00000000000E+00  0.00000000000E+00 -0.12677019401E+04  0.12677019402E+04  0.25500000920E-02 0.  1.
    10030    2    1    2    0    0  0.00000000000E+00  0.00000000000E+00  0.10046870344E+04  0.35400909147E+04  0.33945320218E+04 0.  0.
        1    1    3    3  502    0  0.17195139170E+03 -0.70685492585E+01 -0.12585793144E+04  0.12702909651E+04  0.50400001928E-02 0.  1.
       -1    1    3    3    0  502 -0.17195139170E+03  0.70685492585E+01  0.22632663488E+04  0.22697999496E+04  0.50400001928E-02 0. -1.
</event>
<event>
 5   0  0.6134625E-07  0.3373340E+04  0.7818609E-02  0.8144481E-01
        1   -1    0    0  501    0  0.00000000000E+00  0.00000000000E+00  0.25061495452E+04  0.25061495452E+04  0.50400001928E-02 0. -1.
       -1   -1    0    0    0  501  0.00000000000E+00  0.00000000000E+00 -0.11351498247E+04  0.11351498247E+04  0.50400001928E-02 0.  1.
    10030    2    1    2    0    0  0.00000000000E+00  0.00000000000E+00  0.13709997205E+04  0.36412993698E+04  0.33733397201E+04 0.  0.
        1    1    3    3  502    0  0.51183660102E+03  0.52397987298E+03  0.23255028967E+04  0.24381335763E+04  0.50400001928E-02 0. -1.
       -1    1    3    3    0  502 -0.51183660102E+03 -0.52397987298E+03 -0.95450317616E+03  0.12031657935E+04  0.50400001928E-02 0.  1.
</event>
<event>
 5   0  0.1797075E-06  0.3453876E+04  0.7818609E-02  0.8124809E-01
        2   -1    0    0  501    0  0.00000000000E+00  0.00000000000E+00  0.24371173456E+04  0.24371173456E+04  0.25500000920E-02 0. -1.
       -2   -1    0    0    0  501  0.00000000000E+00  0.00000000000E+00 -0.12237057131E+04  0.12237057131E+04  0.25500000920E-02 0.  1.
    10030    2    1    2    0    0  0.00000000000E+00  0.00000000000E+00  0.12134116325E+04  0.36608230587E+04  0.34538757472E+04 0.  0.
        2    1    3    3  502    0  0.64468431021E+03  0.12757686674E+04  0.16338477536E+04  0.21708666551E+04  0.25500000920E-02 0. -1.
       -2    1    3    3    0  502 -0.64468431021E+03 -0.12757686674E+04 -0.42043612107E+03  0.14899564035E+04  0.25500000920E-02 0.  1.
</event>
<event>
 5   0  0.1911477E-06  0.3280642E+04  0.7818609E-02  0.8167839E-01
       -2   -1    0    0    0  501  0.00000000000E+00  0.00000000000E+00  0.10855632930E+04  0.10855632930E+04  0.25500000920E-02 0.  1.
        2   -1    0    0  501    0  0.00000000000E+00  0.00000000000E+00 -0.24785778276E+04  0.24785778276E+04  0.25500000920E-02 0. -1.
    10030    2    1    2    0    0  0.00000000000E+00  0.00000000000E+00 -0.13930145346E+04  0.35641411206E+04  0.32806420765E+04 0.  0.
        5    1    3    3  502    0 -0.87631880373E+03 -0.99570734261E+03 -0.17449199733E+04  0.21918338352E+04  0.46999998093E+01 0. -1.
       -5    1    3    3    0  502  0.87631880373E+03  0.99570734261E+03  0.35190543869E+03  0.13723072854E+04  0.46999998093E+01 0.  1.
</event>
<event>
 5   0  0.1911477E-06  0.3348772E+04  0.7818609E-02  0.8150595E-01
       -2   -1    0    0    0  501  0.00000000000E+00  0.00000000000E+00  0.14195993470E+04  0.14195993470E+04  0.25500000920E-02 0.  1.
        2   -1    0    0  501    0  0.00000000000E+00  0.00000000000E+00 -0.19749015618E+04  0.19749015618E+04  0.25500000920E-02 0. -1.
    10030    2    1    2    0    0  0.00000000000E+00  0.00000000000E+00 -0.55530221481E+03  0.33945009088E+04  0.33487722930E+04 0.  0.
        5    1    3    3  502    0 -0.83259420131E+03  0.89576773301E+03 -0.14369174223E+04  0.18868934003E+04  0.46999998093E+01 0. -1.
       -5    1    3    3    0  502  0.83259420131E+03 -0.89576773301E+03  0.88161520753E+03  0.15076075085E+04  0.46999998093E+01 0.  1.
</event>
<event>
 5   0  0.1797075E-06  0.3421233E+04  0.7818609E-02  0.8132715E-01
        2   -1    0    0  501    0  0.00000000000E+00  0.00000000000E+00  0.19558186012E+04  0.19558186013E+04  0.25500000920E-02 0.  1.
       -2   -1    0    0    0  501  0.00000000000E+00  0.00000000000E+00 -0.14961558229E+04  0.14961558229E+04  0.25500000920E-02 0. -1.
    10030    2    1    2    0    0  0.00000000000E+00  0.00000000000E+00  0.45966277833E+03  0.34519744242E+04  0.34212333383E+04 0.  0.
        2    1    3    3  502    0  0.91303618922E+03 -0.14149669918E+04  0.53327058360E+03  0.17663929875E+04  0.25500000920E-02 0. -1.
       -2    1    3    3    0  502 -0.91303618922E+03  0.14149669918E+04 -0.73607805274E+02  0.16855814367E+04  0.25500000920E-02 0.  1.
</event>
<event>
 5   0  0.1339844E-06  0.3439075E+04  0.7818609E-02  0.8128382E-01
        2   -1    0    0  501    0  0.00000000000E+00  0.00000000000E+00  0.25571349047E+04  0.25571349047E+04  0.25500000920E-02 0.  1.
       -2   -1    0    0    0  501  0.00000000000E+00  0.00000000000E+00 -0.11562973898E+04  0.11562973898E+04  0.25500000920E-02 0. -1.
    10030    2    1    2    0    0  0.00000000000E+00  0.00000000000E+00  0.14008375149E+04  0.37134322945E+04  0.34390745357E+04 0.  0.
        3    1    3    3  502    0  0.72957387704E+03 -0.99167782199E+03 -0.59581045126E+03  0.13677328133E+04  0.10100000352E+00 0. -1.
       -3    1    3    3    0  502 -0.72957387704E+03  0.99167782199E+03  0.19966479662E+04  0.23456994811E+04  0.10100000352E+00 0.  1.
</event>
<event>
 5   0  0.6134625E-07  0.3597910E+04  0.7818609E-02  0.8090971E-01
        1   -1    0    0  501    0  0.00000000000E+00  0.00000000000E+00  0.22696756594E+04  0.22696756595E+04  0.50400001928E-02 0. -1.
       -1   -1    0    0    0  501  0.00000000000E+00  0.00000000000E+00 -0.14258594638E+04  0.14258594638E+04  0.50400001928E-02 0.  1.
    10030    2    1    2    0    0  0.00000000000E+00  0.00000000000E+00  0.84381619564E+03  0.36955351233E+04  0.35979096814E+04 0.  0.
        5    1    3    3  502    0  0.53386593883E+03 -0.74227848768E+03 -0.11693959461E+04  0.14844187963E+04  0.46999998093E+01 0.  1.
       -5    1    3    3    0  502 -0.53386593883E+03  0.74227848768E+03  0.20132121417E+04  0.22111163270E+04  0.46999998093E+01 0. -1.
</event>
<event>
 5   0  0.6134625E-07  0.3417633E+04  0.7818609E-02  0.8133592E-01
        1   -1    0    0  501    0  0.00000000000E+00  0.00000000000E+00  0.21083453399E+04  0.21083453399E+04  0.50400001928E-02 0. -1.
       -1   -1    0    0    0  501  0.00000000000E+00  0.00000000000E+00 -0.13849982210E+04  0.13849982210E+04  0.50400001928E-02 0.  1.
    10030    2    1    2    0    0  0.00000000000E+00  0.00000000000E+00  0.72334711887E+03  0.34933435609E+04  0.34176334180E+04 0.  0.
        3    1    3    3  502    0  0.57885140675E+03 -0.14598358510E+04 -0.32694560820E+03  0.16040832597E+04  0.10100000352E+00 0.  1.
       -3    1    3    3    0  502 -0.57885140675E+03  0.14598358510E+04  0.10502927271E+04  0.18892603012E+04  0.10100000352E+00 0. -1.
</event>
<event>
 5   0  0.1948507E-06  0.3430317E+04  0.7818609E-02  0.8130505E-01
       -2   -1    0    0    0  501  0.00000000000E+00  0.00000000000E+00  0.15150166934E+04  0.15150166934E+04  0.25500000920E-02 0. -1.
        2   -1    0    0  501    0  0.00000000000E+00  0.00000000000E+00 -0.19417401034E+04  0.19417401034E+04  0.25500000920E-02 0.  1.
    10030    2    1    2    0    0  0.00000000000E+00  0.00000000000E+00 -0.42672341001E+03  0.34567567968E+04  0.34303169946E+04 0.  0.
        1    1    3    3  502    0  0.14480159644E+04 -0.43115452605E+03  0.60476054333E+03  0.16273843348E+04  0.50400001928E-02 0. -1.
       -1    1    3    3    0  502 -0.14480159644E+04  0.43115452605E+03 -0.10314839533E+04  0.18293724620E+04  0.50400001928E-02 0.  1.
</event>
<event>
 5   0  0.6218695E-07  0.3371875E+04  0.7818609E-02  0.8144844E-01
        1   -1    0    0  501    0  0.00000000000E+00  0.00000000000E+00  0.24444165395E+04  0.24444165395E+04  0.50400001928E-02 0. -1.
       -1   -1    0    0    0  501  0.00000000000E+00  0.00000000000E+00 -0.11628071859E+04  0.11628071859E+04  0.50400001928E-02 0.  1.
    10030    2    1    2    0    0  0.00000000000E+00  0.00000000000E+00  0.12816093537E+04  0.36072237254E+04  0.33718749191E+04 0.  0.
        2    1    3    3  502    0  0.13511664089E+04 -0.15290139612E+03  0.17070422892E+04  0.21824350800E+04  0.25500000920E-02 0. -1.
       -2    1    3    3    0  502 -0.13511664089E+04  0.15290139612E+03 -0.42543293553E+03  0.14247886454E+04  0.25500000920E-02 0.  1.
</event>
<event>
 5   0  0.6218695E-07  0.3357769E+04  0.7818609E-02  0.8148350E-01
       -1   -1    0    0    0  501  0.00000000000E+00  0.00000000000E+00  0.12562609564E+04  0.12562609564E+04  0.50400001928E-02 0.  1.
        1   -1    0    0  501    0  0.00000000000E+00  0.00000000000E+00 -0.22436851081E+04  0.22436851081E+04  0.50400001928E-02 0. -1.
    10030    2    1    2    0    0  0.00000000000E+00  0.00000000000E+00 -0.98742415172E+03  0.34999460645E+04  0.33577694976E+04 0.  0.
        2    1    3    3  502    0 -0.12162589035E+04 -0.10444663291E+04  0.25849810873E+02  0.16033913576E+04  0.25500000920E-02 0.  1.
       -2    1    3    3    0  502  0.12162589035E+04  0.10444663291E+04 -0.10132739626E+04  0.18965547069E+04  0.25500000920E-02 0. -1.
</event>
<event>
 5   0  0.1880301E-06  0.3430400E+04  0.7818609E-02  0.8130485E-01
       -2   -1    0    0    0  501  0.00000000000E+00  0.00000000000E+00  0.11530910882E+04  0.11530910882E+04  0.25500000920E-02 0. -1.
        2   -1    0    0  501    0  0.00000000000E+00  0.00000000000E+00 -0.25513252722E+04  0.25513252722E+04  0.25500000920E-02 0.  1.
    10030    2    1    2    0    0  0.00000000000E+00  0.00000000000E+00 -0.13982341840E+04  0.37044163604E+04  0.34303996470E+04 0.  0.
        4    1    3    3  502    0 -0.87914483687E+03  0.11015412844E+04 -0.17547615801E+04  0.22506618274E+04  0.12699999809E+01 0.  1.
       -4    1    3    3    0  502  0.87914483687E+03 -0.11015412844E+04  0.35652739609E+03  0.14537545331E+04  0.12699999809E+01 0. -1.
</event>
<event>
 5   0  0.1797075E-06  0.2614663E+04  0.7818609E-02  0.8363238E-01
        2   -1    0    0  501    0  0.00000000000E+00  0.00000000000E+00  0.15444402901E+04  0.15444402901E+04  0.25500000920E-02 0. -1.
       -2   -1    0    0    0  501  0.00000000000E+00  0.00000000000E+00 -0.11066242904E+04  0.11066242904E+04  0.25500000920E-02 0.  1.
    10030    2    1    2    0    0  0.00000000000E+00  0.00000000000E+00  0.43781599972E+03  0.26510645804E+04  0.26146626092E+04 0.  0.
        2    1    3    3  502    0  0.67102523395E+03 -0.26167318074E+03  0.13251373256E+04  0.15082230107E+04  0.25500000920E-02 0. -1.
       -2    1    3    3    0  502 -0.67102523395E+03  0.26167318074E+03 -0.88732132592E+03  0.11428415698E+04  0.25500000920E-02 0.  1.
</event>
<event>
 5   0  0.1339844E-06  0.3365231E+04  0.7818609E-02  0.8146493E-01
        2   -1    0    0  501    0  0.00000000000E+00  0.00000000000E+00  0.21045673844E+04  0.21045673844E+04  0.25500000920E-02 0. -1.
       -2   -1    0    0    0  501  0.00000000000E+00  0.00000000000E+00 -0.13452624572E+04  0.13452624572E+04  0.25500000920E-02 0.  1.
    10030    2    1    2    0    0  0.00000000000E+00  0.00000000000E+00  0.75930492718E+03  0.34498298416E+04  0.33652313388E+04 0.  0.
        3    1    3    3  502    0 -0.11225391698E+04  0.77701307009E+03 -0.62861328180E+03  0.15029963963E+04  0.10100000352E+00 0.  1.
       -3    1    3    3    0  502  0.11225391698E+04 -0.77701307009E+03  0.13879182090E+04  0.19468334453E+04  0.10100000352E+00 0. -1.
</event>
<event>
 5   0  0.1911477E-06  0.3388148E+04  0.7818609E-02  0.8140821E-01
        2   -1    0    0  501    0  0.00000000000E+00  0.00000000000E+00  0.20174171490E+04  0.20174171490E+04  0.25500000920E-02 0.  1.
       -2   -1    0    0    0  501  0.00000000000E+00  0.00000000000E+00 -0.14225549588E+04  0.14225549588E+04  0.25500000920E-02 0. -1.
    10030    2    1    2    0    0  0.00000000000E+00  0.00000000000E+00  0.59486219016E+03  0.34399721078E+04  0.33881480306E+04 0.  0.
        5    1    3    3  502    0 -0.97556553099E+03 -0.94021343364E+03 -0.73504788879E+03  0.15414431209E+04  0.46999998093E+01 0. -1.
       -5    1    3    3    0  502  0.97556553099E+03  0.94021343364E+03  0.13299100789E+04  0.18985289869E+04  0.46999998093E+01 0.  1.
</event>
<event>
 5   0  0.1880301E-06  0.3349001E+04  0.7818609E-02  0.8150538E-01
       -2   -1    0    0    0  501  0.00000000000E+00  0.00000000000E+00  0.11653944788E+04  0.11653944788E+04  0.25500000920E-02 0.  1.
        2   -1    0    0  501    0  0.00000000000E+00  0.00000000000E+00 -0.24060114776E+04  0.24060114776E+04  0.25500000920E-02 0. -1.
    10030    2    1    2    0    0  0.00000000000E+00  0.00000000000E+00 -0.12406169988E+04  0.35714059564E+04  0.33490013389E+04 0.  0.
        4    1    3    3  502    0 -0.25605486746E+03 -0.59817111008E+03  0.10250673370E+04  0.12141406140E+04  0.12699999809E+01 0.  1.
       -4    1    3    3    0  502  0.25605486746E+03  0.59817111008E+03 -0.22656843359E+04  0.23572653425E+04  0.12699999809E+01 0. -1.
</event>
<event>
 5   0  0.1339844E-06  0.3399040E+04  0.7818609E-02  0.8138142E-01
       -2   -1    0    0    0  501  0.00000000000E+00  0.00000000000E+00  0.15880378614E+04  0.15880378614E+04  0.25500000920E-02 0.  1.
        2   -1    0    0  501    0  0.00000000000E+00  0.00000000000E+00 -0.18188286607E+04  0.18188286607E+04  0.25500000920E-02 0. -1.
    10030    2    1    2    0    0  0.00000000000E+00  0.00000000000E+00 -0.23079079930E+03  0.34068665220E+04  0.33990403213E+04 0.  0.
        3    1    3    3  502    0  0.11582863843E+03 -0.16086090819E+03 -0.18072024841E+04  0.18180410705E+04  0.10100000352E+00 0. -1.
       -3    1    3    3    0  502 -0.11582863843E+03  0.16086090819E+03  0.15764116848E+04  0.15888254515E+04  0.10100000352E+00 0.  1.
</event>
<event>
 5   0  0.6134625E-07  0.3301093E+04  0.7818609E-02  0.8162617E-01
       -1   -1    0    0    0  501  0.00000000000E+00  0.00000000000E+00  0.10308379558E+04  0.10308379558E+04  0.50400001928E-02 0. -1.
        1   -1    0    0  501    0  0.00000000000E+00  0.00000000000E+00 -0.26428045895E+04  0.26428045895E+04  0.50400001928E-02 0.  1.
    10030    2    1    2    0    0  0.00000000000E+00  0.00000000000E+00 -0.16119666337E+04  0.36736425453E+04  0.33010927164E+04 0.  0.
        3    1    3    3  502    0  0.12424751538E+04  0.14823517596E+03 -0.20038352616E+04  0.23624296690E+04  0.10100000352E+00 0.  1.
       -3    1    3    3    0  502 -0.12424751538E+04 -0.14823517596E+03  0.39186862790E+03  0.13112128763E+04  0.10100000352E+00 0. -1.
</event>
<event>
 5   0  0.1948507E-06  0.3409355E+04  0.7818609E-02  0.8135614E-01
       -2   -1    0    0    0  501  0.00000000000E+00  0.00000000000E+00  0.10959589096E+04  0.10959589096E+04  0.25500000920E-02 0. -1.
        2   -1    0    0  501    0  0.00000000000E+00  0.00000000000E+00 -0.26514905146E+04  0.26514905146E+04  0.25500000920E-02 0.  1.
    10030    2    1    2    0    0  0.00000000000E+00  0.00000000000E+00 -0.15555316049E+04  0.37474494242E+04  0.34093545743E+04 0.  0.
        1    1    3    3  502    0 -0.16156413142E+04 -0.54364278956E+03 -0.76791526274E+03  0.18696358441E+04  0.50400001928E-02 0.  1.
       -1    1    3    3    0  502  0.16156413142E+04  0.54364278956E+03 -0.78761634218E+03  0.18778135801E+04  0.50400001928E-02 0. -1.
</event>
<event>
 5   0  0.6218695E-07  0.3385463E+04  0.7818609E-02  0.8141483E-01
        1   -1    0    0  501    0  0.00000000000E+00  0.00000000000E+00  0.15852247675E+04  0.15852247675E+04  0.50400001928E-02 0.  1.
       -1   -1    0    0    0  501  0.00000000000E+00  0.00000000000E+00 -0.18075292386E+04  0.18075292386E+04  0.50400001928E-02 0. -1.
    10030    2    1    2    0    0  0.00000000000E+00  0.00000000000E+00 -0.22230447112E+03  0.33927540061E+04  0.33854631098E+04 0.  0.
        2    1    3    3  502    0  0.89610684514E+02  0.96111154213E+03  0.12823727423E+04  0.16050686345E+04  0.25500000920E-02 0.  1.
       -2    1    3    3    0  502 -0.89610684514E+02 -0.96111154213E+03 -0.15046772134E+04  0.17876853716E+04  0.25500000920E-02 0. -1.
</event>
<event>
 5   0  0.6146388E-07  0.3381107E+04  0.7818609E-02  0.8142559E-01
       -1   -1    0    0    0  501  0.00000000000E+00  0.00000000000E+00  0.15207972264E+04  0.15207972264E+04  0.50400001928E-02 0. -1.
        1   -1    0    0  501    0  0.00000000000E+00  0.00000000000E+00 -0.18792588821E+04  0.18792588821E+04  0.50400001928E-02 0.  1.
    10030    2    1    2    0    0  0.00000000000E+00  0.00000000000E+00 -0.35846165570E+03  0.34000561086E+04  0.33811073309E+04 0.  0.
        4    1    3    3  502    0  0.16152663380E+04 -0.38403424411E+03 -0.49945294779E+03  0.17337884828E+04  0.12699999809E+01 0.  1.
       -4    1    3    3    0  502 -0.16152663380E+04  0.38403424411E+03  0.14099129210E+03  0.16662676257E+04  0.12699999809E+01 0. -1.
</event>
<event>
 5   0  0.1880301E-06  0.3370064E+04  0.7818609E-02  0.8145293E-01
        2   -1    0    0  501    0  0.00000000000E+00  0.00000000000E+00  0.19202021644E+04  0.19202021644E+04  0.25500000920E-02 0.  1.
       -2   -1    0    0    0  501  0.00000000000E+00  0.00000000000E+00 -0.14786638630E+04  0.14786638630E+04  0.25500000920E-02 0. -1.
    10030    2    1    2    0    0  0.00000000000E+00  0.00000000000E+00  0.44153830135E+03  0.33988660274E+04  0.33700644208E+04 0.  0.
        4    1    3    3  502    0 -0.89524898737E+03  0.62827695763E+03  0.15135702340E+04  0.18673776134E+04  0.12699999809E+01 0.  1.
       -4    1    3    3    0  502  0.89524898737E+03 -0.62827695763E+03 -0.10720319326E+04  0.15314884140E+04  0.12699999809E+01 0. -1.
</event>
<event>
 5   0  0.1880301E-06  0.3390641E+04  0.7818609E-02  0.8140207E-01
       -2   -1    0    0    0  501  0.00000000000E+00  0.00000000000E+00  0.20249598524E+04  0.20249598524E+04  0.25500000920E-02 0.  1.
        2   -1    0    0  501    0  0.00000000000E+00  0.00000000000E+00 -0.14193423169E+04  0.14193423169E+04  0.25500000920E-02 0. -1.
    10030    2    1    2    0    0  0.00000000000E+00  0.00000000000E+00  0.60561753551E+03  0.34443021693E+04  0.33906407704E+04 0.  0.
        4    1    3    3  502    0  0.36300868728E+02 -0.31866079129E+01 -0.14189439503E+04  0.14194123624E+04  0.12699999809E+01 0. -1.
       -4    1    3    3    0  502 -0.36300868728E+02  0.31866079129E+01  0.20245614858E+04  0.20248898069E+04  0.12699999809E+01 0.  1.
</event>
<event>
 5   0  0.1880301E-06  0.3351032E+04  0.7818609E-02  0.8150030E-01
        2   -1    0    0  501    0  0.00000000000E+00  0.00000000000E+00  0.27920617923E+04  0.27920617923E+04  0.25500000920E-02 0. -1.
       -2   -1    0    0    0  501  0.00000000000E+00  0.00000000000E+00 -0.10054769340E+04  0.10054769340E+04  0.25500000920E-02 0.  1.
    10030    2    1    2    0    0  0.00000000000E+00  0.00000000000E+00  0.17865848584E+04  0.37975387263E+04  0.33510319189E+04 0.  0.
        4    1    3    3  502    0 -0.14013191832E+03  0.14492888011E+04 -0.46192016734E+02  0.14567807998E+04  0.12699999809E+01 0.  1.
       -4    1    3    3    0  502  0.14013191832E+03 -0.14492888011E+04  0.18327768751E+04  0.23407579265E+04  0.12699999809E+01 0. -1.
</event>
<event>
 5   0  0.6134625E-07  0.3393545E+04  0.7818609E-02  0.8139492E-01
       -1   -1    0    0    0  501  0.00000000000E+00  0.00000000000E+00  0.13788810709E+04  0.13788810709E+04  0.50400001928E-02 0.  1.
        1   -1    0    0  501    0  0.00000000000E+00  0.00000000000E+00 -0.20879514628E+04  0.20879514628E+04  0.50400001928E-02 0. -1.
    10030    2    1    2    0    0  0.00000000000E+00  0.00000000000E+00 -0.70907039194E+03  0.34668325337E+04  0.33935449011E+04 0.  0.
        5    1    3    3  502    0  0.51840346565E+03  0.15937998424E+04 -0.62496806647E+03  0.17887278343E+04  0.46999998093E+01 0. -1.
       -5    1    3    3    0  502 -0.51840346565E+03 -0.15937998424E+04 -0.84102325473E+02  0.16781046994E+04  0.46999998093E+01 0.  1.
</event>
<event>
 5   0  0.6134625E-07  0.2870117E+04  0.7818609E-02  0.8281824E-01
       -1   -1    0    0    0  501  0.00000000000E+00  0.00000000000E+00  0.10949836598E+04  0.10949836598E+04  0.50400001928E-02 0.  1.
        1   -1    0    0  501    0  0.00000000000E+00  0.00000000000E+00 -0.18807527436E+04  0.18807527436E+04  0.50400001928E-02 0. -1.
    10030    2    1    2    0    0  0.00000000000E+00  0.00000000000E+00 -0.78576908380E+03  0.29757364035E+04  0.28701174349E+04 0.  0.
        1    1    3    3  502    0 -0.14043218287E+04  0.27231108415E+03 -0.51164402189E+03  0.15192276755E+04  0.50400001928E-02 0. -1.
       -1    1    3    3    0  502  0.14043218287E+04 -0.27231108415E+03 -0.27412506191E+03  0.14565087279E+04  0.50400001928E-02 0.  1.
</event>
<event>
 5   0  0.6134625E-07  0.3382221E+04  0.7818609E-02  0.8142284E-01
       -1   -1    0    0    0  501  0.00000000000E+00  0.00000000000E+00  0.15148745916E+04  0.15148745916E+04  0.50400001928E-02 0.  1.
        1   -1    0    0  501    0  0.00000000000E+00  0.00000000000E+00 -0.18878488889E+04  0.18878488889E+04  0.50400001928E-02 0. -1.
    10030    2    1    2    0    0  0.00000000000E+00  0.00000000000E+00 -0.37297429727E+03  0.34027234805E+04  0.33822207583E+04 0.  0.
        5    1    3    3  502    0 -0.55171008198E+03  0.15733052549E+04  0.98352387561E+02  0.16701403300E+04  0.46999998093E+01 0.  1.
       -5    1    3    3    0  502  0.55171008198E+03 -0.15733052549E+04 -0.47132668483E+03  0.17325831505E+04  0.46999998093E+01 0. -1.
</event>
<event>
 5   0  0.1339844E-06  0.2692287E+04  0.7818609E-02  0.8337512E-01
        2   -1    0    0  501    0  0.00000000000E+00  0.00000000000E+00  0.23132669513E+04  0.23132669513E+04  0.25500000920E-02 0.  1.
       -2   -1    0    0    0  501  0.00000000000E+00  0.00000000000E+00 -0.78335209967E+03  0.78335209967E+03  0.25500000920E-02 0. -1.
    10030    2    1    2    0    0  0.00000000000E+00  0.00000000000E+00  0.15299148516E+04  0.30966190509E+04  0.26922871491E+04 0.  0.
        3    1    3    3  502    0 -0.80838806223E+03 -0.93759612408E+03  0.15685526533E+03  0.12478707207E+04  0.10100000352E+00 0. -1.
       -3    1    3    3    0  502  0.80838806223E+03  0.93759612408E+03  0.13730595863E+04  0.18487483303E+04  0.10100000352E+00 0.  1.
</event>
<event>
 5   0  0.6134625E-07  0.3401140E+04  0.7818609E-02  0.8137627E-01
        1   -1    0    0  501    0  0.00000000000E+00  0.00000000000E+00  0.21133557356E+04  0.21133557356E+04  0.50400001928E-02 0.  1.
       -1   -1    0    0    0  501  0.00000000000E+00  0.00000000000E+00 -0.13684105048E+04  0.13684105048E+04  0.50400001928E-02 0. -1.
    10030    2    1    2    0    0  0.00000000000E+00  0.00000000000E+00  0.74494523079E+03  0.34817662404E+04  0.34011399201E+04 0.  0.
        5    1    3    3  502    0  0.11698030266E+04  0.63510821038E+03 -0.71097103421E+03  0.15090737097E+04  0.46999998093E+01 0. -1.
       -5    1    3    3    0  502 -0.11698030266E+04 -0.63510821038E+03  0.14559162650E+04  0.19726925307E+04  0.46999998093E+01 0.  1.
</event>
<event>
 5   0  0.1948507E-06  0.3400995E+04  0.7818609E-02  0.8137662E-01
       -2   -1    0    0    0  501  0.00000000000E+00  0.00000000000E+00  0.11632076430E+04  0.11632076430E+04  0.25500000920E-02 0. -1.
        2   -1    0    0  501    0  0.00000000000E+00  0.00000000000E+00 -0.24859638625E+04  0.24859638625E+04  0.25500000920E-02 0.  1.
    10030    2    1    2    0    0  0.00000000000E+00  0.00000000000E+00 -0.13227562195E+04  0.36491715055E+04  0.34009952455E+04 0.  0.
        1    1    3    3  502    0  0.19028003967E+03  0.57075920308E+02  0.11507144222E+04  0.11677362012E+04  0.50400001928E-02 0. -1.
       -1    1    3    3    0  502 -0.19028003967E+03 -0.57075920308E+02 -0.24734706417E+04  0.24814353043E+04  0.50400001928E-02 0.  1.
</event>
<event>
 5   0  0.1911477E-06  0.3427648E+04  0.7818609E-02  0.8131154E-01
        2   -1    0    0  501    0  0.00000000000E+00  0.00000000000E+00  0.28855427131E+04  0.28855427131E+04  0.25500000920E-02 0.  1.
       -2   -1    0    0    0  501  0.00000000000E+00  0.00000000000E+00 -0.10178996778E+04  0.10178996778E+04  0.25500000920E-02 0. -1.
    10030    2    1    2    0    0  0.00000000000E+00  0.00000000000E+00  0.18676430353E+04  0.39034423909E+04  0.34276481722E+04 0.  0.
        5    1    3    3  502    0 -0.11270324193E+04 -0.60667471296E+03 -0.36408029819E+03  0.13307264314E+04  0.46999998093E+01 0. -1.
       -5    1    3    3    0  502  0.11270324193E+04  0.60667471296E+03  0.22317233334E+04  0.25727159596E+04  0.46999998093E+01 0.  1.
</event>
<event>
 5   0  0.6134625E-07  0.3440730E+04  0.7818609E-02  0.8127981E-01
        1   -1    0    0  501    0  0.00000000000E+00  0.00000000000E+00  0.32081500007E+04  0.32081500007E+04  0.50400001928E-02 0. -1.
       -1   -1    0    0    0  501  0.00000000000E+00  0.00000000000E+00 -0.92254308182E+03  0.92254308184E+03  0.50400001928E-02 0.  1.
    10030    2    1    2    0    0  0.00000000000E+00  0.00000000000E+00  0.22856069189E+04  0.41306930825E+04  0.34407304972E+04 0.  0.
        1    1    3    3  502    0 -0.15346770225E+04  0.72140776248E+03  0.14907368062E+04  0.22578660165E+04  0.50400001928E-02 0. -1.
       -1    1    3    3    0  502  0.15346770225E+04 -0.72140776248E+03  0.79487011271E+03  0.18728270660E+04  0.50400001928E-02 0.  1.
</event>
<event>
 5   0  0.1911477E-06  0.3347624E+04  0.7818609E-02  0.8150882E-01
       -2   -1    0    0    0  501  0.00000000000E+00  0.00000000000E+00  0.17548595935E+04  0.17548595935E+04  0.25500000920E-02 0. -1.
        2   -1    0    0  501    0  0.00000000000E+00  0.00000000000E+00 -0.15965073715E+04  0.15965073715E+04  0.25500000920E-02 0.  1.
    10030    2    1    2    0    0  0.00000000000E+00  0.00000000000E+00  0.15835222198E+03  0.33513669650E+04  0.33476238002E+04 0.  0.
        5    1    3    3  502    0  0.13918881710E+04 -0.61629324762E+03 -0.61762955433E+03  0.16427593872E+04  0.46999998093E+01 0.  1.
       -5    1    3    3    0  502 -0.13918881710E+04  0.61629324762E+03  0.77598177630E+03  0.17086075778E+04  0.46999998093E+01 0. -1.
</event>
<event>
 5   0  0.1339844E-06  0.3427429E+04  0.7818609E-02  0.8131207E-01
       -2   -1    0    0    0  501  0.00000000000E+00  0.00000000000E+00  0.16742635208E+04  0.16742635208E+04  0.25500000920E-02 0. -1.
        2   -1    0    0  501    0  0.00000000000E+00  0.00000000000E+00 -0.17540949221E+04  0.17540949221E+04  0.25500000920E-02 0.  1.
    10030    2    1    2    0    0  0.00000000000E+00  0.00000000000E+00 -0.79831401324E+02  0.34283584429E+04  0.34274288556E+04 0.  0.
        3    1    3    3  502    0 -0.30189999777E+03  0.10652340070E+04 -0.13483033516E+04  0.17446458198E+04  0.10100000352E+00 0.  1.
       -3    1    3    3    0  502  0.30189999777E+03 -0.10652340070E+04  0.12684719503E+04  0.16837126231E+04  0.10100000352E+00 0. -1.
</event>
<event>
 5   0  0.1911477E-06  0.3379542E+04  0.7818609E-02  0.8142946E-01
       -2   -1    0    0    0  501  0.00000000000E+00  0.00000000000E+00  0.10596505170E+04  0.10596505170E+04  0.25500000920E-02 0. -1.
        2   -1    0    0  501    0  0.00000000000E+00  0.00000000000E+00 -0.26945914986E+04  0.26945914986E+04  0.25500000920E-02 0.  1.
    10030    2    1    2    0    0  0.00000000000E+00  0.00000000000E+00 -0.16349409816E+04  0.37542420156E+04  0.33795415515E+04 0.  0.
        5    1    3    3  502    0  0.16265425831E+03 -0.71103601924E+03 -0.25106957689E+04  0.26145064472E+04  0.46999998093E+01 0.  1.
       -5    1    3    3    0  502 -0.16265425831E+03  0.71103601924E+03  0.87575478729E+03  0.11397355684E+04  0.46999998093E+01 0. -1.
</event>
<event>
 5   0  0.1797075E-06  0.3475298E+04  0.7818609E-02  0.8119669E-01
       -2   -1    0    0    0  501  0.00000000000E+00  0.00000000000E+00  0.15300081212E+04  0.15300081212E+04  0.25500000920E-02 0.  1.
        2   -1    0    0  501    0  0.00000000000E+00  0.00000000000E+00 -0.19734690266E+04  0.19734690266E+04  0.25500000920E-02 0. -1.
    10030    2    1    2    0    0  0.00000000000E+00  0.00000000000E+00 -0.44346090546E+03  0.35034771478E+04  0.34752977643E+04 0.  0.
        2    1    3    3  502    0 -0.15631470541E+04 -0.28366470468E+03 -0.93137671569E+03  0.18415637279E+04  0.25500000920E-02 0. -1.
       -2    1    3    3    0  502  0.15631470541E+04  0.28366470468E+03  0.48791581023E+03  0.16619134199E+04  0.25500000920E-02 0.  1.
</event>
<event>
 5   0  0.6134625E-07  0.3363923E+04  0.7818609E-02  0.8146818E-01
        1   -1    0    0  501    0  0.00000000000E+00  0.00000000000E+00  0.10935883624E+04  0.10935883624E+04  0.50400001928E-02 0.  1.
       -1   -1    0    0    0  501  0.00000000000E+00  0.00000000000E+00 -0.25868912559E+04  0.25868912559E+04  0.50400001928E-02 0. -1.
    10030    2    1    2    0    0  0.00000000000E+00  0.00000000000E+00 -0.14933028934E+04  0.36804796183E+04  0.33639228126E+04 0.  0.
        3    1    3    3  502    0 -0.15116442781E+03 -0.11665441585E+04  0.56869492556E+03  0.13065564996E+04  0.10100000352E+00 0.  1.
       -3    1    3    3    0  502  0.15116442781E+03  0.11665441585E+04 -0.20619978190E+04  0.23739231187E+04  0.10100000352E+00 0. -1.
</event>
<event>
 5   0  0.6146388E-07  0.3426325E+04  0.7818609E-02  0.8131475E-01
        1   -1    0    0  501    0  0.00000000000E+00  0.00000000000E+00  0.14231566374E+04  0.14231566374E+04  0.50400001928E-02 0. -1.
       -1   -1    0    0    0  501  0.00000000000E+00  0.00000000000E+00 -0.20622646084E+04  0.20622646084E+04  0.50400001928E-02 0.  1.
    10030    2    1    2    0    0  0.00000000000E+00  0.00000000000E+00 -0.63910797103E+03  0.34854212458E+04  0.34263248914E+04 0.  0.
        4    1    3    3  502    0  0.63086029136E+03  0.11870964782E+02 -0.19397580004E+04  0.20398010540E+04  0.12699999809E+01 0.  1.
       -4    1    3    3    0  502 -0.63086029136E+03 -0.11870964782E+02  0.13006500293E+04  0.14456201917E+04  0.12699999809E+01 0. -1.
</event>
<event>
 5   0  0.1880301E-06  0.3436202E+04  0.7818609E-02  0.8129078E-01
       -2   -1    0    0    0  501  0.00000000000E+00  0.00000000000E+00  0.12185955260E+04  0.12185955260E+04  0.25500000920E-02 0.  1.
        2   -1    0    0  501    0  0.00000000000E+00  0.00000000000E+00 -0.24223546909E+04  0.24223546909E+04  0.25500000920E-02 0. -1.
    10030    2    1    2    0    0  0.00000000000E+00  0.00000000000E+00 -0.12037591649E+04  0.36409502169E+04  0.34362017337E+04 0.  0.
        4    1    3    3  502    0 -0.23839078101E+02 -0.23070074731E+02  0.12182556380E+04  0.12187078987E+04  0.12699999809E+01 0.  1.
       -4    1    3    3    0  502  0.23839078101E+02  0.23070074731E+02 -0.24220148028E+04  0.24222423182E+04  0.12699999809E+01 0. -1.
</event>
<event>
 5   0  0.1339844E-06  0.3419827E+04  0.7818609E-02  0.8133057E-01
        2   -1    0    0  501    0  0.00000000000E+00  0.00000000000E+00  0.16977113548E+04  0.16977113548E+04  0.25500000920E-02 0.  1.
       -2   -1    0    0    0  501  0.00000000000E+00  0.00000000000E+00 -0.17222031134E+04  0.17222031134E+04  0.25500000920E-02 0. -1.
    10030    2    1    2    0    0  0.00000000000E+00  0.00000000000E+00 -0.24491758548E+02  0.34199144682E+04  0.34198267680E+04 0.  0.
        3    1    3    3  502    0  0.10538439970E+04 -0.62145175708E+02 -0.13574028885E+04  0.17195905922E+04  0.10100000352E+00 0. -1.
       -3    1    3    3    0  502 -0.10538439970E+04  0.62145175708E+02  0.13329111299E+04  0.17003238760E+04  0.10100000352E+00 0.  1.
</event>
<event>
 5   0  0.1911477E-06  0.3333269E+04  0.7818609E-02  0.8154481E-01
        2   -1    0    0  501    0  0.00000000000E+00  0.00000000000E+00  0.17143255432E+04  0.17143255432E+04  0.25500000920E-02 0. -1.
       -2   -1    0    0    0  501  0.00000000000E+00  0.00000000000E+00 -0.16202697181E+04  0.16202697181E+04  0.25500000920E-02 0.  1.
    10030    2    1    2    0    0  0.00000000000E+00  0.00000000000E+00  0.94055825103E+02  0.33345952614E+04  0.33332685249E+04 0.  0.
        5    1    3    3  502    0  0.88064516845E+01  0.37280974515E+03 -0.15779902094E+04  0.16214622569E+04  0.46999998093E+01 0.  1.
       -5    1    3    3    0  502 -0.88064516845E+01 -0.37280974515E+03  0.16720460345E+04  0.17131330045E+04  0.46999998093E+01 0. -1.
</event>
<event>
 5   0  0.6218695E-07  0.3435143E+04  0.7818609E-02  0.8129335E-01
       -1   -1    0    0    0  501  0.00000000000E+00  0.00000000000E+00  0.10647619338E+04  0.10647619338E+04  0.50400001928E-02 0.  1.
        1   -1    0    0  501    0  0.00000000000E+00  0.00000000000E+00 -0.27706207492E+04  0.27706207492E+04  0.50400001928E-02 0. -1.
    10030    2    1    2    0    0  0.00000000000E+00  0.00000000000E+00 -0.17058588154E+04  0.38353826831E+04  0.34351427958E+04 0.  0.
        2    1    3    3  502    0 -0.76778875378E+03 -0.11025764858E+04 -0.20475866740E+04  0.24490377019E+04  0.25500000920E-02 0. -1.
       -2    1    3    3    0  502  0.76778875378E+03  0.11025764858E+04  0.34172785863E+03  0.13863449812E+04  0.25500000920E-02 0.  1.
</event>
<event>
 5   0  0.6146388E-07  0.3388281E+04  0.7818609E-02  0.8140789E-01
       -1   -1    0    0    0  501  0.00000000000E+00  0.00000000000E+00  0.15459134654E+04  0.15459134654E+04  0.50400001928E-02 0.  1.
        1   -1    0    0  501    0  0.00000000000E+00  0.00000000000E+00 -0.18565795295E+04  0.18565795295E+04  0.50400001928E-02 0. -1.
    10030    2    1    2    0    0  0.00000000000E+00  0.00000000000E+00 -0.31066606418E+03  0.34024929949E+04  0.33882805635E+04 0.  0.
        4    1    3    3  502    0  0.52788901134E+03 -0.41268441219E+02  0.14606840230E+04  0.15536953757E+04  0.12699999809E+01 0.  1.
       -4    1    3    3    0  502 -0.52788901134E+03  0.41268441219E+02 -0.17713500872E+04  0.18487976192E+04  0.12699999809E+01 0. -1.
</event>
<event>
 5   0  0.6134625E-07  0.3376341E+04  0.7818609E-02  0.8143737E-01
       -1   -1    0    0    0  501  0.00000000000E+00  0.00000000000E+00  0.13832559090E+04  0.13832559090E+04  0.50400001928E-02 0. -1.
        1   -1    0    0  501    0  0.00000000000E+00  0.00000000000E+00 -0.20602983989E+04  0.20602983990E+04  0.50400001928E-02 0.  1.
    10030    2    1    2    0    0  0.00000000000E+00  0.00000000000E+00 -0.67704248993E+03  0.34435543080E+04  0.33763411763E+04 0.  0.
        5    1    3    3  502    0  0.12278309638E+04  0.88451759429E+03  0.42467843738E+03  0.15717232948E+04  0.46999998093E+01 0. -1.
       -5    1    3    3    0  502 -0.12278309638E+04 -0.88451759429E+03 -0.11017209273E+04  0.18718310132E+04  0.46999998093E+01 0.  1.
</event>
<event>
 5   0  0.6134625E-07  0.3440035E+04  0.7818609E-02  0.8128150E-01
       -1   -1    0    0    0  501  0.00000000000E+00  0.00000000000E+00  0.12299227991E+04  0.12299227991E+04  0.50400001928E-02 0. -1.
        1   -1    0    0  501    0  0.00000000000E+00  0.00000000000E+00 -0.24054035088E+04  0.24054035088E+04  0.50400001928E-02 0.  1.
    10030    2    1    2    0    0  0.00000000000E+00  0.00000000000E+00 -0.11754807097E+04  0.36353263078E+04  0.34400352419E+04 0.  0.
        1    1    3    3  502    0  0.12644001429E+04 -0.95972024885E+03 -0.12876779882E+04  0.20439875926E+04  0.50400001928E-02 0.  1.
       -1    1    3    3    0  502 -0.12644001429E+04  0.95972024885E+03  0.11219727850E+03  0.15913387153E+04  0.50400001928E-02 0. -1.
</event>
<event>
 5   0  0.1948507E-06  0.3269821E+04  0.7818609E-02  0.8170617E-01
       -2   -1    0    0    0  501  0.00000000000E+00  0.00000000000E+00  0.20272857421E+04  0.20272857421E+04  0.25500000920E-02 0.  1.
        2   -1    0    0  501    0  0.00000000000E+00  0.00000000000E+00 -0.13184785026E+04  0.13184785026E+04  0.25500000920E-02 0. -1.
    10030    2    1    2    0    0  0.00000000000E+00  0.00000000000E+00  0.70880723948E+03  0.33457642448E+04  0.32698211998E+04 0.  0.
        1    1    3    3  502    0 -0.42916609527E+03 -0.15569278335E+04  0.61472322013E+03  0.17280313809E+04  0.50400001928E-02 0. -1.
       -1    1    3    3    0  502  0.42916609527E+03  0.15569278335E+04  0.94084019354E+02  0.16177328638E+04  0.50400001928E-02 0.  1.
</event>
<event>
 5   0  0.6134625E-07  0.3459543E+04  0.7818609E-02  0.8123445E-01
        1   -1    0    0  501    0  0.00000000000E+00  0.00000000000E+00  0.22369514324E+04  0.22369514324E+04  0.50400001928E-02 0. -1.
       -1   -1    0    0    0  501  0.00000000000E+00  0.00000000000E+00 -0.13375836271E+04  0.13375836271E+04  0.50400001928E-02 0.  1.
    10030    2    1    2    0    0  0.00000000000E+00  0.00000000000E+00  0.89936780531E+03  0.35745350596E+04  0.34595430974E+04 0.  0.
        3    1    3    3  502    0  0.29108744205E+03 -0.61512644171E+03 -0.11934576817E+04  0.13738463111E+04  0.10100000352E+00 0.  1.
       -3    1    3    3    0  502 -0.29108744205E+03  0.61512644171E+03  0.20928254870E+04  0.22006887485E+04  0.10100000352E+00 0. -1.
</event>
<event>
 5   0  0.6134625E-07  0.3344792E+04  0.7818609E-02  0.8151591E-01
        1   -1    0    0  501    0  0.00000000000E+00  0.00000000000E+00  0.16882777530E+04  0.16882777530E+04  0.50400001928E-02 0.  1.
       -1   -1    0    0    0  501  0.00000000000E+00  0.00000000000E+00 -0.16566640919E+04  0.16566640919E+04  0.50400001928E-02 0. -1.
    10030    2    1    2    0    0  0.00000000000E+00  0.00000000000E+00  0.31613661119E+02  0.33449418450E+04  0.33447924484E+04 0.  0.
        1    1    3    3  502    0  0.16119717087E+04  0.33180462170E+03 -0.28146396766E+03  0.16696613614E+04  0.50400001928E-02 0.  1.
       -1    1    3    3    0  502 -0.16119717087E+04 -0.33180462170E+03  0.31307762878E+03  0.16752804835E+04  0.50400001928E-02 0. -1.
</event>
<event>
 5   0  0.6134625E-07  0.3285303E+04  0.7818609E-02  0.8166645E-01
       -1   -1    0    0    0  501  0.00000000000E+00  0.00000000000E+00  0.16949692192E+04  0.16949692192E+04  0.50400001928E-02 0.  1.
        1   -1    0    0  501    0  0.00000000000E+00  0.00000000000E+00 -0.15919484817E+04  0.15919484817E+04  0.50400001928E-02 0. -1.
    10030    2    1    2    0    0  0.00000000000E+00  0.00000000000E+00  0.10302073756E+03  0.32869177009E+04  0.32853028324E+04 0.  0.
        1    1    3    3  502    0 -0.16273510759E+04  0.10465530682E+03  0.24929268722E+03  0.16496578740E+04  0.50400001928E-02 0.  1.
       -1    1    3    3    0  502  0.16273510759E+04 -0.10465530682E+03 -0.14627194966E+03  0.16372598269E+04  0.50400001928E-02 0. -1.
</event>
<event>
 5   0  0.6218695E-07  0.3429079E+04  0.7818609E-02  0.8130806E-01
        1   -1    0    0  501    0  0.00000000000E+00  0.00000000000E+00  0.14883738461E+04  0.14883738461E+04  0.50400001928E-02 0. -1.
       -1   -1    0    0    0  501  0.00000000000E+00  0.00000000000E+00 -0.19750721155E+04  0.19750721156E+04  0.50400001928E-02 0.  1.
    10030    2    1    2    0    0  0.00000000000E+00  0.00000000000E+00 -0.48669826944E+03  0.34634459617E+04  0.34290789906E+04 0.  0.
        2    1    3    3  502    0 -0.12913888394E+04 -0.10261761505E+04  0.22923232139E+03  0.16653138093E+04  0.25500000920E-02 0. -1.
       -2    1    3    3    0  502  0.12913888394E+04  0.10261761505E+04 -0.71593059083E+03  0.17981321523E+04  0.25500000920E-02 0.  1.
</event>
<event>
 5   0  0.6134625E-07  0.3374265E+04  0.7818609E-02  0.8144252E-01
        1   -1    0    0  501    0  0.00000000000E+00  0.00000000000E+00  0.98849444116E+03  0.98849444118E+03  0.50400001928E-02 0. -1.
       -1   -1    0    0    0  501  0.00000000000E+00  0.00000000000E+00 -0.28795468293E+04  0.28795468293E+04  0.50400001928E-02 0.  1.
    10030    2    1    2    0    0  0.00000000000E+00  0.00000000000E+00 -0.18910523882E+04  0.38680412705E+04  0.33742649771E+04 0.  0.
        3    1    3    3  502    0 -0.22027543661E+03 -0.13612320327E+04 -0.20598579735E+04  0.24788079385E+04  0.10100000352E+00 0. -1.
       -3    1    3    3    0  502  0.22027543661E+03  0.13612320327E+04  0.16880558531E+03  0.13892333320E+04  0.10100000352E+00 0.  1.
</event>
<event>
 5   0  0.1948507E-06  0.3414729E+04  0.7818609E-02  0.8134301E-01
        2   -1    0    0  501    0  0.00000000000E+00  0.00000000000E+00  0.22012580085E+04  0.22012580085E+04  0.25500000920E-02 0.  1.
       -2   -1    0    0    0  501  0.00000000000E+00  0.00000000000E+00 -0.13242853316E+04  0.13242853316E+04  0.25500000920E-02 0. -1.
    10030    2    1    2    0    0  0.00000000000E+00  0.00000000000E+00  0.87697267689E+03  0.35255433401E+04  0.34147290913E+04 0.  0.
        1    1    3    3  502    0 -0.75411640193E+03  0.12978505337E+04  0.12785152828E+04  0.19717273858E+04  0.50400001928E-02 0.  1.
       -1    1    3    3    0  502  0.75411640193E+03 -0.12978505337E+04 -0.40154260588E+03  0.15538159543E+04  0.50400001928E-02 0. -1.
</event>
<event>
 5   0  0.1339844E-06  0.2957639E+04  0.7818609E-02  0.8255932E-01
        2   -1    0    0  501    0  0.00000000000E+00  0.00000000000E+00  0.34630512036E+04  0.34630512036E+04  0.25500000920E-02 0. -1.
       -2   -1    0    0    0  501  0.00000000000E+00  0.00000000000E+00 -0.63149709084E+03  0.63149709084E+03  0.25500000920E-02 0.  1.
    10030    2    1    2    0    0  0.00000000000E+00  0.00000000000E+00  0.28315541127E+04  0.40945482944E+04  0.29576387612E+04 0.  0.
        3    1    3    3  502    0 -0.38980148801E+03  0.46793055229E+03  0.32813794723E+04  0.33374174826E+04  0.10100000352E+00 0. -1.
       -3    1    3    3    0  502  0.38980148801E+03 -0.46793055229E+03 -0.44982535959E+03  0.75713081178E+03  0.10100000352E+00 0.  1.
</event>
<event>
 5   0  0.6134625E-07  0.3326998E+04  0.7818609E-02  0.8156059E-01
       -1   -1    0    0    0  501  0.00000000000E+00  0.00000000000E+00  0.14991866631E+04  0.14991866631E+04  0.50400001928E-02 0. -1.
        1   -1    0    0  501    0  0.00000000000E+00  0.00000000000E+00 -0.18458203041E+04  0.18458203041E+04  0.50400001928E-02 0.  1.
    10030    2    1    2    0    0  0.00000000000E+00  0.00000000000E+00 -0.34663364099E+03  0.33450069671E+04  0.33269981559E+04 0.  0.
        1    1    3    3  502    0  0.16188595807E+04  0.14757524400E+03 -0.52842033798E+03  0.17093018599E+04  0.50400001928E-02 0.  1.
       -1    1    3    3    0  502 -0.16188595807E+04 -0.14757524400E+03  0.18178669700E+03  0.16357051072E+04  0.50400001928E-02 0. -1.
</event>
<event>
 5   0  0.1911477E-06  0.3401782E+04  0.7818609E-02  0.8137469E-01
        2   -1    0    0  501    0  0.00000000000E+00  0.00000000000E+00  0.17543446178E+04  0.17543446178E+04  0.25500000920E-02 0.  1.
       -2   -1    0    0    0  501  0.00000000000E+00  0.00000000000E+00 -0.16490664572E+04  0.16490664572E+04  0.25500000920E-02 0. -1.
    10030    2    1    2    0    0  0.00000000000E+00  0.00000000000E+00  0.10527816053E+03  0.34034110750E+04  0.34017823938E+04 0.  0.
        5    1    3    3  502    0  0.15222132357E+04 -0.21819328267E+03 -0.67452891362E+03  0.16792119547E+04  0.46999998093E+01 0. -1.
       -5    1    3    3    0  502 -0.15222132357E+04  0.21819328267E+03  0.77980707415E+03  0.17241991203E+04  0.46999998093E+01 0.  1.
</event>
<event>
 5   0  0.6218695E-07  0.3359692E+04  0.7818609E-02  0.8147871E-01
       -1   -1    0    0    0  501  0.00000000000E+00  0.00000000000E+00  0.21164911497E+04  0.21164911497E+04  0.50400001928E-02 0.  1.
        1   -1    0    0  501    0  0.00000000000E+00  0.00000000000E+00 -0.13332832828E+04  0.13332832828E+04  0.50400001928E-02 0. -1.
    10030    2    1    2    0    0  0.00000000000E+00  0.00000000000E+00  0.78320786688E+03  0.34497744325E+04  0.33596918121E+04 0.  0.
        2    1    3    3  502    0 -0.50703384532E+03  0.25866310680E+03 -0.12312450834E+04  0.13564491802E+04  0.25500000920E-02 0. -1.
       -2    1    3    3    0  502  0.50703384532E+03 -0.25866310680E+03  0.20144529503E+04  0.20933252523E+04  0.25500000920E-02 0.  1.
</event>
<event>
 5   0  0.6218695E-07  0.3403307E+04  0.7818609E-02  0.8137095E-01
        1   -1    0    0  501    0  0.00000000000E+00  0.00000000000E+00  0.29948662875E+04  0.29948662875E+04  0.50400001928E-02 0.  1.
       -1   -1    0    0    0  501  0.00000000000E+00  0.00000000000E+00 -0.96686255318E+03  0.96686255320E+03  0.50400001928E-02 0. -1.
    10030    2    1    2    0    0  0.00000000000E+00  0.00000000000E+00  0.20280037343E+04  0.39617288407E+04  0.34033066657E+04 0.  0.
        2    1    3    3  502    0 -0.16341700882E+03 -0.13007359090E+04 -0.24890936052E+03  0.13343818394E+04  0.25500000920E-02 0. -1.
       -2    1    3    3    0  502  0.16341700882E+03  0.13007359090E+04  0.22769130948E+04  0.26273470013E+04  0.25500000920E-02 0.  1.
</event>
<event>
 5   0  0.6134625E-07  0.3407351E+04  0.7818609E-02  0.8136105E-01
       -1   -1    0    0    0  501  0.00000000000E+00  0.00000000000E+00  0.10950504940E+04  0.10950504940E+04  0.50400001928E-02 0.  1.
        1   -1    0    0  501    0  0.00000000000E+00  0.00000000000E+00 -0.26505716508E+04  0.26505716508E+04  0.50400001928E-02 0. -1.
    10030    2    1    2    0    0  0.00000000000E+00  0.00000000000E+00 -0.15555211568E+04  0.37456221449E+04  0.34073507572E+04 0.  0.
        1    1    3    3  502    0  0.71219343295E+03 -0.11026125206E+04  0.41612501124E+03  0.13770017725E+04  0.50400001928E-02 0.  1.
       -1    1    3    3    0  502 -0.71219343295E+03  0.11026125206E+04 -0.19716461680E+04  0.23686203724E+04  0.50400001928E-02 0. -1.
</event>
<event>
 5   0  0.6134625E-07  0.3380428E+04  0.7818609E-02  0.8142727E-01
        1   -1    0    0  501    0  0.00000000000E+00  0.00000000000E+00  0.17459619079E+04  0.17459619079E+04  0.50400001928E-02 0. -1.
       -1   -1    0    0    0  501  0.00000000000E+00  0.00000000000E+00 -0.16362458913E+04  0.16362458913E+04  0.50400001928E-02 0.  1.
    10030    2    1    2    0    0  0.00000000000E+00  0.00000000000E+00  0.10971601663E+03  0.33822077992E+04  0.33804277825E+04 0.  0.
        3    1    3    3  502    0 -0.12847599048E+04 -0.10705165397E+04 -0.19064705943E+03  0.16831399188E+04  0.10100000352E+00 0.  1.
       -3    1    3    3    0  502  0.12847599048E+04  0.10705165397E+04  0.30036307606E+03  0.16990678804E+04  0.10100000352E+00 0. -1.
</event>
<event>
 5   0  0.1911477E-06  0.3207303E+04  0.7818609E-02  0.8186891E-01
       -2   -1    0    0    0  501  0.00000000000E+00  0.00000000000E+00  0.21536601224E+04  0.21536601224E+04  0.25500000920E-02 0.  1.
        2   -1    0    0  501    0  0.00000000000E+00  0.00000000000E+00 -0.11941060168E+04  0.11941060168E+04  0.25500000920E-02 0. -1.
    10030    2    1    2    0    0  0.00000000000E+00  0.00000000000E+00  0.95955410559E+03  0.33477661391E+04  0.32073032349E+04 0.  0.
        5    1    3    3  502    0  0.25435961329E+03 -0.10482661863E+04 -0.75883199060E+03  0.13188665172E+04  0.46999998093E+01 0. -1.
       -5    1    3    3    0  502 -0.25435961329E+03  0.10482661863E+04  0.17183860962E+04  0.20288996219E+04  0.46999998093E+01 0.  1.
</event>
<event>
 5   0  0.1880301E-06  0.3440448E+04  0.7818609E-02  0.8128050E-01
        2   -1    0    0  501    0  0.00000000000E+00  0.00000000000E+00  0.20478632689E+04  0.20478632689E+04  0.25500000920E-02 0. -1.
       -2   -1    0    0    0  501  0.00000000000E+00  0.00000000000E+00 -0.14450038460E+04  0.14450038460E+04  0.25500000920E-02 0.  1.
    10030    2    1    2    0    0  0.00000000000E+00  0.00000000000E+00  0.60285942284E+03  0.34928671149E+04  0.34404478195E+04 0.  0.
        4    1    3    3  502    0 -0.50378927842E+03 -0.13177256989E+04  0.13007873035E+04  0.19189199766E+04  0.12699999809E+01 0. -1.
       -4    1    3    3    0  502  0.50378927842E+03  0.13177256989E+04 -0.69792788066E+03  0.15739471383E+04  0.12699999809E+01 0.  1.
</event>
<event>
 5   0  0.6134625E-07  0.3399166E+04  0.7818609E-02  0.8138111E-01
        1   -1    0    0  501    0  0.00000000000E+00  0.00000000000E+00  0.22487088518E+04  0.22487088518E+04  0.50400001928E-02 0.  1.
       -1   -1    0    0    0  501  0.00000000000E+00  0.00000000000E+00 -0.12845514964E+04  0.12845514964E+04  0.50400001928E-02 0. -1.
    10030    2    1    2    0    0  0.00000000000E+00  0.00000000000E+00  0.96415735543E+03  0.35332603482E+04  0.33991659686E+04 0.  0.
        5    1    3    3  502    0 -0.87294999444E+03  0.15207872599E+03 -0.10254418471E+04  0.13552574307E+04  0.46999998093E+01 0. -1.
       -5    1    3    3    0  502  0.87294999444E+03 -0.15207872599E+03  0.19895992025E+04  0.21780029174E+04  0.46999998093E+01 0.  1.
</event>
<event>
 5   0  0.6134625E-07  0.2642922E+04  0.7818609E-02  0.8353766E-01
       -1   -1    0    0    0  501  0.00000000000E+00  0.00000000000E+00  0.12984647156E+04  0.12984647156E+04  0.50400001928E-02 0. -1.
        1   -1    0    0  501    0  0.00000000000E+00  0.00000000000E+00 -0.13448647004E+04  0.13448647004E+04  0.50400001928E-02 0.  1.
    10030    2    1    2    0    0  0.00000000000E+00  0.00000000000E+00 -0.46399984816E+02  0.26433294160E+04  0.26429221409E+04 0.  0.
        5    1    3    3  502    0  0.94931051098E+03  0.84714161587E+03  0.33378344461E+03  0.13153983585E+04  0.46999998093E+01 0.  1.
       -5    1    3    3    0  502 -0.94931051098E+03 -0.84714161587E+03 -0.38018342942E+03  0.13279310575E+04  0.46999998093E+01 0. -1.
</event>
<event>
 5   0  0.1948507E-06  0.3471540E+04  0.7818609E-02  0.8120568E-01
        2   -1    0    0  501    0  0.00000000000E+00  0.00000000000E+00  0.18111372261E+04  0.18111372261E+04  0.25500000920E-02 0. -1.
       -2   -1    0    0    0  501  0.00000000000E+00  0.00000000000E+00 -0.16635392704E+04  0.16635392704E+04  0.25500000920E-02 0.  1.
    10030    2    1    2    0    0  0.00000000000E+00  0.00000000000E+00  0.14759795571E+03  0.34746764964E+04  0.34715402343E+04 0.  0.
        1    1    3    3  502    0 -0.75927438027E+03 -0.15321171234E+04 -0.22482846293E+03  0.17246530961E+04  0.50400001928E-02 0. -1.
       -1    1    3    3    0  502  0.75927438027E+03  0.15321171234E+04  0.37242641864E+03  0.17500234003E+04  0.50400001928E-02 0.  1.
</event>
<event>
 5   0  0.1880301E-06  0.3384325E+04  0.7818609E-02  0.8141764E-01
       -2   -1    0    0    0  501  0.00000000000E+00  0.00000000000E+00  0.18896815322E+04  0.18896815322E+04  0.25500000920E-02 0. -1.
        2   -1    0    0  501    0  0.00000000000E+00  0.00000000000E+00 -0.15152892973E+04  0.15152892973E+04  0.25500000920E-02 0.  1.
    10030    2    1    2    0    0  0.00000000000E+00  0.00000000000E+00  0.37439223491E+03  0.34049708295E+04  0.33843251623E+04 0.  0.
        4    1    3    3  502    0  0.41291270104E+03 -0.60128057168E+03 -0.13490033154E+04  0.15335732074E+04  0.12699999809E+01 0.  1.
       -4    1    3    3    0  502 -0.41291270104E+03  0.60128057168E+03  0.17233955503E+04  0.18713976221E+04  0.12699999809E+01 0. -1.
</event>
<event>
 5   0  0.1880301E-06  0.3374343E+04  0.7818609E-02  0.8144232E-01
        2   -1    0    0  501    0  0.00000000000E+00  0.00000000000E+00  0.97388511884E+03  0.97388511885E+03  0.25500000920E-02 0. -1.
       -2   -1    0    0    0  501  0.00000000000E+00  0.00000000000E+00 -0.29228785757E+04  0.29228785757E+04  0.25500000920E-02 0.  1.
    10030    2    1    2    0    0  0.00000000000E+00  0.00000000000E+00 -0.19489934569E+04  0.38967636945E+04  0.33743431652E+04 0.  0.
        4    1    3    3  502    0 -0.25702065002E+03  0.13059990504E+04 -0.21717592839E+04  0.25472010392E+04  0.12699999809E+01 0.  1.
       -4    1    3    3    0  502  0.25702065002E+03 -0.13059990504E+04  0.22276582702E+03  0.13495626553E+04  0.12699999809E+01 0. -1.
</event>
<event>
 5   0  0.6146388E-07  0.2962457E+04  0.7818609E-02  0.8254533E-01
       -1   -1    0    0    0  501  0.00000000000E+00  0.00000000000E+00  0.12000783948E+04  0.12000783948E+04  0.50400001928E-02 0.  1.
        1   -1    0    0  501    0  0.00000000000E+00  0.00000000000E+00 -0.18282454124E+04  0.18282454124E+04  0.50400001928E-02 0. -1.
    10030    2    1    2    0    0  0.00000000000E+00  0.00000000000E+00 -0.62816701760E+03  0.30283238073E+04  0.29624569667E+04 0.  0.
        4    1    3    3  502    0  0.10447113204E+03  0.14768683313E+04 -0.35959211096E+03  0.15236017802E+04  0.12699999809E+01 0.  1.
       -4    1    3    3    0  502 -0.10447113204E+03 -0.14768683313E+04 -0.26857490664E+03  0.15047220271E+04  0.12699999809E+01 0. -1.
</event>
<event>
 5   0  0.6134625E-07  0.3300307E+04  0.7818609E-02  0.8162817E-01
        1   -1    0    0  501    0  0.00000000000E+00  0.00000000000E+00  0.21047919521E+04  0.21047919522E+04  0.50400001928E-02 0. -1.
       -1   -1    0    0    0  501  0.00000000000E+00  0.00000000000E+00 -0.12937179586E+04  0.12937179586E+04  0.50400001928E-02 0.  1.
    10030    2    1    2    0    0  0.00000000000E+00  0.00000000000E+00  0.81107399351E+03  0.33985099108E+04  0.33003073479E+04 0.  0.
        3    1    3    3  502    0  0.59850233736E+03  0.11196335702E+04  0.14910492198E+04  0.19583187089E+04  0.10100000352E+00 0. -1.
       -3    1    3    3    0  502 -0.59850233736E+03 -0.11196335702E+04 -0.67997522633E+03  0.14401912019E+04  0.10100000352E+00 0.  1.
</event>
<event>
 5   0  0.6134625E-07  0.3375558E+04  0.7818609E-02  0.8143931E-01
        1   -1    0    0  501    0  0.00000000000E+00  0.00000000000E+00  0.14984885727E+04  0.14984885727E+04  0.50400001928E-02 0. -1.
       -1   -1    0    0    0  501  0.00000000000E+00  0.00000000000E+00 -0.19009802287E+04  0.19009802287E+04  0.50400001928E-02 0.  1.
    10030    2    1    2    0    0  0.00000000000E+00  0.00000000000E+00 -0.40249165600E+03  0.33994688015E+04  0.33755575242E+04 0.  0.
        1    1    3    3  502    0 -0.26498840786E+03 -0.49442057041E+02 -0.18791613710E+04  0.18983969110E+04  0.50400001928E-02 0.  1.
       -1    1    3    3    0  502  0.26498840786E+03  0.49442057041E+02  0.14766697150E+04  0.15010718905E+04  0.50400001928E-02 0. -1.
</event>
<event>
 5   0  0.1880301E-06  0.3481795E+04  0.7818609E-02  0.8118118E-01
       -2   -1    0    0    0  501  0.00000000000E+00  0.00000000000E+00  0.13456463589E+04  0.13456463589E+04  0.25500000920E-02 0. -1.
        2   -1    0    0  501    0  0.00000000000E+00  0.00000000000E+00 -0.22522444500E+04  0.22522444500E+04  0.25500000920E-02 0.  1.
    10030    2    1    2    0    0  0.00000000000E+00  0.00000000000E+00 -0.90659809105E+03  0.35978908089E+04  0.34817952516E+04 0.  0.
        4    1    3    3  502    0  0.33655767825E+03 -0.11250162137E+04 -0.17813728677E+04  0.21335940239E+04  0.12699999809E+01 0.  1.
       -4    1    3    3    0  502 -0.33655767825E+03  0.11250162137E+04  0.87477477669E+03  0.14642967850E+04  0.12699999809E+01 0. -1.
</event>
<event>
 5   0  0.6146388E-07  0.3381221E+04  0.7818609E-02  0.8142531E-01
        1   -1    0    0  501    0  0.00000000000E+00  0.00000000000E+00  0.18452601552E+04  0.18452601552E+04  0.50400001928E-02 0.  1.
       -1   -1    0    0    0  501  0.00000000000E+00  0.00000000000E+00 -0.15489215702E+04  0.15489215702E+04  0.50400001928E-02 0. -1.
    10030    2    1    2    0    0  0.00000000000E+00  0.00000000000E+00  0.29633858507E+03  0.33941817254E+04  0.33812206417E+04 0.  0.
        4    1    3    3  502    0 -0.13200484639E+04 -0.83316696739E+03 -0.50352378880E+03  0.16401929647E+04  0.12699999809E+01 0. -1.
       -4    1    3    3    0  502  0.13200484639E+04  0.83316696739E+03  0.79986237387E+03  0.17539887607E+04  0.12699999809E+01 0.  1.
</event>
<event>
 5   0  0.6134625E-07  0.3362360E+04  0.7818609E-02  0.8147207E-01
       -3   -1    0    0    0  501  0.00000000000E+00  0.00000000000E+00  0.22535719799E+04  0.22535719822E+04  0.10100000352E+00 0.  1.
        3   -1    0    0  501    0  0.00000000000E+00  0.00000000000E+00 -0.12541716471E+04  0.12541716512E+04  0.10100000352E+00 0. -1.
    10030    2    1    2    0    0  0.00000000000E+00  0.00000000000E+00  0.99940033286E+03  0.35077436334E+04  0.33623599409E+04 0.  0.
        4    1    3    3  502    0 -0.14763532955E+04  0.11927691066E+03  0.13293985418E+04  0.19902633319E+04  0.12699999809E+01 0.  1.
       -4    1    3    3    0  502  0.14763532955E+04 -0.11927691066E+03 -0.32999820892E+03  0.15174803015E+04  0.12699999809E+01 0. -1.
</event>
<event>
 5   0  0.1948507E-06  0.3375089E+04  0.7818609E-02  0.8144047E-01
       -2   -1    0    0    0  501  0.00000000000E+00  0.00000000000E+00  0.16270945806E+04  0.16270945806E+04  0.25500000920E-02 0.  1.
        2   -1    0    0  501    0  0.00000000000E+00  0.00000000000E+00 -0.17502405729E+04  0.17502405729E+04  0.25500000920E-02 0. -1.
    10030    2    1    2    0    0  0.00000000000E+00  0.00000000000E+00 -0.12314599236E+03  0.33773351535E+04  0.33750893031E+04 0.  0.
        1    1    3    3  502    0  0.76209921539E+03  0.14949705322E+04  0.11764068976E+03  0.16821330026E+04  0.50400001928E-02 0. -1.
       -1    1    3    3    0  502 -0.76209921539E+03 -0.14949705322E+04 -0.24078668213E+03  0.16952021510E+04  0.50400001928E-02 0.  1.
</event>
<event>
 5   0  0.6134625E-07  0.3402781E+04  0.7818609E-02  0.8137224E-01
        1   -1    0    0  501    0  0.00000000000E+00  0.00000000000E+00  0.21328293861E+04  0.21328293861E+04  0.50400001928E-02 0. -1.
       -1   -1    0    0    0  501  0.00000000000E+00  0.00000000000E+00 -0.13572252457E+04  0.13572252457E+04  0.50400001928E-02 0.  1.
    10030    2    1    2    0    0  0.00000000000E+00  0.00000000000E+00  0.77560414041E+03  0.34900546319E+04  0.34027811494E+04 0.  0.
        3    1    3    3  502    0  0.33875476930E+03  0.95447396748E+03 -0.10143579331E+04  0.14334215622E+04  0.10100000352E+00 0.  1.
       -3    1    3    3    0  502 -0.33875476930E+03 -0.95447396748E+03  0.17899620735E+04  0.20566330697E+04  0.10100000352E+00 0. -1.
</event>
<event>
 5   0  0.1339844E-06  0.3386128E+04  0.7818609E-02  0.8141319E-01
       -2   -1    0    0    0  501  0.00000000000E+00  0.00000000000E+00  0.17166266297E+04  0.17166266297E+04  0.25500000920E-02 0. -1.
        2   -1    0    0  501    0  0.00000000000E+00  0.00000000000E+00 -0.16698249844E+04  0.16698249844E+04  0.25500000920E-02 0.  1.
    10030    2    1    2    0    0  0.00000000000E+00  0.00000000000E+00  0.46801645347E+02  0.33864516141E+04  0.33861281932E+04 0.  0.
        3    1    3    3  502    0 -0.10700271387E+04 -0.12844977778E+04  0.29095844153E+03  0.16969235232E+04  0.10100000352E+00 0.  1.
       -3    1    3    3    0  502  0.10700271387E+04  0.12844977778E+04 -0.24415679618E+03  0.16895280909E+04  0.10100000352E+00 0. -1.
</event>
<event>
 5   0  0.1948507E-06  0.3412771E+04  0.7818609E-02  0.8134779E-01
       -2   -1    0    0    0  501  0.00000000000E+00  0.00000000000E+00  0.19679694800E+04  0.19679694800E+04  0.25500000920E-02 0. -1.
        2   -1    0    0  501    0  0.00000000000E+00  0.00000000000E+00 -0.14795710294E+04  0.14795710294E+04  0.25500000920E-02 0.  1.
    10030    2    1    2    0    0  0.00000000000E+00  0.00000000000E+00  0.48839845053E+03  0.34475405094E+04  0.34127705047E+04 0.  0.
        1    1    3    3  502    0  0.37722476384E+03  0.70576813678E+03  0.17666515341E+04  0.19394496199E+04  0.50400001928E-02 0. -1.
       -1    1    3    3    0  502 -0.37722476384E+03 -0.70576813678E+03 -0.12782530835E+04  0.15080908895E+04  0.50400001928E-02 0.  1.
</event>
<event>
 5   0  0.6134625E-07  0.3803556E+04  0.7818609E-02  0.8045392E-01
        1   -1    0    0  501    0  0.00000000000E+00  0.00000000000E+00  0.24241008310E+04  0.24241008310E+04  0.50400001928E-02 0.  1.
       -1   -1    0    0    0  501  0.00000000000E+00  0.00000000000E+00 -0.14920005737E+04  0.14920005737E+04  0.50400001928E-02 0. -1.
    10030    2    1    2    0    0  0.00000000000E+00  0.00000000000E+00  0.93210025730E+03  0.39161014047E+04  0.38035561416E+04 0.  0.
        3    1    3    3  502    0 -0.11692173632E+04  0.10878587973E+04 -0.59709951299E+03  0.17050025935E+04  0.10100000352E+00 0. -1.
       -3    1    3    3    0  502  0.11692173632E+04 -0.10878587973E+04  0.15291997703E+04  0.22110988112E+04  0.10100000352E+00 0.  1.
</event>
<event>
 5   0  0.6218695E-07  0.3143575E+04  0.7818609E-02  0.8203880E-01
        1   -1    0    0  501    0  0.00000000000E+00  0.00000000000E+00  0.17822732091E+04  0.17822732091E+04  0.50400001928E-02 0.  1.
       -1   -1    0    0    0  501  0.00000000000E+00  0.00000000000E+00 -0.13861601936E+04  0.13861601936E+04  0.50400001928E-02 0. -1.
    10030    2    1    2    0    0  0.00000000000E+00  0.00000000000E+00  0.39611301543E+03  0.31684334027E+04  0.31435751472E+04 0.  0.
        2    1    3    3  502    0  0.87340014711E+03  0.22655694114E+03  0.14952302363E+04  0.17463875069E+04  0.25500000920E-02 0.  1.
       -2    1    3    3    0  502 -0.87340014711E+03 -0.22655694114E+03 -0.10991172209E+04  0.14220458958E+04  0.25500000920E-02 0. -1.
</event>
<event>
 5   0  0.1797075E-06  0.3622738E+04  0.7818609E-02  0.8085303E-01
       -2   -1    0    0    0  501  0.00000000000E+00  0.00000000000E+00  0.15380627786E+04  0.15380627786E+04  0.25500000920E-02 0.  1.
        2   -1    0    0  501    0  0.00000000000E+00  0.00000000000E+00 -0.21332404758E+04  0.21332404758E+04  0.25500000920E-02 0. -1.
    10030    2    1    2    0    0  0.00000000000E+00  0.00000000000E+00 -0.59517769713E+03  0.36713032544E+04  0.36227380660E+04 0.  0.
        2    1    3    3  502    0  0.92795669861E+03 -0.55148166792E+03  0.11764974187E+04  0.15966783774E+04  0.25500000920E-02 0.  1.
       -2    1    3    3    0  502 -0.92795669861E+03  0.55148166792E+03 -0.17716751158E+04  0.20746248771E+04  0.25500000920E-02 0. -1.
</event>
<event>
 5   0  0.1797075E-06  0.3391285E+04  0.7818609E-02  0.8140049E-01
       -2   -1    0    0    0  501  0.00000000000E+00  0.00000000000E+00  0.13408574036E+04  0.13408574036E+04  0.25500000920E-02 0.  1.
        2   -1    0    0  501    0  0.00000000000E+00  0.00000000000E+00 -0.21443023669E+04  0.21443023669E+04  0.25500000920E-02 0. -1.
    10030    2    1    2    0    0  0.00000000000E+00  0.00000000000E+00 -0.80344496323E+03  0.34851597705E+04  0.33912851277E+04 0.  0.
        2    1    3    3  502    0 -0.13244775861E+04 -0.80299809482E+03 -0.11108648320E+04  0.19060607261E+04  0.25500000920E-02 0. -1.
       -2    1    3    3    0  502  0.13244775861E+04  0.80299809482E+03  0.30741986879E+03  0.15790990445E+04  0.25500000920E-02 0.  1.
</event>
<event>
 5   0  0.6134625E-07  0.3330862E+04  0.7818609E-02  0.8155087E-01
        1   -1    0    0  501    0  0.00000000000E+00  0.00000000000E+00  0.19984459932E+04  0.19984459932E+04  0.50400001928E-02 0.  1.
       -1   -1    0    0    0  501  0.00000000000E+00  0.00000000000E+00 -0.13879083658E+04  0.13879083658E+04  0.50400001928E-02 0. -1.
    10030    2    1    2    0    0  0.00000000000E+00  0.00000000000E+00  0.61053762738E+03  0.33863543589E+04  0.33308616978E+04 0.  0.
        1    1    3    3  502    0  0.13424804119E+04  0.91030130731E+03 -0.78858955137E+02  0.16239214455E+04  0.50400001928E-02 0. -1.
       -1    1    3    3    0  502 -0.13424804119E+04 -0.91030130731E+03  0.68939658252E+03  0.17624329134E+04  0.50400001928E-02 0.  1.
</event>
<event>
 5   0  0.1911477E-06  0.3385007E+04  0.7818609E-02  0.8141596E-01
        2   -1    0    0  501    0  0.00000000000E+00  0.00000000000E+00  0.30105110426E+04  0.30105110426E+04  0.25500000920E-02 0. -1.
       -2   -1    0    0    0  501  0.00000000000E+00  0.00000000000E+00 -0.95152213677E+03  0.95152213677E+03  0.25500000920E-02 0.  1.
    10030    2    1    2    0    0  0.00000000000E+00  0.00000000000E+00  0.20589889059E+04  0.39620331794E+04  0.33850068833E+04 0.  0.
        5    1    3    3  502    0  0.81696551403E+03 -0.78979960907E+03  0.24976376854E+04  0.27439810806E+04  0.46999998093E+01 0. -1.
       -5    1    3    3    0  502 -0.81696551403E+03  0.78979960907E+03 -0.43864877948E+03  0.12180520988E+04  0.46999998093E+01 0.  1.
</event>
<event>
 5   0  0.1948507E-06  0.3438125E+04  0.7818609E-02  0.8128612E-01
        2   -1    0    0  501    0  0.00000000000E+00  0.00000000000E+00  0.26247670313E+04  0.26247670313E+04  0.25500000920E-02 0.  1.
       -2   -1    0    0    0  501  0.00000000000E+00  0.00000000000E+00 -0.11258811465E+04  0.11258811465E+04  0.25500000920E-02 0. -1.
    10030    2    1    2    0    0  0.00000000000E+00  0.00000000000E+00  0.14988858849E+04  0.37506481778E+04  0.34381249044E+04 0.  0.
        1    1    3    3  502    0 -0.61968159529E+03 -0.51899500126E+03 -0.90564033285E+03  0.12138968257E+04  0.50400001928E-02 0. -1.
       -1    1    3    3    0  502  0.61968159529E+03  0.51899500126E+03  0.24045262177E+04  0.25367513521E+04  0.50400001928E-02 0.  1.
</event>
<event>
 5   0  0.6146388E-07  0.3386977E+04  0.7818609E-02  0.8141110E-01
        1   -1    0    0  501    0  0.00000000000E+00  0.00000000000E+00  0.19996817476E+04  0.19996817476E+04  0.50400001928E-02 0.  1.
       -1   -1    0    0    0  501  0.00000000000E+00  0.00000000000E+00 -0.14341795503E+04  0.14341795503E+04  0.50400001928E-02 0. -1.
    10030    2    1    2    0    0  0.00000000000E+00  0.00000000000E+00  0.56550219726E+03  0.34338612979E+04  0.33869766279E+04 0.  0.
        4    1    3    3  502    0  0.36476853453E+03 -0.16096354451E+04  0.66736871602E+03  0.17802710372E+04  0.12699999809E+01 0.  1.
       -4    1    3    3    0  502 -0.36476853453E+03  0.16096354451E+04 -0.10186651877E+03  0.16535902607E+04  0.12699999809E+01 0. -1.
</event>
<event>
 5   0  0.1948507E-06  0.3391210E+04  0.7818609E-02  0.8140067E-01
       -2   -1    0    0    0  501  0.00000000000E+00  0.00000000000E+00  0.11605892684E+04  0.11605892684E+04  0.25500000920E-02 0. -1.
        2   -1    0    0  501    0  0.00000000000E+00  0.00000000000E+00 -0.24772550073E+04  0.24772550073E+04  0.25500000920E-02 0.  1.
    10030    2    1    2    0    0  0.00000000000E+00  0.00000000000E+00 -0.13166657389E+04  0.36378442756E+04  0.33912095638E+04 0.  0.
        1    1    3    3  502    0 -0.13517807377E+04  0.63475399686E+03 -0.15197617471E+04  0.21307040074E+04  0.50400001928E-02 0.  1.
       -1    1    3    3    0  502  0.13517807377E+04 -0.63475399686E+03  0.20309600819E+03  0.15071402682E+04  0.50400001928E-02 0. -1.
</event>
<event>
 5   0  0.6134625E-07  0.3457573E+04  0.7818609E-02  0.8123919E-01
        1   -1    0    0  501    0  0.00000000000E+00  0.00000000000E+00  0.17065773417E+04  0.17065773417E+04  0.50400001928E-02 0.  1.
       -1   -1    0    0    0  501  0.00000000000E+00  0.00000000000E+00 -0.17512851783E+04  0.17512851783E+04  0.50400001928E-02 0. -1.
    10030    2    1    2    0    0  0.00000000000E+00  0.00000000000E+00 -0.44707836627E+02  0.34578625200E+04  0.34575734868E+04 0.  0.
        1    1    3    3  502    0 -0.14132605784E+04  0.10581632365E+02 -0.10180706999E+04  0.17418052083E+04  0.50400001928E-02 0. -1.
       -1    1    3    3    0  502  0.14132605784E+04 -0.10581632365E+02  0.97336286330E+03  0.17160573117E+04  0.50400001928E-02 0.  1.
</event>
<event>
 5   0  0.1880301E-06  0.3376957E+04  0.7818609E-02  0.8143585E-01
       -2   -1    0    0    0  501  0.00000000000E+00  0.00000000000E+00  0.16415024127E+04  0.16415024127E+04  0.25500000920E-02 0. -1.
        2   -1    0    0  501    0  0.00000000000E+00  0.00000000000E+00 -0.17367986848E+04  0.17367986848E+04  0.25500000920E-02 0.  1.
    10030    2    1    2    0    0  0.00000000000E+00  0.00000000000E+00 -0.95296272088E+02  0.33783010974E+04  0.33769567550E+04 0.  0.
        4    1    3    3  502    0  0.44433757992E+03  0.22153753493E+03 -0.16621192219E+04  0.17346921009E+04  0.12699999809E+01 0.  1.
       -4    1    3    3    0  502 -0.44433757992E+03 -0.22153753493E+03  0.15668229498E+04  0.16436089965E+04  0.12699999809E+01 0. -1.
</event>
<event>
 5   0  0.6134625E-07  0.3410193E+04  0.7818609E-02  0.8135409E-01
        1   -1    0    0  501    0  0.00000000000E+00  0.00000000000E+00  0.27920696627E+04  0.27920696627E+04  0.50400001928E-02 0. -1.
       -1   -1    0    0    0  501  0.00000000000E+00  0.00000000000E+00 -0.10412900966E+04  0.10412900966E+04  0.50400001928E-02 0.  1.
    10030    2    1    2    0    0  0.00000000000E+00  0.00000000000E+00  0.17507795662E+04  0.38333597593E+04  0.34101932431E+04 0.  0.
        5    1    3    3  502    0 -0.14271520218E+04  0.90453694269E+02 -0.16849327784E+03  0.14399155666E+04  0.46999998093E+01 0.  1.
       -5    1    3    3    0  502  0.14271520218E+04 -0.90453694269E+02  0.19192728440E+04  0.23934441928E+04  0.46999998093E+01 0. -1.
</event>
<event>
 5   0  0.1339844E-06  0.3387318E+04  0.7818609E-02  0.8141026E-01
       -2   -1    0    0    0  501  0.00000000000E+00  0.00000000000E+00  0.12080134700E+04  0.12080134700E+04  0.25500000920E-02 0.  1.
        2   -1    0    0  501    0  0.00000000000E+00  0.00000000000E+00 -0.23745432847E+04  0.23745432847E+04  0.25500000920E-02 0. -1.
    10030    2    1    2    0    0  0.00000000000E+00  0.00000000000E+00 -0.11665298148E+04  0.35825567547E+04  0.33873176839E+04 0.  0.
        3    1    3    3  502    0 -0.46039555351E+02 -0.75388999519E+03  0.10200290430E+04  0.12692237881E+04  0.10100000352E+00 0.  1.
       -3    1    3    3    0  502  0.46039555351E+02  0.75388999519E+03 -0.21865588578E+04  0.23133329666E+04  0.10100000352E+00 0. -1.
</event>
<event>
 5   0  0.1797075E-06  0.3351478E+04  0.7818609E-02  0.8149919E-01
       -2   -1    0    0    0  501  0.00000000000E+00  0.00000000000E+00  0.18732973934E+04  0.18732973935E+04  0.25500000920E-02 0.  1.
        2   -1    0    0  501    0  0.00000000000E+00  0.00000000000E+00 -0.14990150556E+04  0.14990150556E+04  0.25500000920E-02 0. -1.
    10030    2    1    2    0    0  0.00000000000E+00  0.00000000000E+00  0.37428233782E+03  0.33723124491E+04  0.33514778808E+04 0.  0.
        2    1    3    3  502    0  0.14033358308E+04 -0.84375784877E+02  0.11047479037E+04  0.17879985061E+04  0.25500000920E-02 0.  1.
       -2    1    3    3    0  502 -0.14033358308E+04  0.84375784877E+02 -0.73046556592E+03  0.15843139430E+04  0.25500000920E-02 0. -1.
</event>
<event>
 5   0  0.1948507E-06  0.3457383E+04  0.7818609E-02  0.8123965E-01
        2   -1    0    0  501    0  0.00000000000E+00  0.00000000000E+00  0.22440930309E+04  0.22440930309E+04  0.25500000920E-02 0.  1.
       -2   -1    0    0    0  501  0.00000000000E+00  0.00000000000E+00 -0.13316620822E+04  0.13316620822E+04  0.25500000920E-02 0. -1.
    10030    2    1    2    0    0  0.00000000000E+00  0.00000000000E+00  0.91243094874E+03  0.35757551131E+04  0.34573825928E+04 0.  0.
        1    1    3    3  502    0 -0.35167238956E+03 -0.75594476689E+03 -0.11099794229E+04  0.13882291884E+04  0.50400001928E-02 0. -1.
       -1    1    3    3    0  502  0.35167238956E+03  0.75594476689E+03  0.20224103716E+04  0.21875259247E+04  0.50400001928E-02 0.  1.
</event>
<event>
 5   0  0.6218695E-07  0.3294123E+04  0.7818609E-02  0.8164392E-01
        1   -1    0    0  501    0  0.00000000000E+00  0.00000000000E+00  0.15621921292E+04  0.15621921292E+04  0.50400001928E-02 0.  1.
       -1   -1    0    0    0  501  0.00000000000E+00  0.00000000000E+00 -0.17365413718E+04  0.17365413718E+04  0.50400001928E-02 0. -1.
    10030    2    1    2    0    0  0.00000000000E+00  0.00000000000E+00 -0.17434924264E+03  0.32987335010E+04  0.32941228046E+04 0.  0.
        2    1    3    3  502    0 -0.43948410036E+03 -0.12640214965E+04  0.87433315818E+03  0.15985478065E+04  0.25500000920E-02 0.  1.
       -2    1    3    3    0  502  0.43948410036E+03  0.12640214965E+04 -0.10486824008E+04  0.17001856945E+04  0.25500000920E-02 0. -1.
</event>
<event>
 5   0  0.1797075E-06  0.3461806E+04  0.7818609E-02  0.8122901E-01
       -2   -1    0    0    0  501  0.00000000000E+00  0.00000000000E+00  0.13993335737E+04  0.13993335737E+04  0.25500000920E-02 0. -1.
        2   -1    0    0  501    0  0.00000000000E+00  0.00000000000E+00 -0.21410375656E+04  0.21410375656E+04  0.25500000920E-02 0.  1.
    10030    2    1    2    0    0  0.00000000000E+00  0.00000000000E+00 -0.74170399192E+03  0.35403711393E+04  0.34618063193E+04 0.  0.
        2    1    3    3  502    0 -0.15472208364E+03  0.65622036549E+03  0.12595241267E+04  0.14286235043E+04  0.25500000920E-02 0. -1.
       -2    1    3    3    0  502  0.15472208364E+03 -0.65622036549E+03 -0.20012281186E+04  0.21117476350E+04  0.25500000920E-02 0.  1.
</event>
<event>
 5   0  0.6134625E-07  0.3264248E+04  0.7818609E-02  0.8172052E-01
       -1   -1    0    0    0  501  0.00000000000E+00  0.00000000000E+00  0.85030383450E+03  0.85030383451E+03  0.50400001928E-02 0. -1.
        1   -1    0    0  501    0  0.00000000000E+00  0.00000000000E+00 -0.31327965523E+04  0.31327965523E+04  0.50400001928E-02 0.  1.
    10030    2    1    2    0    0  0.00000000000E+00  0.00000000000E+00 -0.22824927178E+04  0.39831003868E+04  0.32642481040E+04 0.  0.
        3    1    3    3  502    0  0.11064877305E+04  0.54574679733E+03 -0.24450410065E+04  0.27386822011E+04  0.10100000352E+00 0.  1.
       -3    1    3    3    0  502 -0.11064877305E+04 -0.54574679733E+03  0.16254828874E+03  0.12444181857E+04  0.10100000352E+00 0. -1.
</event>
<event>
 5   0  0.6218695E-07  0.3323694E+04  0.7818609E-02  0.8156892E-01
       -1   -1    0    0    0  501  0.00000000000E+00  0.00000000000E+00  0.14806616427E+04  0.14806616427E+04  0.50400001928E-02 0.  1.
        1   -1    0    0  501    0  0.00000000000E+00  0.00000000000E+00 -0.18652038884E+04  0.18652038884E+04  0.50400001928E-02 0. -1.
    10030    2    1    2    0    0  0.00000000000E+00  0.00000000000E+00 -0.38454224570E+03  0.33458655311E+04  0.33236942418E+04 0.  0.
        2    1    3    3  502    0  0.10099177586E+04  0.12634716302E+04 -0.57618292380E+03  0.17170559691E+04  0.25500000920E-02 0.  1.
       -2    1    3    3    0  502 -0.10099177586E+04 -0.12634716302E+04  0.19164067810E+03  0.16288095619E+04  0.25500000920E-02 0. -1.
</event>
<event>
 5   0  0.6218695E-07  0.3432467E+04  0.7818609E-02  0.8129984E-01
        1   -1    0    0  501    0  0.00000000000E+00  0.00000000000E+00  0.18034362335E+04  0.18034362335E+04  0.50400001928E-02 0.  1.
       -1   -1    0    0    0  501  0.00000000000E+00  0.00000000000E+00 -0.16332468764E+04  0.16332468764E+04  0.50400001928E-02 0. -1.
    10030    2    1    2    0    0  0.00000000000E+00  0.00000000000E+00  0.17018935710E+03  0.34366831099E+04  0.34324665156E+04 0.  0.
        2    1    3    3  502    0 -0.12927592020E+04 -0.93085118937E+03 -0.55423990256E+03  0.16866808118E+04  0.25500000920E-02 0. -1.
       -2    1    3    3    0  502  0.12927592020E+04  0.93085118937E+03  0.72442925965E+03  0.17500022981E+04  0.25500000920E-02 0.  1.
</event>
<event>
 5   0  0.6134625E-07  0.3440956E+04  0.7818609E-02  0.8127927E-01
       -1   -1    0    0    0  501  0.00000000000E+00  0.00000000000E+00  0.20093905807E+04  0.20093905807E+04  0.50400001928E-02 0.  1.
        1   -1    0    0  501    0  0.00000000000E+00  0.00000000000E+00 -0.14731057247E+04  0.14731057247E+04  0.50400001928E-02 0. -1.
    10030    2    1    2    0    0  0.00000000000E+00  0.00000000000E+00  0.53628485599E+03  0.34824963054E+04  0.34409561273E+04 0.  0.
        5    1    3    3  502    0  0.63223154531E+03  0.38821310930E+03 -0.13028847341E+04  0.14993188004E+04  0.46999998093E+01 0. -1.
       -5    1    3    3    0  502 -0.63223154531E+03 -0.38821310930E+03  0.18391695901E+04  0.19831775049E+04  0.46999998093E+01 0.  1.
</event>
<event>
 5   0  0.1948507E-06  0.3404642E+04  0.7818609E-02  0.8136768E-01
        2   -1    0    0  501    0  0.00000000000E+00  0.00000000000E+00  0.12131910369E+04  0.12131910369E+04  0.25500000920E-02 0. -1.
       -2   -1    0    0    0  501  0.00000000000E+00  0.00000000000E+00 -0.23886559507E+04  0.23886559507E+04  0.25500000920E-02 0.  1.
    10030    2    1    2    0    0  0.00000000000E+00  0.00000000000E+00 -0.11754649138E+04  0.36018469876E+04  0.34046415316E+04 0.  0.
        1    1    3    3  502    0 -0.48491751361E+03 -0.56456309485E+03  0.10319671526E+04  0.12723335597E+04  0.50400001928E-02 0. -1.
       -1    1    3    3    0  502  0.48491751361E+03  0.56456309485E+03 -0.22074320664E+04  0.23295134280E+04  0.50400001928E-02 0.  1.
</event>
<event>
 5   0  0.1880301E-06  0.3633225E+04  0.7818609E-02  0.8082923E-01
        2   -1    0    0  501    0  0.00000000000E+00  0.00000000000E+00  0.20420458018E+04  0.20420458018E+04  0.25500000920E-02 0. -1.
       -2   -1    0    0    0  501  0.00000000000E+00  0.00000000000E+00 -0.16160663259E+04  0.16160663259E+04  0.25500000920E-02 0.  1.
    10030    2    1    2    0    0  0.00000000000E+00  0.00000000000E+00  0.42597947584E+03  0.36581121277E+04  0.36332252648E+04 0.  0.
        4    1    3    3  502    0 -0.17039527907E+04  0.79302356130E+02  0.84203792820E+03  0.19023074047E+04  0.12699999809E+01 0. -1.
       -4    1    3    3    0  502  0.17039527907E+04 -0.79302356130E+02 -0.41605845236E+03  0.17558047230E+04  0.12699999809E+01 0.  1.
</event>
<event>
 5   0  0.1339844E-06  0.3401537E+04  0.7818609E-02  0.8137529E-01
       -2   -1    0    0    0  501  0.00000000000E+00  0.00000000000E+00  0.10837293296E+04  0.10837293296E+04  0.25500000920E-02 0. -1.
        2   -1    0    0  501    0  0.00000000000E+00  0.00000000000E+00 -0.26691291618E+04  0.26691291618E+04  0.25500000920E-02 0.  1.
    10030    2    1    2    0    0  0.00000000000E+00  0.00000000000E+00 -0.15853998323E+04  0.37528584914E+04  0.34015370391E+04 0.  0.
        3    1    3    3  502    0 -0.32953334492E+03 -0.94553193298E+03  0.72405990735E+03  0.12356721334E+04  0.10100000352E+00 0. -1.
       -3    1    3    3    0  502  0.32953334492E+03  0.94553193298E+03 -0.23094597396E+04  0.25171863580E+04  0.10100000352E+00 0.  1.
</event>
<event>
 5   0  0.1911477E-06  0.3479513E+04  0.7818609E-02  0.8118662E-01
        2   -1    0    0  501    0  0.00000000000E+00  0.00000000000E+00  0.18138027051E+04  0.18138027051E+04  0.25500000920E-02 0.  1.
       -2   -1    0    0    0  501  0.00000000000E+00  0.00000000000E+00 -0.16687328419E+04  0.16687328419E+04  0.25500000920E-02 0. -1.
    10030    2    1    2    0    0  0.00000000000E+00  0.00000000000E+00  0.14506986323E+03  0.34825355471E+04  0.34795126916E+04 0.  0.
        5    1    3    3  502    0  0.15950636627E+04 -0.58202509908E+03 -0.30693657359E+03  0.17254603600E+04  0.46999998093E+01 0.  1.
       -5    1    3    3    0  502 -0.15950636627E+04  0.58202509908E+03  0.45200643682E+03  0.17570751870E+04  0.46999998093E+01 0. -1.
</event>
<event>
 5   0  0.1911477E-06  0.3331508E+04  0.7818609E-02  0.8154924E-01
        2   -1    0    0  501    0  0.00000000000E+00  0.00000000000E+00  0.23026391819E+04  0.23026391819E+04  0.25500000920E-02 0.  1.
       -2   -1    0    0    0  501  0.00000000000E+00  0.00000000000E+00 -0.12050240594E+04  0.12050240594E+04  0.25500000920E-02 0. -1.
    10030    2    1    2    0    0  0.00000000000E+00  0.00000000000E+00  0.10976151225E+04  0.35076632413E+04  0.33315075353E+04 0.  0.
        5    1    3    3  502    0  0.52846517496E+03 -0.14781573946E+04 -0.37870787667E+02  0.15702487099E+04  0.46999998093E+01 0. -1.
       -5    1    3    3    0  502 -0.52846517496E+03  0.14781573946E+04  0.11354859102E+04  0.19374145314E+04  0.46999998093E+01 0.  1.
</event>
<event>
 5   0  0.6134625E-07  0.3408773E+04  0.7818609E-02  0.8135756E-01
       -1   -1    0    0    0  501  0.00000000000E+00  0.00000000000E+00  0.22237379554E+04  0.22237379554E+04  0.50400001928E-02 0. -1.
        1   -1    0    0  501    0  0.00000000000E+00  0.00000000000E+00 -0.13063292602E+04  0.13063292602E+04  0.50400001928E-02 0.  1.
    10030    2    1    2    0    0  0.00000000000E+00  0.00000000000E+00  0.91740869515E+03  0.35300672156E+04  0.34087733619E+04 0.  0.
        5    1    3    3  502    0  0.13951913627E+04  0.73928769917E+03  0.11232602402E+04  0.19377411845E+04  0.46999998093E+01 0. -1.
       -5    1    3    3    0  502 -0.13951913627E+04 -0.73928769917E+03 -0.20585154509E+03  0.15923260311E+04  0.46999998093E+01 0.  1.
</event>
<event>
 5   0  0.6134625E-07  0.3424457E+04  0.7818609E-02  0.8131930E-01
       -1   -1    0    0    0  501  0.00000000000E+00  0.00000000000E+00  0.14536101115E+04  0.14536101116E+04  0.50400001928E-02 0. -1.
        1   -1    0    0  501    0  0.00000000000E+00  0.00000000000E+00 -0.20168592631E+04  0.20168592631E+04  0.50400001928E-02 0.  1.
    10030    2    1    2    0    0  0.00000000000E+00  0.00000000000E+00 -0.56324915155E+03  0.34704693747E+04  0.34244573400E+04 0.  0.
        5    1    3    3  502    0 -0.21054936147E+03 -0.14969141799E+04 -0.10965570757E+04  0.18674963469E+04  0.46999998093E+01 0.  1.
       -5    1    3    3    0  502  0.21054936147E+03  0.14969141799E+04  0.53330792413E+03  0.16029730277E+04  0.46999998093E+01 0. -1.
</event>
<event>
 5   0  0.6146388E-07  0.3267079E+04  0.7818609E-02  0.8171323E-01
        1   -1    0    0  501    0  0.00000000000E+00  0.00000000000E+00  0.10048290186E+04  0.10048290186E+04  0.50400001928E-02 0. -1.
       -1   -1    0    0    0  501  0.00000000000E+00  0.00000000000E+00 -0.26556275314E+04  0.26556275314E+04  0.50400001928E-02 0.  1.
    10030    2    1    2    0    0  0.00000000000E+00  0.00000000000E+00 -0.16507985128E+04  0.36604565500E+04  0.32670791886E+04 0.  0.
        4    1    3    3  502    0  0.85667568975E+03 -0.13581414059E+04 -0.11615373906E+04  0.19818203850E+04  0.12699999809E+01 0. -1.
       -4    1    3    3    0  502 -0.85667568975E+03  0.13581414059E+04 -0.48926112221E+03  0.16786361650E+04  0.12699999809E+01 0.  1.
</event>
<event>
 5   0  0.6134625E-07  0.3378197E+04  0.7818609E-02  0.8143278E-01
       -1   -1    0    0    0  501  0.00000000000E+00  0.00000000000E+00  0.10827864739E+04  0.10827864739E+04  0.50400001928E-02 0.  1.
        1   -1    0    0  501    0  0.00000000000E+00  0.00000000000E+00 -0.26349185766E+04  0.26349185766E+04  0.50400001928E-02 0. -1.
    10030    2    1    2    0    0  0.00000000000E+00  0.00000000000E+00 -0.15521321027E+04  0.37177050505E+04  0.33781972675E+04 0.  0.
        1    1    3    3  502    0 -0.11409075182E+03  0.12623121618E+04  0.45265824127E+03  0.13458633575E+04  0.50400001928E-02 0.  1.
       -1    1    3    3    0  502  0.11409075182E+03 -0.12623121618E+04 -0.20047903440E+04  0.23718416930E+04  0.50400001928E-02 0. -1.
</event>
<event>
 5   0  0.1880301E-06  0.3173773E+04  0.7818609E-02  0.8195778E-01
       -2   -1    0    0    0  501  0.00000000000E+00  0.00000000000E+00  0.12580455668E+04  0.12580455668E+04  0.25500000920E-02 0. -1.
        2   -1    0    0  501    0  0.00000000000E+00  0.00000000000E+00 -0.20016828841E+04  0.20016828841E+04  0.25500000920E-02 0.  1.
    10030    2    1    2    0    0  0.00000000000E+00  0.00000000000E+00 -0.74363731732E+03  0.32597284508E+04  0.31737726940E+04 0.  0.
        4    1    3    3  502    0 -0.82916173185E+03  0.60673531877E+03  0.87030231688E+03  0.13465008950E+04  0.12699999809E+01 0. -1.
       -4    1    3    3    0  502  0.82916173185E+03 -0.60673531877E+03 -0.16139396342E+04  0.19132275558E+04  0.12699999809E+01 0.  1.
</event>
<event>
 5   0  0.1339844E-06  0.3389836E+04  0.7818609E-02  0.8140405E-01
        2   -1    0    0  501    0  0.00000000000E+00  0.00000000000E+00  0.19179125413E+04  0.19179125413E+04  0.25500000920E-02 0.  1.
       -2   -1    0    0    0  501  0.00000000000E+00  0.00000000000E+00 -0.14978509601E+04  0.14978509601E+04  0.25500000920E-02 0. -1.
    10030    2    1    2    0    0  0.00000000000E+00  0.00000000000E+00  0.42006158117E+03  0.34157635014E+04  0.33898360676E+04 0.  0.
        3    1    3    3  502    0 -0.15628315452E+03  0.32660235113E+03 -0.14584276345E+04  0.15026991367E+04  0.10100000352E+00 0. -1.
       -3    1    3    3    0  502  0.15628315452E+03 -0.32660235113E+03  0.18784892156E+04  0.19130643647E+04  0.10100000352E+00 0.  1.
</event>
<event>
 5   0  0.6134625E-07  0.3370697E+04  0.7818609E-02  0.8145136E-01
        1   -1    0    0  501    0  0.00000000000E+00  0.00000000000E+00  0.10746767189E+04  0.10746767189E+04  0.50400001928E-02 0.  1.
       -1   -1    0    0    0  501  0.00000000000E+00  0.00000000000E+00 -0.26430275008E+04  0.26430275008E+04  0.50400001928E-02 0. -1.
    10030    2    1    2    0    0  0.00000000000E+00  0.00000000000E+00 -0.15683507819E+04  0.37177042197E+04  0.33706973300E+04 0.  0.
        3    1    3    3  502    0 -0.58816883149E+03 -0.13664975839E+03  0.95127213571E+03  0.11267361790E+04  0.10100000352E+00 0.  1.
       -3    1    3    3    0  502  0.58816883149E+03  0.13664975839E+03 -0.25196229176E+04  0.25909680407E+04  0.10100000352E+00 0. -1.
</event>
<event>
 5   0  0.1948507E-06  0.3204035E+04  0.7818609E-02  0.8187752E-01
       -2   -1    0    0    0  501  0.00000000000E+00  0.00000000000E+00  0.13079884756E+04  0.13079884756E+04  0.25500000920E-02 0.  1.
        2   -1    0    0  501    0  0.00000000000E+00  0.00000000000E+00 -0.19621429207E+04  0.19621429207E+04  0.25500000920E-02 0. -1.
    10030    2    1    2    0    0  0.00000000000E+00  0.00000000000E+00 -0.65415444510E+03  0.32701313963E+04  0.32040351607E+04 0.  0.
        1    1    3    3  502    0 -0.21546635266E+03 -0.17887819475E+03 -0.19369678132E+04  0.19571069125E+04  0.50400001928E-02 0. -1.
       -1    1    3    3    0  502  0.21546635266E+03  0.17887819475E+03  0.12828133681E+04  0.13130244838E+04  0.50400001928E-02 0.  1.
</event>
<event>
 5   0  0.1797075E-06  0.3385958E+04  0.7818609E-02  0.8141361E-01
       -2   -1    0    0    0  501  0.00000000000E+00  0.00000000000E+00  0.16189727119E+04  0.16189727119E+04  0.25500000920E-02 0.  1.
        2   -1    0    0  501    0  0.00000000000E+00  0.00000000000E+00 -0.17703681864E+04  0.17703681864E+04  0.25500000920E-02 0. -1.
    10030    2    1    2    0    0  0.00000000000E+00  0.00000000000E+00 -0.15139547447E+03  0.33893408983E+04  0.33859579347E+04 0.  0.
        2    1    3    3  502    0  0.12687756017E+04  0.29056627357E+03 -0.11593492075E+04  0.17430751194E+04  0.25500000920E-02 0. -1.
       -2    1    3    3    0  502 -0.12687756017E+04 -0.29056627357E+03  0.10079537331E+04  0.16462657789E+04  0.25500000920E-02 0.  1.
</event>
<event>
 5   0  0.1797075E-06  0.3374796E+04  0.7818609E-02  0.8144120E-01
        2   -1    0    0  501    0  0.00000000000E+00  0.00000000000E+00  0.10700678155E+04  0.10700678155E+04  0.25500000920E-02 0. -1.
       -2   -1    0    0    0  501  0.00000000000E+00  0.00000000000E+00 -0.26608702979E+04  0.26608702979E+04  0.25500000920E-02 0.  1.
    10030    2    1    2    0    0  0.00000000000E+00  0.00000000000E+00 -0.15908024824E+04  0.37309381135E+04  0.33747957966E+04 0.  0.
        2    1    3    3  502    0  0.73378164274E+03  0.11645126906E+04  0.28371520569E+03  0.14053539140E+04  0.25500000920E-02 0. -1.
       -2    1    3    3    0  502 -0.73378164274E+03 -0.11645126906E+04 -0.18745176881E+04  0.23255841995E+04  0.25500000920E-02 0.  1.
</event>
<event>
 5   0  0.6146388E-07  0.3368930E+04  0.7818609E-02  0.8145574E-01
       -1   -1    0    0    0  501  0.00000000000E+00  0.00000000000E+00  0.16237741184E+04  0.16237741184E+04  0.50400001928E-02 0.  1.
        1   -1    0    0  501    0  0.00000000000E+00  0.00000000000E+00 -0.17474238211E+04  0.17474238211E+04  0.50400001928E-02 0. -1.
    10030    2    1    2    0    0  0.00000000000E+00  0.00000000000E+00 -0.12364970266E+03  0.33711979395E+04  0.33689295478E+04 0.  0.
        4    1    3    3  502    0  0.12696365400E+04  0.73891281559E+03 -0.88666796508E+03  0.17158527868E+04  0.12699999809E+01 0. -1.
       -4    1    3    3    0  502 -0.12696365400E+04 -0.73891281559E+03  0.76301826242E+03  0.16553451527E+04  0.12699999809E+01 0.  1.
</event>
<event>
 5   0  0.6134625E-07  0.3489611E+04  0.7818609E-02  0.8116257E-01
        1   -1    0    0  501    0  0.00000000000E+00  0.00000000000E+00  0.16079509057E+04  0.16079509057E+04  0.50400001928E-02 0. -1.
       -1   -1    0    0    0  501  0.00000000000E+00  0.00000000000E+00 -0.18933074387E+04  0.18933074387E+04  0.50400001928E-02 0.  1.
    10030    2    1    2    0    0  0.00000000000E+00  0.00000000000E+00 -0.28535653295E+03  0.35012583444E+04  0.34896105289E+04 0.  0.
        1    1    3    3  502    0  0.10961499075E+04  0.39202949892E+03 -0.14466753970E+04  0.18569064198E+04  0.50400001928E-02 0.  1.
       -1    1    3    3    0  502 -0.10961499075E+04 -0.39202949892E+03  0.11613188640E+04  0.16443519246E+04  0.50400001928E-02 0. -1.
</event>
<event>
 5   0  0.1911477E-06  0.2794568E+04  0.7818609E-02  0.8304957E-01
       -2   -1    0    0    0  501  0.00000000000E+00  0.00000000000E+00  0.13763225494E+04  0.13763225494E+04  0.25500000920E-02 0. -1.
        2   -1    0    0  501    0  0.00000000000E+00  0.00000000000E+00 -0.14185647165E+04  0.14185647165E+04  0.25500000920E-02 0.  1.
    10030    2    1    2    0    0  0.00000000000E+00  0.00000000000E+00 -0.42242167175E+02  0.27948872659E+04  0.27945680218E+04 0.  0.
        5    1    3    3  502    0  0.12062076396E+04  0.19065368539E+03  0.65799611837E+03  0.13871793970E+04  0.46999998093E+01 0. -1.
       -5    1    3    3    0  502 -0.12062076396E+04 -0.19065368539E+03 -0.70023828555E+03  0.14077078689E+04  0.46999998093E+01 0.  1.
</event>
<event>
 5   0  0.6134625E-07  0.3402527E+04  0.7818609E-02  0.8137286E-01
       -1   -1    0    0    0  501  0.00000000000E+00  0.00000000000E+00  0.13728460798E+04  0.13728460798E+04  0.50400001928E-02 0. -1.
        1   -1    0    0  501    0  0.00000000000E+00  0.00000000000E+00 -0.21082461341E+04  0.21082461341E+04  0.50400001928E-02 0.  1.
    10030    2    1    2    0    0  0.00000000000E+00  0.00000000000E+00 -0.73540005422E+03  0.34810922139E+04  0.34025269671E+04 0.  0.
        3    1    3    3  502    0  0.58287009871E+03 -0.76161074486E+03  0.10699179848E+04  0.14368413215E+04  0.10100000352E+00 0. -1.
       -3    1    3    3    0  502 -0.58287009871E+03  0.76161074486E+03 -0.18053180391E+04  0.20442508924E+04  0.10100000352E+00 0.  1.
</event>
<event>
 5   0  0.1797075E-06  0.3391719E+04  0.7818609E-02  0.8139942E-01
        2   -1    0    0  501    0  0.00000000000E+00  0.00000000000E+00  0.22967966507E+04  0.22967966507E+04  0.25500000920E-02 0.  1.
       -2   -1    0    0    0  501  0.00000000000E+00  0.00000000000E+00 -0.12521522462E+04  0.12521522462E+04  0.25500000920E-02 0. -1.
    10030    2    1    2    0    0  0.00000000000E+00  0.00000000000E+00  0.10446444045E+04  0.35489488968E+04  0.33917187885E+04 0.  0.
        2    1    3    3  502    0  0.11644510673E+04  0.71601030405E+03 -0.52785860506E+03  0.14653503849E+04  0.25500000920E-02 0. -1.
       -2    1    3    3    0  502 -0.11644510673E+04 -0.71601030405E+03  0.15725030096E+04  0.20835985119E+04  0.25500000920E-02 0.  1.
</event>
<event>
 5   0  0.1880301E-06  0.3414567E+04  0.7818609E-02  0.8134340E-01
        2   -1    0    0  501    0  0.00000000000E+00  0.00000000000E+00  0.21921417640E+04  0.21921417640E+04  0.25500000920E-02 0.  1.
       -2   -1    0    0    0  501  0.00000000000E+00  0.00000000000E+00 -0.13296660743E+04  0.13296660743E+04  0.25500000920E-02 0. -1.
    10030    2    1    2    0    0  0.00000000000E+00  0.00000000000E+00  0.86247568967E+03  0.35218078383E+04  0.34145667565E+04 0.  0.
        4    1    3    3  502    0 -0.10987330062E+04 -0.12275942058E+04  0.89320358142E+03  0.18740373539E+04  0.12699999809E+01 0.  1.
       -4    1    3    3    0  502  0.10987330062E+04  0.12275942058E+04 -0.30727891748E+02  0.16477704844E+04  0.12699999809E+01 0. -1.
</event>
<event>
 5   0  0.6146388E-07  0.3094809E+04  0.7818609E-02  0.8217164E-01
        1   -1    0    0  501    0  0.00000000000E+00  0.00000000000E+00  0.23092799691E+04  0.23092799691E+04  0.50400001928E-02 0. -1.
       -1   -1    0    0    0  501  0.00000000000E+00  0.00000000000E+00 -0.10368861633E+04  0.10368861633E+04  0.50400001928E-02 0.  1.
    10030    2    1    2    0    0  0.00000000000E+00  0.00000000000E+00  0.12723938058E+04  0.33461661324E+04  0.30948088452E+04 0.  0.
        4    1    3    3  502    0 -0.15050277265E+04 -0.92163193704E+02  0.26031764815E+03  0.15301533919E+04  0.12699999809E+01 0.  1.
       -4    1    3    3    0  502  0.15050277265E+04  0.92163193704E+02  0.10120761577E+04  0.18160127405E+04  0.12699999809E+01 0. -1.
</event>
<event>
 5   0  0.1911477E-06  0.3346025E+04  0.7818609E-02  0.8151282E-01
       -2   -1    0    0    0  501  0.00000000000E+00  0.00000000000E+00  0.19306847493E+04  0.19306847493E+04  0.25500000920E-02 0. -1.
        2   -1    0    0  501    0  0.00000000000E+00  0.00000000000E+00 -0.14497297936E+04  0.14497297936E+04  0.25500000920E-02 0.  1.
    10030    2    1    2    0    0  0.00000000000E+00  0.00000000000E+00  0.48095495573E+03  0.33804145429E+04  0.33460252259E+04 0.  0.
        5    1    3    3  502    0  0.64675995874E+03 -0.69170017291E+03  0.16338556891E+04  0.18884528261E+04  0.46999998093E+01 0. -1.
       -5    1    3    3    0  502 -0.64675995874E+03  0.69170017291E+03 -0.11529007334E+04  0.14919617168E+04  0.46999998093E+01 0.  1.
</event>
<event>
 5   0  0.1339844E-06  0.3333208E+04  0.7818609E-02  0.8154497E-01
       -2   -1    0    0    0  501  0.00000000000E+00  0.00000000000E+00  0.14624271812E+04  0.14624271812E+04  0.25500000920E-02 0.  1.
        2   -1    0    0  501    0  0.00000000000E+00  0.00000000000E+00 -0.18992873187E+04  0.18992873187E+04  0.25500000920E-02 0. -1.
    10030    2    1    2    0    0  0.00000000000E+00  0.00000000000E+00 -0.43686013750E+03  0.33617144999E+04  0.33332083042E+04 0.  0.
        3    1    3    3  502    0 -0.17043017740E+03  0.16082743704E+04  0.18747490141E+03  0.16281092545E+04  0.10100000352E+00 0.  1.
       -3    1    3    3    0  502  0.17043017740E+03 -0.16082743704E+04 -0.62433503891E+03  0.17336052454E+04  0.10100000352E+00 0. -1.
</event>
<event>
 5   0  0.1880301E-06  0.3409994E+04  0.7818609E-02  0.8135458E-01
        2   -1    0    0  501    0  0.00000000000E+00  0.00000000000E+00  0.16949277986E+04  0.16949277986E+04  0.25500000920E-02 0. -1.
       -2   -1    0    0    0  501  0.00000000000E+00  0.00000000000E+00 -0.17151260193E+04  0.17151260193E+04  0.25500000920E-02 0.  1.
    10030    2    1    2    0    0  0.00000000000E+00  0.00000000000E+00 -0.20198220696E+02  0.34100538178E+04  0.34099939989E+04 0.  0.
        4    1    3    3  502    0 -0.17549356134E+03 -0.16936425424E+04  0.78164002187E+02  0.17045041143E+04  0.12699999809E+01 0. -1.
       -4    1    3    3    0  502  0.17549356134E+03  0.16936425424E+04 -0.98362222883E+02  0.17055497035E+04  0.12699999809E+01 0.  1.
</event>
<event>
 5   0  0.6218695E-07  0.2781980E+04  0.7818609E-02  0.8308885E-01
       -1   -1    0    0    0  501  0.00000000000E+00  0.00000000000E+00  0.87374221534E+03  0.87374221535E+03  0.50400001928E-02 0.  1.
        1   -1    0    0  501    0  0.00000000000E+00  0.00000000000E+00 -0.22144437398E+04  0.22144437398E+04  0.50400001928E-02 0. -1.
    10030    2    1    2    0    0  0.00000000000E+00  0.00000000000E+00 -0.13407015244E+04  0.30881859551E+04  0.27819798554E+04 0.  0.
        2    1    3    3  502    0 -0.75012222241E+03 -0.89678077462E+03 -0.15069279063E+04  0.19072836237E+04  0.25500000920E-02 0. -1.
       -2    1    3    3    0  502  0.75012222241E+03  0.89678077462E+03  0.16622638193E+03  0.11809023314E+04  0.25500000920E-02 0.  1.
</event>
<event>
 5   0  0.1339844E-06  0.3529552E+04  0.7818609E-02  0.8106822E-01
        2   -1    0    0  501    0  0.00000000000E+00  0.00000000000E+00  0.24563196831E+04  0.24563196831E+04  0.25500000920E-02 0.  1.
       -2   -1    0    0    0  501  0.00000000000E+00  0.00000000000E+00 -0.12679273628E+04  0.12679273628E+04  0.25500000920E-02 0. -1.
    10030    2    1    2    0    0  0.00000000000E+00  0.00000000000E+00  0.11883923203E+04  0.37242470459E+04  0.35295523444E+04 0.  0.
        3    1    3    3  502    0  0.10958113437E+04 -0.11571024307E+04 -0.20574304407E+03  0.16068661258E+04  0.10100000352E+00 0.  1.
       -3    1    3    3    0  502 -0.10958113437E+04  0.11571024307E+04  0.13941353644E+04  0.21173809200E+04  0.10100000352E+00 0. -1.
</event>
<event>
 5   0  0.6134625E-07  0.3287075E+04  0.7818609E-02  0.8166192E-01
        1   -1    0    0  501    0  0.00000000000E+00  0.00000000000E+00  0.18852833831E+04  0.18852833831E+04  0.50400001928E-02 0.  1.
       -1   -1    0    0    0  501  0.00000000000E+00  0.00000000000E+00 -0.14327901850E+04  0.14327901850E+04  0.50400001928E-02 0. -1.
    10030    2    1    2    0    0  0.00000000000E+00  0.00000000000E+00  0.45249319809E+03  0.33180735681E+04  0.32870750081E+04 0.  0.
        3    1    3    3  502    0 -0.12598750112E+03 -0.10579797613E+04 -0.10369625296E+04  0.14867700977E+04  0.10100000352E+00 0. -1.
       -3    1    3    3    0  502  0.12598750112E+03  0.10579797613E+04  0.14894557276E+04  0.18313034703E+04  0.10100000352E+00 0.  1.
</event>
<event>
 5   0  0.1880301E-06  0.3133481E+04  0.7818609E-02  0.8206609E-01
       -2   -1    0    0    0  501  0.00000000000E+00  0.00000000000E+00  0.17518207917E+04  0.17518207917E+04  0.25500000920E-02 0.  1.
        2   -1    0    0  501    0  0.00000000000E+00  0.00000000000E+00 -0.14012135735E+04  0.14012135735E+04  0.25500000920E-02 0. -1.
    10030    2    1    2    0    0  0.00000000000E+00  0.00000000000E+00  0.35060721821E+03  0.31530343652E+04  0.31334805388E+04 0.  0.
        4    1    3    3  502    0 -0.80138290741E+03  0.85074001157E+03  0.12252228124E+04  0.16932648005E+04  0.12699999809E+01 0.  1.
       -4    1    3    3    0  502  0.80138290741E+03 -0.85074001157E+03 -0.87461559423E+03  0.14597695647E+04  0.12699999809E+01 0. -1.
</event>
<event>
 5   0  0.6134625E-07  0.3485644E+04  0.7818609E-02  0.8117200E-01
       -1   -1    0    0    0  501  0.00000000000E+00  0.00000000000E+00  0.12387295084E+04  0.12387295084E+04  0.50400001928E-02 0. -1.
        1   -1    0    0  501    0  0.00000000000E+00  0.00000000000E+00 -0.24520519225E+04  0.24520519225E+04  0.50400001928E-02 0.  1.
    10030    2    1    2    0    0  0.00000000000E+00  0.00000000000E+00 -0.12133224141E+04  0.36907814309E+04  0.34856443149E+04 0.  0.
        1    1    3    3  502    0  0.92482814944E+03  0.12965049812E+04  0.14295575201E+03  0.15989586047E+04  0.50400001928E-02 0. -1.
       -1    1    3    3    0  502 -0.92482814944E+03 -0.12965049812E+04 -0.13562781661E+04  0.20918228262E+04  0.50400001928E-02 0.  1.
</event>
<event>
 5   0  0.1339844E-06  0.3283536E+04  0.7818609E-02  0.8167097E-01
        2   -1    0    0  501    0  0.00000000000E+00  0.00000000000E+00  0.16839033656E+04  0.16839033656E+04  0.25500000920E-02 0. -1.
       -2   -1    0    0    0  501  0.00000000000E+00  0.00000000000E+00 -0.16006869389E+04  0.16006869389E+04  0.25500000920E-02 0.  1.
    10030    2    1    2    0    0  0.00000000000E+00  0.00000000000E+00  0.83216426697E+02  0.32845903046E+04  0.32835359744E+04 0.  0.
        3    1    3    3  502    0 -0.47393550749E+03 -0.15016617532E+04 -0.42308290365E+03  0.16305220145E+04  0.10100000352E+00 0.  1.
       -3    1    3    3    0  502  0.47393550749E+03  0.15016617532E+04  0.50629933035E+03  0.16540682901E+04  0.10100000352E+00 0. -1.
</event>
<event>
 5   0  0.6134625E-07  0.3394753E+04  0.7818609E-02  0.8139195E-01
       -1   -1    0    0    0  501  0.00000000000E+00  0.00000000000E+00  0.16321621486E+04  0.16321621486E+04  0.50400001928E-02 0.  1.
        1   -1    0    0  501    0  0.00000000000E+00  0.00000000000E+00 -0.17651968392E+04  0.17651968393E+04  0.50400001928E-02 0. -1.
    10030    2    1    2    0    0  0.00000000000E+00  0.00000000000E+00 -0.13303469065E+03  0.33973589879E+04  0.33947532846E+04 0.  0.
        3    1    3    3  502    0  0.76106448829E+03  0.17785126526E+03 -0.15744045053E+04  0.17577257421E+04  0.10100000352E+00 0. -1.
       -3    1    3    3    0  502 -0.76106448829E+03 -0.17785126526E+03  0.14413698146E+04  0.16396332458E+04  0.10100000352E+00 0.  1.
</event>
<event>
 5   0  0.6134625E-07  0.3383992E+04  0.7818609E-02  0.8141846E-01
        1   -1    0    0  501    0  0.00000000000E+00  0.00000000000E+00  0.22325628090E+04  0.22325628090E+04  0.50400001928E-02 0. -1.
       -1   -1    0    0    0  501  0.00000000000E+00  0.00000000000E+00 -0.12823156809E+04  0.12823156809E+04  0.50400001928E-02 0.  1.
    10030    2    1    2    0    0  0.00000000000E+00  0.00000000000E+00  0.95024712812E+03  0.35148784898E+04  0.33839919022E+04 0.  0.
        5    1    3    3  502    0 -0.16156887278E+03  0.44246482574E+03 -0.12128318622E+04  0.13011006259E+04  0.46999998093E+01 0.  1.
       -5    1    3    3    0  502  0.16156887278E+03 -0.44246482574E+03  0.21630789903E+04  0.22137778640E+04  0.46999998093E+01 0. -1.
</event>
<event>
 5   0  0.1911477E-06  0.3389289E+04  0.7818609E-02  0.8140540E-01
        2   -1    0    0  501    0  0.00000000000E+00  0.00000000000E+00  0.26452087589E+04  0.26452087589E+04  0.25500000920E-02 0.  1.
       -2   -1    0    0    0  501  0.00000000000E+00  0.00000000000E+00 -0.10856687081E+04  0.10856687081E+04  0.25500000920E-02 0. -1.
    10030    2    1    2    0    0  0.00000000000E+00  0.00000000000E+00  0.15595400508E+04  0.37308774670E+04  0.33892892328E+04 0.  0.
        5    1    3    3  502    0  0.89991341508E+03 -0.13367558196E+04  0.20247380743E+03  0.16241237664E+04  0.46999998093E+01 0. -1.
       -5    1    3    3    0  502 -0.89991341508E+03  0.13367558196E+04  0.13570662434E+04  0.21067537006E+04  0.46999998093E+01 0.  1.
</event>
<event>
 5   0  0.6146388E-07  0.3349158E+04  0.7818609E-02  0.8150499E-01
        1   -1    0    0  501    0  0.00000000000E+00  0.00000000000E+00  0.25425609210E+04  0.25425609210E+04  0.50400001928E-02 0.  1.
       -1   -1    0    0    0  501  0.00000000000E+00  0.00000000000E+00 -0.11029092706E+04  0.11029092706E+04  0.50400001928E-02 0. -1.
    10030    2    1    2    0    0  0.00000000000E+00  0.00000000000E+00  0.14396516503E+04  0.36454701916E+04  0.33491575125E+04 0.  0.
        4    1    3    3  502    0 -0.74230112189E+03  0.49738462530E+03  0.22613944829E+04  0.24315240162E+04  0.12699999809E+01 0.  1.
       -4    1    3    3    0  502  0.74230112189E+03 -0.49738462530E+03 -0.82174283258E+03  0.12139461754E+04  0.12699999809E+01 0. -1.
</event>
<event>
 5   0  0.6146388E-07  0.3558454E+04  0.7818609E-02  0.8100075E-01
        1   -1    0    0  501    0  0.00000000000E+00  0.00000000000E+00  0.17880916387E+04  0.17880916387E+04  0.50400001928E-02 0.  1.
       -1   -1    0    0    0  501  0.00000000000E+00  0.00000000000E+00 -0.17704063734E+04  0.17704063734E+04  0.50400001928E-02 0. -1.
    10030    2    1    2    0    0  0.00000000000E+00  0.00000000000E+00  0.17685265229E+02  0.35584980121E+04  0.35584540651E+04 0.  0.
        4    1    3    3  502    0 -0.10966617814E+04 -0.28481823579E+03  0.13806681363E+04  0.17860667977E+04  0.12699999809E+01 0.  1.
       -4    1    3    3    0  502  0.10966617814E+04  0.28481823579E+03 -0.13629828711E+04  0.17724312144E+04  0.12699999809E+01 0. -1.
</event>
<event>
 5   0  0.6134625E-07  0.3397071E+04  0.7818609E-02  0.8138626E-01
       -1   -1    0    0    0  501  0.00000000000E+00  0.00000000000E+00  0.18853936232E+04  0.18853936232E+04  0.50400001928E-02 0. -1.
        1   -1    0    0  501    0  0.00000000000E+00  0.00000000000E+00 -0.15301965095E+04  0.15301965095E+04  0.50400001928E-02 0.  1.
    10030    2    1    2    0    0  0.00000000000E+00  0.00000000000E+00  0.35519711370E+03  0.34155901328E+04  0.33970709391E+04 0.  0.
        3    1    3    3  502    0  0.37641659697E+03  0.69065585636E+02 -0.14862834290E+04  0.15347631580E+04  0.10100000352E+00 0.  1.
       -3    1    3    3    0  502 -0.37641659697E+03 -0.69065585636E+02  0.18414805427E+04  0.18808269748E+04  0.10100000352E+00 0. -1.
</event>
<event>
 5   0  0.6218695E-07  0.3438981E+04  0.7818609E-02  0.8128405E-01
       -1   -1    0    0    0  501  0.00000000000E+00  0.00000000000E+00  0.12579286751E+04  0.12579286751E+04  0.50400001928E-02 0. -1.
        1   -1    0    0  501    0  0.00000000000E+00  0.00000000000E+00 -0.23504098176E+04  0.23504098176E+04  0.50400001928E-02 0.  1.
    10030    2    1    2    0    0  0.00000000000E+00  0.00000000000E+00 -0.10924811425E+04  0.36083384928E+04  0.34389811909E+04 0.  0.
        2    1    3    3  502    0  0.13502317455E+03  0.54060648844E+03  0.11605711849E+04  0.12874051841E+04  0.25500000920E-02 0. -1.
       -2    1    3    3    0  502 -0.13502317455E+03 -0.54060648844E+03 -0.22530523274E+04  0.23209333086E+04  0.25500000920E-02 0.  1.
</event>
<event>
 5   0  0.6218695E-07  0.2574413E+04  0.7818609E-02  0.8376945E-01
       -1   -1    0    0    0  501  0.00000000000E+00  0.00000000000E+00  0.59786796555E+03  0.59786796557E+03  0.50400001928E-02 0.  1.
        1   -1    0    0  501    0  0.00000000000E+00  0.00000000000E+00 -0.27713487841E+04  0.27713487841E+04  0.50400001928E-02 0. -1.
    10030    2    1    2    0    0  0.00000000000E+00  0.00000000000E+00 -0.21734808185E+04  0.33692167497E+04  0.25744130666E+04 0.  0.
        2    1    3    3  502    0  0.10353170639E+04 -0.54294277002E+03 -0.17917964785E+04  0.21394398554E+04  0.25500000920E-02 0. -1.
       -2    1    3    3    0  502 -0.10353170639E+04  0.54294277002E+03 -0.38168434000E+03  0.12297768943E+04  0.25500000920E-02 0.  1.
</event>
<event>
 5   0  0.6146388E-07  0.3280560E+04  0.7818609E-02  0.8167860E-01
       -1   -1    0    0    0  501  0.00000000000E+00  0.00000000000E+00  0.92596488447E+03  0.92596488449E+03  0.50400001928E-02 0.  1.
        1   -1    0    0  501    0  0.00000000000E+00  0.00000000000E+00 -0.29056375662E+04  0.29056375662E+04  0.50400001928E-02 0. -1.
    10030    2    1    2    0    0  0.00000000000E+00  0.00000000000E+00 -0.19796726817E+04  0.38316024507E+04  0.32805599238E+04 0.  0.
        4    1    3    3  502    0 -0.29261131783E+03  0.72801627862E+03  0.69256559979E+03  0.10465552103E+04  0.12699999809E+01 0.  1.
       -4    1    3    3    0  502  0.29261131783E+03 -0.72801627862E+03 -0.26722382815E+04  0.27850472404E+04  0.12699999809E+01 0. -1.
</event>
<event>
 5   0  0.6134625E-07  0.3419289E+04  0.7818609E-02  0.8133188E-01
        1   -1    0    0  501    0  0.00000000000E+00  0.00000000000E+00  0.10873403190E+04  0.10873403190E+04  0.50400001928E-02 0.  1.
       -1   -1    0    0    0  501  0.00000000000E+00  0.00000000000E+00 -0.26881037513E+04  0.26881037513E+04  0.50400001928E-02 0. -1.
    10030    2    1    2    0    0  0.00000000000E+00  0.00000000000E+00 -0.16007634323E+04  0.37754440703E+04  0.34192885754E+04 0.  0.
        1    1    3    3  502    0 -0.13098562657E+03 -0.16383639700E+04 -0.28073377851E+03  0.16673947304E+04  0.50400001928E-02 0.  1.
       -1    1    3    3    0  502  0.13098562657E+03  0.16383639700E+04 -0.13200296538E+04  0.21080493399E+04  0.50400001928E-02 0. -1.
</event>
<event>
 5   0  0.1797075E-06  0.2927025E+04  0.7818609E-02  0.8264882E-01
       -2   -1    0    0    0  501  0.00000000000E+00  0.00000000000E+00  0.87737016113E+03  0.87737016113E+03  0.25500000920E-02 0. -1.
        2   -1    0    0  501    0  0.00000000000E+00  0.00000000000E+00 -0.24412376443E+04  0.24412376443E+04  0.25500000920E-02 0.  1.
    10030    2    1    2    0    0  0.00000000000E+00  0.00000000000E+00 -0.15638674831E+04  0.33186078054E+04  0.29270251556E+04 0.  0.
        2    1    3    3  502    0 -0.12218518431E+04  0.22183667912E+03  0.96096348972E+02  0.12455392193E+04  0.25500000920E-02 0. -1.
       -2    1    3    3    0  502  0.12218518431E+04 -0.22183667912E+03 -0.16599638321E+04  0.20730685861E+04  0.25500000920E-02 0.  1.
</event>
<event>
 5   0  0.6134625E-07  0.2450025E+04  0.7818609E-02  0.8421009E-01
        1   -1    0    0  501    0  0.00000000000E+00  0.00000000000E+00  0.26098504009E+04  0.26098504009E+04  0.50400001928E-02 0. -1.
       -1   -1    0    0    0  501  0.00000000000E+00  0.00000000000E+00 -0.57499662775E+03  0.57499662778E+03  0.50400001928E-02 0.  1.
    10030    2    1    2    0    0  0.00000000000E+00  0.00000000000E+00  0.20348537731E+04  0.31848470287E+04  0.24500246362E+04 0.  0.
        1    1    3    3  502    0 -0.76776014741E+03  0.48127272935E+03  0.20890379116E+04  0.22770943064E+04  0.50400001928E-02 0. -1.
       -1    1    3    3    0  502  0.76776014741E+03 -0.48127272935E+03 -0.54184138453E+02  0.90775272231E+03  0.50400001928E-02 0.  1.
</event>
<event>
 5   0  0.6146388E-07  0.3347803E+04  0.7818609E-02  0.8150837E-01
       -1   -1    0    0    0  501  0.00000000000E+00  0.00000000000E+00  0.17709793469E+04  0.17709793469E+04  0.50400001928E-02 0.  1.
        1   -1    0    0  501    0  0.00000000000E+00  0.00000000000E+00 -0.15821454539E+04  0.15821454539E+04  0.50400001928E-02 0. -1.
    10030    2    1    2    0    0  0.00000000000E+00  0.00000000000E+00  0.18883389304E+03  0.33531248008E+04  0.33478034128E+04 0.  0.
        4    1    3    3  502    0 -0.96946709538E+02 -0.10710286537E+03  0.17647234388E+04  0.17706270405E+04  0.12699999809E+01 0.  1.
       -4    1    3    3    0  502  0.96946709538E+02  0.10710286537E+03 -0.15758895457E+04  0.15824977603E+04  0.12699999809E+01 0. -1.
</event>
<event>
 5   0  0.1911477E-06  0.3369057E+04  0.7818609E-02  0.8145543E-01
       -2   -1    0    0    0  501  0.00000000000E+00  0.00000000000E+00  0.18907976638E+04  0.18907976638E+04  0.25500000920E-02 0. -1.
        2   -1    0    0  501    0  0.00000000000E+00  0.00000000000E+00 -0.15007616592E+04  0.15007616592E+04  0.25500000920E-02 0.  1.
    10030    2    1    2    0    0  0.00000000000E+00  0.00000000000E+00  0.39003600462E+03  0.33915593231E+04  0.33690572208E+04 0.  0.
        5    1    3    3  502    0  0.16765104290E+04 -0.11950832402E+03  0.30821945835E+03  0.17087980520E+04  0.46999998093E+01 0. -1.
       -5    1    3    3    0  502 -0.16765104290E+04  0.11950832402E+03  0.81816546274E+02  0.16827612711E+04  0.46999998093E+01 0.  1.
</event>
<event>
 5   0  0.1911477E-06  0.3354206E+04  0.7818609E-02  0.8149238E-01
       -2   -1    0    0    0  501  0.00000000000E+00  0.00000000000E+00  0.20073635929E+04  0.20073635929E+04  0.25500000920E-02 0.  1.
        2   -1    0    0  501    0  0.00000000000E+00  0.00000000000E+00 -0.14011781599E+04  0.14011781599E+04  0.25500000920E-02 0. -1.
    10030    2    1    2    0    0  0.00000000000E+00  0.00000000000E+00  0.60618543294E+03  0.34085417528E+04  0.33542057333E+04 0.  0.
        5    1    3    3  502    0 -0.35035928874E+03 -0.74839397990E+03 -0.11799341589E+04  0.14405248660E+04  0.46999998093E+01 0. -1.
       -5    1    3    3    0  502  0.35035928874E+03  0.74839397990E+03  0.17861195918E+04  0.19680168868E+04  0.46999998093E+01 0.  1.
</event>
<event>
 5   0  0.6134625E-07  0.3514691E+04  0.7818609E-02  0.8110317E-01
        1   -1    0    0  501    0  0.00000000000E+00  0.00000000000E+00  0.16012106932E+04  0.16012106932E+04  0.50400001928E-02 0. -1.
       -1   -1    0    0    0  501  0.00000000000E+00  0.00000000000E+00 -0.19287052134E+04  0.19287052134E+04  0.50400001928E-02 0.  1.
    10030    2    1    2    0    0  0.00000000000E+00  0.00000000000E+00 -0.32749452018E+03  0.35299159066E+04  0.35146911169E+04 0.  0.
        3    1    3    3  502    0  0.71648700769E+03 -0.98281147545E+03  0.11102076392E+04  0.16467644157E+04  0.10100000352E+00 0. -1.
       -3    1    3    3    0  502 -0.71648700769E+03  0.98281147545E+03 -0.14377021594E+04  0.18831514909E+04  0.10100000352E+00 0.  1.
</event>
<event>
 5   0  0.6146388E-07  0.3526916E+04  0.7818609E-02  0.8107441E-01
        1   -1    0    0  501    0  0.00000000000E+00  0.00000000000E+00  0.17109224637E+04  0.17109224637E+04  0.50400001928E-02 0. -1.
       -1   -1    0    0    0  501  0.00000000000E+00  0.00000000000E+00 -0.18176070694E+04  0.18176070695E+04  0.50400001928E-02 0.  1.
    10030    2    1    2    0    0  0.00000000000E+00  0.00000000000E+00 -0.10668460574E+03  0.35285295332E+04  0.35269163672E+04 0.  0.
        4    1    3    3  502    0  0.55164990004E+03 -0.16639782208E+04 -0.24485091285E+03  0.17700550031E+04  0.12699999809E+01 0. -1.
       -4    1    3    3    0  502 -0.55164990004E+03  0.16639782208E+04  0.13816630711E+03  0.17584745301E+04  0.12699999809E+01 0.  1.
</event>
<event>
 5   0  0.6218695E-07  0.3292703E+04  0.7818609E-02  0.8164755E-01
        1   -1    0    0  501    0  0.00000000000E+00  0.00000000000E+00  0.16303199917E+04  0.16303199917E+04  0.50400001928E-02 0. -1.
       -1   -1    0    0    0  501  0.00000000000E+00  0.00000000000E+00 -0.16625408491E+04  0.16625408491E+04  0.50400001928E-02 0.  1.
    10030    2    1    2    0    0  0.00000000000E+00  0.00000000000E+00 -0.32220857430E+02  0.32928608408E+04  0.32927031954E+04 0.  0.
        2    1    3    3  502    0 -0.13143541492E+04 -0.99126849889E+03  0.21528852426E+01  0.16462517127E+04  0.25500000920E-02 0. -1.
       -2    1    3    3    0  502  0.13143541492E+04  0.99126849889E+03 -0.34373742673E+02  0.16466091281E+04  0.25500000920E-02 0.  1.
</event>
<event>
 5   0  0.1880301E-06  0.3381325E+04  0.7818609E-02  0.8142505E-01
        2   -1    0    0  501    0  0.00000000000E+00  0.00000000000E+00  0.10002744346E+04  0.10002744346E+04  0.25500000920E-02 0.  1.
       -2   -1    0    0    0  501  0.00000000000E+00  0.00000000000E+00 -0.28575551172E+04  0.28575551172E+04  0.25500000920E-02 0. -1.
    10030    2    1    2    0    0  0.00000000000E+00  0.00000000000E+00 -0.18572806826E+04  0.38578295519E+04  0.33813247873E+04 0.  0.
        4    1    3    3  502    0  0.16899027331E+04  0.38728885807E+02 -0.96590054687E+03  0.19468530127E+04  0.12699999809E+01 0.  1.
       -4    1    3    3    0  502 -0.16899027331E+04 -0.38728885807E+02 -0.89138013573E+03  0.19109765391E+04  0.12699999809E+01 0. -1.
</event>
<event>
 5   0  0.6134625E-07  0.3350900E+04  0.7818609E-02  0.8150063E-01
        1   -1    0    0  501    0  0.00000000000E+00  0.00000000000E+00  0.19652004290E+04  0.19652004290E+04  0.50400001928E-02 0.  1.
       -1   -1    0    0    0  501  0.00000000000E+00  0.00000000000E+00 -0.14284206694E+04  0.14284206694E+04  0.50400001928E-02 0. -1.
    10030    2    1    2    0    0  0.00000000000E+00  0.00000000000E+00  0.53677975959E+03  0.33936210984E+04  0.33509001252E+04 0.  0.
        5    1    3    3  502    0 -0.71974715706E+03 -0.91812668386E+03 -0.94948807758E+03  0.15041749490E+04  0.46999998093E+01 0. -1.
       -5    1    3    3    0  502  0.71974715706E+03  0.91812668386E+03  0.14862678372E+04  0.18894461494E+04  0.46999998093E+01 0.  1.
</event>
<event>
 5   0  0.6134625E-07  0.3722654E+04  0.7818609E-02  0.8062960E-01
        1   -1    0    0  501    0  0.00000000000E+00  0.00000000000E+00  0.29625422052E+04  0.29625422052E+04  0.50400001928E-02 0. -1.
       -1   -1    0    0    0  501  0.00000000000E+00  0.00000000000E+00 -0.11694479620E+04  0.11694479620E+04  0.50400001928E-02 0.  1.
    10030    2    1    2    0    0  0.00000000000E+00  0.00000000000E+00  0.17930942433E+04  0.41319901672E+04  0.37226543993E+04 0.  0.
        3    1    3    3  502    0  0.11180637230E+04  0.95009852217E+03  0.21678175082E+04  0.26176681321E+04  0.10100000352E+00 0. -1.
       -3    1    3    3    0  502 -0.11180637230E+04 -0.95009852217E+03 -0.37472326495E+03  0.15143220351E+04  0.10100000352E+00 0.  1.
</event>
<event>
 5   0  0.1797075E-06  0.3469785E+04  0.7818609E-02  0.8120988E-01
       -2   -1    0    0    0  501  0.00000000000E+00  0.00000000000E+00  0.95071018599E+03  0.95071018600E+03  0.25500000920E-02 0. -1.
        2   -1    0    0  501    0  0.00000000000E+00  0.00000000000E+00 -0.31658990913E+04  0.31658990913E+04  0.25500000920E-02 0.  1.
    10030    2    1    2    0    0  0.00000000000E+00  0.00000000000E+00 -0.22151889053E+04  0.41166092773E+04  0.34697853040E+04 0.  0.
        2    1    3    3  502    0 -0.11910391753E+04  0.11778649853E+04 -0.57184871036E+03  0.17700144599E+04  0.25500000920E-02 0. -1.
       -2    1    3    3    0  502  0.11910391753E+04 -0.11778649853E+04 -0.16433401950E+04  0.23465948174E+04  0.25500000920E-02 0.  1.
</event>
<event>
 5   0  0.1339844E-06  0.3409730E+04  0.7818609E-02  0.8135522E-01
        2   -1    0    0  501    0  0.00000000000E+00  0.00000000000E+00  0.19909549252E+04  0.19909549252E+04  0.25500000920E-02 0.  1.
       -2   -1    0    0    0  501  0.00000000000E+00  0.00000000000E+00 -0.14598849102E+04  0.14598849102E+04  0.25500000920E-02 0. -1.
    10030    2    1    2    0    0  0.00000000000E+00  0.00000000000E+00  0.53107001502E+03  0.34508398353E+04  0.34097302252E+04 0.  0.
        3    1    3    3  502    0  0.45354138680E+03  0.14878630651E+04 -0.44082591530E+03  0.16167138856E+04  0.10100000352E+00 0. -1.
       -3    1    3    3    0  502 -0.45354138680E+03 -0.14878630651E+04  0.97189593032E+03  0.18341259498E+04  0.10100000352E+00 0.  1.
</event>
<event>
 5   0  0.1339844E-06  0.3449978E+04  0.7818609E-02  0.8125748E-01
        2   -1    0    0  501    0  0.00000000000E+00  0.00000000000E+00  0.29174744642E+04  0.29174744642E+04  0.25500000920E-02 0.  1.
       -2   -1    0    0    0  501  0.00000000000E+00  0.00000000000E+00 -0.10199189913E+04  0.10199189913E+04  0.25500000920E-02 0. -1.
    10030    2    1    2    0    0  0.00000000000E+00  0.00000000000E+00  0.18975554729E+04  0.39373934554E+04  0.34499783261E+04 0.  0.
        3    1    3    3  502    0 -0.72225591766E+02  0.72154877324E+03  0.27350691324E+04  0.28295675177E+04  0.10100000352E+00 0.  1.
       -3    1    3    3    0  502  0.72225591766E+02 -0.72154877324E+03 -0.83751365949E+03  0.11078259377E+04  0.10100000352E+00 0. -1.
</event>
<event>
 5   0  0.1911477E-06  0.3803355E+04  0.7818609E-02  0.8045435E-01
       -2   -1    0    0    0  501  0.00000000000E+00  0.00000000000E+00  0.26151236220E+04  0.26151236220E+04  0.25500000920E-02 0. -1.
        2   -1    0    0  501    0  0.00000000000E+00  0.00000000000E+00 -0.13828705742E+04  0.13828705742E+04  0.25500000920E-02 0.  1.
    10030    2    1    2    0    0  0.00000000000E+00  0.00000000000E+00  0.12322530478E+04  0.39979941961E+04  0.38033551002E+04 0.  0.
        5    1    3    3  502    0  0.10119021793E+04  0.68633129634E+03 -0.91489869188E+03  0.15271078466E+04  0.46999998093E+01 0.  1.
       -5    1    3    3    0  502 -0.10119021793E+04 -0.68633129634E+03  0.21471517397E+04  0.24708863495E+04  0.46999998093E+01 0. -1.
</event>
<event>
 5   0  0.1339844E-06  0.3281452E+04  0.7818609E-02  0.8167631E-01
        2   -1    0    0  501    0  0.00000000000E+00  0.00000000000E+00  0.18362152640E+04  0.18362152640E+04  0.25500000920E-02 0. -1.
       -2   -1    0    0    0  501  0.00000000000E+00  0.00000000000E+00 -0.14660493446E+04  0.14660493446E+04  0.25500000920E-02 0.  1.
    10030    2    1    2    0    0  0.00000000000E+00  0.00000000000E+00  0.37016591938E+03  0.33022646087E+04  0.32814522300E+04 0.  0.
        3    1    3    3  502    0  0.81883829582E+03  0.14039165071E+04 -0.41074362219E+02  0.16257812974E+04  0.10100000352E+00 0.  1.
       -3    1    3    3    0  502 -0.81883829582E+03 -0.14039165071E+04  0.41124028160E+03  0.16764833113E+04  0.10100000352E+00 0. -1.
</event>
<event>
 5   0  0.6134625E-07  0.2940612E+04  0.7818609E-02  0.8260896E-01
       -1   -1    0    0    0  501  0.00000000000E+00  0.00000000000E+00  0.11958550827E+04  0.11958550827E+04  0.50400001928E-02 0.  1.
        1   -1    0    0  501    0  0.00000000000E+00  0.00000000000E+00 -0.18077442035E+04  0.18077442035E+04  0.50400001928E-02 0. -1.
    10030    2    1    2    0    0  0.00000000000E+00  0.00000000000E+00 -0.61188912077E+03  0.30035992862E+04  0.29406122451E+04 0.  0.
        3    1    3    3  502    0  0.36462454494E+03  0.42616386573E+03  0.10822972353E+04  0.12189889314E+04  0.10100000352E+00 0.  1.
       -3    1    3    3    0  502 -0.36462454494E+03 -0.42616386573E+03 -0.16941863560E+04  0.17846103548E+04  0.10100000352E+00 0. -1.
</event>
<event>
 5   0  0.6134625E-07  0.3349938E+04  0.7818609E-02  0.8150304E-01
       -1   -1    0    0    0  501  0.00000000000E+00  0.00000000000E+00  0.16168478949E+04  0.16168478949E+04  0.50400001928E-02 0.  1.
        1   -1    0    0  501    0  0.00000000000E+00  0.00000000000E+00 -0.17351792117E+04  0.17351792117E+04  0.50400001928E-02 0. -1.
    10030    2    1    2    0    0  0.00000000000E+00  0.00000000000E+00 -0.11833131679E+03  0.33520271067E+04  0.33499378238E+04 0.  0.
        3    1    3    3  502    0 -0.38177831219E+03 -0.14991707339E+04  0.58330431256E+03  0.16533334510E+04  0.10100000352E+00 0.  1.
       -3    1    3    3    0  502  0.38177831219E+03  0.14991707339E+04 -0.70163562935E+03  0.16986936556E+04  0.10100000352E+00 0. -1.
</event>
<event>
 5   0  0.6134625E-07  0.3258899E+04  0.7818609E-02  0.8173433E-01
        1   -1    0    0  501    0  0.00000000000E+00  0.00000000000E+00  0.19742561972E+04  0.19742561972E+04  0.50400001928E-02 0.  1.
       -1   -1    0    0    0  501  0.00000000000E+00  0.00000000000E+00 -0.13448636787E+04  0.13448636787E+04  0.50400001928E-02 0. -1.
    10030    2    1    2    0    0  0.00000000000E+00  0.00000000000E+00  0.62939251854E+03  0.33191198759E+04  0.32588988643E+04 0.  0.
        5    1    3    3  502    0 -0.89977362973E+03 -0.29366108236E+03 -0.10361823412E+04  0.14033977876E+04  0.46999998093E+01 0. -1.
       -5    1    3    3    0  502  0.89977362973E+03  0.29366108236E+03  0.16655748597E+04  0.19157220883E+04  0.46999998093E+01 0.  1.
</event>
<event>
 5   0  0.6146388E-07  0.2949439E+04  0.7818609E-02  0.8258318E-01
        1   -1    0    0  501    0  0.00000000000E+00  0.00000000000E+00  0.23914507955E+04  0.23914507955E+04  0.50400001928E-02 0. -1.
       -1   -1    0    0    0  501  0.00000000000E+00  0.00000000000E+00 -0.90940503236E+03  0.90940503237E+03  0.50400001928E-02 0.  1.
    10030    2    1    2    0    0  0.00000000000E+00  0.00000000000E+00  0.14820457631E+04  0.33008558278E+04  0.29494388538E+04 0.  0.
        4    1    3    3  502    0  0.11583383421E+04  0.91268484539E+03  0.73276593544E+03  0.16467206414E+04  0.12699999809E+01 0.  1.
       -4    1    3    3    0  502 -0.11583383421E+04 -0.91268484539E+03  0.74927982766E+03  0.16541351864E+04  0.12699999809E+01 0. -1.
</event>
<event>
 5   0  0.1880301E-06  0.3397288E+04  0.7818609E-02  0.8138572E-01
        2   -1    0    0  501    0  0.00000000000E+00  0.00000000000E+00  0.18863298250E+04  0.18863298250E+04  0.25500000920E-02 0.  1.
       -2   -1    0    0    0  501  0.00000000000E+00  0.00000000000E+00 -0.15296323023E+04  0.15296323023E+04  0.25500000920E-02 0. -1.
    10030    2    1    2    0    0  0.00000000000E+00  0.00000000000E+00  0.35669752267E+03  0.34159621274E+04  0.33972877613E+04 0.  0.
        4    1    3    3  502    0  0.68163554536E+02 -0.13620349694E+04  0.11966365662E+04  0.18143114982E+04  0.12699999809E+01 0.  1.
       -4    1    3    3    0  502 -0.68163554536E+02  0.13620349694E+04 -0.83993904357E+03  0.16016506291E+04  0.12699999809E+01 0. -1.
</event>
<event>
 5   0  0.6146388E-07  0.3375562E+04  0.7818609E-02  0.8143930E-01
        1   -1    0    0  501    0  0.00000000000E+00  0.00000000000E+00  0.17188270726E+04  0.17188270726E+04  0.50400001928E-02 0. -1.
       -1   -1    0    0    0  501  0.00000000000E+00  0.00000000000E+00 -0.16572958510E+04  0.16572958510E+04  0.50400001928E-02 0.  1.
    10030    2    1    2    0    0  0.00000000000E+00  0.00000000000E+00  0.61531221683E+02  0.33761229236E+04  0.33755621612E+04 0.  0.
        4    1    3    3  502    0 -0.95471530414E+03  0.10362790387E+04 -0.89850003557E+03  0.16711252152E+04  0.12699999809E+01 0.  1.
       -4    1    3    3    0  502  0.95471530414E+03 -0.10362790387E+04  0.96003125725E+03  0.17049977084E+04  0.12699999809E+01 0. -1.
</event>
<event>
 5   0  0.1911477E-06  0.3336476E+04  0.7818609E-02  0.8153676E-01
       -2   -1    0    0    0  501  0.00000000000E+00  0.00000000000E+00  0.10222623803E+04  0.10222623803E+04  0.25500000920E-02 0.  1.
        2   -1    0    0  501    0  0.00000000000E+00  0.00000000000E+00 -0.27224108267E+04  0.27224108267E+04  0.25500000920E-02 0. -1.
    10030    2    1    2    0    0  0.00000000000E+00  0.00000000000E+00 -0.17001484464E+04  0.37446732070E+04  0.33364760882E+04 0.  0.
        5    1    3    3  502    0  0.13382889766E+04  0.94508776759E+03 -0.12028328002E+04  0.20324952912E+04  0.46999998093E+01 0.  1.
       -5    1    3    3    0  502 -0.13382889766E+04 -0.94508776759E+03 -0.49731564625E+03  0.17121779158E+04  0.46999998093E+01 0. -1.
</event>
<event>
 5   0  0.6134625E-07  0.3314533E+04  0.7818609E-02  0.8159207E-01
        1   -1    0    0  501    0  0.00000000000E+00  0.00000000000E+00  0.95486867661E+03  0.95486867663E+03  0.50400001928E-02 0.  1.
       -1   -1    0    0    0  501  0.00000000000E+00  0.00000000000E+00 -0.28763459808E+04  0.28763459808E+04  0.50400001928E-02 0. -1.
    10030    2    1    2    0    0  0.00000000000E+00  0.00000000000E+00 -0.19214773042E+04  0.38312146575E+04  0.33145332584E+04 0.  0.
        3    1    3    3  502    0  0.95114603825E+03  0.54837095323E+03 -0.23956847878E+04  0.26352789418E+04  0.10100000352E+00 0. -1.
       -3    1    3    3    0  502 -0.95114603825E+03 -0.54837095323E+03  0.47420748354E+03  0.11959357157E+04  0.10100000352E+00 0.  1.
</event>
<event>
 5   0  0.1797075E-06  0.3399438E+04  0.7818609E-02  0.8138044E-01
        2   -1    0    0  501    0  0.00000000000E+00  0.00000000000E+00  0.21159754110E+04  0.21159754110E+04  0.25500000920E-02 0.  1.
       -2   -1    0    0    0  501  0.00000000000E+00  0.00000000000E+00 -0.13653490143E+04  0.13653490143E+04  0.25500000920E-02 0. -1.
    10030    2    1    2    0    0  0.00000000000E+00  0.00000000000E+00  0.75062639665E+03  0.34813244253E+04  0.33994381546E+04 0.  0.
        2    1    3    3  502    0  0.11495546330E+04 -0.73763457013E+03 -0.66072008549E+03  0.15172777085E+04  0.25500000920E-02 0. -1.
       -2    1    3    3    0  502 -0.11495546330E+04  0.73763457013E+03  0.14113464821E+04  0.19640467168E+04  0.25500000920E-02 0.  1.
</event>
<event>
 5   0  0.1880301E-06  0.2822784E+04  0.7818609E-02  0.8296230E-01
        2   -1    0    0  501    0  0.00000000000E+00  0.00000000000E+00  0.12641405446E+04  0.12641405446E+04  0.25500000920E-02 0. -1.
       -2   -1    0    0    0  501  0.00000000000E+00  0.00000000000E+00 -0.15757957317E+04  0.15757957317E+04  0.25500000920E-02 0.  1.
    10030    2    1    2    0    0  0.00000000000E+00  0.00000000000E+00 -0.31165518708E+03  0.28399362762E+04  0.28227839268E+04 0.  0.
        4    1    3    3  502    0 -0.43465404278E+03 -0.10112807005E+04  0.73295015001E+03  0.13224334870E+04  0.12699999809E+01 0. -1.
       -4    1    3    3    0  502  0.43465404278E+03  0.10112807005E+04 -0.10446053371E+04  0.15175027892E+04  0.12699999809E+01 0.  1.
</event>
<event>
 5   0  0.1797075E-06  0.3162052E+04  0.7818609E-02  0.8198912E-01
        2   -1    0    0  501    0  0.00000000000E+00  0.00000000000E+00  0.21243928935E+04  0.21243928935E+04  0.25500000920E-02 0. -1.
       -2   -1    0    0    0  501  0.00000000000E+00  0.00000000000E+00 -0.11766391283E+04  0.11766391283E+04  0.25500000920E-02 0.  1.
    10030    2    1    2    0    0  0.00000000000E+00  0.00000000000E+00  0.94775376517E+03  0.33010320217E+04  0.31620523729E+04 0.  0.
        2    1    3    3  502    0 -0.33436057273E+03  0.14946838469E+04  0.64510420471E+02  0.15329834928E+04  0.25500000920E-02 0.  1.
       -2    1    3    3    0  502  0.33436057273E+03 -0.14946838469E+04  0.88324334470E+03  0.17680485290E+04  0.25500000920E-02 0. -1.
</event>
<event>
 5   0  0.6146388E-07  0.3386621E+04  0.7818609E-02  0.8141198E-01
       -1   -1    0    0    0  501  0.00000000000E+00  0.00000000000E+00  0.22545008563E+04  0.22545008563E+04  0.50400001928E-02 0.  1.
        1   -1    0    0  501    0  0.00000000000E+00  0.00000000000E+00 -0.12718119772E+04  0.12718119773E+04  0.50400001928E-02 0. -1.
    10030    2    1    2    0    0  0.00000000000E+00  0.00000000000E+00  0.98268887902E+03  0.35263128335E+04  0.33866214384E+04 0.  0.
        4    1    3    3  502    0  0.10869000921E+04  0.24112668797E+02  0.18431098938E+04  0.21398572206E+04  0.12699999809E+01 0.  1.
       -4    1    3    3    0  502 -0.10869000921E+04 -0.24112668797E+02 -0.86042101482E+03  0.13864556129E+04  0.12699999809E+01 0. -1.
</event>
<event>
 5   0  0.1911477E-06  0.3349678E+04  0.7818609E-02  0.8150369E-01
       -2   -1    0    0    0  501  0.00000000000E+00  0.00000000000E+00  0.18648414296E+04  0.18648414296E+04  0.25500000920E-02 0. -1.
        2   -1    0    0  501    0  0.00000000000E+00  0.00000000000E+00 -0.15041952097E+04  0.15041952097E+04  0.25500000920E-02 0.  1.
    10030    2    1    2    0    0  0.00000000000E+00  0.00000000000E+00  0.36064621988E+03  0.33690366393E+04  0.33496779220E+04 0.  0.
        5    1    3    3  502    0 -0.11065171133E+04 -0.26138310272E+03 -0.10565655030E+04  0.15521127538E+04  0.46999998093E+01 0.  1.
       -5    1    3    3    0  502  0.11065171133E+04  0.26138310272E+03  0.14172117228E+04  0.18169238855E+04  0.46999998093E+01 0. -1.
</event>
<event>
 5   0  0.1911477E-06  0.3408221E+04  0.7818609E-02  0.8135891E-01
       -2   -1    0    0    0  501  0.00000000000E+00  0.00000000000E+00  0.12314634553E+04  0.12314634553E+04  0.25500000920E-02 0. -1.
        2   -1    0    0  501    0  0.00000000000E+00  0.00000000000E+00 -0.23581644305E+04  0.23581644305E+04  0.25500000920E-02 0.  1.
    10030    2    1    2    0    0  0.00000000000E+00  0.00000000000E+00 -0.11267009752E+04  0.35896278859E+04  0.34082214235E+04 0.  0.
        5    1    3    3  502    0  0.36470123894E+03 -0.12763636038E+04 -0.16888053798E+04  0.21480681422E+04  0.46999998093E+01 0.  1.
       -5    1    3    3    0  502 -0.36470123894E+03  0.12763636038E+04  0.56210440460E+03  0.14415597436E+04  0.46999998093E+01 0. -1.
</event>
<event>
 5   0  0.6146388E-07  0.3399287E+04  0.7818609E-02  0.8138081E-01
       -1   -1    0    0    0  501  0.00000000000E+00  0.00000000000E+00  0.13408900768E+04  0.13408900768E+04  0.50400001928E-02 0.  1.
        1   -1    0    0  501    0  0.00000000000E+00  0.00000000000E+00 -0.21543804405E+04  0.21543804405E+04  0.50400001928E-02 0. -1.
    10030    2    1    2    0    0  0.00000000000E+00  0.00000000000E+00 -0.81349036365E+03  0.34952705173E+04  0.33992866042E+04 0.  0.
        4    1    3    3  502    0 -0.19551544754E+02  0.15729221776E+04 -0.10685967374E+04  0.19016747986E+04  0.12699999809E+01 0. -1.
       -4    1    3    3    0  502  0.19551544754E+02 -0.15729221776E+04  0.25510637371E+03  0.15935957187E+04  0.12699999809E+01 0.  1.
</event>
<event>
 5   0  0.6134625E-07  0.3391778E+04  0.7818609E-02  0.8139927E-01
        1   -1    0    0  501    0  0.00000000000E+00  0.00000000000E+00  0.16327619693E+04  0.16327619693E+04  0.50400001928E-02 0.  1.
       -1   -1    0    0    0  501  0.00000000000E+00  0.00000000000E+00 -0.17614566358E+04  0.17614566358E+04  0.50400001928E-02 0. -1.
    10030    2    1    2    0    0  0.00000000000E+00  0.00000000000E+00 -0.12869466651E+03  0.33942186050E+04  0.33917779440E+04 0.  0.
        3    1    3    3  502    0  0.81247396404E+03 -0.34751694164E+03  0.13841601008E+04  0.16421879192E+04  0.10100000352E+00 0.  1.
       -3    1    3    3    0  502 -0.81247396404E+03  0.34751694164E+03 -0.15128547673E+04  0.17520306859E+04  0.10100000352E+00 0. -1.
</event>
<event>
 5   0  0.6218695E-07  0.3437924E+04  0.7818609E-02  0.8128661E-01
        1   -1    0    0  501    0  0.00000000000E+00  0.00000000000E+00  0.20616441222E+04  0.20616441222E+04  0.50400001928E-02 0. -1.
       -1   -1    0    0    0  501  0.00000000000E+00  0.00000000000E+00 -0.14332396276E+04  0.14332396276E+04  0.50400001928E-02 0.  1.
    10030    2    1    2    0    0  0.00000000000E+00  0.00000000000E+00  0.62840449464E+03  0.34948837498E+04  0.34379238234E+04 0.  0.
        2    1    3    3  502    0  0.16706109912E+04  0.22047532665E+03  0.65935609220E+03  0.18095029456E+04  0.25500000920E-02 0. -1.
       -2    1    3    3    0  502 -0.16706109912E+04 -0.22047532665E+03 -0.30951597568E+02  0.16853808042E+04  0.25500000920E-02 0.  1.
</event>
<event>
 5   0  0.1948507E-06  0.3352027E+04  0.7818609E-02  0.8149782E-01
        2   -1    0    0  501    0  0.00000000000E+00  0.00000000000E+00  0.19187697375E+04  0.19187697375E+04  0.25500000920E-02 0. -1.
       -2   -1    0    0    0  501  0.00000000000E+00  0.00000000000E+00 -0.14639697120E+04  0.14639697120E+04  0.25500000920E-02 0.  1.
    10030    2    1    2    0    0  0.00000000000E+00  0.00000000000E+00  0.45480002555E+03  0.33827394495E+04  0.33520267183E+04 0.  0.
        1    1    3    3  502    0 -0.30609337710E+03 -0.16191317335E+04 -0.81575225956E+02  0.16498288528E+04  0.50400001928E-02 0.  1.
       -1    1    3    3    0  502  0.30609337710E+03  0.16191317335E+04  0.53637525151E+03  0.17329105968E+04  0.50400001928E-02 0. -1.
</event>
<event>
 5   0  0.6146388E-07  0.3404394E+04  0.7818609E-02  0.8136829E-01
        1   -1    0    0  501    0  0.00000000000E+00  0.00000000000E+00  0.16077627394E+04  0.16077627394E+04  0.50400001928E-02 0.  1.
       -1   -1    0    0    0  501  0.00000000000E+00  0.00000000000E+00 -0.18021783466E+04  0.18021783466E+04  0.50400001928E-02 0. -1.
    10030    2    1    2    0    0  0.00000000000E+00  0.00000000000E+00 -0.19441560726E+03  0.34099410860E+04  0.34043943341E+04 0.  0.
        4    1    3    3  502    0  0.83761549604E+03 -0.26571262927E+03 -0.15574138425E+04  0.17882232552E+04  0.12699999809E+01 0. -1.
       -4    1    3    3    0  502 -0.83761549604E+03  0.26571262927E+03  0.13629982353E+04  0.16217178308E+04  0.12699999809E+01 0.  1.
</event>
<event>
 5   0  0.1339844E-06  0.3434242E+04  0.7818609E-02  0.8129553E-01
        2   -1    0    0  501    0  0.00000000000E+00  0.00000000000E+00  0.22884538753E+04  0.22884538753E+04  0.25500000920E-02 0. -1.
       -2   -1    0    0    0  501  0.00000000000E+00  0.00000000000E+00 -0.12884267340E+04  0.12884267340E+04  0.25500000920E-02 0.  1.
    10030    2    1    2    0    0  0.00000000000E+00  0.00000000000E+00  0.10000271412E+04  0.35768806093E+04  0.34342423633E+04 0.  0.
        3    1    3    3  502    0  0.69881256136E+03  0.51523732288E+03 -0.10429680511E+04  0.13570522689E+04  0.10100000352E+00 0.  1.
       -3    1    3    3    0  502 -0.69881256136E+03 -0.51523732288E+03  0.20429951923E+04  0.22198283404E+04  0.10100000352E+00 0. -1.
</event>
<event>
 5   0  0.1948507E-06  0.3305567E+04  0.7818609E-02  0.8161480E-01
       -2   -1    0    0    0  501  0.00000000000E+00  0.00000000000E+00  0.13412684190E+04  0.13412684190E+04  0.25500000920E-02 0. -1.
        2   -1    0    0  501    0  0.00000000000E+00  0.00000000000E+00 -0.20366493600E+04  0.20366493600E+04  0.25500000920E-02 0.  1.
    10030    2    1    2    0    0  0.00000000000E+00  0.00000000000E+00 -0.69538094102E+03  0.33779177790E+04  0.33055671025E+04 0.  0.
        1    1    3    3  502    0 -0.24735248044E+03 -0.70613045513E+03 -0.18536801972E+04  0.19989831772E+04  0.50400001928E-02 0.  1.
       -1    1    3    3    0  502  0.24735248044E+03  0.70613045513E+03  0.11582992562E+04  0.13789346018E+04  0.50400001928E-02 0. -1.
</event>
<event>
 5   0  0.1948507E-06  0.3503627E+04  0.7818609E-02  0.8112931E-01
        2   -1    0    0  501    0  0.00000000000E+00  0.00000000000E+00  0.19416381302E+04  0.19416381302E+04  0.25500000920E-02 0.  1.
       -2   -1    0    0    0  501  0.00000000000E+00  0.00000000000E+00 -0.15805467088E+04  0.15805467088E+04  0.25500000920E-02 0. -1.
    10030    2    1    2    0    0  0.00000000000E+00  0.00000000000E+00  0.36109142141E+03  0.35221848391E+04  0.35036265534E+04 0.  0.
        1    1    3    3  502    0 -0.25943645479E+03  0.15859260152E+04 -0.52055870889E+03  0.16892157853E+04  0.50400001928E-02 0. -1.
       -1    1    3    3    0  502  0.25943645479E+03 -0.15859260152E+04  0.88165013030E+03  0.18329690538E+04  0.50400001928E-02 0.  1.
</event>
<event>
 5   0  0.1339844E-06  0.3432962E+04  0.7818609E-02  0.8129863E-01
       -2   -1    0    0    0  501  0.00000000000E+00  0.00000000000E+00  0.13652677042E+04  0.13652677042E+04  0.25500000920E-02 0. -1.
        2   -1    0    0  501    0  0.00000000000E+00  0.00000000000E+00 -0.21580434870E+04  0.21580434870E+04  0.25500000920E-02 0.  1.
    10030    2    1    2    0    0  0.00000000000E+00  0.00000000000E+00 -0.79277578272E+03  0.35233111912E+04  0.34329620313E+04 0.  0.
        3    1    3    3  502    0 -0.88764583654E+03 -0.10391886682E+04 -0.14622175939E+04  0.20014765852E+04  0.10100000352E+00 0.  1.
       -3    1    3    3    0  502  0.88764583654E+03  0.10391886682E+04  0.66944181116E+03  0.15218346060E+04  0.10100000352E+00 0. -1.
</event>
<event>
 5   0  0.6134625E-07  0.3277392E+04  0.7818609E-02  0.8168672E-01
        1   -1    0    0  501    0  0.00000000000E+00  0.00000000000E+00  0.25057333439E+04  0.25057333439E+04  0.50400001928E-02 0.  1.
       -1   -1    0    0    0  501  0.00000000000E+00  0.00000000000E+00 -0.10716719835E+04  0.10716719835E+04  0.50400001928E-02 0. -1.
    10030    2    1    2    0    0  0.00000000000E+00  0.00000000000E+00  0.14340613604E+04  0.35774053274E+04  0.32773917818E+04 0.  0.
        5    1    3    3  502    0  0.15976204175E+04 -0.27742608680E+03  0.45884989085E+03  0.16852066771E+04  0.46999998093E+01 0.  1.
       -5    1    3    3    0  502 -0.15976204175E+04  0.27742608680E+03  0.97521146953E+03  0.18921986503E+04  0.46999998093E+01 0. -1.
</event>
<event>
 5   0  0.1339844E-06  0.3412689E+04  0.7818609E-02  0.8134799E-01
       -2   -1    0    0    0  501  0.00000000000E+00  0.00000000000E+00  0.12647938734E+04  0.12647938734E+04  0.25500000920E-02 0.  1.
        2   -1    0    0  501    0  0.00000000000E+00  0.00000000000E+00 -0.23020440766E+04  0.23020440766E+04  0.25500000920E-02 0. -1.
    10030    2    1    2    0    0  0.00000000000E+00  0.00000000000E+00 -0.10372502032E+04  0.35668379500E+04  0.34126888193E+04 0.  0.
        3    1    3    3  502    0  0.37167170603E+02  0.17036778532E+04 -0.61040744990E+03  0.18101096351E+04  0.10100000352E+00 0. -1.
       -3    1    3    3    0  502 -0.37167170603E+02 -0.17036778532E+04 -0.42684275331E+03  0.17567283149E+04  0.10100000352E+00 0.  1.
</event>
<event>
 5   0  0.6218695E-07  0.3074854E+04  0.7818609E-02  0.8222673E-01
        1   -1    0    0  501    0  0.00000000000E+00  0.00000000000E+00  0.19322348213E+04  0.19322348213E+04  0.50400001928E-02 0.  1.
       -1   -1    0    0    0  501  0.00000000000E+00  0.00000000000E+00 -0.12232887586E+04  0.12232887586E+04  0.50400001928E-02 0. -1.
    10030    2    1    2    0    0  0.00000000000E+00  0.00000000000E+00  0.70894606274E+03  0.31555235799E+04  0.30748535808E+04 0.  0.
        2    1    3    3  502    0  0.12951744190E+04  0.19217579214E+03  0.11813875223E+04  0.17635432483E+04  0.25500000920E-02 0.  1.
       -2    1    3    3    0  502 -0.12951744190E+04 -0.19217579214E+03 -0.47244145956E+03  0.13919803316E+04  0.25500000920E-02 0. -1.
</event>
<event>
 5   0  0.6134625E-07  0.3434979E+04  0.7818609E-02  0.8129374E-01
        1   -1    0    0  501    0  0.00000000000E+00  0.00000000000E+00  0.28057610644E+04  0.28057610644E+04  0.50400001928E-02 0.  1.
       -1   -1    0    0    0  501  0.00000000000E+00  0.00000000000E+00 -0.10513259440E+04  0.10513259440E+04  0.50400001928E-02 0. -1.
    10030    2    1    2    0    0  0.00000000000E+00  0.00000000000E+00  0.17544351204E+04  0.38570870085E+04  0.34349785442E+04 0.  0.
        1    1    3    3  502    0  0.66181187861E+03 -0.13605887851E+04  0.17898495406E+04  0.23436634108E+04  0.50400001928E-02 0.  1.
       -1    1    3    3    0  502 -0.66181187861E+03  0.13605887851E+04 -0.35414420237E+02  0.15134235977E+04  0.50400001928E-02 0. -1.
</event>
<event>
 5   0  0.6134625E-07  0.3386970E+04  0.7818609E-02  0.8141112E-01
       -1   -1    0    0    0  501  0.00000000000E+00  0.00000000000E+00  0.10495274269E+04  0.10495274269E+04  0.50400001928E-02 0. -1.
        1   -1    0    0  501    0  0.00000000000E+00  0.00000000000E+00 -0.27325554235E+04  0.27325554235E+04  0.50400001928E-02 0.  1.
    10030    2    1    2    0    0  0.00000000000E+00  0.00000000000E+00 -0.16830279966E+04  0.37820828504E+04  0.33869702464E+04 0.  0.
        1    1    3    3  502    0  0.13898957819E+04 -0.43899799054E+03  0.12125020658E+03  0.14626110668E+04  0.50400001928E-02 0. -1.
       -1    1    3    3    0  502 -0.13898957819E+04  0.43899799054E+03 -0.18042782032E+04  0.23194717835E+04  0.50400001928E-02 0.  1.
</event>
<event>
 5   0  0.6134625E-07  0.3317372E+04  0.7818609E-02  0.8158489E-01
       -1   -1    0    0    0  501  0.00000000000E+00  0.00000000000E+00  0.21618153614E+04  0.21618153614E+04  0.50400001928E-02 0.  1.
        1   -1    0    0  501    0  0.00000000000E+00  0.00000000000E+00 -0.12726520845E+04  0.12726520845E+04  0.50400001928E-02 0. -1.
    10030    2    1    2    0    0  0.00000000000E+00  0.00000000000E+00  0.88916327689E+03  0.34344674460E+04  0.33173717465E+04 0.  0.
        1    1    3    3  502    0  0.14078065633E+04 -0.27473102262E+03 -0.41779239584E+03  0.14939701940E+04  0.50400001928E-02 0. -1.
       -1    1    3    3    0  502 -0.14078065633E+04  0.27473102262E+03  0.13069556727E+04  0.19404972520E+04  0.50400001928E-02 0.  1.
</event>
<event>
 5   0  0.1797075E-06  0.3382936E+04  0.7818609E-02  0.8142107E-01
        2   -1    0    0  501    0  0.00000000000E+00  0.00000000000E+00  0.23854607615E+04  0.23854607615E+04  0.25500000920E-02 0.  1.
       -2   -1    0    0    0  501  0.00000000000E+00  0.00000000000E+00 -0.11993755473E+04  0.11993755473E+04  0.25500000920E-02 0. -1.
    10030    2    1    2    0    0  0.00000000000E+00  0.00000000000E+00  0.11860852142E+04  0.35848363088E+04  0.33829355929E+04 0.  0.
        2    1    3    3  502    0  0.16591190578E+04 -0.32663791558E+03  0.54941598667E+03  0.17779837744E+04  0.25500000920E-02 0. -1.
       -2    1    3    3    0  502 -0.16591190578E+04  0.32663791558E+03  0.63666922751E+03  0.18068525344E+04  0.25500000920E-02 0.  1.
</event>
<event>
 5   0  0.6134625E-07  0.3460793E+04  0.7818609E-02  0.8123145E-01
       -1   -1    0    0    0  501  0.00000000000E+00  0.00000000000E+00  0.14961464075E+04  0.14961464075E+04  0.50400001928E-02 0.  1.
        1   -1    0    0  501    0  0.00000000000E+00  0.00000000000E+00 -0.20013228798E+04  0.20013228798E+04  0.50400001928E-02 0. -1.
    10030    2    1    2    0    0  0.00000000000E+00  0.00000000000E+00 -0.50517647234E+03  0.34974692873E+04  0.34607929940E+04 0.  0.
        5    1    3    3  502    0  0.16946079905E+04  0.85497815613E+02 -0.59566169881E+03  0.17982883716E+04  0.46999998093E+01 0.  1.
       -5    1    3    3    0  502 -0.16946079905E+04 -0.85497815613E+02  0.90485226468E+02  0.16991809157E+04  0.46999998093E+01 0. -1.
</event>
<event>
 5   0  0.1911477E-06  0.3370288E+04  0.7818609E-02  0.8145237E-01
       -2   -1    0    0    0  501  0.00000000000E+00  0.00000000000E+00  0.16672480166E+04  0.16672480166E+04  0.25500000920E-02 0.  1.
        2   -1    0    0  501    0  0.00000000000E+00  0.00000000000E+00 -0.17032325122E+04  0.17032325122E+04  0.25500000920E-02 0. -1.
    10030    2    1    2    0    0  0.00000000000E+00  0.00000000000E+00 -0.35984495589E+02  0.33704805288E+04  0.33702884315E+04 0.  0.
        5    1    3    3  502    0  0.10695091573E+04  0.11734805070E+04  0.54664829317E+03  0.16792119533E+04  0.46999998093E+01 0.  1.
       -5    1    3    3    0  502 -0.10695091573E+04 -0.11734805070E+04 -0.58263278876E+03  0.16912685755E+04  0.46999998093E+01 0. -1.
</event>
<event>
 5   0  0.1911477E-06  0.3368771E+04  0.7818609E-02  0.8145614E-01
        2   -1    0    0  501    0  0.00000000000E+00  0.00000000000E+00  0.27189502430E+04  0.27189502430E+04  0.25500000920E-02 0. -1.
       -2   -1    0    0    0  501  0.00000000000E+00  0.00000000000E+00 -0.10434745315E+04  0.10434745315E+04  0.25500000920E-02 0.  1.
    10030    2    1    2    0    0  0.00000000000E+00  0.00000000000E+00  0.16754757115E+04  0.37624247746E+04  0.33687714860E+04 0.  0.
        5    1    3    3  502    0 -0.87269443377E+03 -0.33320621821E+02  0.24463279625E+04  0.25975466172E+04  0.46999998093E+01 0. -1.
       -5    1    3    3    0  502  0.87269443377E+03  0.33320621821E+02 -0.77085225102E+03  0.11648781573E+04  0.46999998093E+01 0.  1.
</event>
<event>
 5   0  0.1911477E-06  0.3378237E+04  0.7818609E-02  0.8143268E-01
        2   -1    0    0  501    0  0.00000000000E+00  0.00000000000E+00  0.20073090532E+04  0.20073090532E+04  0.25500000920E-02 0.  1.
       -2   -1    0    0    0  501  0.00000000000E+00  0.00000000000E+00 -0.14213662802E+04  0.14213662802E+04  0.25500000920E-02 0. -1.
    10030    2    1    2    0    0  0.00000000000E+00  0.00000000000E+00  0.58594277302E+03  0.34286753334E+04  0.33782370563E+04 0.  0.
        5    1    3    3  502    0  0.35350071914E+03 -0.10510721932E+04 -0.10001724830E+04  0.14933461084E+04  0.46999998093E+01 0. -1.
       -5    1    3    3    0  502 -0.35350071914E+03  0.10510721932E+04  0.15861152560E+04  0.19353292250E+04  0.46999998093E+01 0.  1.
</event>
<event>
 5   0  0.6134625E-07  0.3471509E+04  0.7818609E-02  0.8120575E-01
       -1   -1    0    0    0  501  0.00000000000E+00  0.00000000000E+00  0.15384126697E+04  0.15384126697E+04  0.50400001928E-02 0. -1.
        1   -1    0    0  501    0  0.00000000000E+00  0.00000000000E+00 -0.19584107772E+04  0.19584107773E+04  0.50400001928E-02 0.  1.
    10030    2    1    2    0    0  0.00000000000E+00  0.00000000000E+00 -0.41999810756E+03  0.34968234469E+04  0.34715091544E+04 0.  0.
        1    1    3    3  502    0 -0.11232988017E+04 -0.13038904876E+04  0.17286184568E+02  0.17211128417E+04  0.50400001928E-02 0.  1.
       -1    1    3    3    0  502  0.11232988017E+04  0.13038904876E+04 -0.43728429213E+03  0.17757106053E+04  0.50400001928E-02 0. -1.
</event>
<event>
 5   0  0.6218695E-07  0.3327909E+04  0.7818609E-02  0.8155830E-01
        1   -1    0    0  501    0  0.00000000000E+00  0.00000000000E+00  0.27430024584E+04  0.27430024584E+04  0.50400001928E-02 0.  1.
       -1   -1    0    0    0  501  0.00000000000E+00  0.00000000000E+00 -0.10093846492E+04  0.10093846493E+04  0.50400001928E-02 0. -1.
    10030    2    1    2    0    0  0.00000000000E+00  0.00000000000E+00  0.17336178092E+04  0.37523871077E+04  0.33279089978E+04 0.  0.
        2    1    3    3  502    0  0.11155136994E+04 -0.87808339665E+02 -0.52180274554E+03  0.12346494334E+04  0.25500000920E-02 0. -1.
       -2    1    3    3    0  502 -0.11155136994E+04  0.87808339665E+02  0.22554205547E+04  0.25177376743E+04  0.25500000920E-02 0.  1.
</event>
<event>
 5   0  0.1948507E-06  0.3090236E+04  0.7818609E-02  0.8218423E-01
        2   -1    0    0  501    0  0.00000000000E+00  0.00000000000E+00  0.17405027765E+04  0.17405027765E+04  0.25500000920E-02 0. -1.
       -2   -1    0    0    0  501  0.00000000000E+00  0.00000000000E+00 -0.13716662732E+04  0.13716662732E+04  0.25500000920E-02 0.  1.
    10030    2    1    2    0    0  0.00000000000E+00  0.00000000000E+00  0.36883650334E+03  0.31121690497E+04  0.30902355619E+04 0.  0.
        1    1    3    3  502    0  0.56695051281E+03 -0.23012311061E+03 -0.12444540545E+04  0.13867427389E+04  0.50400001928E-02 0.  1.
       -1    1    3    3    0  502 -0.56695051281E+03  0.23012311061E+03  0.16132905579E+04  0.17254263108E+04  0.50400001928E-02 0. -1.
</event>
<event>
 5   0  0.1948507E-06  0.3347207E+04  0.7818609E-02  0.8150986E-01
        2   -1    0    0  501    0  0.00000000000E+00  0.00000000000E+00  0.14547845045E+04  0.14547845045E+04  0.25500000920E-02 0.  1.
       -2   -1    0    0    0  501  0.00000000000E+00  0.00000000000E+00 -0.19253361798E+04  0.19253361798E+04  0.25500000920E-02 0. -1.
    10030    2    1    2    0    0  0.00000000000E+00  0.00000000000E+00 -0.47055167533E+03  0.33801206843E+04  0.33472073377E+04 0.  0.
        1    1    3    3  502    0  0.50892721146E+03 -0.63618886983E+03 -0.17115696171E+04  0.18955774157E+04  0.50400001928E-02 0. -1.
       -1    1    3    3    0  502 -0.50892721146E+03  0.63618886983E+03  0.12410179418E+04  0.14845432686E+04  0.50400001928E-02 0.  1.
</event>
<event>
 5   0  0.6134625E-07  0.3436204E+04  0.7818609E-02  0.8129077E-01
       -1   -1    0    0    0  501  0.00000000000E+00  0.00000000000E+00  0.16334968409E+04  0.16334968409E+04  0.50400001928E-02 0. -1.
        1   -1    0    0  501    0  0.00000000000E+00  0.00000000000E+00 -0.18070896708E+04  0.18070896708E+04  0.50400001928E-02 0.  1.
    10030    2    1    2    0    0  0.00000000000E+00  0.00000000000E+00 -0.17359282991E+03  0.34405865117E+04  0.34362044576E+04 0.  0.
        5    1    3    3  502    0 -0.16239145008E+04 -0.56095392587E+03 -0.96058383770E+02  0.17207605632E+04  0.46999998093E+01 0. -1.
       -5    1    3    3    0  502  0.16239145008E+04  0.56095392587E+03 -0.77534446144E+02  0.17198259485E+04  0.46999998093E+01 0.  1.
</event>
<event>
 5   0  0.6218695E-07  0.3135083E+04  0.7818609E-02  0.8206175E-01
       -1   -1    0    0    0  501  0.00000000000E+00  0.00000000000E+00  0.15329555735E+04  0.15329555735E+04  0.50400001928E-02 0. -1.
        1   -1    0    0  501    0  0.00000000000E+00  0.00000000000E+00 -0.16029078778E+04  0.16029078778E+04  0.50400001928E-02 0.  1.
    10030    2    1    2    0    0  0.00000000000E+00  0.00000000000E+00 -0.69952304291E+02  0.31358634513E+04  0.31350831345E+04 0.  0.
        2    1    3    3  502    0 -0.12918415743E+04 -0.26427487255E+03 -0.88282543734E+03  0.15868448614E+04  0.25500000920E-02 0.  1.
       -2    1    3    3    0  502  0.12918415743E+04  0.26427487255E+03  0.81287313305E+03  0.15490185899E+04  0.25500000920E-02 0. -1.
</event>
<event>
 5   0  0.1339844E-06  0.3037385E+04  0.7818609E-02  0.8233135E-01
       -2   -1    0    0    0  501  0.00000000000E+00  0.00000000000E+00  0.10981758218E+04  0.10981758218E+04  0.25500000920E-02 0. -1.
        2   -1    0    0  501    0  0.00000000000E+00  0.00000000000E+00 -0.21002341166E+04  0.21002341166E+04  0.25500000920E-02 0.  1.
    10030    2    1    2    0    0  0.00000000000E+00  0.00000000000E+00 -0.10020582948E+04  0.31984099384E+04  0.30373846164E+04 0.  0.
        3    1    3    3  502    0  0.10000079397E+04  0.11311889958E+04 -0.67348544198E+03  0.16532353355E+04  0.10100000352E+00 0.  1.
       -3    1    3    3    0  502 -0.10000079397E+04 -0.11311889958E+04 -0.32857285283E+03  0.15451746029E+04  0.10100000352E+00 0. -1.
</event>
<event>
 5   0  0.6134625E-07  0.3385944E+04  0.7818609E-02  0.8141365E-01
       -1   -1    0    0    0  501  0.00000000000E+00  0.00000000000E+00  0.15783958432E+04  0.15783958432E+04  0.50400001928E-02 0. -1.
        1   -1    0    0  501    0  0.00000000000E+00  0.00000000000E+00 -0.18158652151E+04  0.18158652151E+04  0.50400001928E-02 0.  1.
    10030    2    1    2    0    0  0.00000000000E+00  0.00000000000E+00 -0.23746937189E+03  0.33942610584E+04  0.33859439496E+04 0.  0.
        3    1    3    3  502    0 -0.12308685623E+03 -0.15093781600E+04  0.63994750529E+03  0.16440515879E+04  0.10100000352E+00 0. -1.
       -3    1    3    3    0  502  0.12308685623E+03  0.15093781600E+04 -0.87741687717E+03  0.17502094705E+04  0.10100000352E+00 0.  1.
</event>
<event>
 5   0  0.6134625E-07  0.3418069E+04  0.7818609E-02  0.8133486E-01
        4   -1    0    0  501    0  0.00000000000E+00  0.00000000000E+00  0.17806715761E+04  0.17806720290E+04  0.12699999809E+01 0.  1.
       -4   -1    0    0    0  501  0.00000000000E+00  0.00000000000E+00 -0.16402781763E+04  0.16402786679E+04  0.12699999809E+01 0. -1.
    10030    2    1    2    0    0  0.00000000000E+00  0.00000000000E+00  0.14039339987E+03  0.34209506970E+04  0.34180686600E+04 0.  0.
        4    1    3    3  502    0 -0.15944626917E+03 -0.37477167445E+03 -0.15909979113E+04  0.16423010952E+04  0.12699999809E+01 0. -1.
       -4    1    3    3    0  502  0.15944626917E+03  0.37477167445E+03  0.17313913111E+04  0.17786496018E+04  0.12699999809E+01 0.  1.
</event>
<event>
 5   0  0.1911477E-06  0.3402004E+04  0.7818609E-02  0.8137415E-01
       -2   -1    0    0    0  501  0.00000000000E+00  0.00000000000E+00  0.15738954904E+04  0.15738954904E+04  0.25500000920E-02 0.  1.
        2   -1    0    0  501    0  0.00000000000E+00  0.00000000000E+00 -0.18383738817E+04  0.18383738817E+04  0.25500000920E-02 0. -1.
    10030    2    1    2    0    0  0.00000000000E+00  0.00000000000E+00 -0.26447839133E+03  0.34122693721E+04  0.34020043280E+04 0.  0.
        5    1    3    3  502    0  0.13718494439E+04  0.64522624278E+03  0.64151472640E+03  0.16461625179E+04  0.46999998093E+01 0.  1.
       -5    1    3    3    0  502 -0.13718494439E+04 -0.64522624278E+03 -0.90599311773E+03  0.17661068542E+04  0.46999998093E+01 0. -1.
</event>
<event>
 5   0  0.1948507E-06  0.3287909E+04  0.7818609E-02  0.8165979E-01
        2   -1    0    0  501    0  0.00000000000E+00  0.00000000000E+00  0.20474811827E+04  0.20474811827E+04  0.25500000920E-02 0. -1.
       -2   -1    0    0    0  501  0.00000000000E+00  0.00000000000E+00 -0.13199563562E+04  0.13199563562E+04  0.25500000920E-02 0.  1.
    10030    2    1    2    0    0  0.00000000000E+00  0.00000000000E+00  0.72752482648E+03  0.33674375389E+04  0.32879086370E+04 0.  0.
        1    1    3    3  502    0 -0.82280359287E+02 -0.10704713143E+04 -0.91130343909E+03  0.14082445989E+04  0.50400001928E-02 0.  1.
       -1    1    3    3    0  502  0.82280359287E+02  0.10704713143E+04  0.16388282656E+04  0.19591929400E+04  0.50400001928E-02 0. -1.
</event>
<event>
 5   0  0.6218695E-07  0.3385767E+04  0.7818609E-02  0.8141409E-01
        1   -1    0    0  501    0  0.00000000000E+00  0.00000000000E+00  0.19810193116E+04  0.19810193116E+04  0.50400001928E-02 0.  1.
       -1   -1    0    0    0  501  0.00000000000E+00  0.00000000000E+00 -0.14466561271E+04  0.14466561271E+04  0.50400001928E-02 0. -1.
    10030    2    1    2    0    0  0.00000000000E+00  0.00000000000E+00  0.53436318448E+03  0.34276754388E+04  0.33857665160E+04 0.  0.
        2    1    3    3  502    0 -0.92920196619E+02  0.12340198253E+04  0.14366488974E+04  0.18961537772E+04  0.25500000920E-02 0.  1.
       -2    1    3    3    0  502  0.92920196619E+02 -0.12340198253E+04 -0.90228571295E+03  0.15315216616E+04  0.25500000920E-02 0. -1.
</event>
<event>
 5   0  0.6134625E-07  0.3383910E+04  0.7818609E-02  0.8141867E-01
       -1   -1    0    0    0  501  0.00000000000E+00  0.00000000000E+00  0.12405305336E+04  0.12405305336E+04  0.50400001928E-02 0.  1.
        1   -1    0    0  501    0  0.00000000000E+00  0.00000000000E+00 -0.23076514342E+04  0.23076514343E+04  0.50400001928E-02 0. -1.
    10030    2    1    2    0    0  0.00000000000E+00  0.00000000000E+00 -0.10671209007E+04  0.35481819678E+04  0.33839102027E+04 0.  0.
        5    1    3    3  502    0 -0.12918977193E+04  0.37236308038E+03  0.54345192325E+03  0.14501779421E+04  0.46999998093E+01 0.  1.
       -5    1    3    3    0  502  0.12918977193E+04 -0.37236308038E+03 -0.16105728239E+04  0.20980040257E+04  0.46999998093E+01 0. -1.
</event>
<event>
 5   0  0.6134625E-07  0.3365876E+04  0.7818609E-02  0.8146333E-01
       -1   -1    0    0    0  501  0.00000000000E+00  0.00000000000E+00  0.12176476053E+04  0.12176476053E+04  0.50400001928E-02 0. -1.
        1   -1    0    0  501    0  0.00000000000E+00  0.00000000000E+00 -0.23260267479E+04  0.23260267479E+04  0.50400001928E-02 0.  1.
    10030    2    1    2    0    0  0.00000000000E+00  0.00000000000E+00 -0.11083791425E+04  0.35436743532E+04  0.33658763492E+04 0.  0.
        3    1    3    3  502    0  0.15362324347E+04 -0.67170111088E+03 -0.40130009182E+03  0.17240168937E+04  0.10100000352E+00 0. -1.
       -3    1    3    3    0  502 -0.15362324347E+04  0.67170111088E+03 -0.70707905070E+03  0.18196574595E+04  0.10100000352E+00 0.  1.
</event>
<event>
 5   0  0.6134625E-07  0.3330354E+04  0.7818609E-02  0.8155215E-01
        1   -1    0    0  501    0  0.00000000000E+00  0.00000000000E+00  0.17830640316E+04  0.17830640316E+04  0.50400001928E-02 0.  1.
       -1   -1    0    0    0  501  0.00000000000E+00  0.00000000000E+00 -0.15550839714E+04  0.15550839714E+04  0.50400001928E-02 0. -1.
    10030    2    1    2    0    0  0.00000000000E+00  0.00000000000E+00  0.22798006021E+03  0.33381480029E+04  0.33303539124E+04 0.  0.
        1    1    3    3  502    0 -0.83466981594E+03  0.13213728098E+04 -0.46191052187E+03  0.16297426589E+04  0.50400001928E-02 0. -1.
       -1    1    3    3    0  502  0.83466981594E+03 -0.13213728098E+04  0.68989058207E+03  0.17084053440E+04  0.50400001928E-02 0.  1.
</event>
<event>
 5   0  0.6134625E-07  0.3359394E+04  0.7818609E-02  0.8147945E-01
        1   -1    0    0  501    0  0.00000000000E+00  0.00000000000E+00  0.12495296301E+04  0.12495296301E+04  0.50400001928E-02 0. -1.
       -1   -1    0    0    0  501  0.00000000000E+00  0.00000000000E+00 -0.22579547441E+04  0.22579547441E+04  0.50400001928E-02 0.  1.
    10030    2    1    2    0    0  0.00000000000E+00  0.00000000000E+00 -0.10084251140E+04  0.35074843742E+04  0.33593936097E+04 0.  0.
        5    1    3    3  502    0 -0.79437622959E+03 -0.62720291333E+03  0.89538090295E+03  0.13513497475E+04  0.46999998093E+01 0. -1.
       -5    1    3    3    0  502  0.79437622959E+03  0.62720291333E+03 -0.19038060169E+04  0.21561346268E+04  0.46999998093E+01 0.  1.
</event>
<event>
 5   0  0.6218695E-07  0.3392418E+04  0.7818609E-02  0.8139770E-01
       -1   -1    0    0    0  501  0.00000000000E+00  0.00000000000E+00  0.21295903981E+04  0.21295903981E+04  0.50400001928E-02 0.  1.
        1   -1    0    0  501    0  0.00000000000E+00  0.00000000000E+00 -0.13510227523E+04  0.13510227524E+04  0.50400001928E-02 0. -1.
    10030    2    1    2    0    0  0.00000000000E+00  0.00000000000E+00  0.77856764578E+03  0.34806131505E+04  0.33924180645E+04 0.  0.
        2    1    3    3  502    0 -0.95747366506E+03  0.69784801247E+03  0.16346681431E+04  0.20188827618E+04  0.25500000920E-02 0.  1.
       -2    1    3    3    0  502  0.95747366506E+03 -0.69784801247E+03 -0.85610049731E+03  0.14617303887E+04  0.25500000920E-02 0. -1.
</event>
<event>
 5   0  0.6134625E-07  0.3303171E+04  0.7818609E-02  0.8162089E-01
       -1   -1    0    0    0  501  0.00000000000E+00  0.00000000000E+00  0.13220998758E+04  0.13220998758E+04  0.50400001928E-02 0. -1.
        1   -1    0    0  501    0  0.00000000000E+00  0.00000000000E+00 -0.20631833372E+04  0.20631833372E+04  0.50400001928E-02 0.  1.
    10030    2    1    2    0    0  0.00000000000E+00  0.00000000000E+00 -0.74108346133E+03  0.33852832130E+04  0.33031708608E+04 0.  0.
        3    1    3    3  502    0 -0.16269501575E+04  0.26981788981E+03 -0.46201238944E+03  0.17126657487E+04  0.10100000352E+00 0.  1.
       -3    1    3    3    0  502  0.16269501575E+04 -0.26981788981E+03 -0.27907107189E+03  0.16726174643E+04  0.10100000352E+00 0. -1.
</event>
<event>
 5   0  0.1880301E-06  0.3257847E+04  0.7818609E-02  0.8173705E-01
       -2   -1    0    0    0  501  0.00000000000E+00  0.00000000000E+00  0.13170061757E+04  0.13170061757E+04  0.25500000920E-02 0.  1.
        2   -1    0    0  501    0  0.00000000000E+00  0.00000000000E+00 -0.20147153010E+04  0.20147153010E+04  0.25500000920E-02 0. -1.
    10030    2    1    2    0    0  0.00000000000E+00  0.00000000000E+00 -0.69770912527E+03  0.33317214767E+04  0.32578474450E+04 0.  0.
        4    1    3    3  502    0 -0.86664722664E+03  0.26272973405E+03  0.10358372393E+04  0.13758868877E+04  0.12699999809E+01 0.  1.
       -4    1    3    3    0  502  0.86664722664E+03 -0.26272973405E+03 -0.17335463646E+04  0.19558345890E+04  0.12699999809E+01 0. -1.
</event>
<event>
 5   0  0.6134625E-07  0.3481478E+04  0.7818609E-02  0.8118193E-01
       -1   -1    0    0    0  501  0.00000000000E+00  0.00000000000E+00  0.31156581735E+04  0.31156581735E+04  0.50400001928E-02 0.  1.
        1   -1    0    0  501    0  0.00000000000E+00  0.00000000000E+00 -0.97256274208E+03  0.97256274209E+03  0.50400001928E-02 0. -1.
    10030    2    1    2    0    0  0.00000000000E+00  0.00000000000E+00  0.21430954315E+04  0.40882209156E+04  0.34814784541E+04 0.  0.
        3    1    3    3  502    0  0.17332692834E+04  0.12254659110E+03  0.94876429265E+03  0.19797458849E+04  0.10100000352E+00 0.  1.
       -3    1    3    3    0  502 -0.17332692834E+04 -0.12254659110E+03  0.11943311388E+04  0.21084750307E+04  0.10100000352E+00 0. -1.
</event>
<event>
 5   0  0.1339844E-06  0.3419264E+04  0.7818609E-02  0.8133194E-01
        2   -1    0    0  501    0  0.00000000000E+00  0.00000000000E+00  0.17015647917E+04  0.17015647917E+04  0.25500000920E-02 0.  1.
       -2   -1    0    0    0  501  0.00000000000E+00  0.00000000000E+00 -0.17177373018E+04  0.17177373018E+04  0.25500000920E-02 0. -1.
    10030    2    1    2    0    0  0.00000000000E+00  0.00000000000E+00 -0.16172510127E+02  0.34193020935E+04  0.34192638472E+04 0.  0.
        3    1    3    3  502    0 -0.11100252522E+04 -0.12680793259E+04  0.27942359845E+03  0.17082911915E+04  0.10100000352E+00 0. -1.
       -3    1    3    3    0  502  0.11100252522E+04  0.12680793259E+04 -0.29559610857E+03  0.17110109020E+04  0.10100000352E+00 0.  1.
</event>
<event>
 5   0  0.1339844E-06  0.3464898E+04  0.7818609E-02  0.8122159E-01
        2   -1    0    0  501    0  0.00000000000E+00  0.00000000000E+00  0.14319659353E+04  0.14319659353E+04  0.25500000920E-02 0. -1.
       -2   -1    0    0    0  501  0.00000000000E+00  0.00000000000E+00 -0.20959853532E+04  0.20959853532E+04  0.25500000920E-02 0.  1.
    10030    2    1    2    0    0  0.00000000000E+00  0.00000000000E+00 -0.66401941790E+03  0.35279512885E+04  0.34648980514E+04 0.  0.
        3    1    3    3  502    0 -0.36665469140E+03 -0.16855912897E+04 -0.49532163289E+03  0.17947136788E+04  0.10100000352E+00 0. -1.
       -3    1    3    3    0  502  0.36665469140E+03  0.16855912897E+04 -0.16869778501E+03  0.17332376097E+04  0.10100000352E+00 0.  1.
</event>
<event>
 5   0  0.1911477E-06  0.3419659E+04  0.7818609E-02  0.8133098E-01
        2   -1    0    0  501    0  0.00000000000E+00  0.00000000000E+00  0.28135869666E+04  0.28135869666E+04  0.25500000920E-02 0.  1.
       -2   -1    0    0    0  501  0.00000000000E+00  0.00000000000E+00 -0.10390710098E+04  0.10390710098E+04  0.25500000920E-02 0. -1.
    10030    2    1    2    0    0  0.00000000000E+00  0.00000000000E+00  0.17745159568E+04  0.38526579764E+04  0.34196588430E+04 0.  0.
        5    1    3    3  502    0  0.63860518110E+03 -0.10889659653E+04 -0.41194174238E+03  0.13279237704E+04  0.46999998093E+01 0. -1.
       -5    1    3    3    0  502 -0.63860518110E+03  0.10889659653E+04  0.21864576992E+04  0.25247342061E+04  0.46999998093E+01 0.  1.
</event>
<event>
 5   0  0.1911477E-06  0.3407552E+04  0.7818609E-02  0.8136055E-01
        2   -1    0    0  501    0  0.00000000000E+00  0.00000000000E+00  0.21430394743E+04  0.21430394743E+04  0.25500000920E-02 0. -1.
       -2   -1    0    0    0  501  0.00000000000E+00  0.00000000000E+00 -0.13545496765E+04  0.13545496765E+04  0.25500000920E-02 0.  1.
    10030    2    1    2    0    0  0.00000000000E+00  0.00000000000E+00  0.78848979781E+03  0.34975891507E+04  0.34075524510E+04 0.  0.
        5    1    3    3  502    0 -0.14894131972E+04  0.81124994560E+03  0.56087092714E+03  0.17863584280E+04  0.46999998093E+01 0.  1.
       -5    1    3    3    0  502  0.14894131972E+04 -0.81124994560E+03  0.22761887067E+03  0.17112307228E+04  0.46999998093E+01 0. -1.
</event>
<event>
 5   0  0.6134625E-07  0.3027067E+04  0.7818609E-02  0.8236044E-01
        1   -1    0    0  501    0  0.00000000000E+00  0.00000000000E+00  0.19031616097E+04  0.19031616097E+04  0.50400001928E-02 0. -1.
       -1   -1    0    0    0  501  0.00000000000E+00  0.00000000000E+00 -0.12036730791E+04  0.12036730791E+04  0.50400001928E-02 0.  1.
    10030    2    1    2    0    0  0.00000000000E+00  0.00000000000E+00  0.69948853068E+03  0.31068346888E+04  0.30270674884E+04 0.  0.
        5    1    3    3  502    0  0.50048335298E+03  0.66704392368E+03 -0.94660331290E+03  0.12615510710E+04  0.46999998093E+01 0.  1.
       -5    1    3    3    0  502 -0.50048335298E+03 -0.66704392368E+03  0.16460918436E+04  0.18452836178E+04  0.46999998093E+01 0. -1.
</event>
<event>
 5   0  0.6218695E-07  0.3420767E+04  0.7818609E-02  0.8132828E-01
       -1   -1    0    0    0  501  0.00000000000E+00  0.00000000000E+00  0.13908572975E+04  0.13908572975E+04  0.50400001928E-02 0. -1.
        1   -1    0    0  501    0  0.00000000000E+00  0.00000000000E+00 -0.21033151910E+04  0.21033151910E+04  0.50400001928E-02 0.  1.
    10030    2    1    2    0    0  0.00000000000E+00  0.00000000000E+00 -0.71245789354E+03  0.34941724885E+04  0.34207667458E+04 0.  0.
        2    1    3    3  502    0  0.59261994372E+03  0.25368926413E+03  0.12620193677E+04  0.14171272084E+04  0.25500000920E-02 0. -1.
       -2    1    3    3    0  502 -0.59261994372E+03 -0.25368926413E+03 -0.19744772612E+04  0.20770452801E+04  0.25500000920E-02 0.  1.
</event>
<event>
 5   0  0.1911477E-06  0.3398062E+04  0.7818609E-02  0.8138382E-01
       -2   -1    0    0    0  501  0.00000000000E+00  0.00000000000E+00  0.23308947941E+04  0.23308947941E+04  0.25500000920E-02 0.  1.
        2   -1    0    0  501    0  0.00000000000E+00  0.00000000000E+00 -0.12384539805E+04  0.12384539805E+04  0.25500000920E-02 0. -1.
    10030    2    1    2    0    0  0.00000000000E+00  0.00000000000E+00  0.10924408136E+04  0.35693487746E+04  0.33980617628E+04 0.  0.
        5    1    3    3  502    0 -0.82482246549E+03 -0.13022319563E+04  0.12967609717E+04  0.20143860790E+04  0.46999998093E+01 0.  1.
       -5    1    3    3    0  502  0.82482246549E+03  0.13022319563E+04 -0.20432015814E+03  0.15549626956E+04  0.46999998093E+01 0. -1.
</event>
<event>
 5   0  0.1948507E-06  0.3255035E+04  0.7818609E-02  0.8174432E-01
       -2   -1    0    0    0  501  0.00000000000E+00  0.00000000000E+00  0.24006067277E+04  0.24006067277E+04  0.25500000920E-02 0.  1.
        2   -1    0    0  501    0  0.00000000000E+00  0.00000000000E+00 -0.11033930783E+04  0.11033930783E+04  0.25500000920E-02 0. -1.
    10030    2    1    2    0    0  0.00000000000E+00  0.00000000000E+00  0.12972136494E+04  0.35039998060E+04  0.32550347752E+04 0.  0.
        1    1    3    3  502    0  0.39461887808E+03  0.15521559599E+04  0.96041761503E+03  0.18674351871E+04  0.50400001928E-02 0.  1.
       -1    1    3    3    0  502 -0.39461887808E+03 -0.15521559599E+04  0.33679603439E+03  0.16365646188E+04  0.50400001928E-02 0. -1.
</event>
<event>
 5   0  0.6218695E-07  0.3308109E+04  0.7818609E-02  0.8160835E-01
       -1   -1    0    0    0  501  0.00000000000E+00  0.00000000000E+00  0.18904207985E+04  0.18904207985E+04  0.50400001928E-02 0.  1.
        1   -1    0    0  501    0  0.00000000000E+00  0.00000000000E+00 -0.14472417345E+04  0.14472417345E+04  0.50400001928E-02 0. -1.
    10030    2    1    2    0    0  0.00000000000E+00  0.00000000000E+00  0.44317906399E+03  0.33376625330E+04  0.33081087499E+04 0.  0.
        2    1    3    3  502    0  0.26885222524E+03  0.16250492376E+04  0.37403314925E+03  0.16890729233E+04  0.25500000920E-02 0.  1.
       -2    1    3    3    0  502 -0.26885222524E+03 -0.16250492376E+04  0.69145914744E+02  0.16485896097E+04  0.25500000920E-02 0. -1.
</event>
<event>
 5   0  0.1948507E-06  0.3379961E+04  0.7818609E-02  0.8142842E-01
       -2   -1    0    0    0  501  0.00000000000E+00  0.00000000000E+00  0.13641733489E+04  0.13641733489E+04  0.25500000920E-02 0.  1.
        2   -1    0    0  501    0  0.00000000000E+00  0.00000000000E+00 -0.20936009143E+04  0.20936009143E+04  0.25500000920E-02 0. -1.
    10030    2    1    2    0    0  0.00000000000E+00  0.00000000000E+00 -0.72942756540E+03  0.34577742632E+04  0.33799612841E+04 0.  0.
        1    1    3    3  502    0  0.42736510445E+02  0.21092754575E+03 -0.20795247716E+04  0.20906315109E+04  0.50400001928E-02 0. -1.
       -1    1    3    3    0  502 -0.42736510445E+02 -0.21092754575E+03  0.13500972062E+04  0.13671427523E+04  0.50400001928E-02 0.  1.
</event>
<event>
 5   0  0.6146388E-07  0.3424423E+04  0.7818609E-02  0.8131938E-01
       -1   -1    0    0    0  501  0.00000000000E+00  0.00000000000E+00  0.17728719807E+04  0.17728719807E+04  0.50400001928E-02 0.  1.
        1   -1    0    0  501    0  0.00000000000E+00  0.00000000000E+00 -0.16536262289E+04  0.16536262289E+04  0.50400001928E-02 0. -1.
    10030    2    1    2    0    0  0.00000000000E+00  0.00000000000E+00  0.11924575177E+03  0.34264982096E+04  0.34244226420E+04 0.  0.
        4    1    3    3  502    0 -0.42836511986E+03  0.99396220407E+03 -0.12679097425E+04  0.16670495695E+04  0.12699999809E+01 0. -1.
       -4    1    3    3    0  502  0.42836511986E+03 -0.99396220407E+03  0.13871554943E+04  0.17594486401E+04  0.12699999809E+01 0.  1.
</event>
<event>
 5   0  0.6134625E-07  0.4084214E+04  0.7818609E-02  0.7987770E-01
        1   -1    0    0  501    0  0.00000000000E+00  0.00000000000E+00  0.15800751364E+04  0.15800751364E+04  0.50400001928E-02 0. -1.
       -1   -1    0    0    0  501  0.00000000000E+00  0.00000000000E+00 -0.26392418842E+04  0.26392418842E+04  0.50400001928E-02 0.  1.
    10030    2    1    2    0    0  0.00000000000E+00  0.00000000000E+00 -0.10591667478E+04  0.42193170206E+04  0.40842137457E+04 0.  0.
        5    1    3    3  502    0 -0.14984357164E+04  0.13820455466E+04 -0.65534313265E+03  0.21412277321E+04  0.46999998093E+01 0.  1.
       -5    1    3    3    0  502  0.14984357164E+04 -0.13820455466E+04 -0.40382361513E+03  0.20780892885E+04  0.46999998093E+01 0. -1.
</event>
<event>
 5   0  0.1339844E-06  0.3431938E+04  0.7818609E-02  0.8130112E-01
       -2   -1    0    0    0  501  0.00000000000E+00  0.00000000000E+00  0.20119696683E+04  0.20119696683E+04  0.25500000920E-02 0.  1.
        2   -1    0    0  501    0  0.00000000000E+00  0.00000000000E+00 -0.14635156545E+04  0.14635156545E+04  0.25500000920E-02 0. -1.
    10030    2    1    2    0    0  0.00000000000E+00  0.00000000000E+00  0.54845401380E+03  0.34754853228E+04  0.34319377068E+04 0.  0.
        3    1    3    3  502    0 -0.56060475946E+03  0.15507626474E+04  0.75502139164E+03  0.18136151182E+04  0.10100000352E+00 0.  1.
       -3    1    3    3    0  502  0.56060475946E+03 -0.15507626474E+04 -0.20656737783E+03  0.16618702045E+04  0.10100000352E+00 0. -1.
</event>
<event>
 5   0  0.6146388E-07  0.3351715E+04  0.7818609E-02  0.8149860E-01
       -1   -1    0    0    0  501  0.00000000000E+00  0.00000000000E+00  0.11363826251E+04  0.11363826251E+04  0.50400001928E-02 0.  1.
        1   -1    0    0  501    0  0.00000000000E+00  0.00000000000E+00 -0.24714371213E+04  0.24714371213E+04  0.50400001928E-02 0. -1.
    10030    2    1    2    0    0  0.00000000000E+00  0.00000000000E+00 -0.13350544962E+04  0.36078197464E+04  0.33517149066E+04 0.  0.
        4    1    3    3  502    0  0.13385692113E+03 -0.12185173747E+04 -0.18975556749E+04  0.22590753463E+04  0.12699999809E+01 0. -1.
       -4    1    3    3    0  502 -0.13385692113E+03  0.12185173747E+04  0.56250117875E+03  0.13487444001E+04  0.12699999809E+01 0.  1.
</event>
<event>
 5   0  0.1339844E-06  0.2649428E+04  0.7818609E-02  0.8351603E-01
        2   -1    0    0  501    0  0.00000000000E+00  0.00000000000E+00  0.12474776570E+04  0.12474776570E+04  0.25500000920E-02 0.  1.
       -2   -1    0    0    0  501  0.00000000000E+00  0.00000000000E+00 -0.14067323730E+04  0.14067323730E+04  0.25500000920E-02 0. -1.
    10030    2    1    2    0    0  0.00000000000E+00  0.00000000000E+00 -0.15925471599E+03  0.26542100299E+04  0.26494280172E+04 0.  0.
        3    1    3    3  502    0 -0.67814316826E+03  0.24365409569E+03 -0.11932189115E+04  0.13939213952E+04  0.10100000352E+00 0. -1.
       -3    1    3    3    0  502  0.67814316826E+03 -0.24365409569E+03  0.10339641955E+04  0.12602886347E+04  0.10100000352E+00 0.  1.
</event>
<event>
 5   0  0.1880301E-06  0.3351398E+04  0.7818609E-02  0.8149939E-01
       -2   -1    0    0    0  501  0.00000000000E+00  0.00000000000E+00  0.12166611767E+04  0.12166611767E+04  0.25500000920E-02 0.  1.
        2   -1    0    0  501    0  0.00000000000E+00  0.00000000000E+00 -0.23079285967E+04  0.23079285967E+04  0.25500000920E-02 0. -1.
    10030    2    1    2    0    0  0.00000000000E+00  0.00000000000E+00 -0.10912674201E+04  0.35245897734E+04  0.33513979902E+04 0.  0.
        4    1    3    3  502    0  0.32628633191E+03  0.35993044219E+02 -0.22737824561E+04  0.22973564243E+04  0.12699999809E+01 0. -1.
       -4    1    3    3    0  502 -0.32628633191E+03 -0.35993044219E+02  0.11825150361E+04  0.12272333491E+04  0.12699999809E+01 0.  1.
</event>
<event>
 5   0  0.1797075E-06  0.2662160E+04  0.7818609E-02  0.8347388E-01
       -2   -1    0    0    0  501  0.00000000000E+00  0.00000000000E+00  0.12763647632E+04  0.12763647632E+04  0.25500000920E-02 0.  1.
        2   -1    0    0  501    0  0.00000000000E+00  0.00000000000E+00 -0.13881403609E+04  0.13881403609E+04  0.25500000920E-02 0. -1.
    10030    2    1    2    0    0  0.00000000000E+00  0.00000000000E+00 -0.11177559775E+03  0.26645051241E+04  0.26621596068E+04 0.  0.
        2    1    3    3  502    0 -0.51272167320E+02 -0.11055130220E+04 -0.79612414141E+03  0.13633053677E+04  0.25500000920E-02 0. -1.
       -2    1    3    3    0  502  0.51272167320E+02  0.11055130220E+04  0.68434854366E+03  0.13011997565E+04  0.25500000920E-02 0.  1.
</event>
<event>
 5   0  0.1797075E-06  0.3158587E+04  0.7818609E-02  0.8199841E-01
        2   -1    0    0  501    0  0.00000000000E+00  0.00000000000E+00  0.14519050026E+04  0.14519050026E+04  0.25500000920E-02 0.  1.
       -2   -1    0    0    0  501  0.00000000000E+00  0.00000000000E+00 -0.17178587619E+04  0.17178587619E+04  0.25500000920E-02 0. -1.
    10030    2    1    2    0    0  0.00000000000E+00  0.00000000000E+00 -0.26595375927E+03  0.31697637645E+04  0.31585868550E+04 0.  0.
        2    1    3    3  502    0  0.45025147815E+03  0.30878463763E+03 -0.16201429709E+04  0.17096600809E+04  0.25500000920E-02 0. -1.
       -2    1    3    3    0  502 -0.45025147815E+03 -0.30878463763E+03  0.13541892116E+04  0.14601036836E+04  0.25500000920E-02 0.  1.
</event>
<event>
 5   0  0.6218695E-07  0.3000600E+04  0.7818609E-02  0.8243560E-01
       -1   -1    0    0    0  501  0.00000000000E+00  0.00000000000E+00  0.20442265627E+04  0.20442265627E+04  0.50400001928E-02 0.  1.
        1   -1    0    0  501    0  0.00000000000E+00  0.00000000000E+00 -0.11011011006E+04  0.11011011006E+04  0.50400001928E-02 0. -1.
    10030    2    1    2    0    0  0.00000000000E+00  0.00000000000E+00  0.94312546218E+03  0.31453276633E+04  0.30006000187E+04 0.  0.
        2    1    3    3  502    0  0.96570405537E+03 -0.47590536087E+03  0.15668682483E+04  0.19010908296E+04  0.25500000920E-02 0.  1.
       -2    1    3    3    0  502 -0.96570405537E+03  0.47590536087E+03 -0.62374278610E+03  0.12442368337E+04  0.25500000920E-02 0. -1.
</event>
<event>
 5   0  0.1797075E-06  0.3405511E+04  0.7818609E-02  0.8136555E-01
        2   -1    0    0  501    0  0.00000000000E+00  0.00000000000E+00  0.22451974410E+04  0.22451974410E+04  0.25500000920E-02 0.  1.
       -2   -1    0    0    0  501  0.00000000000E+00  0.00000000000E+00 -0.12913679556E+04  0.12913679556E+04  0.25500000920E-02 0. -1.
    10030    2    1    2    0    0  0.00000000000E+00  0.00000000000E+00  0.95382948533E+03  0.35365653966E+04  0.34055108453E+04 0.  0.
        2    1    3    3  502    0 -0.10447581466E+03  0.10656118024E+04 -0.89801972682E+03  0.13974559525E+04  0.25500000920E-02 0. -1.
       -2    1    3    3    0  502  0.10447581466E+03 -0.10656118024E+04  0.18518492121E+04  0.21391094441E+04  0.25500000920E-02 0.  1.
</event>
<event>
 5   0  0.1911477E-06  0.3381853E+04  0.7818609E-02  0.8142375E-01
        2   -1    0    0  501    0  0.00000000000E+00  0.00000000000E+00  0.16377550849E+04  0.16377550849E+04  0.25500000920E-02 0. -1.
       -2   -1    0    0    0  501  0.00000000000E+00  0.00000000000E+00 -0.17458236827E+04  0.17458236827E+04  0.25500000920E-02 0.  1.
    10030    2    1    2    0    0  0.00000000000E+00  0.00000000000E+00 -0.10806859783E+03  0.33835787677E+04  0.33818525182E+04 0.  0.
        5    1    3    3  502    0 -0.11889860053E+04  0.42009770689E+03  0.10730573567E+04  0.16557910450E+04  0.46999998093E+01 0. -1.
       -5    1    3    3    0  502  0.11889860053E+04 -0.42009770689E+03 -0.11811259545E+04  0.17277877226E+04  0.46999998093E+01 0.  1.
</event>
<event>
 5   0  0.1339844E-06  0.3575498E+04  0.7818609E-02  0.8096127E-01
       -2   -1    0    0    0  501  0.00000000000E+00  0.00000000000E+00  0.11823518279E+04  0.11823518279E+04  0.25500000920E-02 0. -1.
        2   -1    0    0  501    0  0.00000000000E+00  0.00000000000E+00 -0.27031271216E+04  0.27031271216E+04  0.25500000920E-02 0.  1.
    10030    2    1    2    0    0  0.00000000000E+00  0.00000000000E+00 -0.15207752937E+04  0.38854789495E+04  0.35754984511E+04 0.  0.
        3    1    3    3  502    0 -0.82079767804E+03  0.15810685545E+04 -0.92361166541E+03  0.20066253066E+04  0.10100000352E+00 0.  1.
       -3    1    3    3    0  502  0.82079767804E+03 -0.15810685545E+04 -0.59716362827E+03  0.18788536429E+04  0.10100000352E+00 0. -1.
</event>
<event>
 5   0  0.1339844E-06  0.3321161E+04  0.7818609E-02  0.8157532E-01
        2   -1    0    0  501    0  0.00000000000E+00  0.00000000000E+00  0.15699369177E+04  0.15699369177E+04  0.25500000920E-02 0. -1.
       -2   -1    0    0    0  501  0.00000000000E+00  0.00000000000E+00 -0.17564576182E+04  0.17564576182E+04  0.25500000920E-02 0.  1.
    10030    2    1    2    0    0  0.00000000000E+00  0.00000000000E+00 -0.18652070042E+03  0.33263945359E+04  0.33211610375E+04 0.  0.
        3    1    3    3  502    0  0.68923276471E+03 -0.80020427650E+03 -0.13767471946E+04  0.17351661407E+04  0.10100000352E+00 0.  1.
       -3    1    3    3    0  502 -0.68923276471E+03  0.80020427650E+03  0.11902264941E+04  0.15912283952E+04  0.10100000352E+00 0. -1.
</event>
<event>
 5   0  0.6134625E-07  0.3436844E+04  0.7818609E-02  0.8128922E-01
       -1   -1    0    0    0  501  0.00000000000E+00  0.00000000000E+00  0.18472979453E+04  0.18472979453E+04  0.50400001928E-02 0. -1.
        1   -1    0    0  501    0  0.00000000000E+00  0.00000000000E+00 -0.15985368650E+04  0.15985368651E+04  0.50400001928E-02 0.  1.
    10030    2    1    2    0    0  0.00000000000E+00  0.00000000000E+00  0.24876108026E+03  0.34458348104E+04  0.34368438232E+04 0.  0.
        3    1    3    3  502    0 -0.12434081034E+03 -0.14621390715E+04  0.10209584545E+04  0.17876429950E+04  0.10100000352E+00 0.  1.
       -3    1    3    3    0  502  0.12434081034E+03  0.14621390715E+04 -0.77219737424E+03  0.16581918154E+04  0.10100000352E+00 0. -1.
</event>
<event>
 5   0  0.6146388E-07  0.3415575E+04  0.7818609E-02  0.8134094E-01
        1   -1    0    0  501    0  0.00000000000E+00  0.00000000000E+00  0.14281598909E+04  0.14281598909E+04  0.50400001928E-02 0.  1.
       -1   -1    0    0    0  501  0.00000000000E+00  0.00000000000E+00 -0.20421646462E+04  0.20421646462E+04  0.50400001928E-02 0. -1.
    10030    2    1    2    0    0  0.00000000000E+00  0.00000000000E+00 -0.61400475524E+03  0.34703245371E+04  0.34155747032E+04 0.  0.
        4    1    3    3  502    0  0.16022272105E+04  0.13343831736E+03  0.27807376462E+03  0.16316447071E+04  0.12699999809E+01 0.  1.
       -4    1    3    3    0  502 -0.16022272105E+04 -0.13343831736E+03 -0.89207851986E+03  0.18386798300E+04  0.12699999809E+01 0. -1.
</event>
<event>
 5   0  0.1339844E-06  0.3411439E+04  0.7818609E-02  0.8135105E-01
       -2   -1    0    0    0  501  0.00000000000E+00  0.00000000000E+00  0.94504093135E+03  0.94504093135E+03  0.25500000920E-02 0. -1.
        2   -1    0    0  501    0  0.00000000000E+00  0.00000000000E+00 -0.30786804262E+04  0.30786804262E+04  0.25500000920E-02 0.  1.
    10030    2    1    2    0    0  0.00000000000E+00  0.00000000000E+00 -0.21336394949E+04  0.40237213576E+04  0.34114390027E+04 0.  0.
        3    1    3    3  502    0  0.15415105154E+04 -0.96800927497E+02 -0.19205002965E+04  0.24645377838E+04  0.10100000352E+00 0.  1.
       -3    1    3    3    0  502 -0.15415105154E+04  0.96800927497E+02 -0.21313919839E+03  0.15591835738E+04  0.10100000352E+00 0. -1.
</event>
<event>
 5   0  0.1911477E-06  0.3358908E+04  0.7818609E-02  0.8148066E-01
       -2   -1    0    0    0  501  0.00000000000E+00  0.00000000000E+00  0.14441523415E+04  0.14441523415E+04  0.25500000920E-02 0.  1.
        2   -1    0    0  501    0  0.00000000000E+00  0.00000000000E+00 -0.19530938867E+04  0.19530938867E+04  0.25500000920E-02 0. -1.
    10030    2    1    2    0    0  0.00000000000E+00  0.00000000000E+00 -0.50894154524E+03  0.33972462282E+04  0.33589076258E+04 0.  0.
        5    1    3    3  502    0 -0.46932296172E+03 -0.14618194811E+04  0.43400638932E+03  0.15954823327E+04  0.46999998093E+01 0. -1.
       -5    1    3    3    0  502  0.46932296172E+03  0.14618194811E+04 -0.94294793456E+03  0.18017638955E+04  0.46999998093E+01 0.  1.
</event>
<event>
 5   0  0.1880301E-06  0.3371465E+04  0.7818609E-02  0.8144946E-01
        2   -1    0    0  501    0  0.00000000000E+00  0.00000000000E+00  0.23871595956E+04  0.23871595956E+04  0.25500000920E-02 0. -1.
       -2   -1    0    0    0  501  0.00000000000E+00  0.00000000000E+00 -0.11904078959E+04  0.11904078959E+04  0.25500000920E-02 0.  1.
    10030    2    1    2    0    0  0.00000000000E+00  0.00000000000E+00  0.11967516997E+04  0.35775674915E+04  0.33714647448E+04 0.  0.
        4    1    3    3  502    0 -0.67914288721E+03  0.81225697647E+02 -0.10365448937E+04  0.12418774516E+04  0.12699999809E+01 0.  1.
       -4    1    3    3    0  502  0.67914288721E+03 -0.81225697647E+02  0.22332965934E+04  0.23356900398E+04  0.12699999809E+01 0. -1.
</event>
<event>
 5   0  0.6134625E-07  0.3444399E+04  0.7818609E-02  0.8127095E-01
       -1   -1    0    0    0  501  0.00000000000E+00  0.00000000000E+00  0.22051992627E+04  0.22051992627E+04  0.50400001928E-02 0. -1.
        1   -1    0    0  501    0  0.00000000000E+00  0.00000000000E+00 -0.13449901268E+04  0.13449901268E+04  0.50400001928E-02 0.  1.
    10030    2    1    2    0    0  0.00000000000E+00  0.00000000000E+00  0.86020913586E+03  0.35501893895E+04  0.34443990686E+04 0.  0.
        5    1    3    3  502    0 -0.63837744963E+03 -0.14927316728E+04  0.10223619749E+04  0.19185983720E+04  0.46999998093E+01 0. -1.
       -5    1    3    3    0  502  0.63837744963E+03  0.14927316728E+04 -0.16215283903E+03  0.16315910175E+04  0.46999998093E+01 0.  1.
</event>
<event>
 5   0  0.6146388E-07  0.3392439E+04  0.7818609E-02  0.8139765E-01
        1   -1    0    0  501    0  0.00000000000E+00  0.00000000000E+00  0.10276738161E+04  0.10276738161E+04  0.50400001928E-02 0. -1.
       -1   -1    0    0    0  501  0.00000000000E+00  0.00000000000E+00 -0.27996818752E+04  0.27996818752E+04  0.50400001928E-02 0.  1.
    10030    2    1    2    0    0  0.00000000000E+00  0.00000000000E+00 -0.17720080591E+04  0.38273556914E+04  0.33924385074E+04 0.  0.
        4    1    3    3  502    0 -0.69728739911E+03  0.67421376529E+03  0.68393435734E+03  0.11868200101E+04  0.12699999809E+01 0. -1.
       -4    1    3    3    0  502  0.69728739911E+03 -0.67421376529E+03 -0.24559424165E+04  0.26405356813E+04  0.12699999809E+01 0.  1.
</event>
<event>
 5   0  0.1880301E-06  0.3388395E+04  0.7818609E-02  0.8140760E-01
        2   -1    0    0  501    0  0.00000000000E+00  0.00000000000E+00  0.20247954960E+04  0.20247954960E+04  0.25500000920E-02 0.  1.
       -2   -1    0    0    0  501  0.00000000000E+00  0.00000000000E+00 -0.14175779687E+04  0.14175779687E+04  0.25500000920E-02 0. -1.
    10030    2    1    2    0    0  0.00000000000E+00  0.00000000000E+00  0.60721752731E+03  0.34423734647E+04  0.33883951873E+04 0.  0.
        4    1    3    3  502    0 -0.16403668089E+04  0.33669247127E+03  0.42337264912E+02  0.16750997418E+04  0.12699999809E+01 0.  1.
       -4    1    3    3    0  502  0.16403668089E+04 -0.33669247127E+03  0.56488026240E+03  0.17672737229E+04  0.12699999809E+01 0. -1.
</event>
<event>
 5   0  0.1948507E-06  0.3352607E+04  0.7818609E-02  0.8149637E-01
        2   -1    0    0  501    0  0.00000000000E+00  0.00000000000E+00  0.26756119006E+04  0.26756119006E+04  0.25500000920E-02 0.  1.
       -2   -1    0    0    0  501  0.00000000000E+00  0.00000000000E+00 -0.10502245219E+04  0.10502245219E+04  0.25500000920E-02 0. -1.
    10030    2    1    2    0    0  0.00000000000E+00  0.00000000000E+00  0.16253873787E+04  0.37258364225E+04  0.33526068837E+04 0.  0.
        1    1    3    3  502    0 -0.13712601517E+04 -0.79177217305E+03  0.20122681327E+03  0.15961672243E+04  0.50400001928E-02 0.  1.
       -1    1    3    3    0  502  0.13712601517E+04  0.79177217305E+03  0.14241605655E+04  0.21296691982E+04  0.50400001928E-02 0. -1.
</event>
<event>
 5   0  0.1797075E-06  0.3678522E+04  0.7818609E-02  0.8072738E-01
       -2   -1    0    0    0  501  0.00000000000E+00  0.00000000000E+00  0.96868135971E+03  0.96868135972E+03  0.25500000920E-02 0.  1.
        2   -1    0    0  501    0  0.00000000000E+00  0.00000000000E+00 -0.34922538569E+04  0.34922538569E+04  0.25500000920E-02 0. -1.
    10030    2    1    2    0    0  0.00000000000E+00  0.00000000000E+00 -0.25235724972E+04  0.44609352166E+04  0.36785221025E+04 0.  0.
        2    1    3    3  502    0 -0.74468193414E+03  0.15372857190E+04 -0.20888093014E+04  0.26983185251E+04  0.25500000920E-02 0. -1.
       -2    1    3    3    0  502  0.74468193414E+03 -0.15372857190E+04 -0.43476319578E+03  0.17626166916E+04  0.25500000920E-02 0.  1.
</event>
<event>
 5   0  0.6134625E-07  0.3486721E+04  0.7818609E-02  0.8116944E-01
        1   -1    0    0  501    0  0.00000000000E+00  0.00000000000E+00  0.18874100403E+04  0.18874100403E+04  0.50400001928E-02 0. -1.
       -1   -1    0    0    0  501  0.00000000000E+00  0.00000000000E+00 -0.16103047455E+04  0.16103047456E+04  0.50400001928E-02 0.  1.
    10030    2    1    2    0    0  0.00000000000E+00  0.00000000000E+00  0.27710529471E+03  0.34977147858E+04  0.34867207199E+04 0.  0.
        1    1    3    3  502    0  0.11140921225E+04  0.12577179366E+04 -0.32794017530E+03  0.17118996536E+04  0.50400001928E-02 0.  1.
       -1    1    3    3    0  502 -0.11140921225E+04 -0.12577179366E+04  0.60504547001E+03  0.17858151322E+04  0.50400001928E-02 0. -1.
</event>
<event>
 5   0  0.6134625E-07  0.3384773E+04  0.7818609E-02  0.8141654E-01
       -1   -1    0    0    0  501  0.00000000000E+00  0.00000000000E+00  0.18217231841E+04  0.18217231842E+04  0.50400001928E-02 0. -1.
        1   -1    0    0  501    0  0.00000000000E+00  0.00000000000E+00 -0.15722327194E+04  0.15722327194E+04  0.50400001928E-02 0.  1.
    10030    2    1    2    0    0  0.00000000000E+00  0.00000000000E+00  0.24949046478E+03  0.33939559035E+04  0.33847734316E+04 0.  0.
        5    1    3    3  502    0 -0.32901013008E+03 -0.29171846219E+02  0.17890831041E+04  0.18193238045E+04  0.46999998093E+01 0. -1.
       -5    1    3    3    0  502  0.32901013008E+03  0.29171846219E+02 -0.15395926393E+04  0.15746320990E+04  0.46999998093E+01 0.  1.
</event>
<event>
 5   0  0.6146388E-07  0.3449511E+04  0.7818609E-02  0.8125861E-01
        1   -1    0    0  501    0  0.00000000000E+00  0.00000000000E+00  0.21861959083E+04  0.21861959084E+04  0.50400001928E-02 0.  1.
       -1   -1    0    0    0  501  0.00000000000E+00  0.00000000000E+00 -0.13607110204E+04  0.13607110204E+04  0.50400001928E-02 0. -1.
    10030    2    1    2    0    0  0.00000000000E+00  0.00000000000E+00  0.82548488791E+03  0.35469069288E+04  0.34495106119E+04 0.  0.
        4    1    3    3  502    0 -0.86628016899E+03  0.13335143528E+04 -0.27400557280E+03  0.16136240353E+04  0.12699999809E+01 0. -1.
       -4    1    3    3    0  502  0.86628016899E+03 -0.13335143528E+04  0.10994904607E+04  0.19332828935E+04  0.12699999809E+01 0.  1.
</event>
<event>
 5   0  0.6218695E-07  0.3411538E+04  0.7818609E-02  0.8135080E-01
        1   -1    0    0  501    0  0.00000000000E+00  0.00000000000E+00  0.17870175964E+04  0.17870175964E+04  0.50400001928E-02 0. -1.
       -1   -1    0    0    0  501  0.00000000000E+00  0.00000000000E+00 -0.16282144482E+04  0.16282144482E+04  0.50400001928E-02 0.  1.
    10030    2    1    2    0    0  0.00000000000E+00  0.00000000000E+00  0.15880314816E+03  0.34152320446E+04  0.34115379931E+04 0.  0.
        2    1    3    3  502    0 -0.47942159093E+02  0.48868091313E+03  0.17147371860E+04  0.17836566661E+04  0.25500000920E-02 0. -1.
       -2    1    3    3    0  502  0.47942159093E+02 -0.48868091313E+03 -0.15559340379E+04  0.16315753785E+04  0.25500000920E-02 0.  1.
</event>
<event>
 5   0  0.1797075E-06  0.3184756E+04  0.7818609E-02  0.8192855E-01
       -2   -1    0    0    0  501  0.00000000000E+00  0.00000000000E+00  0.12975951087E+04  0.12975951087E+04  0.25500000920E-02 0. -1.
        2   -1    0    0  501    0  0.00000000000E+00  0.00000000000E+00 -0.19541285818E+04  0.19541285818E+04  0.25500000920E-02 0.  1.
    10030    2    1    2    0    0  0.00000000000E+00  0.00000000000E+00 -0.65653347314E+03  0.32517236905E+04  0.31847559966E+04 0.  0.
        2    1    3    3  502    0  0.13068866064E+04 -0.90962209070E+03 -0.31050145194E+03  0.16222749771E+04  0.25500000920E-02 0.  1.
       -2    1    3    3    0  502 -0.13068866064E+04  0.90962209070E+03 -0.34603202120E+03  0.16294487134E+04  0.25500000920E-02 0. -1.
</event>
<event>
 5   0  0.1911477E-06  0.3437682E+04  0.7818609E-02  0.8128719E-01
        2   -1    0    0  501    0  0.00000000000E+00  0.00000000000E+00  0.20432408379E+04  0.20432408379E+04  0.25500000920E-02 0.  1.
       -2   -1    0    0    0  501  0.00000000000E+00  0.00000000000E+00 -0.14459454758E+04  0.14459454758E+04  0.25500000920E-02 0. -1.
    10030    2    1    2    0    0  0.00000000000E+00  0.00000000000E+00  0.59729536211E+03  0.34891863137E+04  0.34376822689E+04 0.  0.
        5    1    3    3  502    0 -0.98252685067E+03 -0.50116956954E+03  0.16366786654E+04  0.19736436086E+04  0.46999998093E+01 0.  1.
       -5    1    3    3    0  502  0.98252685067E+03  0.50116956954E+03 -0.10393833033E+04  0.15155427051E+04  0.46999998093E+01 0. -1.
</event>
<event>
 5   0  0.6134625E-07  0.3111408E+04  0.7818609E-02  0.8212614E-01
        1   -1    0    0  501    0  0.00000000000E+00  0.00000000000E+00  0.15410294638E+04  0.15410294638E+04  0.50400001928E-02 0. -1.
       -1   -1    0    0    0  501  0.00000000000E+00  0.00000000000E+00 -0.15705178526E+04  0.15705178526E+04  0.50400001928E-02 0.  1.
    10030    2    1    2    0    0  0.00000000000E+00  0.00000000000E+00 -0.29488388788E+02  0.31115473164E+04  0.31114075814E+04 0.  0.
        1    1    3    3  502    0 -0.14162266999E+04 -0.58241495407E+03  0.25969305630E+03  0.15531727939E+04  0.50400001928E-02 0.  1.
       -1    1    3    3    0  502  0.14162266999E+04  0.58241495407E+03 -0.28918144509E+03  0.15583745225E+04  0.50400001928E-02 0. -1.
</event>
<event>
 5   0  0.1948507E-06  0.3382785E+04  0.7818609E-02  0.8142144E-01
        2   -1    0    0  501    0  0.00000000000E+00  0.00000000000E+00  0.15265404005E+04  0.15265404005E+04  0.25500000920E-02 0. -1.
       -2   -1    0    0    0  501  0.00000000000E+00  0.00000000000E+00 -0.18740476142E+04  0.18740476142E+04  0.25500000920E-02 0.  1.
    10030    2    1    2    0    0  0.00000000000E+00  0.00000000000E+00 -0.34750721374E+03  0.34005880147E+04  0.33827854768E+04 0.  0.
        1    1    3    3  502    0 -0.16397038487E+04  0.41494244085E+03 -0.17562214447E+03  0.17004849538E+04  0.50400001928E-02 0. -1.
       -1    1    3    3    0  502  0.16397038487E+04 -0.41494244085E+03 -0.17188506927E+03  0.17001030609E+04  0.50400001928E-02 0.  1.
</event>
<event>
 5   0  0.6146388E-07  0.3390010E+04  0.7818609E-02  0.8140363E-01
        1   -1    0    0  501    0  0.00000000000E+00  0.00000000000E+00  0.21174592351E+04  0.21174592351E+04  0.50400001928E-02 0. -1.
       -1   -1    0    0    0  501  0.00000000000E+00  0.00000000000E+00 -0.13568342678E+04  0.13568342678E+04  0.50400001928E-02 0.  1.
    10030    2    1    2    0    0  0.00000000000E+00  0.00000000000E+00  0.76062496722E+03  0.34742935029E+04  0.33900095875E+04 0.  0.
        4    1    3    3  502    0 -0.31548800957E+03  0.76729947154E+03 -0.11345293641E+04  0.14055033455E+04  0.12699999809E+01 0.  1.
       -4    1    3    3    0  502  0.31548800957E+03 -0.76729947154E+03  0.18951543313E+04  0.20687901575E+04  0.12699999809E+01 0. -1.
</event>
<event>
 5   0  0.1339844E-06  0.3384126E+04  0.7818609E-02  0.8141813E-01
       -2   -1    0    0    0  501  0.00000000000E+00  0.00000000000E+00  0.99639218630E+03  0.99639218631E+03  0.25500000920E-02 0. -1.
        2   -1    0    0  501    0  0.00000000000E+00  0.00000000000E+00 -0.28734439034E+04  0.28734439034E+04  0.25500000920E-02 0.  1.
    10030    2    1    2    0    0  0.00000000000E+00  0.00000000000E+00 -0.18770517171E+04  0.38698360897E+04  0.33841259156E+04 0.  0.
        3    1    3    3  502    0 -0.77011651760E+02  0.16827019216E+04 -0.11217060641E+04  0.20237690224E+04  0.10100000352E+00 0.  1.
       -3    1    3    3    0  502  0.77011651760E+02 -0.16827019216E+04 -0.75534565296E+03  0.18460670673E+04  0.10100000352E+00 0. -1.
</event>
<event>
 5   0  0.1880301E-06  0.3053473E+04  0.7818609E-02  0.8228624E-01
        2   -1    0    0  501    0  0.00000000000E+00  0.00000000000E+00  0.19593445902E+04  0.19593445902E+04  0.25500000920E-02 0. -1.
       -2   -1    0    0    0  501  0.00000000000E+00  0.00000000000E+00 -0.11896452028E+04  0.11896452028E+04  0.25500000920E-02 0.  1.
    10030    2    1    2    0    0  0.00000000000E+00  0.00000000000E+00  0.76969938732E+03  0.31489897930E+04  0.30534733615E+04 0.  0.
        4    1    3    3  502    0 -0.16462916726E+03 -0.11336647856E+04  0.14256902653E+04  0.18289048511E+04  0.12699999809E+01 0. -1.
       -4    1    3    3    0  502  0.16462916726E+03  0.11336647856E+04 -0.65599087802E+03  0.13200849419E+04  0.12699999809E+01 0.  1.
</event>
<event>
 5   0  0.1339844E-06  0.2441029E+04  0.7818609E-02  0.8424301E-01
        2   -1    0    0  501    0  0.00000000000E+00  0.00000000000E+00  0.15172888445E+04  0.15172888445E+04  0.25500000920E-02 0. -1.
       -2   -1    0    0    0  501  0.00000000000E+00  0.00000000000E+00 -0.98178777959E+03  0.98178777959E+03  0.25500000920E-02 0.  1.
    10030    2    1    2    0    0  0.00000000000E+00  0.00000000000E+00  0.53550106489E+03  0.24990766241E+04  0.24410290007E+04 0.  0.
        3    1    3    3  502    0  0.38220500261E+03 -0.10124881019E+04 -0.30997606249E+03  0.11257433056E+04  0.10100000352E+00 0.  1.
       -3    1    3    3    0  502 -0.38220500261E+03  0.10124881019E+04  0.84547712738E+03  0.13733333185E+04  0.10100000352E+00 0. -1.
</event>
<event>
 5   0  0.1911477E-06  0.3449136E+04  0.7818609E-02  0.8125951E-01
        2   -1    0    0  501    0  0.00000000000E+00  0.00000000000E+00  0.18731218047E+04  0.18731218047E+04  0.25500000920E-02 0. -1.
       -2   -1    0    0    0  501  0.00000000000E+00  0.00000000000E+00 -0.15877961557E+04  0.15877961557E+04  0.25500000920E-02 0.  1.
    10030    2    1    2    0    0  0.00000000000E+00  0.00000000000E+00  0.28532564905E+03  0.34609179604E+04  0.34491364720E+04 0.  0.
        5    1    3    3  502    0 -0.77812002160E+03  0.57808617096E+02  0.16858696139E+04  0.18576843244E+04  0.46999998093E+01 0. -1.
       -5    1    3    3    0  502  0.77812002160E+03 -0.57808617096E+02 -0.14005439648E+04  0.16032336360E+04  0.46999998093E+01 0.  1.
</event>
<event>
 5   0  0.1911477E-06  0.3384204E+04  0.7818609E-02  0.8141794E-01
        2   -1    0    0  501    0  0.00000000000E+00  0.00000000000E+00  0.16840991382E+04  0.16840991382E+04  0.25500000920E-02 0. -1.
       -2   -1    0    0    0  501  0.00000000000E+00  0.00000000000E+00 -0.17001433223E+04  0.17001433223E+04  0.25500000920E-02 0.  1.
    10030    2    1    2    0    0  0.00000000000E+00  0.00000000000E+00 -0.16044184059E+02  0.33842424605E+04  0.33842044287E+04 0.  0.
        5    1    3    3  502    0  0.66177802235E+03  0.14589367681E+04 -0.55276775683E+03  0.16947037874E+04  0.46999998093E+01 0. -1.
       -5    1    3    3    0  502 -0.66177802235E+03 -0.14589367681E+04  0.53672357277E+03  0.16895386731E+04  0.46999998093E+01 0.  1.
</event>
<event>
 5   0  0.1948507E-06  0.3519815E+04  0.7818609E-02  0.8109110E-01
       -2   -1    0    0    0  501  0.00000000000E+00  0.00000000000E+00  0.18772500475E+04  0.18772500475E+04  0.25500000920E-02 0. -1.
        2   -1    0    0  501    0  0.00000000000E+00  0.00000000000E+00 -0.16499001502E+04  0.16499001502E+04  0.25500000920E-02 0.  1.
    10030    2    1    2    0    0  0.00000000000E+00  0.00000000000E+00  0.22734989736E+03  0.35271501977E+04  0.35198154129E+04 0.  0.
        1    1    3    3  502    0 -0.62977546127E+03 -0.28849801977E+03  0.17348926818E+04  0.18680741036E+04  0.50400001928E-02 0. -1.
       -1    1    3    3    0  502  0.62977546127E+03  0.28849801977E+03 -0.15075427845E+04  0.16590760941E+04  0.50400001928E-02 0.  1.
</event>
<event>
 5   0  0.6218695E-07  0.3410037E+04  0.7818609E-02  0.8135447E-01
        1   -1    0    0  501    0  0.00000000000E+00  0.00000000000E+00  0.21262635372E+04  0.21262635372E+04  0.50400001928E-02 0.  1.
       -1   -1    0    0    0  501  0.00000000000E+00  0.00000000000E+00 -0.13672281417E+04  0.13672281417E+04  0.50400001928E-02 0. -1.
    10030    2    1    2    0    0  0.00000000000E+00  0.00000000000E+00  0.75903539543E+03  0.34934916789E+04  0.34100365656E+04 0.  0.
        2    1    3    3  502    0 -0.69780034387E+03  0.11939494705E+04 -0.64220983692E+03  0.15247537941E+04  0.25500000920E-02 0. -1.
       -2    1    3    3    0  502  0.69780034387E+03 -0.11939494705E+04  0.14012452323E+04  0.19687378848E+04  0.25500000920E-02 0.  1.
</event>
<event>
 5   0  0.1880301E-06  0.3588675E+04  0.7818609E-02  0.8093091E-01
       -2   -1    0    0    0  501  0.00000000000E+00  0.00000000000E+00  0.17432819564E+04  0.17432819564E+04  0.25500000920E-02 0. -1.
        2   -1    0    0  501    0  0.00000000000E+00  0.00000000000E+00 -0.18468882125E+04  0.18468882125E+04  0.25500000920E-02 0.  1.
    10030    2    1    2    0    0  0.00000000000E+00  0.00000000000E+00 -0.10360625618E+03  0.35901701689E+04  0.35886749066E+04 0.  0.
        4    1    3    3  502    0 -0.56484031585E+03  0.76837688340E+03 -0.15723698670E+04  0.18389660761E+04  0.12699999809E+01 0.  1.
       -4    1    3    3    0  502  0.56484031585E+03 -0.76837688340E+03  0.14687636108E+04  0.17512040928E+04  0.12699999809E+01 0. -1.
</event>
<event>
 5   0  0.6134625E-07  0.3300453E+04  0.7818609E-02  0.8162780E-01
       -1   -1    0    0    0  501  0.00000000000E+00  0.00000000000E+00  0.23423490373E+04  0.23423490373E+04  0.50400001928E-02 0.  1.
        1   -1    0    0  501    0  0.00000000000E+00  0.00000000000E+00 -0.11626136410E+04  0.11626136410E+04  0.50400001928E-02 0. -1.
    10030    2    1    2    0    0  0.00000000000E+00  0.00000000000E+00  0.11797353963E+04  0.35049626783E+04  0.33004526615E+04 0.  0.
        1    1    3    3  502    0  0.15473561517E+04 -0.54055585834E+03  0.38632694862E+03  0.16839715578E+04  0.50400001928E-02 0. -1.
       -1    1    3    3    0  502 -0.15473561517E+04  0.54055585834E+03  0.79340844772E+03  0.18209911205E+04  0.50400001928E-02 0.  1.
</event>
<event>
 5   0  0.1339844E-06  0.3395279E+04  0.7818609E-02  0.8139066E-01
       -2   -1    0    0    0  501  0.00000000000E+00  0.00000000000E+00  0.15523918733E+04  0.15523918733E+04  0.25500000920E-02 0. -1.
        2   -1    0    0  501    0  0.00000000000E+00  0.00000000000E+00 -0.18564770844E+04  0.18564770844E+04  0.25500000920E-02 0.  1.
    10030    2    1    2    0    0  0.00000000000E+00  0.00000000000E+00 -0.30408521118E+03  0.34088689577E+04  0.33952790394E+04 0.  0.
        3    1    3    3  502    0 -0.64236633412E+03 -0.15625219420E+04 -0.31965572589E+03  0.17193862625E+04  0.10100000352E+00 0.  1.
       -3    1    3    3    0  502  0.64236633412E+03  0.15625219420E+04  0.15570514706E+02  0.16894826952E+04  0.10100000352E+00 0. -1.
</event>
<event>
 5   0  0.6146388E-07  0.3418167E+04  0.7818609E-02  0.8133462E-01
       -1   -1    0    0    0  501  0.00000000000E+00  0.00000000000E+00  0.21257372833E+04  0.21257372833E+04  0.50400001928E-02 0.  1.
        1   -1    0    0  501    0  0.00000000000E+00  0.00000000000E+00 -0.13740960160E+04  0.13740960160E+04  0.50400001928E-02 0. -1.
    10030    2    1    2    0    0  0.00000000000E+00  0.00000000000E+00  0.75164126734E+03  0.34998332993E+04  0.34181674225E+04 0.  0.
        4    1    3    3  502    0 -0.58178103443E+03 -0.31149848636E+03 -0.12383812793E+04  0.14032427747E+04  0.12699999809E+01 0. -1.
       -4    1    3    3    0  502  0.58178103443E+03  0.31149848636E+03  0.19900225466E+04  0.20965905246E+04  0.12699999809E+01 0.  1.
</event>
<event>
 5   0  0.1948507E-06  0.2640935E+04  0.7818609E-02  0.8354428E-01
       -2   -1    0    0    0  501  0.00000000000E+00  0.00000000000E+00  0.10871903576E+04  0.10871903576E+04  0.25500000920E-02 0.  1.
        2   -1    0    0  501    0  0.00000000000E+00  0.00000000000E+00 -0.16037985354E+04  0.16037985354E+04  0.25500000920E-02 0. -1.
    10030    2    1    2    0    0  0.00000000000E+00  0.00000000000E+00 -0.51660817777E+03  0.26909888930E+04  0.26409349126E+04 0.  0.
        1    1    3    3  502    0 -0.25142933025E+03 -0.73539133609E+03 -0.13460656323E+04  0.15543197264E+04  0.50400001928E-02 0. -1.
       -1    1    3    3    0  502  0.25142933025E+03  0.73539133609E+03  0.82945745456E+03  0.11366691666E+04  0.50400001928E-02 0.  1.
</event>
<event>
 5   0  0.6134625E-07  0.3393380E+04  0.7818609E-02  0.8139533E-01
        1   -1    0    0  501    0  0.00000000000E+00  0.00000000000E+00  0.14920466815E+04  0.14920466815E+04  0.50400001928E-02 0.  1.
       -1   -1    0    0    0  501  0.00000000000E+00  0.00000000000E+00 -0.19294017469E+04  0.19294017469E+04  0.50400001928E-02 0. -1.
    10030    2    1    2    0    0  0.00000000000E+00  0.00000000000E+00 -0.43735506543E+03  0.34214484285E+04  0.33933803051E+04 0.  0.
        3    1    3    3  502    0  0.12526105616E+04  0.11123418382E+04 -0.49001287298E+03  0.17454083218E+04  0.10100000352E+00 0.  1.
       -3    1    3    3    0  502 -0.12526105616E+04 -0.11123418382E+04  0.52657807554E+02  0.16760401066E+04  0.10100000352E+00 0. -1.
</event>
<event>
 5   0  0.6146388E-07  0.3382578E+04  0.7818609E-02  0.8142196E-01
       -1   -1    0    0    0  501  0.00000000000E+00  0.00000000000E+00  0.16410046742E+04  0.16410046742E+04  0.50400001928E-02 0.  1.
        1   -1    0    0  501    0  0.00000000000E+00  0.00000000000E+00 -0.17431137334E+04  0.17431137334E+04  0.50400001928E-02 0. -1.
    10030    2    1    2    0    0  0.00000000000E+00  0.00000000000E+00 -0.10210905921E+03  0.33841184076E+04  0.33825775877E+04 0.  0.
        4    1    3    3  502    0 -0.62907340238E+03  0.15251731433E+03 -0.16142838963E+04  0.17392265487E+04  0.12699999809E+01 0. -1.
       -4    1    3    3    0  502  0.62907340238E+03 -0.15251731433E+03  0.15121748371E+04  0.16448918589E+04  0.12699999809E+01 0.  1.
</event>
<event>
 5   0  0.1339844E-06  0.3439210E+04  0.7818609E-02  0.8128349E-01
       -2   -1    0    0    0  501  0.00000000000E+00  0.00000000000E+00  0.14834297731E+04  0.14834297731E+04  0.25500000920E-02 0. -1.
        2   -1    0    0  501    0  0.00000000000E+00  0.00000000000E+00 -0.19933818902E+04  0.19933818902E+04  0.25500000920E-02 0.  1.
    10030    2    1    2    0    0  0.00000000000E+00  0.00000000000E+00 -0.50995211703E+03  0.34768116633E+04  0.34392104007E+04 0.  0.
        3    1    3    3  502    0  0.95183285459E+03 -0.22450890127E+03  0.11749322749E+04  0.15286778244E+04  0.10100000352E+00 0. -1.
       -3    1    3    3    0  502 -0.95183285459E+03  0.22450890127E+03 -0.16848843920E+04  0.19481338389E+04  0.10100000352E+00 0.  1.
</event>
<event>
 5   0  0.6134625E-07  0.3266523E+04  0.7818609E-02  0.8171466E-01
       -1   -1    0    0    0  501  0.00000000000E+00  0.00000000000E+00  0.13233085205E+04  0.13233085205E+04  0.50400001928E-02 0. -1.
        1   -1    0    0  501    0  0.00000000000E+00  0.00000000000E+00 -0.20158128923E+04  0.20158128923E+04  0.50400001928E-02 0.  1.
    10030    2    1    2    0    0  0.00000000000E+00  0.00000000000E+00 -0.69250437172E+03  0.33391214128E+04  0.32665225400E+04 0.  0.
        5    1    3    3  502    0  0.14230827423E+04  0.78330126482E+03 -0.51971425127E+03  0.17055352110E+04  0.46999998093E+01 0.  1.
       -5    1    3    3    0  502 -0.14230827423E+04 -0.78330126482E+03 -0.17279012045E+03  0.16335862018E+04  0.46999998093E+01 0. -1.
</event>
<event>
 5   0  0.6134625E-07  0.3403783E+04  0.7818609E-02  0.8136979E-01
        1   -1    0    0  501    0  0.00000000000E+00  0.00000000000E+00  0.14012000348E+04  0.14012000348E+04  0.50400001928E-02 0. -1.
       -1   -1    0    0    0  501  0.00000000000E+00  0.00000000000E+00 -0.20671095876E+04  0.20671095876E+04  0.50400001928E-02 0.  1.
    10030    2    1    2    0    0  0.00000000000E+00  0.00000000000E+00 -0.66590955277E+03  0.34683096224E+04  0.34037826171E+04 0.  0.
        3    1    3    3  502    0  0.88759371681E+03 -0.61013309627E+03 -0.16756410751E+04  0.19919482985E+04  0.10100000352E+00 0.  1.
       -3    1    3    3    0  502 -0.88759371681E+03  0.61013309627E+03  0.10097315223E+04  0.14763613239E+04  0.10100000352E+00 0. -1.
</event>
<event>
 5   0  0.6218695E-07  0.3386558E+04  0.7818609E-02  0.8141213E-01
        1   -1    0    0  501    0  0.00000000000E+00  0.00000000000E+00  0.18800670267E+04  0.18800670267E+04  0.50400001928E-02 0. -1.
       -1   -1    0    0    0  501  0.00000000000E+00  0.00000000000E+00 -0.15250484013E+04  0.15250484013E+04  0.50400001928E-02 0.  1.
    10030    2    1    2    0    0  0.00000000000E+00  0.00000000000E+00  0.35501862545E+03  0.34051154280E+04  0.33865576702E+04 0.  0.
        2    1    3    3  502    0  0.77291447753E+03 -0.13895102052E+04 -0.40796822968E+03  0.16415156035E+04  0.25500000920E-02 0.  1.
       -2    1    3    3    0  502 -0.77291447753E+03  0.13895102052E+04  0.76298685513E+03  0.17635998245E+04  0.25500000920E-02 0. -1.
</event>
<event>
 5   0  0.1797075E-06  0.3398091E+04  0.7818609E-02  0.8138375E-01
        2   -1    0    0  501    0  0.00000000000E+00  0.00000000000E+00  0.18624538417E+04  0.18624538417E+04  0.25500000920E-02 0. -1.
       -2   -1    0    0    0  501  0.00000000000E+00  0.00000000000E+00 -0.15499742434E+04  0.15499742434E+04  0.25500000920E-02 0.  1.
    10030    2    1    2    0    0  0.00000000000E+00  0.00000000000E+00  0.31247959832E+03  0.34124280851E+04  0.33980909253E+04 0.  0.
        2    1    3    3  502    0 -0.59215285445E+03 -0.96428470013E+03  0.14289724266E+04  0.18227594965E+04  0.25500000920E-02 0. -1.
       -2    1    3    3    0  502  0.59215285445E+03  0.96428470013E+03 -0.11164928283E+04  0.15896685886E+04  0.25500000920E-02 0.  1.
</event>
<event>
 5   0  0.6218695E-07  0.3356476E+04  0.7818609E-02  0.8148672E-01
       -1   -1    0    0    0  501  0.00000000000E+00  0.00000000000E+00  0.13017671784E+04  0.13017671784E+04  0.50400001928E-02 0.  1.
        1   -1    0    0  501    0  0.00000000000E+00  0.00000000000E+00 -0.21635840885E+04  0.21635840885E+04  0.50400001928E-02 0. -1.
    10030    2    1    2    0    0  0.00000000000E+00  0.00000000000E+00 -0.86181691010E+03  0.34653512669E+04  0.33564759819E+04 0.  0.
        2    1    3    3  502    0  0.96369325422E+03  0.12325409239E+03  0.98190448263E+03  0.13813155586E+04  0.25500000920E-02 0.  1.
       -2    1    3    3    0  502 -0.96369325422E+03 -0.12325409239E+03 -0.18437213927E+04  0.20840357083E+04  0.25500000920E-02 0. -1.
</event>
<event>
 5   0  0.6218695E-07  0.3376657E+04  0.7818609E-02  0.8143659E-01
       -1   -1    0    0    0  501  0.00000000000E+00  0.00000000000E+00  0.19381843160E+04  0.19381843160E+04  0.50400001928E-02 0. -1.
        1   -1    0    0  501    0  0.00000000000E+00  0.00000000000E+00 -0.14706819121E+04  0.14706819121E+04  0.50400001928E-02 0.  1.
    10030    2    1    2    0    0  0.00000000000E+00  0.00000000000E+00  0.46750240392E+03  0.34088662281E+04  0.33766566991E+04 0.  0.
        2    1    3    3  502    0 -0.31118214225E+03 -0.50452362052E+03 -0.13621743429E+04  0.14855629740E+04  0.25500000920E-02 0.  1.
       -2    1    3    3    0  502  0.31118214225E+03  0.50452362052E+03  0.18296767468E+04  0.19233032541E+04  0.25500000920E-02 0. -1.
</event>
<event>
 5   0  0.6134625E-07  0.3493278E+04  0.7818609E-02  0.8115385E-01
        1   -1    0    0  501    0  0.00000000000E+00  0.00000000000E+00  0.27245628793E+04  0.27245628793E+04  0.50400001928E-02 0. -1.
       -1   -1    0    0    0  501  0.00000000000E+00  0.00000000000E+00 -0.11197198176E+04  0.11197198176E+04  0.50400001928E-02 0.  1.
    10030    2    1    2    0    0  0.00000000000E+00  0.00000000000E+00  0.16048430618E+04  0.38442826969E+04  0.34932775728E+04 0.  0.
        1    1    3    3  502    0  0.26398788846E+03 -0.86532018437E+02  0.27000940972E+04  0.27143480855E+04  0.50400001928E-02 0. -1.
       -1    1    3    3    0  502 -0.26398788846E+03  0.86532018437E+02 -0.10952510354E+04  0.11299346114E+04  0.50400001928E-02 0.  1.
</event>
<event>
 5   0  0.1948507E-06  0.3387658E+04  0.7818609E-02  0.8140942E-01
       -2   -1    0    0    0  501  0.00000000000E+00  0.00000000000E+00  0.15562800706E+04  0.15562800706E+04  0.25500000920E-02 0. -1.
        2   -1    0    0  501    0  0.00000000000E+00  0.00000000000E+00 -0.18435345607E+04  0.18435345607E+04  0.25500000920E-02 0.  1.
    10030    2    1    2    0    0  0.00000000000E+00  0.00000000000E+00 -0.28725449009E+03  0.33998146314E+04  0.33876576547E+04 0.  0.
        1    1    3    3  502    0  0.14131602501E+04  0.87761984249E+03  0.17660656706E+03  0.16728503698E+04  0.50400001928E-02 0.  1.
       -1    1    3    3    0  502 -0.14131602501E+04 -0.87761984249E+03 -0.46386105715E+03  0.17269642615E+04  0.50400001928E-02 0. -1.
</event>
<event>
 5   0  0.6134625E-07  0.3421287E+04  0.7818609E-02  0.8132702E-01
        1   -1    0    0  501    0  0.00000000000E+00  0.00000000000E+00  0.88763408513E+03  0.88763408514E+03  0.50400001928E-02 0. -1.
       -1   -1    0    0    0  501  0.00000000000E+00  0.00000000000E+00 -0.32967420188E+04  0.32967420188E+04  0.50400001928E-02 0.  1.
    10030    2    1    2    0    0  0.00000000000E+00  0.00000000000E+00 -0.24091079337E+04  0.41843761040E+04  0.34212866503E+04 0.  0.
        5    1    3    3  502    0  0.98123067948E+03 -0.12783811811E+04 -0.19062926035E+04  0.24962062557E+04  0.46999998093E+01 0.  1.
       -5    1    3    3    0  502 -0.98123067948E+03  0.12783811811E+04 -0.50281533015E+03  0.16881698483E+04  0.46999998093E+01 0. -1.
</event>
<event>
 5   0  0.1880301E-06  0.3418741E+04  0.7818609E-02  0.8133322E-01
       -2   -1    0    0    0  501  0.00000000000E+00  0.00000000000E+00  0.14996316612E+04  0.14996316612E+04  0.25500000920E-02 0.  1.
        2   -1    0    0  501    0  0.00000000000E+00  0.00000000000E+00 -0.19484437513E+04  0.19484437513E+04  0.25500000920E-02 0. -1.
    10030    2    1    2    0    0  0.00000000000E+00  0.00000000000E+00 -0.44881209008E+03  0.34480754125E+04  0.34187412535E+04 0.  0.
        4    1    3    3  502    0 -0.12793526288E+04 -0.87986984134E+03 -0.94540506273E+03  0.18178851537E+04  0.12699999809E+01 0. -1.
       -4    1    3    3    0  502  0.12793526288E+04  0.87986984134E+03  0.49659297265E+03  0.16301902588E+04  0.12699999809E+01 0.  1.
</event>
<event>
 5   0  0.6134625E-07  0.3447288E+04  0.7818609E-02  0.8126397E-01
        1   -1    0    0  501    0  0.00000000000E+00  0.00000000000E+00  0.20956613658E+04  0.20956613658E+04  0.50400001928E-02 0. -1.
       -1   -1    0    0    0  501  0.00000000000E+00  0.00000000000E+00 -0.14176662950E+04  0.14176662950E+04  0.50400001928E-02 0.  1.
    10030    2    1    2    0    0  0.00000000000E+00  0.00000000000E+00  0.67799507076E+03  0.35133276608E+04  0.34472879102E+04 0.  0.
        1    1    3    3  502    0  0.97191742465E+03  0.83946063946E+03  0.15106429051E+04  0.19827656524E+04  0.50400001928E-02 0. -1.
       -1    1    3    3    0  502 -0.97191742465E+03 -0.83946063946E+03 -0.83264783431E+03  0.15305620084E+04  0.50400001928E-02 0.  1.
</event>
<event>
 5   0  0.1948507E-06  0.3254611E+04  0.7818609E-02  0.8174542E-01
        2   -1    0    0  501    0  0.00000000000E+00  0.00000000000E+00  0.17642685517E+04  0.17642685517E+04  0.25500000920E-02 0. -1.
       -2   -1    0    0    0  501  0.00000000000E+00  0.00000000000E+00 -0.15009748052E+04  0.15009748052E+04  0.25500000920E-02 0.  1.
    10030    2    1    2    0    0  0.00000000000E+00  0.00000000000E+00  0.26329374651E+03  0.32652433570E+04  0.32546106654E+04 0.  0.
        1    1    3    3  502    0  0.15161651293E+03  0.15657046149E+04 -0.28649300933E+03  0.15989048604E+04  0.50400001928E-02 0.  1.
       -1    1    3    3    0  502 -0.15161651293E+03 -0.15657046149E+04  0.54978675584E+03  0.16663384966E+04  0.50400001928E-02 0. -1.
</event>
<event>
 5   0  0.6134625E-07  0.3414678E+04  0.7818609E-02  0.8134313E-01
        3   -1    0    0  501    0  0.00000000000E+00  0.00000000000E+00  0.19928837581E+04  0.19928837607E+04  0.10100000352E+00 0.  1.
       -3   -1    0    0    0  501  0.00000000000E+00  0.00000000000E+00 -0.14627075961E+04  0.14627075995E+04  0.10100000352E+00 0. -1.
    10030    2    1    2    0    0  0.00000000000E+00  0.00000000000E+00  0.53017616208E+03  0.34555913602E+04  0.34146778598E+04 0.  0.
        4    1    3    3  502    0  0.16664816998E+04  0.35423716647E+03  0.15258328549E+03  0.17105345649E+04  0.12699999809E+01 0.  1.
       -4    1    3    3    0  502 -0.16664816998E+04 -0.35423716647E+03  0.37759287658E+03  0.17450567954E+04  0.12699999809E+01 0. -1.
</event>
<event>
 5   0  0.1880301E-06  0.2822298E+04  0.7818609E-02  0.8296379E-01
       -2   -1    0    0    0  501  0.00000000000E+00  0.00000000000E+00  0.98698053701E+03  0.98698053701E+03  0.25500000920E-02 0. -1.
        2   -1    0    0  501    0  0.00000000000E+00  0.00000000000E+00 -0.20176090241E+04  0.20176090241E+04  0.25500000920E-02 0.  1.
    10030    2    1    2    0    0  0.00000000000E+00  0.00000000000E+00 -0.10306284871E+04  0.30045895611E+04  0.28222975308E+04 0.  0.
        4    1    3    3  502    0  0.95084426343E+03 -0.54221866654E+03  0.43284838799E+03  0.11770578726E+04  0.12699999809E+01 0. -1.
       -4    1    3    3    0  502 -0.95084426343E+03  0.54221866654E+03 -0.14634768751E+04  0.18275316885E+04  0.12699999809E+01 0.  1.
</event>
<event>
 5   0  0.1911477E-06  0.3390025E+04  0.7818609E-02  0.8140359E-01
       -2   -1    0    0    0  501  0.00000000000E+00  0.00000000000E+00  0.16493106826E+04  0.16493106826E+04  0.25500000920E-02 0. -1.
        2   -1    0    0  501    0  0.00000000000E+00  0.00000000000E+00 -0.17419810448E+04  0.17419810448E+04  0.25500000920E-02 0.  1.
    10030    2    1    2    0    0  0.00000000000E+00  0.00000000000E+00 -0.92670362125E+02  0.33912917274E+04  0.33900253368E+04 0.  0.
        5    1    3    3  502    0  0.12253538363E+04 -0.14455573766E+03 -0.12089472284E+04  0.17274153746E+04  0.46999998093E+01 0.  1.
       -5    1    3    3    0  502 -0.12253538363E+04  0.14455573766E+03  0.11162768663E+04  0.16638763528E+04  0.46999998093E+01 0. -1.
</event>
<event>
 5   0  0.1948507E-06  0.3456144E+04  0.7818609E-02  0.8124263E-01
        2   -1    0    0  501    0  0.00000000000E+00  0.00000000000E+00  0.22782505878E+04  0.22782505878E+04  0.25500000920E-02 0.  1.
       -2   -1    0    0    0  501  0.00000000000E+00  0.00000000000E+00 -0.13107571899E+04  0.13107571899E+04  0.25500000920E-02 0. -1.
    10030    2    1    2    0    0  0.00000000000E+00  0.00000000000E+00  0.96749339794E+03  0.35890077777E+04  0.34561442900E+04 0.  0.
        1    1    3    3  502    0  0.17728985940E+03 -0.17068776697E+04  0.27253076245E+03  0.17375661398E+04  0.50400001928E-02 0.  1.
       -1    1    3    3    0  502 -0.17728985940E+03  0.17068776697E+04  0.69496263549E+03  0.18514416379E+04  0.50400001928E-02 0. -1.
</event>
<event>
 5   0  0.1911477E-06  0.3425157E+04  0.7818609E-02  0.8131759E-01
        2   -1    0    0  501    0  0.00000000000E+00  0.00000000000E+00  0.15795956657E+04  0.15795956657E+04  0.25500000920E-02 0.  1.
       -2   -1    0    0    0  501  0.00000000000E+00  0.00000000000E+00 -0.18567568058E+04  0.18567568058E+04  0.25500000920E-02 0. -1.
    10030    2    1    2    0    0  0.00000000000E+00  0.00000000000E+00 -0.27716114005E+03  0.34363524715E+04  0.34251569323E+04 0.  0.
        5    1    3    3  502    0 -0.10267837589E+04  0.43783105263E+03 -0.14416415180E+04  0.18232754247E+04  0.46999998093E+01 0. -1.
       -5    1    3    3    0  502  0.10267837589E+04 -0.43783105263E+03  0.11644803779E+04  0.16130770467E+04  0.46999998093E+01 0.  1.
</event>
<event>
 5   0  0.1948507E-06  0.3407463E+04  0.7818609E-02  0.8136077E-01
        2   -1    0    0  501    0  0.00000000000E+00  0.00000000000E+00  0.18039242083E+04  0.18039242083E+04  0.25500000920E-02 0.  1.
       -2   -1    0    0    0  501  0.00000000000E+00  0.00000000000E+00 -0.16091032882E+04  0.16091032882E+04  0.25500000920E-02 0. -1.
    10030    2    1    2    0    0  0.00000000000E+00  0.00000000000E+00  0.19482092008E+03  0.34130274965E+04  0.34074626191E+04 0.  0.
        1    1    3    3  502    0  0.49718629174E+03  0.42109514880E+03 -0.14793856962E+04  0.16165077702E+04  0.50400001928E-02 0. -1.
       -1    1    3    3    0  502 -0.49718629174E+03 -0.42109514880E+03  0.16742066162E+04  0.17965197263E+04  0.50400001928E-02 0.  1.
</event>
<event>
 5   0  0.6146388E-07  0.3374698E+04  0.7818609E-02  0.8144144E-01
       -1   -1    0    0    0  501  0.00000000000E+00  0.00000000000E+00  0.14266267490E+04  0.14266267491E+04  0.50400001928E-02 0. -1.
        1   -1    0    0  501    0  0.00000000000E+00  0.00000000000E+00 -0.19957194937E+04  0.19957194938E+04  0.50400001928E-02 0.  1.
    10030    2    1    2    0    0  0.00000000000E+00  0.00000000000E+00 -0.56909274470E+03  0.34223462428E+04  0.33746980981E+04 0.  0.
        4    1    3    3  502    0  0.82858058672E+03  0.44991866296E+03  0.11345585432E+04  0.14751939848E+04  0.12699999809E+01 0. -1.
       -4    1    3    3    0  502 -0.82858058672E+03 -0.44991866296E+03 -0.17036512879E+04  0.19471522580E+04  0.12699999809E+01 0.  1.
</event>
<event>
 5   0  0.6134625E-07  0.3399072E+04  0.7818609E-02  0.8138134E-01
       -1   -1    0    0    0  501  0.00000000000E+00  0.00000000000E+00  0.19241796322E+04  0.19241796322E+04  0.50400001928E-02 0.  1.
        1   -1    0    0  501    0  0.00000000000E+00  0.00000000000E+00 -0.15011187050E+04  0.15011187050E+04  0.50400001928E-02 0. -1.
    10030    2    1    2    0    0  0.00000000000E+00  0.00000000000E+00  0.42306092722E+03  0.34252983371E+04  0.33990716601E+04 0.  0.
        1    1    3    3  502    0  0.10882494781E+04  0.11230160765E+04  0.88222573116E+03  0.17954871972E+04  0.50400001928E-02 0.  1.
       -1    1    3    3    0  502 -0.10882494781E+04 -0.11230160765E+04 -0.45916480393E+03  0.16298111399E+04  0.50400001928E-02 0. -1.
</event>
<event>
 5   0  0.1948507E-06  0.3443079E+04  0.7818609E-02  0.8127414E-01
       -2   -1    0    0    0  501  0.00000000000E+00  0.00000000000E+00  0.18279795630E+04  0.18279795630E+04  0.25500000920E-02 0.  1.
        2   -1    0    0  501    0  0.00000000000E+00  0.00000000000E+00 -0.16212971803E+04  0.16212971803E+04  0.25500000920E-02 0. -1.
    10030    2    1    2    0    0  0.00000000000E+00  0.00000000000E+00  0.20668238273E+03  0.34492767433E+04  0.34430789193E+04 0.  0.
        1    1    3    3  502    0 -0.13830903272E+04  0.11657313728E+02 -0.92350309353E+03  0.16631093500E+04  0.50400001928E-02 0. -1.
       -1    1    3    3    0  502  0.13830903272E+04 -0.11657313728E+02  0.11301854763E+04  0.17861673933E+04  0.50400001928E-02 0.  1.
</event>
<event>
 5   0  0.6218695E-07  0.3435466E+04  0.7818609E-02  0.8129256E-01
        1   -1    0    0  501    0  0.00000000000E+00  0.00000000000E+00  0.21961995915E+04  0.21961995915E+04  0.50400001928E-02 0.  1.
       -1   -1    0    0    0  501  0.00000000000E+00  0.00000000000E+00 -0.13435053263E+04  0.13435053263E+04  0.50400001928E-02 0. -1.
    10030    2    1    2    0    0  0.00000000000E+00  0.00000000000E+00  0.85269426525E+03  0.35397049178E+04  0.34354655282E+04 0.  0.
        2    1    3    3  502    0  0.15773405489E+04  0.14172672560E+03  0.11117501939E+04  0.19349620580E+04  0.25500000920E-02 0.  1.
       -2    1    3    3    0  502 -0.15773405489E+04 -0.14172672560E+03 -0.25905592868E+03  0.16047428598E+04  0.25500000920E-02 0. -1.
</event>
<event>
 5   0  0.1797075E-06  0.3487349E+04  0.7818609E-02  0.8116795E-01
       -2   -1    0    0    0  501  0.00000000000E+00  0.00000000000E+00  0.18174072035E+04  0.18174072035E+04  0.25500000920E-02 0.  1.
        2   -1    0    0  501    0  0.00000000000E+00  0.00000000000E+00 -0.16729328786E+04  0.16729328786E+04  0.25500000920E-02 0. -1.
    10030    2    1    2    0    0  0.00000000000E+00  0.00000000000E+00  0.14447432493E+03  0.34903400821E+04  0.34873487148E+04 0.  0.
        2    1    3    3  502    0 -0.16228008888E+04  0.57100542267E+03  0.35685821605E+03  0.17569512525E+04  0.25500000920E-02 0. -1.
       -2    1    3    3    0  502  0.16228008888E+04 -0.57100542267E+03 -0.21238389112E+03  0.17333888296E+04  0.25500000920E-02 0.  1.
</event>
<event>
 5   0  0.6218695E-07  0.3399741E+04  0.7818609E-02  0.8137970E-01
       -1   -1    0    0    0  501  0.00000000000E+00  0.00000000000E+00  0.11591581028E+04  0.11591581029E+04  0.50400001928E-02 0.  1.
        1   -1    0    0  501    0  0.00000000000E+00  0.00000000000E+00 -0.24928082954E+04  0.24928082954E+04  0.50400001928E-02 0. -1.
    10030    2    1    2    0    0  0.00000000000E+00  0.00000000000E+00 -0.13336501926E+04  0.36519663983E+04  0.33997405398E+04 0.  0.
        2    1    3    3  502    0 -0.87218746448E+03 -0.10650747330E+04 -0.17380372286E+04  0.22171758090E+04  0.25500000920E-02 0. -1.
       -2    1    3    3    0  502  0.87218746448E+03  0.10650747330E+04  0.40438703604E+03  0.14347905893E+04  0.25500000920E-02 0.  1.
</event>
<event>
 5   0  0.1339844E-06  0.3373095E+04  0.7818609E-02  0.8144541E-01
       -2   -1    0    0    0  501  0.00000000000E+00  0.00000000000E+00  0.14330273275E+04  0.14330273275E+04  0.25500000920E-02 0. -1.
        2   -1    0    0  501    0  0.00000000000E+00  0.00000000000E+00 -0.19849188788E+04  0.19849188788E+04  0.25500000920E-02 0.  1.
    10030    2    1    2    0    0  0.00000000000E+00  0.00000000000E+00 -0.55189155128E+03  0.34179462063E+04  0.33730953121E+04 0.  0.
        3    1    3    3  502    0  0.12436465362E+04  0.11145642205E+04 -0.37158215131E+02  0.16704163708E+04  0.10100000352E+00 0. -1.
       -3    1    3    3    0  502 -0.12436465362E+04 -0.11145642205E+04 -0.51473333615E+03  0.17475298355E+04  0.10100000352E+00 0.  1.
</event>
<event>
 5   0  0.6146388E-07  0.3376184E+04  0.7818609E-02  0.8143776E-01
        1   -1    0    0  501    0  0.00000000000E+00  0.00000000000E+00  0.15361267875E+04  0.15361267875E+04  0.50400001928E-02 0.  1.
       -1   -1    0    0    0  501  0.00000000000E+00  0.00000000000E+00 -0.18550907896E+04  0.18550907896E+04  0.50400001928E-02 0. -1.
    10030    2    1    2    0    0  0.00000000000E+00  0.00000000000E+00 -0.31896400205E+03  0.33912175771E+04  0.33761840324E+04 0.  0.
        4    1    3    3  502    0 -0.35545805835E+03  0.10474267115E+04 -0.14403857813E+04  0.18160853392E+04  0.12699999809E+01 0. -1.
       -4    1    3    3    0  502  0.35545805835E+03 -0.10474267115E+04  0.11214217792E+04  0.15751322380E+04  0.12699999809E+01 0.  1.
</event>
<event>
 5   0  0.1948507E-06  0.2950332E+04  0.7818609E-02  0.8258058E-01
        2   -1    0    0  501    0  0.00000000000E+00  0.00000000000E+00  0.22127732432E+04  0.22127732432E+04  0.25500000920E-02 0.  1.
       -2   -1    0    0    0  501  0.00000000000E+00  0.00000000000E+00 -0.98343348931E+03  0.98343348932E+03  0.25500000920E-02 0. -1.
    10030    2    1    2    0    0  0.00000000000E+00  0.00000000000E+00  0.12293397539E+04  0.31962067325E+04  0.29503323959E+04 0.  0.
        1    1    3    3  502    0 -0.36665375374E+02  0.24782403037E+03 -0.96021952616E+03  0.99236215074E+03  0.50400001928E-02 0. -1.
       -1    1    3    3    0  502  0.36665375374E+02 -0.24782403037E+03  0.21895592801E+04  0.22038445818E+04  0.50400001928E-02 0.  1.
</event>
<event>
 5   0  0.6218695E-07  0.3441512E+04  0.7818609E-02  0.8127792E-01
        1   -1    0    0  501    0  0.00000000000E+00  0.00000000000E+00  0.15998665504E+04  0.15998665504E+04  0.50400001928E-02 0. -1.
       -1   -1    0    0    0  501  0.00000000000E+00  0.00000000000E+00 -0.18507800539E+04  0.18507800540E+04  0.50400001928E-02 0.  1.
    10030    2    1    2    0    0  0.00000000000E+00  0.00000000000E+00 -0.25091350354E+03  0.34506466044E+04  0.34415119355E+04 0.  0.
        2    1    3    3  502    0 -0.51243906091E+02  0.16609094789E+04  0.32266898464E+03  0.16927378736E+04  0.25500000920E-02 0. -1.
       -2    1    3    3    0  502  0.51243906091E+02 -0.16609094789E+04 -0.57358248817E+03  0.17579087308E+04  0.25500000920E-02 0.  1.
</event>
<event>
 5   0  0.1911477E-06  0.3391170E+04  0.7818609E-02  0.8140077E-01
        2   -1    0    0  501    0  0.00000000000E+00  0.00000000000E+00  0.26823309568E+04  0.26823309568E+04  0.25500000920E-02 0.  1.
       -2   -1    0    0    0  501  0.00000000000E+00  0.00000000000E+00 -0.10718319508E+04  0.10718319508E+04  0.25500000920E-02 0. -1.
    10030    2    1    2    0    0  0.00000000000E+00  0.00000000000E+00  0.16104990060E+04  0.37541629076E+04  0.33911697228E+04 0.  0.
        5    1    3    3  502    0 -0.12317153617E+04 -0.16569922845E+03 -0.47164742864E+03  0.13293052146E+04  0.46999998093E+01 0. -1.
       -5    1    3    3    0  502  0.12317153617E+04  0.16569922845E+03  0.20821464346E+04  0.24248576931E+04  0.46999998093E+01 0.  1.
</event>
<event>
 5   0  0.6134625E-07  0.3423330E+04  0.7818609E-02  0.8132204E-01
        1   -1    0    0  501    0  0.00000000000E+00  0.00000000000E+00  0.21812106293E+04  0.21812106293E+04  0.50400001928E-02 0.  1.
       -1   -1    0    0    0  501  0.00000000000E+00  0.00000000000E+00 -0.13431973686E+04  0.13431973686E+04  0.50400001928E-02 0. -1.
    10030    2    1    2    0    0  0.00000000000E+00  0.00000000000E+00  0.83801326070E+03  0.35244079980E+04  0.34233295943E+04 0.  0.
        3    1    3    3  502    0  0.56720776137E+03  0.15120935247E+04 -0.16487632215E+03  0.16233717023E+04  0.10100000352E+00 0. -1.
       -3    1    3    3    0  502 -0.56720776137E+03 -0.15120935247E+04  0.10028895828E+04  0.19010362957E+04  0.10100000352E+00 0.  1.
</event>
<event>
 5   0  0.6134625E-07  0.2680601E+04  0.7818609E-02  0.8341327E-01
       -1   -1    0    0    0  501  0.00000000000E+00  0.00000000000E+00  0.60686525338E+03  0.60686525340E+03  0.50400001928E-02 0.  1.
        1   -1    0    0  501    0  0.00000000000E+00  0.00000000000E+00 -0.29601396259E+04  0.29601396259E+04  0.50400001928E-02 0. -1.
    10030    2    1    2    0    0  0.00000000000E+00  0.00000000000E+00 -0.23532743725E+04  0.35670048793E+04  0.26806013386E+04 0.  0.
        3    1    3    3  502    0  0.34477765283E+03 -0.21222465166E+03  0.52355257065E+03  0.66182946225E+03  0.10100000352E+00 0.  1.
       -3    1    3    3    0  502 -0.34477765283E+03  0.21222465166E+03 -0.28768269432E+04  0.29051754171E+04  0.10100000352E+00 0. -1.
</event>
<event>
 5   0  0.6218695E-07  0.3407003E+04  0.7818609E-02  0.8136190E-01
       -1   -1    0    0    0  501  0.00000000000E+00  0.00000000000E+00  0.26810089105E+04  0.26810089105E+04  0.50400001928E-02 0.  1.
        1   -1    0    0  501    0  0.00000000000E+00  0.00000000000E+00 -0.10823972462E+04  0.10823972462E+04  0.50400001928E-02 0. -1.
    10030    2    1    2    0    0  0.00000000000E+00  0.00000000000E+00  0.15986116643E+04  0.37634061567E+04  0.34070025898E+04 0.  0.
        2    1    3    3  502    0  0.16246700760E+04  0.49322505066E+03  0.64667436878E+03  0.18168686099E+04  0.25500000920E-02 0.  1.
       -2    1    3    3    0  502 -0.16246700760E+04 -0.49322505066E+03  0.95193729549E+03  0.19465375468E+04  0.25500000920E-02 0. -1.
</event>
<event>
 5   0  0.1880301E-06  0.3208490E+04  0.7818609E-02  0.8186578E-01
       -2   -1    0    0    0  501  0.00000000000E+00  0.00000000000E+00  0.26249804675E+04  0.26249804675E+04  0.25500000920E-02 0.  1.
        2   -1    0    0  501    0  0.00000000000E+00  0.00000000000E+00 -0.98042734800E+03  0.98042734800E+03  0.25500000920E-02 0. -1.
    10030    2    1    2    0    0  0.00000000000E+00  0.00000000000E+00  0.16445531195E+04  0.36054078155E+04  0.32084903854E+04 0.  0.
        4    1    3    3  502    0 -0.13183646837E+04  0.84184716413E+03  0.42212124709E+03  0.16201790170E+04  0.12699999809E+01 0. -1.
       -4    1    3    3    0  502  0.13183646837E+04 -0.84184716413E+03  0.12224318724E+04  0.19852287985E+04  0.12699999809E+01 0.  1.
</event>
<event>
 5   0  0.1948507E-06  0.3384954E+04  0.7818609E-02  0.8141609E-01
       -2   -1    0    0    0  501  0.00000000000E+00  0.00000000000E+00  0.13441112863E+04  0.13441112863E+04  0.25500000920E-02 0. -1.
        2   -1    0    0  501    0  0.00000000000E+00  0.00000000000E+00 -0.21311314786E+04  0.21311314786E+04  0.25500000920E-02 0.  1.
    10030    2    1    2    0    0  0.00000000000E+00  0.00000000000E+00 -0.78702019227E+03  0.34752427649E+04  0.33849536913E+04 0.  0.
        1    1    3    3  502    0 -0.56732725533E+03 -0.15729083176E+04 -0.12465274278E+03  0.16767346530E+04  0.50400001928E-02 0. -1.
       -1    1    3    3    0  502  0.56732725533E+03  0.15729083176E+04 -0.66236744949E+03  0.17985081119E+04  0.50400001928E-02 0.  1.
</event>
<event>
 5   0  0.1339844E-06  0.3431066E+04  0.7818609E-02  0.8130323E-01
       -2   -1    0    0    0  501  0.00000000000E+00  0.00000000000E+00  0.13982443527E+04  0.13982443527E+04  0.25500000920E-02 0. -1.
        2   -1    0    0  501    0  0.00000000000E+00  0.00000000000E+00 -0.21048209818E+04  0.21048209819E+04  0.25500000920E-02 0.  1.
    10030    2    1    2    0    0  0.00000000000E+00  0.00000000000E+00 -0.70657662912E+03  0.35030653346E+04  0.34310663365E+04 0.  0.
        3    1    3    3  502    0 -0.28774431387E+03 -0.15783264287E+04  0.26703257040E+03  0.16264124660E+04  0.10100000352E+00 0. -1.
       -3    1    3    3    0  502  0.28774431387E+03  0.15783264287E+04 -0.97360919952E+03  0.18766528686E+04  0.10100000352E+00 0.  1.
</event>
<event>
 5   0  0.1797075E-06  0.2465523E+04  0.7818609E-02  0.8415372E-01
        2   -1    0    0  501    0  0.00000000000E+00  0.00000000000E+00  0.21614948241E+04  0.21614948241E+04  0.25500000920E-02 0. -1.
       -2   -1    0    0    0  501  0.00000000000E+00  0.00000000000E+00 -0.70307857741E+03  0.70307857742E+03  0.25500000920E-02 0.  1.
    10030    2    1    2    0    0  0.00000000000E+00  0.00000000000E+00  0.14584162467E+04  0.28645734015E+04  0.24655228298E+04 0.  0.
        2    1    3    3  502    0 -0.97897264523E+03 -0.52857829631E+03  0.11231131597E+03  0.11182111997E+04  0.25500000920E-02 0.  1.
       -2    1    3    3    0  502  0.97897264523E+03  0.52857829631E+03  0.13461049307E+04  0.17463622018E+04  0.25500000920E-02 0. -1.
</event>
<event>
 5   0  0.1911477E-06  0.3399098E+04  0.7818609E-02  0.8138128E-01
        2   -1    0    0  501    0  0.00000000000E+00  0.00000000000E+00  0.22609181490E+04  0.22609181490E+04  0.25500000920E-02 0. -1.
       -2   -1    0    0    0  501  0.00000000000E+00  0.00000000000E+00 -0.12775634013E+04  0.12775634013E+04  0.25500000920E-02 0.  1.
    10030    2    1    2    0    0  0.00000000000E+00  0.00000000000E+00  0.98335474771E+03  0.35384815504E+04  0.33990976924E+04 0.  0.
        5    1    3    3  502    0 -0.51338097289E+03  0.15867197946E+04  0.15083018447E+03  0.16745183082E+04  0.46999998093E+01 0.  1.
       -5    1    3    3    0  502  0.51338097289E+03 -0.15867197946E+04  0.83252456324E+03  0.18639632422E+04  0.46999998093E+01 0. -1.
</event>
<event>
 5   0  0.6146388E-07  0.3480794E+04  0.7818609E-02  0.8118357E-01
       -1   -1    0    0    0  501  0.00000000000E+00  0.00000000000E+00  0.17456318181E+04  0.17456318181E+04  0.50400001928E-02 0. -1.
        1   -1    0    0  501    0  0.00000000000E+00  0.00000000000E+00 -0.17351780760E+04  0.17351780760E+04  0.50400001928E-02 0.  1.
    10030    2    1    2    0    0  0.00000000000E+00  0.00000000000E+00  0.10453742122E+02  0.34808098941E+04  0.34807941965E+04 0.  0.
        4    1    3    3  502    0 -0.31042237955E+03 -0.28998011773E+03 -0.16825395870E+04  0.17353361625E+04  0.12699999809E+01 0.  1.
       -4    1    3    3    0  502  0.31042237955E+03  0.28998011773E+03  0.16929933291E+04  0.17454737316E+04  0.12699999809E+01 0. -1.
</event>
<event>
 5   0  0.1339844E-06  0.3320743E+04  0.7818609E-02  0.8157637E-01
       -2   -1    0    0    0  501  0.00000000000E+00  0.00000000000E+00  0.93552209599E+03  0.93552209600E+03  0.25500000920E-02 0. -1.
        2   -1    0    0  501    0  0.00000000000E+00  0.00000000000E+00 -0.29468389838E+04  0.29468389838E+04  0.25500000920E-02 0.  1.
    10030    2    1    2    0    0  0.00000000000E+00  0.00000000000E+00 -0.20113168878E+04  0.38823610798E+04  0.33207426776E+04 0.  0.
        3    1    3    3  502    0  0.52212366586E+03 -0.50946447990E+03 -0.27494440540E+04  0.28445755035E+04  0.10100000352E+00 0.  1.
       -3    1    3    3    0  502 -0.52212366586E+03  0.50946447990E+03  0.73812716619E+03  0.10377855763E+04  0.10100000352E+00 0. -1.
</event>
<event>
 5   0  0.1948507E-06  0.3438199E+04  0.7818609E-02  0.8128594E-01
        2   -1    0    0  501    0  0.00000000000E+00  0.00000000000E+00  0.20764414187E+04  0.20764414187E+04  0.25500000920E-02 0.  1.
       -2   -1    0    0    0  501  0.00000000000E+00  0.00000000000E+00 -0.14232541895E+04  0.14232541895E+04  0.25500000920E-02 0. -1.
    10030    2    1    2    0    0  0.00000000000E+00  0.00000000000E+00  0.65318722925E+03  0.34996956082E+04  0.34381994989E+04 0.  0.
        1    1    3    3  502    0 -0.10244950094E+04 -0.38834334942E+03  0.16750155335E+04  0.20015188280E+04  0.50400001928E-02 0.  1.
       -1    1    3    3    0  502  0.10244950094E+04  0.38834334942E+03 -0.10218283043E+04  0.14981767802E+04  0.50400001928E-02 0. -1.
</event>
<event>
 5   0  0.6134625E-07  0.3405238E+04  0.7818609E-02  0.8136622E-01
       -1   -1    0    0    0  501  0.00000000000E+00  0.00000000000E+00  0.21686974210E+04  0.21686974210E+04  0.50400001928E-02 0. -1.
        1   -1    0    0  501    0  0.00000000000E+00  0.00000000000E+00 -0.13367063155E+04  0.13367063155E+04  0.50400001928E-02 0.  1.
    10030    2    1    2    0    0  0.00000000000E+00  0.00000000000E+00  0.83199110548E+03  0.35054037365E+04  0.34052380469E+04 0.  0.
        5    1    3    3  502    0  0.63636323447E+03  0.11388596420E+04 -0.71022887791E+03  0.14853977916E+04  0.46999998093E+01 0.  1.
       -5    1    3    3    0  502 -0.63636323447E+03 -0.11388596420E+04  0.15422199834E+04  0.20200059449E+04  0.46999998093E+01 0. -1.
</event>
<event>
 5   0  0.6134625E-07  0.3371319E+04  0.7818609E-02  0.8144982E-01
       -1   -1    0    0    0  501  0.00000000000E+00  0.00000000000E+00  0.80198490187E+03  0.80198490188E+03  0.50400001928E-02 0. -1.
        1   -1    0    0  501    0  0.00000000000E+00  0.00000000000E+00 -0.35430188993E+04  0.35430188993E+04  0.50400001928E-02 0.  1.
    10030    2    1    2    0    0  0.00000000000E+00  0.00000000000E+00 -0.27410339974E+04  0.43450038012E+04  0.33713188305E+04 0.  0.
        1    1    3    3  502    0 -0.63338232039E+03  0.13777680779E+04 -0.42165763905E+03  0.15739165178E+04  0.50400001928E-02 0. -1.
       -1    1    3    3    0  502  0.63338232039E+03 -0.13777680779E+04 -0.23193763584E+04  0.27710872834E+04  0.50400001928E-02 0.  1.
</event>
<event>
 5   0  0.1911477E-06  0.3315848E+04  0.7818609E-02  0.8158875E-01
        2   -1    0    0  501    0  0.00000000000E+00  0.00000000000E+00  0.22189173052E+04  0.22189173052E+04  0.25500000920E-02 0.  1.
       -2   -1    0    0    0  501  0.00000000000E+00  0.00000000000E+00 -0.12387623648E+04  0.12387623648E+04  0.25500000920E-02 0. -1.
    10030    2    1    2    0    0  0.00000000000E+00  0.00000000000E+00  0.98015494040E+03  0.34576796700E+04  0.33158475528E+04 0.  0.
        5    1    3    3  502    0  0.14808780810E+04 -0.23411814108E+03  0.12280771332E+04  0.19380419835E+04  0.46999998093E+01 0.  1.
       -5    1    3    3    0  502 -0.14808780810E+04  0.23411814108E+03 -0.24792219277E+03  0.15196376866E+04  0.46999998093E+01 0. -1.
</event>
<event>
 5   0  0.6134625E-07  0.3317511E+04  0.7818609E-02  0.8158454E-01
       -1   -1    0    0    0  501  0.00000000000E+00  0.00000000000E+00  0.10853371437E+04  0.10853371437E+04  0.50400001928E-02 0. -1.
        1   -1    0    0  501    0  0.00000000000E+00  0.00000000000E+00 -0.25351290124E+04  0.25351290124E+04  0.50400001928E-02 0.  1.
    10030    2    1    2    0    0  0.00000000000E+00  0.00000000000E+00 -0.14497918686E+04  0.36204661561E+04  0.33175109232E+04 0.  0.
        1    1    3    3  502    0  0.11070548547E+04 -0.85136999806E+03  0.25186193519E+03  0.14190968111E+04  0.50400001928E-02 0. -1.
       -1    1    3    3    0  502 -0.11070548547E+04  0.85136999806E+03 -0.17016538038E+04  0.22013693450E+04  0.50400001928E-02 0.  1.
</event>
<event>
 5   0  0.1339844E-06  0.3393822E+04  0.7818609E-02  0.8139424E-01
       -2   -1    0    0    0  501  0.00000000000E+00  0.00000000000E+00  0.16576635705E+04  0.16576635705E+04  0.25500000920E-02 0.  1.
        2   -1    0    0  501    0  0.00000000000E+00  0.00000000000E+00 -0.17370873377E+04  0.17370873377E+04  0.25500000920E-02 0. -1.
    10030    2    1    2    0    0  0.00000000000E+00  0.00000000000E+00 -0.79423767217E+02  0.33947509083E+04  0.33938216798E+04 0.  0.
        3    1    3    3  502    0  0.11617001238E+04 -0.12351502890E+04  0.26359016174E+02  0.16958296560E+04  0.10100000352E+00 0.  1.
       -3    1    3    3    0  502 -0.11617001238E+04  0.12351502890E+04 -0.10578278339E+03  0.16989212523E+04  0.10100000352E+00 0. -1.
</event>
<event>
 5   0  0.1911477E-06  0.3412853E+04  0.7818609E-02  0.8134759E-01
       -2   -1    0    0    0  501  0.00000000000E+00  0.00000000000E+00  0.19585935878E+04  0.19585935879E+04  0.25500000920E-02 0.  1.
        2   -1    0    0  501    0  0.00000000000E+00  0.00000000000E+00 -0.14867254492E+04  0.14867254492E+04  0.25500000920E-02 0. -1.
    10030    2    1    2    0    0  0.00000000000E+00  0.00000000000E+00  0.47186813868E+03  0.34453190370E+04  0.34128527256E+04 0.  0.
        5    1    3    3  502    0 -0.36573972663E+03  0.16647599778E+04  0.31842746559E+03  0.17339577481E+04  0.46999998093E+01 0.  1.
       -5    1    3    3    0  502  0.36573972663E+03 -0.16647599778E+04  0.15344067310E+03  0.17113612890E+04  0.46999998093E+01 0. -1.
</event>
<event>
 5   0  0.1948507E-06  0.3441636E+04  0.7818609E-02  0.8127762E-01
        2   -1    0    0  501    0  0.00000000000E+00  0.00000000000E+00  0.12062166333E+04  0.12062166333E+04  0.25500000920E-02 0. -1.
       -2   -1    0    0    0  501  0.00000000000E+00  0.00000000000E+00 -0.24549610409E+04  0.24549610409E+04  0.25500000920E-02 0.  1.
    10030    2    1    2    0    0  0.00000000000E+00  0.00000000000E+00 -0.12487444076E+04  0.36611776743E+04  0.34416361468E+04 0.  0.
        1    1    3    3  502    0  0.41955642237E+03 -0.34989746504E+03  0.11115161234E+04  0.12385168227E+04  0.50400001928E-02 0. -1.
       -1    1    3    3    0  502 -0.41955642237E+03  0.34989746504E+03 -0.23602605309E+04  0.24226608515E+04  0.50400001928E-02 0.  1.
</event>
<event>
 5   0  0.1911477E-06  0.3374812E+04  0.7818609E-02  0.8144116E-01
        2   -1    0    0  501    0  0.00000000000E+00  0.00000000000E+00  0.21789753481E+04  0.21789753481E+04  0.25500000920E-02 0.  1.
       -2   -1    0    0    0  501  0.00000000000E+00  0.00000000000E+00 -0.13067327855E+04  0.13067327855E+04  0.25500000920E-02 0. -1.
    10030    2    1    2    0    0  0.00000000000E+00  0.00000000000E+00  0.87224256253E+03  0.34857081336E+04  0.33748117140E+04 0.  0.
        5    1    3    3  502    0  0.10626982386E+04 -0.95537922228E+03  0.13629596170E+04  0.19747804973E+04  0.46999998093E+01 0.  1.
       -5    1    3    3    0  502 -0.10626982386E+04  0.95537922228E+03 -0.49071705451E+03  0.15109276363E+04  0.46999998093E+01 0. -1.
</event>
<event>
 5   0  0.6134625E-07  0.3447219E+04  0.7818609E-02  0.8126413E-01
       -3   -1    0    0    0  501  0.00000000000E+00  0.00000000000E+00  0.12062702743E+04  0.12062702785E+04  0.10100000352E+00 0.  1.
        3   -1    0    0  501    0  0.00000000000E+00  0.00000000000E+00 -0.24628227436E+04  0.24628227457E+04  0.10100000352E+00 0. -1.
    10030    2    1    2    0    0  0.00000000000E+00  0.00000000000E+00 -0.12565524693E+04  0.36690930242E+04  0.34472190983E+04 0.  0.
        4    1    3    3  502    0  0.17090995034E+04  0.14046115001E+03 -0.44368418250E+03  0.17713293635E+04  0.12699999809E+01 0. -1.
       -4    1    3    3    0  502 -0.17090995034E+04 -0.14046115001E+03 -0.81286828682E+03  0.18977636607E+04  0.12699999809E+01 0.  1.
</event>
<event>
 5   0  0.1880301E-06  0.3416920E+04  0.7818609E-02  0.8133766E-01
       -2   -1    0    0    0  501  0.00000000000E+00  0.00000000000E+00  0.88762284026E+03  0.88762284026E+03  0.25500000920E-02 0. -1.
        2   -1    0    0  501    0  0.00000000000E+00  0.00000000000E+00 -0.32883742203E+04  0.32883742203E+04  0.25500000920E-02 0.  1.
    10030    2    1    2    0    0  0.00000000000E+00  0.00000000000E+00 -0.24007513801E+04  0.41759970606E+04  0.34169202890E+04 0.  0.
        4    1    3    3  502    0 -0.11777769035E+04  0.11637764363E+04 -0.17149880635E+04  0.23838455694E+04  0.12699999809E+01 0.  1.
       -4    1    3    3    0  502  0.11777769035E+04 -0.11637764363E+04 -0.68576331659E+03  0.17921514912E+04  0.12699999809E+01 0. -1.
</event>
<event>
 5   0  0.6218695E-07  0.3409526E+04  0.7818609E-02  0.8135572E-01
        1   -1    0    0  501    0  0.00000000000E+00  0.00000000000E+00  0.15109497769E+04  0.15109497769E+04  0.50400001928E-02 0. -1.
       -1   -1    0    0    0  501  0.00000000000E+00  0.00000000000E+00 -0.19234369048E+04  0.19234369048E+04  0.50400001928E-02 0.  1.
    10030    2    1    2    0    0  0.00000000000E+00  0.00000000000E+00 -0.41248712792E+03  0.34343866816E+04  0.34095258099E+04 0.  0.
        2    1    3    3  502    0  0.37491336733E+03  0.73947300265E+03  0.12941936638E+04  0.15369832771E+04  0.25500000920E-02 0. -1.
       -2    1    3    3    0  502 -0.37491336733E+03 -0.73947300265E+03 -0.17066807917E+04  0.18974034045E+04  0.25500000920E-02 0.  1.
</event>
<event>
 5   0  0.1911477E-06  0.3368637E+04  0.7818609E-02  0.8145647E-01
       -2   -1    0    0    0  501  0.00000000000E+00  0.00000000000E+00  0.13748640900E+04  0.13748640900E+04  0.25500000920E-02 0.  1.
        2   -1    0    0  501    0  0.00000000000E+00  0.00000000000E+00 -0.20634247912E+04  0.20634247912E+04  0.25500000920E-02 0. -1.
    10030    2    1    2    0    0  0.00000000000E+00  0.00000000000E+00 -0.68856070123E+03  0.34382888812E+04  0.33686369040E+04 0.  0.
        5    1    3    3  502    0 -0.60006534186E+03 -0.11020818458E+04 -0.14910066554E+04  0.19487908420E+04  0.46999998093E+01 0. -1.
       -5    1    3    3    0  502  0.60006534186E+03  0.11020818458E+04  0.80244595416E+03  0.14894980392E+04  0.46999998093E+01 0.  1.
</event>
<event>
 5   0  0.6134625E-07  0.2999908E+04  0.7818609E-02  0.8243757E-01
       -1   -1    0    0    0  501  0.00000000000E+00  0.00000000000E+00  0.77636822259E+03  0.77636822260E+03  0.50400001928E-02 0. -1.
        1   -1    0    0  501    0  0.00000000000E+00  0.00000000000E+00 -0.28979315219E+04  0.28979315219E+04  0.50400001928E-02 0.  1.
    10030    2    1    2    0    0  0.00000000000E+00  0.00000000000E+00 -0.21215632993E+04  0.36742997445E+04  0.29999079618E+04 0.  0.
        3    1    3    3  502    0  0.43000312651E+03 -0.63678020421E+03 -0.26385795842E+04  0.27481801160E+04  0.10100000352E+00 0.  1.
       -3    1    3    3    0  502 -0.43000312651E+03  0.63678020421E+03  0.51701628492E+03  0.92611962854E+03  0.10100000352E+00 0. -1.
</event>
<event>
 5   0  0.6218695E-07  0.3427703E+04  0.7818609E-02  0.8131140E-01
        1   -1    0    0  501    0  0.00000000000E+00  0.00000000000E+00  0.14677261498E+04  0.14677261498E+04  0.50400001928E-02 0.  1.
       -1   -1    0    0    0  501  0.00000000000E+00  0.00000000000E+00 -0.20012496843E+04  0.20012496843E+04  0.50400001928E-02 0. -1.
    10030    2    1    2    0    0  0.00000000000E+00  0.00000000000E+00 -0.53352353456E+03  0.34689758341E+04  0.34277027257E+04 0.  0.
        2    1    3    3  502    0  0.63277128821E+03 -0.54204571429E+03  0.12489613366E+04  0.15013718660E+04  0.25500000920E-02 0.  1.
       -2    1    3    3    0  502 -0.63277128821E+03  0.54204571429E+03 -0.17824848712E+04  0.19676039682E+04  0.25500000920E-02 0. -1.
</event>
<event>
 5   0  0.6134625E-07  0.3368672E+04  0.7818609E-02  0.8145638E-01
       -1   -1    0    0    0  501  0.00000000000E+00  0.00000000000E+00  0.18937074042E+04  0.18937074042E+04  0.50400001928E-02 0.  1.
        1   -1    0    0  501    0  0.00000000000E+00  0.00000000000E+00 -0.14981130293E+04  0.14981130293E+04  0.50400001928E-02 0. -1.
    10030    2    1    2    0    0  0.00000000000E+00  0.00000000000E+00  0.39559437484E+03  0.33918204335E+04  0.33686719852E+04 0.  0.
        1    1    3    3  502    0 -0.87091979501E+03 -0.93246331753E+03 -0.90930326378E+03  0.15667870160E+04  0.50400001928E-02 0. -1.
       -1    1    3    3    0  502  0.87091979501E+03  0.93246331753E+03  0.13048976386E+04  0.18250334175E+04  0.50400001928E-02 0.  1.
</event>
<event>
 5   0  0.6134625E-07  0.2825646E+04  0.7818609E-02  0.8295350E-01
       -1   -1    0    0    0  501  0.00000000000E+00  0.00000000000E+00  0.11196941986E+04  0.11196941986E+04  0.50400001928E-02 0.  1.
        1   -1    0    0  501    0  0.00000000000E+00  0.00000000000E+00 -0.17826913736E+04  0.17826913736E+04  0.50400001928E-02 0. -1.
    10030    2    1    2    0    0  0.00000000000E+00  0.00000000000E+00 -0.66299717497E+03  0.29023855722E+04  0.28256462545E+04 0.  0.
        3    1    3    3  502    0 -0.57589101322E+03 -0.83007652536E+03 -0.13459396940E+04  0.16829233991E+04  0.10100000352E+00 0. -1.
       -3    1    3    3    0  502  0.57589101322E+03  0.83007652536E+03  0.68294251904E+03  0.12194621731E+04  0.10100000352E+00 0.  1.
</event>
<event>
 5   0  0.6134625E-07  0.3458646E+04  0.7818609E-02  0.8123661E-01
       -1   -1    0    0    0  501  0.00000000000E+00  0.00000000000E+00  0.14119441726E+04  0.14119441726E+04  0.50400001928E-02 0.  1.
        1   -1    0    0  501    0  0.00000000000E+00  0.00000000000E+00 -0.21180428748E+04  0.21180428748E+04  0.50400001928E-02 0. -1.
    10030    2    1    2    0    0  0.00000000000E+00  0.00000000000E+00 -0.70609870218E+03  0.35299870474E+04  0.34586461480E+04 0.  0.
        5    1    3    3  502    0  0.10500443215E+04  0.27886731945E+03 -0.17262291274E+04  0.20396688822E+04  0.46999998093E+01 0. -1.
       -5    1    3    3    0  502 -0.10500443215E+04 -0.27886731945E+03  0.10201304252E+04  0.14903181651E+04  0.46999998093E+01 0.  1.
</event>
<event>
 5   0  0.6134625E-07  0.3384922E+04  0.7818609E-02  0.8141617E-01
        1   -1    0    0  501    0  0.00000000000E+00  0.00000000000E+00  0.26160881680E+04  0.26160881680E+04  0.50400001928E-02 0. -1.
       -1   -1    0    0    0  501  0.00000000000E+00  0.00000000000E+00 -0.10949264102E+04  0.10949264102E+04  0.50400001928E-02 0.  1.
    10030    2    1    2    0    0  0.00000000000E+00  0.00000000000E+00  0.15211617578E+04  0.37110145782E+04  0.33849218760E+04 0.  0.
        3    1    3    3  502    0 -0.12638548021E+04  0.11255611473E+04  0.74480126261E+03  0.18490391526E+04  0.10100000352E+00 0.  1.
       -3    1    3    3    0  502  0.12638548021E+04 -0.11255611473E+04  0.77636049516E+03  0.18619754256E+04  0.10100000352E+00 0. -1.
</event>
<event>
 5   0  0.1880301E-06  0.3432023E+04  0.7818609E-02  0.8130091E-01
       -2   -1    0    0    0  501  0.00000000000E+00  0.00000000000E+00  0.13564902073E+04  0.13564902073E+04  0.25500000920E-02 0. -1.
        2   -1    0    0  501    0  0.00000000000E+00  0.00000000000E+00 -0.21708194392E+04  0.21708194392E+04  0.25500000920E-02 0.  1.
    10030    2    1    2    0    0  0.00000000000E+00  0.00000000000E+00 -0.81432923193E+03  0.35273096465E+04  0.34320229085E+04 0.  0.
        4    1    3    3  502    0 -0.15449839139E+04 -0.44129735535E+03 -0.10263658222E+04  0.19066061638E+04  0.12699999809E+01 0.  1.
       -4    1    3    3    0  502  0.15449839139E+04  0.44129735535E+03  0.21203659026E+03  0.16207034826E+04  0.12699999809E+01 0. -1.
</event>
<event>
 5   0  0.6146388E-07  0.3417886E+04  0.7818609E-02  0.8133530E-01
       -1   -1    0    0    0  501  0.00000000000E+00  0.00000000000E+00  0.27948078420E+04  0.27948078420E+04  0.50400001928E-02 0. -1.
        1   -1    0    0  501    0  0.00000000000E+00  0.00000000000E+00 -0.10449685905E+04  0.10449685905E+04  0.50400001928E-02 0.  1.
    10030    2    1    2    0    0  0.00000000000E+00  0.00000000000E+00  0.17498392515E+04  0.38397764325E+04  0.34178861370E+04 0.  0.
        4    1    3    3  502    0  0.22782431967E+03 -0.94717708805E+03  0.24523120046E+04  0.26387277498E+04  0.12699999809E+01 0. -1.
       -4    1    3    3    0  502 -0.22782431967E+03  0.94717708805E+03 -0.70247275303E+03  0.12010486828E+04  0.12699999809E+01 0.  1.
</event>
<event>
 5   0  0.1339844E-06  0.2874535E+04  0.7818609E-02  0.8280495E-01
        2   -1    0    0  501    0  0.00000000000E+00  0.00000000000E+00  0.23804733391E+04  0.23804733391E+04  0.25500000920E-02 0. -1.
       -2   -1    0    0    0  501  0.00000000000E+00  0.00000000000E+00 -0.86778448549E+03  0.86778448550E+03  0.25500000920E-02 0.  1.
    10030    2    1    2    0    0  0.00000000000E+00  0.00000000000E+00  0.15126888536E+04  0.32482578246E+04  0.28745349758E+04 0.  0.
        3    1    3    3  502    0 -0.60326265131E+03 -0.22882108080E+03  0.22076299278E+04  0.22999814829E+04  0.10100000352E+00 0. -1.
       -3    1    3    3    0  502  0.60326265131E+03  0.22882108080E+03 -0.69494107416E+03  0.94827634171E+03  0.10100000352E+00 0.  1.
</event>
<event>
 5   0  0.6134625E-07  0.2533112E+04  0.7818609E-02  0.8391283E-01
        3   -1    0    0  501    0  0.00000000000E+00  0.00000000000E+00  0.13034899982E+04  0.13034900021E+04  0.10100000352E+00 0.  1.
       -3   -1    0    0    0  501  0.00000000000E+00  0.00000000000E+00 -0.12306681876E+04  0.12306681917E+04  0.10100000352E+00 0. -1.
    10030    2    1    2    0    0  0.00000000000E+00  0.00000000000E+00  0.72821810644E+02  0.25341581938E+04  0.25331116705E+04 0.  0.
        3    1    3    3  502    0 -0.62593282009E+02  0.32317428148E+03 -0.11871250930E+04  0.12319194502E+04  0.10100000352E+00 0. -1.
       -3    1    3    3    0  502  0.62593282009E+02 -0.32317428148E+03  0.12599469036E+04  0.13022387436E+04  0.10100000352E+00 0.  1.
</event>
<event>
 5   0  0.1948507E-06  0.3414538E+04  0.7818609E-02  0.8134347E-01
        2   -1    0    0  501    0  0.00000000000E+00  0.00000000000E+00  0.14121802936E+04  0.14121802937E+04  0.25500000920E-02 0.  1.
       -2   -1    0    0    0  501  0.00000000000E+00  0.00000000000E+00 -0.20640192841E+04  0.20640192841E+04  0.25500000920E-02 0. -1.
    10030    2    1    2    0    0  0.00000000000E+00  0.00000000000E+00 -0.65183899045E+03  0.34761995777E+04  0.34145379534E+04 0.  0.
        1    1    3    3  502    0 -0.69080441789E+03 -0.94301641677E+03 -0.15926873683E+04  0.19756375576E+04  0.50400001928E-02 0. -1.
       -1    1    3    3    0  502  0.69080441789E+03  0.94301641677E+03  0.94084837784E+03  0.15005620201E+04  0.50400001928E-02 0.  1.
</event>
<event>
 5   0  0.6218695E-07  0.3378109E+04  0.7818609E-02  0.8143300E-01
        1   -1    0    0  501    0  0.00000000000E+00  0.00000000000E+00  0.12439676748E+04  0.12439676749E+04  0.50400001928E-02 0. -1.
       -1   -1    0    0    0  501  0.00000000000E+00  0.00000000000E+00 -0.22933919370E+04  0.22933919370E+04  0.50400001928E-02 0.  1.
    10030    2    1    2    0    0  0.00000000000E+00  0.00000000000E+00 -0.10494242621E+04  0.35373596118E+04  0.33781091962E+04 0.  0.
        2    1    3    3  502    0 -0.15390211753E+04 -0.32156144371E+03  0.12156827467E+03  0.15769485678E+04  0.25500000920E-02 0.  1.
       -2    1    3    3    0  502  0.15390211753E+04  0.32156144371E+03 -0.11709925368E+04  0.19604110440E+04  0.25500000920E-02 0. -1.
</event>
<event>
 5   0  0.1948507E-06  0.3417450E+04  0.7818609E-02  0.8133637E-01
       -2   -1    0    0    0  501  0.00000000000E+00  0.00000000000E+00  0.15287402177E+04  0.15287402177E+04  0.25500000920E-02 0. -1.
        2   -1    0    0  501    0  0.00000000000E+00  0.00000000000E+00 -0.19098999728E+04  0.19098999728E+04  0.25500000920E-02 0.  1.
    10030    2    1    2    0    0  0.00000000000E+00  0.00000000000E+00 -0.38115975513E+03  0.34386401906E+04  0.34174498681E+04 0.  0.
        1    1    3    3  502    0  0.10871054575E+04 -0.22157693202E+03  0.11170343708E+04  0.15743761933E+04  0.50400001928E-02 0. -1.
       -1    1    3    3    0  502 -0.10871054575E+04  0.22157693202E+03 -0.14981941259E+04  0.18642639973E+04  0.50400001928E-02 0.  1.
</event>
<event>
 5   0  0.1948507E-06  0.3413391E+04  0.7818609E-02  0.8134627E-01
       -2   -1    0    0    0  501  0.00000000000E+00  0.00000000000E+00  0.17857532973E+04  0.17857532973E+04  0.25500000920E-02 0.  1.
        2   -1    0    0  501    0  0.00000000000E+00  0.00000000000E+00 -0.16311379344E+04  0.16311379344E+04  0.25500000920E-02 0. -1.
    10030    2    1    2    0    0  0.00000000000E+00  0.00000000000E+00  0.15461536291E+03  0.34168912316E+04  0.34133912431E+04 0.  0.
        1    1    3    3  502    0  0.98998850963E+03  0.11234361760E+04 -0.74244827851E+03  0.16713514104E+04  0.50400001928E-02 0. -1.
       -1    1    3    3    0  502 -0.98998850963E+03 -0.11234361760E+04  0.89706364142E+03  0.17455398212E+04  0.50400001928E-02 0.  1.
</event>
<event>
 5   0  0.6218695E-07  0.3256582E+04  0.7818609E-02  0.8174032E-01
       -1   -1    0    0    0  501  0.00000000000E+00  0.00000000000E+00  0.28351587687E+04  0.28351587687E+04  0.50400001928E-02 0.  1.
        1   -1    0    0  501    0  0.00000000000E+00  0.00000000000E+00 -0.93516180198E+03  0.93516180199E+03  0.50400001928E-02 0. -1.
    10030    2    1    2    0    0  0.00000000000E+00  0.00000000000E+00  0.18999969667E+04  0.37703205707E+04  0.32565823700E+04 0.  0.
        2    1    3    3  502    0  0.16222811163E+03 -0.73891683990E+03 -0.71934282089E+03  0.10439205671E+04  0.25500000920E-02 0. -1.
       -2    1    3    3    0  502 -0.16222811163E+03  0.73891683990E+03  0.26193397876E+04  0.27264000036E+04  0.25500000920E-02 0.  1.
</event>
<event>
 5   0  0.1948507E-06  0.3496165E+04  0.7818609E-02  0.8114699E-01
        2   -1    0    0  501    0  0.00000000000E+00  0.00000000000E+00  0.16900966056E+04  0.16900966056E+04  0.25500000920E-02 0. -1.
       -2   -1    0    0    0  501  0.00000000000E+00  0.00000000000E+00 -0.18080578783E+04  0.18080578783E+04  0.25500000920E-02 0.  1.
    10030    2    1    2    0    0  0.00000000000E+00  0.00000000000E+00 -0.11796127269E+03  0.34981544838E+04  0.34961650320E+04 0.  0.
        1    1    3    3  502    0  0.31510259924E+03 -0.92587161755E+03  0.13907277434E+04  0.17001916234E+04  0.50400001928E-02 0. -1.
       -1    1    3    3    0  502 -0.31510259924E+03  0.92587161755E+03 -0.15086890160E+04  0.17979628604E+04  0.50400001928E-02 0.  1.
</event>
<event>
 5   0  0.6146388E-07  0.3224923E+04  0.7818609E-02  0.8182266E-01
        1   -1    0    0  501    0  0.00000000000E+00  0.00000000000E+00  0.19594091433E+04  0.19594091433E+04  0.50400001928E-02 0. -1.
       -1   -1    0    0    0  501  0.00000000000E+00  0.00000000000E+00 -0.13269468985E+04  0.13269468985E+04  0.50400001928E-02 0.  1.
    10030    2    1    2    0    0  0.00000000000E+00  0.00000000000E+00  0.63246224480E+03  0.32863560418E+04  0.32249228739E+04 0.  0.
        4    1    3    3  502    0 -0.47616382075E+03  0.79527944537E+03  0.16607698723E+04  0.19019357408E+04  0.12699999809E+01 0. -1.
       -4    1    3    3    0  502  0.47616382075E+03 -0.79527944537E+03 -0.10283076275E+04  0.13844203011E+04  0.12699999809E+01 0.  1.
</event>
<event>
 5   0  0.1911477E-06  0.3419572E+04  0.7818609E-02  0.8133119E-01
       -2   -1    0    0    0  501  0.00000000000E+00  0.00000000000E+00  0.14936849977E+04  0.14936849977E+04  0.25500000920E-02 0. -1.
        2   -1    0    0  501    0  0.00000000000E+00  0.00000000000E+00 -0.19571511767E+04  0.19571511767E+04  0.25500000920E-02 0.  1.
    10030    2    1    2    0    0  0.00000000000E+00  0.00000000000E+00 -0.46346617900E+03  0.34508361744E+04  0.34195715233E+04 0.  0.
        5    1    3    3  502    0  0.33028411185E+03  0.14908491526E+04  0.54447193310E+03  0.16211695058E+04  0.46999998093E+01 0. -1.
       -5    1    3    3    0  502 -0.33028411185E+03 -0.14908491526E+04 -0.10079381121E+04  0.18296666686E+04  0.46999998093E+01 0.  1.
</event>
<event>
 5   0  0.6146388E-07  0.3342212E+04  0.7818609E-02  0.8152237E-01
        1   -1    0    0  501    0  0.00000000000E+00  0.00000000000E+00  0.11114992282E+04  0.11114992282E+04  0.50400001928E-02 0. -1.
       -1   -1    0    0    0  501  0.00000000000E+00  0.00000000000E+00 -0.25124586462E+04  0.25124586462E+04  0.50400001928E-02 0.  1.
    10030    2    1    2    0    0  0.00000000000E+00  0.00000000000E+00 -0.14009594179E+04  0.36239578744E+04  0.33422123488E+04 0.  0.
        4    1    3    3  502    0 -0.13255582150E+03  0.10819335671E+04  0.67296518779E+03  0.12810289014E+04  0.12699999809E+01 0. -1.
       -4    1    3    3    0  502  0.13255582150E+03 -0.10819335671E+04 -0.20739246057E+04  0.23429289730E+04  0.12699999809E+01 0.  1.
</event>
<event>
 5   0  0.1948507E-06  0.3393588E+04  0.7818609E-02  0.8139482E-01
       -2   -1    0    0    0  501  0.00000000000E+00  0.00000000000E+00  0.14145775206E+04  0.14145775206E+04  0.25500000920E-02 0.  1.
        2   -1    0    0  501    0  0.00000000000E+00  0.00000000000E+00 -0.20353145240E+04  0.20353145240E+04  0.25500000920E-02 0. -1.
    10030    2    1    2    0    0  0.00000000000E+00  0.00000000000E+00 -0.62073700339E+03  0.34498920446E+04  0.33935881736E+04 0.  0.
        1    1    3    3  502    0 -0.10827642338E+04 -0.46834236568E+03 -0.15501877931E+04  0.19480259627E+04  0.50400001928E-02 0. -1.
       -1    1    3    3    0  502  0.10827642338E+04  0.46834236568E+03  0.92945078968E+03  0.15018660819E+04  0.50400001928E-02 0.  1.
</event>
<event>
 5   0  0.6146388E-07  0.3324929E+04  0.7818609E-02  0.8156581E-01
       -1   -1    0    0    0  501  0.00000000000E+00  0.00000000000E+00  0.12288336409E+04  0.12288336409E+04  0.50400001928E-02 0. -1.
        1   -1    0    0  501    0  0.00000000000E+00  0.00000000000E+00 -0.22491152693E+04  0.22491152693E+04  0.50400001928E-02 0.  1.
    10030    2    1    2    0    0  0.00000000000E+00  0.00000000000E+00 -0.10202816283E+04  0.34779489102E+04  0.33249291753E+04 0.  0.
        4    1    3    3  502    0  0.14546825332E+04 -0.19453921801E+03 -0.13270030010E+04  0.19786069235E+04  0.12699999809E+01 0.  1.
       -4    1    3    3    0  502 -0.14546825332E+04  0.19453921801E+03  0.30672137269E+03  0.14993419868E+04  0.12699999809E+01 0. -1.
</event>
<event>
 5   0  0.6218695E-07  0.3394597E+04  0.7818609E-02  0.8139234E-01
        1   -1    0    0  501    0  0.00000000000E+00  0.00000000000E+00  0.25195023910E+04  0.25195023910E+04  0.50400001928E-02 0.  1.
       -1   -1    0    0    0  501  0.00000000000E+00  0.00000000000E+00 -0.11434089642E+04  0.11434089642E+04  0.50400001928E-02 0. -1.
    10030    2    1    2    0    0  0.00000000000E+00  0.00000000000E+00  0.13760934268E+04  0.36629113552E+04  0.33945966589E+04 0.  0.
        2    1    3    3  502    0  0.99601507021E+03  0.92018048432E+03 -0.41344478243E+03  0.14176440780E+04  0.25500000920E-02 0. -1.
       -2    1    3    3    0  502 -0.99601507021E+03 -0.92018048432E+03  0.17895382092E+04  0.22452672772E+04  0.25500000920E-02 0.  1.
</event>
<event>
 5   0  0.1797075E-06  0.3517841E+04  0.7818609E-02  0.8109575E-01
       -2   -1    0    0    0  501  0.00000000000E+00  0.00000000000E+00  0.12189367050E+04  0.12189367050E+04  0.25500000920E-02 0.  1.
        2   -1    0    0  501    0  0.00000000000E+00  0.00000000000E+00 -0.25381141754E+04  0.25381141754E+04  0.25500000920E-02 0. -1.
    10030    2    1    2    0    0  0.00000000000E+00  0.00000000000E+00 -0.13191774703E+04  0.37570508804E+04  0.35178405478E+04 0.  0.
        2    1    3    3  502    0 -0.52003100164E+03 -0.70232314520E+03 -0.22898574087E+04  0.24509461428E+04  0.25500000920E-02 0. -1.
       -2    1    3    3    0  502  0.52003100164E+03  0.70232314520E+03  0.97067993832E+03  0.13061047376E+04  0.25500000920E-02 0.  1.
</event>
<event>
 5   0  0.1797075E-06  0.3390011E+04  0.7818609E-02  0.8140362E-01
        2   -1    0    0  501    0  0.00000000000E+00  0.00000000000E+00  0.15608043706E+04  0.15608043706E+04  0.25500000920E-02 0.  1.
       -2   -1    0    0    0  501  0.00000000000E+00  0.00000000000E+00 -0.18407454048E+04  0.18407454048E+04  0.25500000920E-02 0. -1.
    10030    2    1    2    0    0  0.00000000000E+00  0.00000000000E+00 -0.27994103426E+03  0.34015497754E+04  0.33900108985E+04 0.  0.
        2    1    3    3  502    0  0.45114944466E+03  0.16338279051E+04 -0.12925578048E+03  0.16998930854E+04  0.25500000920E-02 0.  1.
       -2    1    3    3    0  502 -0.45114944466E+03 -0.16338279051E+04 -0.15068525377E+03  0.17016566900E+04  0.25500000920E-02 0. -1.
</event>
<event>
 5   0  0.1911477E-06  0.3245588E+04  0.7818609E-02  0.8176880E-01
        2   -1    0    0  501    0  0.00000000000E+00  0.00000000000E+00  0.16016843205E+04  0.16016843205E+04  0.25500000920E-02 0. -1.
       -2   -1    0    0    0  501  0.00000000000E+00  0.00000000000E+00 -0.16441818950E+04  0.16441818950E+04  0.25500000920E-02 0.  1.
    10030    2    1    2    0    0  0.00000000000E+00  0.00000000000E+00 -0.42497574487E+02  0.32458662156E+04  0.32455879969E+04 0.  0.
        5    1    3    3  502    0 -0.49737079107E+03 -0.14444878862E+04  0.52607804989E+03  0.16157670506E+04  0.46999998093E+01 0. -1.
       -5    1    3    3    0  502  0.49737079107E+03  0.14444878862E+04 -0.56857562438E+03  0.16300991650E+04  0.46999998093E+01 0.  1.
</event>
<event>
 5   0  0.1948507E-06  0.3477978E+04  0.7818609E-02  0.8119029E-01
       -2   -1    0    0    0  501  0.00000000000E+00  0.00000000000E+00  0.14380776722E+04  0.14380776722E+04  0.25500000920E-02 0. -1.
        2   -1    0    0  501    0  0.00000000000E+00  0.00000000000E+00 -0.21028644124E+04  0.21028644124E+04  0.25500000920E-02 0.  1.
    10030    2    1    2    0    0  0.00000000000E+00  0.00000000000E+00 -0.66478674018E+03  0.35409420845E+04  0.34779777797E+04 0.  0.
        1    1    3    3  502    0 -0.73781789727E+03 -0.13938878452E+04 -0.10783124471E+04  0.19105120539E+04  0.50400001928E-02 0.  1.
       -1    1    3    3    0  502  0.73781789727E+03  0.13938878452E+04  0.41352570692E+03  0.16304300306E+04  0.50400001928E-02 0. -1.
</event>
<event>
 5   0  0.6134625E-07  0.3379992E+04  0.7818609E-02  0.8142834E-01
        1   -1    0    0  501    0  0.00000000000E+00  0.00000000000E+00  0.10477587520E+04  0.10477587520E+04  0.50400001928E-02 0. -1.
       -1   -1    0    0    0  501  0.00000000000E+00  0.00000000000E+00 -0.27259014886E+04  0.27259014886E+04  0.50400001928E-02 0.  1.
    10030    2    1    2    0    0  0.00000000000E+00  0.00000000000E+00 -0.16781427366E+04  0.37736602406E+04  0.33799923915E+04 0.  0.
        1    1    3    3  502    0 -0.16724318119E+04  0.22120523675E+03 -0.95142631168E+03  0.19367942453E+04  0.50400001928E-02 0.  1.
       -1    1    3    3    0  502  0.16724318119E+04 -0.22120523675E+03 -0.72671642495E+03  0.18368659952E+04  0.50400001928E-02 0. -1.
</event>
<event>
 5   0  0.1880301E-06  0.3364848E+04  0.7818609E-02  0.8146588E-01
       -2   -1    0    0    0  501  0.00000000000E+00  0.00000000000E+00  0.21694670184E+04  0.21694670184E+04  0.25500000920E-02 0. -1.
        2   -1    0    0  501    0  0.00000000000E+00  0.00000000000E+00 -0.13047216623E+04  0.13047216623E+04  0.25500000920E-02 0.  1.
    10030    2    1    2    0    0  0.00000000000E+00  0.00000000000E+00  0.86474535618E+03  0.34741886807E+04  0.33648480587E+04 0.  0.
        4    1    3    3  502    0  0.20744917588E+03 -0.93884248419E+03  0.18578472946E+04  0.20919030938E+04  0.12699999809E+01 0. -1.
       -4    1    3    3    0  502 -0.20744917588E+03  0.93884248419E+03 -0.99310193847E+03  0.13822855869E+04  0.12699999809E+01 0.  1.
</event>
<event>
 5   0  0.1911477E-06  0.3402237E+04  0.7818609E-02  0.8137358E-01
        2   -1    0    0  501    0  0.00000000000E+00  0.00000000000E+00  0.25982410371E+04  0.25982410371E+04  0.25500000920E-02 0. -1.
       -2   -1    0    0    0  501  0.00000000000E+00  0.00000000000E+00 -0.11137548852E+04  0.11137548852E+04  0.25500000920E-02 0.  1.
    10030    2    1    2    0    0  0.00000000000E+00  0.00000000000E+00  0.14844861520E+04  0.37119959223E+04  0.34022367042E+04 0.  0.
        5    1    3    3  502    0  0.95408301078E+03 -0.97117292212E+02 -0.79069578139E+03  0.12429513541E+04  0.46999998093E+01 0.  1.
       -5    1    3    3    0  502 -0.95408301078E+03  0.97117292212E+02  0.22751819334E+04  0.24690445682E+04  0.46999998093E+01 0. -1.
</event>
<event>
 5   0  0.1948507E-06  0.3369673E+04  0.7818609E-02  0.8145390E-01
       -2   -1    0    0    0  501  0.00000000000E+00  0.00000000000E+00  0.21117517225E+04  0.21117517225E+04  0.25500000920E-02 0. -1.
        2   -1    0    0  501    0  0.00000000000E+00  0.00000000000E+00 -0.13442274045E+04  0.13442274045E+04  0.25500000920E-02 0.  1.
    10030    2    1    2    0    0  0.00000000000E+00  0.00000000000E+00  0.76752431794E+03  0.34559791270E+04  0.33696732998E+04 0.  0.
        1    1    3    3  502    0  0.88028846547E+03  0.83082562362E+03  0.15857413260E+04  0.19949322175E+04  0.50400001928E-02 0. -1.
       -1    1    3    3    0  502 -0.88028846547E+03 -0.83082562362E+03 -0.81821700810E+03  0.14610469095E+04  0.50400001928E-02 0.  1.
</event>
<event>
 5   0  0.6134625E-07  0.3193250E+04  0.7818609E-02  0.8190602E-01
        1   -1    0    0  501    0  0.00000000000E+00  0.00000000000E+00  0.28113520675E+04  0.28113520675E+04  0.50400001928E-02 0. -1.
       -1   -1    0    0    0  501  0.00000000000E+00  0.00000000000E+00 -0.90675656542E+03  0.90675656543E+03  0.50400001928E-02 0.  1.
    10030    2    1    2    0    0  0.00000000000E+00  0.00000000000E+00  0.19045955021E+04  0.37181086330E+04  0.31932503472E+04 0.  0.
        1    1    3    3  502    0 -0.13488619077E+04  0.17689049277E+03 -0.20830798450E+02  0.13605706945E+04  0.50400001928E-02 0.  1.
       -1    1    3    3    0  502  0.13488619077E+04 -0.17689049277E+03  0.19254263006E+04  0.23575379385E+04  0.50400001928E-02 0. -1.
</event>
<event>
 5   0  0.1911477E-06  0.3396397E+04  0.7818609E-02  0.8138791E-01
        2   -1    0    0  501    0  0.00000000000E+00  0.00000000000E+00  0.23896335609E+04  0.23896335609E+04  0.25500000920E-02 0.  1.
       -2   -1    0    0    0  501  0.00000000000E+00  0.00000000000E+00 -0.12068286853E+04  0.12068286853E+04  0.25500000920E-02 0. -1.
    10030    2    1    2    0    0  0.00000000000E+00  0.00000000000E+00  0.11828048756E+04  0.35964622462E+04  0.33963971079E+04 0.  0.
        5    1    3    3  502    0  0.86599818250E+03  0.67222603370E+03 -0.78191851452E+03  0.13465731862E+04  0.46999998093E+01 0. -1.
       -5    1    3    3    0  502 -0.86599818250E+03 -0.67222603370E+03  0.19647233901E+04  0.22498890600E+04  0.46999998093E+01 0.  1.
</event>
<event>
 5   0  0.6218695E-07  0.3046508E+04  0.7818609E-02  0.8230574E-01
       -1   -1    0    0    0  501  0.00000000000E+00  0.00000000000E+00  0.14586708484E+04  0.14586708484E+04  0.50400001928E-02 0. -1.
        1   -1    0    0  501    0  0.00000000000E+00  0.00000000000E+00 -0.15906965931E+04  0.15906965931E+04  0.50400001928E-02 0.  1.
    10030    2    1    2    0    0  0.00000000000E+00  0.00000000000E+00 -0.13202574473E+03  0.30493674415E+04  0.30465080004E+04 0.  0.
        2    1    3    3  502    0  0.27504539919E+03  0.86903269542E+02 -0.15631107445E+04  0.15895022332E+04  0.25500000920E-02 0.  1.
       -2    1    3    3    0  502 -0.27504539919E+03 -0.86903269542E+02  0.14310849998E+04  0.14598652083E+04  0.25500000920E-02 0. -1.
</event>
<event>
 5   0  0.1797075E-06  0.3354525E+04  0.7818609E-02  0.8149159E-01
        2   -1    0    0  501    0  0.00000000000E+00  0.00000000000E+00  0.16721941939E+04  0.16721941939E+04  0.25500000920E-02 0.  1.
       -2   -1    0    0    0  501  0.00000000000E+00  0.00000000000E+00 -0.16823457977E+04  0.16823457977E+04  0.25500000920E-02 0. -1.
    10030    2    1    2    0    0  0.00000000000E+00  0.00000000000E+00 -0.10151603805E+02  0.33545399916E+04  0.33545246311E+04 0.  0.
        2    1    3    3  502    0  0.10376382705E+04  0.97639358209E+03  0.87989789254E+03  0.16745918634E+04  0.25500000920E-02 0.  1.
       -2    1    3    3    0  502 -0.10376382705E+04 -0.97639358209E+03 -0.89004949635E+03  0.16799481282E+04  0.25500000920E-02 0. -1.
</event>
<event>
 5   0  0.1880301E-06  0.3198465E+04  0.7818609E-02  0.8189223E-01
        2   -1    0    0  501    0  0.00000000000E+00  0.00000000000E+00  0.20555157359E+04  0.20555157359E+04  0.25500000920E-02 0. -1.
       -2   -1    0    0    0  501  0.00000000000E+00  0.00000000000E+00 -0.12442349529E+04  0.12442349529E+04  0.25500000920E-02 0.  1.
    10030    2    1    2    0    0  0.00000000000E+00  0.00000000000E+00  0.81128078305E+03  0.32997506888E+04  0.31984649598E+04 0.  0.
        4    1    3    3  502    0  0.98515743397E+03  0.14364041005E+03  0.16968222834E+04  0.19673269203E+04  0.12699999809E+01 0. -1.
       -4    1    3    3    0  502 -0.98515743397E+03 -0.14364041005E+03 -0.88554150034E+03  0.13324237685E+04  0.12699999809E+01 0.  1.
</event>
<event>
 5   0  0.1911477E-06  0.3405715E+04  0.7818609E-02  0.8136505E-01
       -2   -1    0    0    0  501  0.00000000000E+00  0.00000000000E+00  0.11995271419E+04  0.11995271419E+04  0.25500000920E-02 0. -1.
        2   -1    0    0  501    0  0.00000000000E+00  0.00000000000E+00 -0.24173892626E+04  0.24173892626E+04  0.25500000920E-02 0.  1.
    10030    2    1    2    0    0  0.00000000000E+00  0.00000000000E+00 -0.12178621207E+04  0.36169164044E+04  0.34057152159E+04 0.  0.
        5    1    3    3  502    0 -0.52432567666E+03 -0.29405258486E+03  0.10830797077E+04  0.12387364857E+04  0.46999998093E+01 0. -1.
       -5    1    3    3    0  502  0.52432567666E+03  0.29405258486E+03 -0.23009418284E+04  0.23781799187E+04  0.46999998093E+01 0.  1.
</event>
<event>
 5   0  0.6146388E-07  0.3291277E+04  0.7818609E-02  0.8165118E-01
       -1   -1    0    0    0  501  0.00000000000E+00  0.00000000000E+00  0.17493813561E+04  0.17493813562E+04  0.50400001928E-02 0. -1.
        1   -1    0    0  501    0  0.00000000000E+00  0.00000000000E+00 -0.15480482244E+04  0.15480482244E+04  0.50400001928E-02 0.  1.
    10030    2    1    2    0    0  0.00000000000E+00  0.00000000000E+00  0.20133313178E+03  0.32974295805E+04  0.32912773825E+04 0.  0.
        4    1    3    3  502    0 -0.64823420548E+03  0.37165534299E+03  0.15696234345E+04  0.17384057691E+04  0.12699999809E+01 0. -1.
       -4    1    3    3    0  502  0.64823420548E+03 -0.37165534299E+03 -0.13682903027E+04  0.15590238114E+04  0.12699999809E+01 0.  1.
</event>
<event>
 5   0  0.6146388E-07  0.3399774E+04  0.7818609E-02  0.8137962E-01
       -1   -1    0    0    0  501  0.00000000000E+00  0.00000000000E+00  0.26570320557E+04  0.26570320557E+04  0.50400001928E-02 0.  1.
        1   -1    0    0  501    0  0.00000000000E+00  0.00000000000E+00 -0.10875354076E+04  0.10875354076E+04  0.50400001928E-02 0. -1.
    10030    2    1    2    0    0  0.00000000000E+00  0.00000000000E+00  0.15694966481E+04  0.37445674633E+04  0.33997743688E+04 0.  0.
        4    1    3    3  502    0 -0.12675577556E+03 -0.20456760570E+03  0.26381740052E+04  0.26491278993E+04  0.12699999809E+01 0.  1.
       -4    1    3    3    0  502  0.12675577556E+03  0.20456760570E+03 -0.10686773571E+04  0.10954395641E+04  0.12699999809E+01 0. -1.
</event>
<event>
 5   0  0.1797075E-06  0.3357367E+04  0.7818609E-02  0.8148450E-01
       -2   -1    0    0    0  501  0.00000000000E+00  0.00000000000E+00  0.12017080489E+04  0.12017080489E+04  0.25500000920E-02 0.  1.
        2   -1    0    0  501    0  0.00000000000E+00  0.00000000000E+00 -0.23449778216E+04  0.23449778216E+04  0.25500000920E-02 0. -1.
    10030    2    1    2    0    0  0.00000000000E+00  0.00000000000E+00 -0.11432697727E+04  0.35466858705E+04  0.33573672559E+04 0.  0.
        2    1    3    3  502    0 -0.25271617416E+03 -0.14956834019E+04  0.18797009089E+03  0.15284852170E+04  0.25500000920E-02 0.  1.
       -2    1    3    3    0  502  0.25271617416E+03  0.14956834019E+04 -0.13312398636E+04  0.20182006535E+04  0.25500000920E-02 0. -1.
</event>
<event>
 5   0  0.1948507E-06  0.3775760E+04  0.7818609E-02  0.8051377E-01
        2   -1    0    0  501    0  0.00000000000E+00  0.00000000000E+00  0.24606504600E+04  0.24606504600E+04  0.25500000920E-02 0.  1.
       -2   -1    0    0    0  501  0.00000000000E+00  0.00000000000E+00 -0.14484347635E+04  0.14484347635E+04  0.25500000920E-02 0. -1.
    10030    2    1    2    0    0  0.00000000000E+00  0.00000000000E+00  0.10122156965E+04  0.39090852235E+04  0.37757604093E+04 0.  0.
        1    1    3    3  502    0 -0.18824418093E+03 -0.15750206316E+04  0.15659575122E+04  0.22289793161E+04  0.50400001928E-02 0.  1.
       -1    1    3    3    0  502  0.18824418093E+03  0.15750206316E+04 -0.55374181573E+03  0.16801059074E+04  0.50400001928E-02 0. -1.
</event>
<event>
 5   0  0.1880301E-06  0.3349317E+04  0.7818609E-02  0.8150459E-01
        2   -1    0    0  501    0  0.00000000000E+00  0.00000000000E+00  0.98855346757E+03  0.98855346758E+03  0.25500000920E-02 0.  1.
       -2   -1    0    0    0  501  0.00000000000E+00  0.00000000000E+00 -0.28369545109E+04  0.28369545109E+04  0.25500000920E-02 0. -1.
    10030    2    1    2    0    0  0.00000000000E+00  0.00000000000E+00 -0.18484010434E+04  0.38255079785E+04  0.33493170761E+04 0.  0.
        4    1    3    3  502    0 -0.46930165717E+03 -0.13922182691E+04 -0.18421884204E+04  0.23563054860E+04  0.12699999809E+01 0. -1.
       -4    1    3    3    0  502  0.46930165717E+03  0.13922182691E+04 -0.62126229143E+01  0.14692024925E+04  0.12699999809E+01 0.  1.
</event>
<event>
 5   0  0.1911477E-06  0.3476451E+04  0.7818609E-02  0.8119394E-01
        2   -1    0    0  501    0  0.00000000000E+00  0.00000000000E+00  0.15991789479E+04  0.15991789479E+04  0.25500000920E-02 0. -1.
       -2   -1    0    0    0  501  0.00000000000E+00  0.00000000000E+00 -0.18893615465E+04  0.18893615465E+04  0.25500000920E-02 0.  1.
    10030    2    1    2    0    0  0.00000000000E+00  0.00000000000E+00 -0.29018259853E+03  0.34885404944E+04  0.34764506096E+04 0.  0.
        5    1    3    3  502    0 -0.56045556442E+03 -0.20441185101E+03  0.14932255649E+04  0.16079923265E+04  0.46999998093E+01 0. -1.
       -5    1    3    3    0  502  0.56045556442E+03  0.20441185101E+03 -0.17834081634E+04  0.18805481679E+04  0.46999998093E+01 0.  1.
</event>
<event>
 5   0  0.1339844E-06  0.3411340E+04  0.7818609E-02  0.8135129E-01
        2   -1    0    0  501    0  0.00000000000E+00  0.00000000000E+00  0.19073445518E+04  0.19073445518E+04  0.25500000920E-02 0.  1.
       -2   -1    0    0    0  501  0.00000000000E+00  0.00000000000E+00 -0.15253198102E+04  0.15253198102E+04  0.25500000920E-02 0. -1.
    10030    2    1    2    0    0  0.00000000000E+00  0.00000000000E+00  0.38202474159E+03  0.34326643620E+04  0.34113401646E+04 0.  0.
        3    1    3    3  502    0 -0.12416311025E+04  0.80121436035E+03  0.10482284585E+04  0.18117326396E+04  0.10100000352E+00 0.  1.
       -3    1    3    3    0  502  0.12416311025E+04 -0.80121436035E+03 -0.66620371692E+03  0.16209317224E+04  0.10100000352E+00 0. -1.
</event>
<event>
 5   0  0.6146388E-07  0.3387070E+04  0.7818609E-02  0.8141087E-01
       -1   -1    0    0    0  501  0.00000000000E+00  0.00000000000E+00  0.27843653354E+04  0.27843653354E+04  0.50400001928E-02 0.  1.
        1   -1    0    0  501    0  0.00000000000E+00  0.00000000000E+00 -0.10300592445E+04  0.10300592445E+04  0.50400001928E-02 0. -1.
    10030    2    1    2    0    0  0.00000000000E+00  0.00000000000E+00  0.17543060909E+04  0.38144245799E+04  0.33870702701E+04 0.  0.
        4    1    3    3  502    0 -0.13556161900E+04  0.94941810436E+03  0.12815879081E+04  0.20932174207E+04  0.12699999809E+01 0. -1.
       -4    1    3    3    0  502  0.13556161900E+04 -0.94941810436E+03  0.47271818283E+03  0.17212071591E+04  0.12699999809E+01 0.  1.
</event>
<event>
 5   0  0.6134625E-07  0.3101575E+04  0.7818609E-02  0.8215306E-01
        1   -1    0    0  501    0  0.00000000000E+00  0.00000000000E+00  0.96621762314E+03  0.96621762315E+03  0.50400001928E-02 0. -1.
       -1   -1    0    0    0  501  0.00000000000E+00  0.00000000000E+00 -0.24890263476E+04  0.24890263476E+04  0.50400001928E-02 0.  1.
    10030    2    1    2    0    0  0.00000000000E+00  0.00000000000E+00 -0.15228087244E+04  0.34552439707E+04  0.31015745172E+04 0.  0.
        1    1    3    3  502    0  0.87623629956E+02  0.14686770926E+04 -0.13074499926E+04  0.19682773651E+04  0.50400001928E-02 0.  1.
       -1    1    3    3    0  502 -0.87623629956E+02 -0.14686770926E+04 -0.21535873182E+03  0.14869666056E+04  0.50400001928E-02 0. -1.
</event>
<event>
 5   0  0.6146388E-07  0.3460880E+04  0.7818609E-02  0.8123124E-01
       -1   -1    0    0    0  501  0.00000000000E+00  0.00000000000E+00  0.10373709032E+04  0.10373709032E+04  0.50400001928E-02 0. -1.
        1   -1    0    0  501    0  0.00000000000E+00  0.00000000000E+00 -0.28865491187E+04  0.28865491187E+04  0.50400001928E-02 0.  1.
    10030    2    1    2    0    0  0.00000000000E+00  0.00000000000E+00 -0.18491782154E+04  0.39239200219E+04  0.34608796954E+04 0.  0.
        4    1    3    3  502    0 -0.17233260066E+03 -0.12804357442E+04  0.38060582488E+03  0.13468766191E+04  0.12699999809E+01 0. -1.
       -4    1    3    3    0  502  0.17233260066E+03  0.12804357442E+04 -0.22297840403E+04  0.25770434028E+04  0.12699999809E+01 0.  1.
</event>
<event>
 5   0  0.1911477E-06  0.3397771E+04  0.7818609E-02  0.8138453E-01
       -2   -1    0    0    0  501  0.00000000000E+00  0.00000000000E+00  0.17493976203E+04  0.17493976203E+04  0.25500000920E-02 0.  1.
        2   -1    0    0  501    0  0.00000000000E+00  0.00000000000E+00 -0.16498323444E+04  0.16498323444E+04  0.25500000920E-02 0. -1.
    10030    2    1    2    0    0  0.00000000000E+00  0.00000000000E+00  0.99565275865E+02  0.33992299647E+04  0.33977714916E+04 0.  0.
        5    1    3    3  502    0  0.97454552710E+02 -0.11007209323E+04  0.13407266753E+04  0.17374274283E+04  0.46999998093E+01 0.  1.
       -5    1    3    3    0  502 -0.97454552710E+02  0.11007209323E+04 -0.12411613994E+04  0.16618025364E+04  0.46999998093E+01 0. -1.
</event>
<event>
 5   0  0.6134625E-07  0.3383252E+04  0.7818609E-02  0.8142029E-01
        1   -1    0    0  501    0  0.00000000000E+00  0.00000000000E+00  0.20413349591E+04  0.20413349591E+04  0.50400001928E-02 0.  1.
       -1   -1    0    0    0  501  0.00000000000E+00  0.00000000000E+00 -0.14018272575E+04  0.14018272575E+04  0.50400001928E-02 0. -1.
    10030    2    1    2    0    0  0.00000000000E+00  0.00000000000E+00  0.63950770161E+03  0.34431622166E+04  0.33832522740E+04 0.  0.
        5    1    3    3  502    0  0.59383745414E+03  0.15816961306E+04  0.40593709391E+03  0.17375881519E+04  0.46999998093E+01 0. -1.
       -5    1    3    3    0  502 -0.59383745414E+03 -0.15816961306E+04  0.23357060770E+03  0.17055740647E+04  0.46999998093E+01 0.  1.
</event>
<event>
 5   0  0.6134625E-07  0.3363505E+04  0.7818609E-02  0.8146922E-01
        1   -1    0    0  501    0  0.00000000000E+00  0.00000000000E+00  0.33848680480E+04  0.33848680480E+04  0.50400001928E-02 0. -1.
       -1   -1    0    0    0  501  0.00000000000E+00  0.00000000000E+00 -0.83556914892E+03  0.83556914893E+03  0.50400001928E-02 0.  1.
    10030    2    1    2    0    0  0.00000000000E+00  0.00000000000E+00  0.25492988990E+04  0.42204371969E+04  0.33635049065E+04 0.  0.
        1    1    3    3  502    0  0.13810187742E+04 -0.15891814022E+03  0.87031922982E+02  0.13928540432E+04  0.50400001928E-02 0.  1.
       -1    1    3    3    0  502 -0.13810187742E+04  0.15891814022E+03  0.24622669761E+04  0.28275831537E+04  0.50400001928E-02 0. -1.
</event>
<event>
 5   0  0.1948507E-06  0.3343147E+04  0.7818609E-02  0.8152003E-01
        2   -1    0    0  501    0  0.00000000000E+00  0.00000000000E+00  0.23874475459E+04  0.23874475459E+04  0.25500000920E-02 0.  1.
       -2   -1    0    0    0  501  0.00000000000E+00  0.00000000000E+00 -0.11703536881E+04  0.11703536881E+04  0.25500000920E-02 0. -1.
    10030    2    1    2    0    0  0.00000000000E+00  0.00000000000E+00  0.12170938578E+04  0.35578012339E+04  0.33431470445E+04 0.  0.
        1    1    3    3  502    0  0.13121092848E+04 -0.21975458874E+03 -0.46847872517E+03  0.14104592055E+04  0.50400001928E-02 0. -1.
       -1    1    3    3    0  502 -0.13121092848E+04  0.21975458874E+03  0.16855725830E+04  0.21473420284E+04  0.50400001928E-02 0.  1.
</event>
<event>
 5   0  0.6134625E-07  0.3461587E+04  0.7818609E-02  0.8122954E-01
        1   -1    0    0  501    0  0.00000000000E+00  0.00000000000E+00  0.25309656410E+04  0.25309656410E+04  0.50400001928E-02 0.  1.
       -1   -1    0    0    0  501  0.00000000000E+00  0.00000000000E+00 -0.11835982006E+04  0.11835982006E+04  0.50400001928E-02 0. -1.
    10030    2    1    2    0    0  0.00000000000E+00  0.00000000000E+00  0.13473674404E+04  0.37145638416E+04  0.34615871379E+04 0.  0.
        1    1    3    3  502    0 -0.13449779074E+04  0.96630268549E+03  0.13399759521E+03  0.16615239411E+04  0.50400001928E-02 0.  1.
       -1    1    3    3    0  502  0.13449779074E+04 -0.96630268549E+03  0.12133698452E+04  0.20530399004E+04  0.50400001928E-02 0. -1.
</event>
<event>
 5   0  0.1880301E-06  0.3362337E+04  0.7818609E-02  0.8147212E-01
       -2   -1    0    0    0  501  0.00000000000E+00  0.00000000000E+00  0.98843396344E+03  0.98843396345E+03  0.25500000920E-02 0.  1.
        2   -1    0    0  501    0  0.00000000000E+00  0.00000000000E+00 -0.28593997075E+04  0.28593997075E+04  0.25500000920E-02 0. -1.
    10030    2    1    2    0    0  0.00000000000E+00  0.00000000000E+00 -0.18709657441E+04  0.38478336710E+04  0.33623371550E+04 0.  0.
        4    1    3    3  502    0  0.57209785441E+03  0.15591409084E+04 -0.63682086486E+03  0.17786958014E+04  0.12699999809E+01 0.  1.
       -4    1    3    3    0  502 -0.57209785441E+03 -0.15591409084E+04 -0.12341448792E+04  0.20691378695E+04  0.12699999809E+01 0. -1.
</event>
<event>
 5   0  0.1339844E-06  0.3473769E+04  0.7818609E-02  0.8120035E-01
        2   -1    0    0  501    0  0.00000000000E+00  0.00000000000E+00  0.27056387370E+04  0.27056387370E+04  0.25500000920E-02 0.  1.
       -2   -1    0    0    0  501  0.00000000000E+00  0.00000000000E+00 -0.11149925575E+04  0.11149925575E+04  0.25500000920E-02 0. -1.
    10030    2    1    2    0    0  0.00000000000E+00  0.00000000000E+00  0.15906461795E+04  0.38206312945E+04  0.34737685905E+04 0.  0.
        3    1    3    3  502    0  0.79313328282E+03 -0.13663314829E+04  0.15890817209E+04  0.22407817500E+04  0.10100000352E+00 0.  1.
       -3    1    3    3    0  502 -0.79313328282E+03  0.13663314829E+04  0.15644586202E+01  0.15798495445E+04  0.10100000352E+00 0. -1.
</event>
<event>
 5   0  0.1797075E-06  0.2538471E+04  0.7818609E-02  0.8389407E-01
       -2   -1    0    0    0  501  0.00000000000E+00  0.00000000000E+00  0.77652803115E+03  0.77652803116E+03  0.25500000920E-02 0.  1.
        2   -1    0    0  501    0  0.00000000000E+00  0.00000000000E+00 -0.20745656318E+04  0.20745656318E+04  0.25500000920E-02 0. -1.
    10030    2    1    2    0    0  0.00000000000E+00  0.00000000000E+00 -0.12980376007E+04  0.28510936630E+04  0.25384706936E+04 0.  0.
        2    1    3    3  502    0  0.19656269131E+03  0.24987048211E+02  0.75904962455E+03  0.78448554909E+03  0.25500000920E-02 0.  1.
       -2    1    3    3    0  502 -0.19656269131E+03 -0.24987048211E+02 -0.20570872252E+04  0.20666081139E+04  0.25500000920E-02 0. -1.
</event>
<event>
 5   0  0.6134625E-07  0.3075518E+04  0.7818609E-02  0.8222489E-01
       -1   -1    0    0    0  501  0.00000000000E+00  0.00000000000E+00  0.15508065006E+04  0.15508065006E+04  0.50400001928E-02 0.  1.
        1   -1    0    0  501    0  0.00000000000E+00  0.00000000000E+00 -0.15248210123E+04  0.15248210123E+04  0.50400001928E-02 0. -1.
    10030    2    1    2    0    0  0.00000000000E+00  0.00000000000E+00  0.25985488280E+02  0.30756275130E+04  0.30755177374E+04 0.  0.
        5    1    3    3  502    0 -0.79682773186E+03 -0.93887063861E+03  0.93404013382E+03  0.15455955396E+04  0.46999998093E+01 0.  1.
       -5    1    3    3    0  502  0.79682773186E+03  0.93887063861E+03 -0.90805464554E+03  0.15300319734E+04  0.46999998093E+01 0. -1.
</event>
<event>
 5   0  0.6134625E-07  0.3409849E+04  0.7818609E-02  0.8135493E-01
        1   -1    0    0  501    0  0.00000000000E+00  0.00000000000E+00  0.20211552809E+04  0.20211552809E+04  0.50400001928E-02 0. -1.
       -1   -1    0    0    0  501  0.00000000000E+00  0.00000000000E+00 -0.14381714486E+04  0.14381714486E+04  0.50400001928E-02 0.  1.
    10030    2    1    2    0    0  0.00000000000E+00  0.00000000000E+00  0.58298383227E+03  0.34593267295E+04  0.34098491569E+04 0.  0.
        1    1    3    3  502    0  0.81589759290E+03  0.31556907311E+02 -0.12269160719E+04  0.14737733096E+04  0.50400001928E-02 0.  1.
       -1    1    3    3    0  502 -0.81589759290E+03 -0.31556907311E+02  0.18098999041E+04  0.19855534200E+04  0.50400001928E-02 0. -1.
</event>
<event>
 5   0  0.1880301E-06  0.3439444E+04  0.7818609E-02  0.8128293E-01
       -2   -1    0    0    0  501  0.00000000000E+00  0.00000000000E+00  0.11525540725E+04  0.11525540725E+04  0.25500000920E-02 0. -1.
        2   -1    0    0  501    0  0.00000000000E+00  0.00000000000E+00 -0.25659915622E+04  0.25659915622E+04  0.25500000920E-02 0.  1.
    10030    2    1    2    0    0  0.00000000000E+00  0.00000000000E+00 -0.14134374897E+04  0.37185456347E+04  0.34394441557E+04 0.  0.
        4    1    3    3  502    0  0.48554155421E+02  0.12268032877E+04  0.59517228511E+03  0.13644176321E+04  0.12699999809E+01 0. -1.
       -4    1    3    3    0  502 -0.48554155421E+02 -0.12268032877E+04 -0.20086097748E+04  0.23541280027E+04  0.12699999809E+01 0.  1.
</event>
<event>
 5   0  0.1880301E-06  0.3487623E+04  0.7818609E-02  0.8116729E-01
       -2   -1    0    0    0  501  0.00000000000E+00  0.00000000000E+00  0.10414325314E+04  0.10414325314E+04  0.25500000920E-02 0. -1.
        2   -1    0    0  501    0  0.00000000000E+00  0.00000000000E+00 -0.29198992407E+04  0.29198992407E+04  0.25500000920E-02 0.  1.
    10030    2    1    2    0    0  0.00000000000E+00  0.00000000000E+00 -0.18784667093E+04  0.39613317721E+04  0.34876227191E+04 0.  0.
        4    1    3    3  502    0  0.12665782190E+02  0.27894950461E+03  0.10158732842E+04  0.10535527469E+04  0.12699999809E+01 0. -1.
       -4    1    3    3    0  502 -0.12665782190E+02 -0.27894950461E+03 -0.28943399935E+04  0.29077790251E+04  0.12699999809E+01 0.  1.
</event>
<event>
 5   0  0.1911477E-06  0.3422659E+04  0.7818609E-02  0.8132367E-01
        2   -1    0    0  501    0  0.00000000000E+00  0.00000000000E+00  0.27338025207E+04  0.27338025207E+04  0.25500000920E-02 0.  1.
       -2   -1    0    0    0  501  0.00000000000E+00  0.00000000000E+00 -0.10712729434E+04  0.10712729434E+04  0.25500000920E-02 0. -1.
    10030    2    1    2    0    0  0.00000000000E+00  0.00000000000E+00  0.16625295774E+04  0.38050754641E+04  0.34226590090E+04 0.  0.
        5    1    3    3  502    0  0.11781971781E+04  0.12303940529E+04  0.10126114517E+04  0.19817724789E+04  0.46999998093E+01 0.  1.
       -5    1    3    3    0  502 -0.11781971781E+04 -0.12303940529E+04  0.64991812563E+03  0.18233029852E+04  0.46999998093E+01 0. -1.
</event>
<event>
 5   0  0.1339844E-06  0.3378544E+04  0.7818609E-02  0.8143193E-01
        2   -1    0    0  501    0  0.00000000000E+00  0.00000000000E+00  0.25945782086E+04  0.25945782086E+04  0.25500000920E-02 0. -1.
       -2   -1    0    0    0  501  0.00000000000E+00  0.00000000000E+00 -0.10998471996E+04  0.10998471996E+04  0.25500000920E-02 0.  1.
    10030    2    1    2    0    0  0.00000000000E+00  0.00000000000E+00  0.14947310090E+04  0.36944254082E+04  0.33785438146E+04 0.  0.
        3    1    3    3  502    0  0.16155478721E+04  0.14525771405E+03  0.12632186792E+04  0.20559222194E+04  0.10100000352E+00 0. -1.
       -3    1    3    3    0  502 -0.16155478721E+04 -0.14525771405E+03  0.23151232986E+03  0.16385031888E+04  0.10100000352E+00 0.  1.
</event>
<event>
 5   0  0.6134625E-07  0.3349193E+04  0.7818609E-02  0.8150490E-01
        3   -1    0    0  501    0  0.00000000000E+00  0.00000000000E+00  0.13813511970E+04  0.13813512007E+04  0.10100000352E+00 0. -1.
       -3   -1    0    0    0  501  0.00000000000E+00  0.00000000000E+00 -0.20300948839E+04  0.20300948864E+04  0.10100000352E+00 0.  1.
    10030    2    1    2    0    0  0.00000000000E+00  0.00000000000E+00 -0.64874368690E+03  0.34114460872E+04  0.33491933409E+04 0.  0.
        2    1    3    3  502    0 -0.29225531799E+03  0.16424152001E+04 -0.17559827855E+03  0.16774312551E+04  0.25500000920E-02 0.  1.
       -2    1    3    3    0  502  0.29225531799E+03 -0.16424152001E+04 -0.47314540835E+03  0.17340148320E+04  0.25500000920E-02 0. -1.
</event>
<event>
 5   0  0.1880301E-06  0.2836524E+04  0.7818609E-02  0.8292018E-01
       -2   -1    0    0    0  501  0.00000000000E+00  0.00000000000E+00  0.11297413052E+04  0.11297413052E+04  0.25500000920E-02 0.  1.
        2   -1    0    0  501    0  0.00000000000E+00  0.00000000000E+00 -0.17804664409E+04  0.17804664409E+04  0.25500000920E-02 0. -1.
    10030    2    1    2    0    0  0.00000000000E+00  0.00000000000E+00 -0.65072513574E+03  0.29102077460E+04  0.28365235629E+04 0.  0.
        4    1    3    3  502    0 -0.10474383536E+04  0.14425331878E+03  0.64445904995E+03  0.12382508649E+04  0.12699999809E+01 0.  1.
       -4    1    3    3    0  502  0.10474383536E+04 -0.14425331878E+03 -0.12951841857E+04  0.16719568811E+04  0.12699999809E+01 0. -1.
</event>
<event>
 5   0  0.6134625E-07  0.3344242E+04  0.7818609E-02  0.8151728E-01
        1   -1    0    0  501    0  0.00000000000E+00  0.00000000000E+00  0.26086693259E+04  0.26086693259E+04  0.50400001928E-02 0.  1.
       -1   -1    0    0    0  501  0.00000000000E+00  0.00000000000E+00 -0.10718064903E+04  0.10718064903E+04  0.50400001928E-02 0. -1.
    10030    2    1    2    0    0  0.00000000000E+00  0.00000000000E+00  0.15368628356E+04  0.36804758162E+04  0.33442420454E+04 0.  0.
        5    1    3    3  502    0 -0.10594163599E+04 -0.62875573685E+02  0.21904950201E+04  0.24340515369E+04  0.46999998093E+01 0.  1.
       -5    1    3    3    0  502  0.10594163599E+04  0.62875573685E+02 -0.65363218450E+03  0.12464242792E+04  0.46999998093E+01 0. -1.
</event>
<event>
 5   0  0.6134625E-07  0.2637913E+04  0.7818609E-02  0.8355436E-01
        1   -1    0    0  501    0  0.00000000000E+00  0.00000000000E+00  0.94708814132E+03  0.94708814133E+03  0.50400001928E-02 0. -1.
       -1   -1    0    0    0  501  0.00000000000E+00  0.00000000000E+00 -0.18368360024E+04  0.18368360024E+04  0.50400001928E-02 0.  1.
    10030    2    1    2    0    0  0.00000000000E+00  0.00000000000E+00 -0.88974786106E+03  0.27839241437E+04  0.26379125046E+04 0.  0.
        3    1    3    3  502    0 -0.17047167440E+03  0.88304350956E+03 -0.14630658979E+04  0.17173783111E+04  0.10100000352E+00 0.  1.
       -3    1    3    3    0  502  0.17047167440E+03 -0.88304350956E+03  0.57331803684E+03  0.10665458326E+04  0.10100000352E+00 0. -1.
</event>
<event>
 5   0  0.6218695E-07  0.3004796E+04  0.7818609E-02  0.8242363E-01
        1   -1    0    0  501    0  0.00000000000E+00  0.00000000000E+00  0.20360616098E+04  0.20360616098E+04  0.50400001928E-02 0. -1.
       -1   -1    0    0    0  501  0.00000000000E+00  0.00000000000E+00 -0.11086108817E+04  0.11086108817E+04  0.50400001928E-02 0.  1.
    10030    2    1    2    0    0  0.00000000000E+00  0.00000000000E+00  0.92745072803E+03  0.31446724915E+04  0.30047962037E+04 0.  0.
        2    1    3    3  502    0 -0.47676128316E+02  0.14659472022E+04  0.80433847874E+03  0.16727924561E+04  0.25500000920E-02 0. -1.
       -2    1    3    3    0  502  0.47676128316E+02 -0.14659472022E+04  0.12311224929E+03  0.14718800354E+04  0.25500000920E-02 0.  1.
</event>
<event>
 5   0  0.6134625E-07  0.3376540E+04  0.7818609E-02  0.8143688E-01
       -1   -1    0    0    0  501  0.00000000000E+00  0.00000000000E+00  0.11958630619E+04  0.11958630619E+04  0.50400001928E-02 0. -1.
        1   -1    0    0  501    0  0.00000000000E+00  0.00000000000E+00 -0.23834302098E+04  0.23834302098E+04  0.50400001928E-02 0.  1.
    10030    2    1    2    0    0  0.00000000000E+00  0.00000000000E+00 -0.11875671479E+04  0.35792932717E+04  0.33765403291E+04 0.  0.
        5    1    3    3  502    0  0.71710717163E+03  0.14061016696E+04 -0.12288126226E+04  0.20003417589E+04  0.46999998093E+01 0.  1.
       -5    1    3    3    0  502 -0.71710717163E+03 -0.14061016696E+04  0.41245474721E+02  0.15789515129E+04  0.46999998093E+01 0. -1.
</event>
<event>
 5   0  0.1880301E-06  0.3375506E+04  0.7818609E-02  0.8143944E-01
        2   -1    0    0  501    0  0.00000000000E+00  0.00000000000E+00  0.20670864185E+04  0.20670864185E+04  0.25500000920E-02 0.  1.
       -2   -1    0    0    0  501  0.00000000000E+00  0.00000000000E+00 -0.13780315500E+04  0.13780315500E+04  0.25500000920E-02 0. -1.
    10030    2    1    2    0    0  0.00000000000E+00  0.00000000000E+00  0.68905486846E+03  0.34451179685E+04  0.33755060666E+04 0.  0.
        4    1    3    3  502    0  0.36875107815E+03  0.15158906748E+04  0.10017060321E+04  0.18540006697E+04  0.12699999809E+01 0.  1.
       -4    1    3    3    0  502 -0.36875107815E+03 -0.15158906748E+04 -0.31265116360E+03  0.15911172988E+04  0.12699999809E+01 0. -1.
</event>
<event>
 5   0  0.1339844E-06  0.3431907E+04  0.7818609E-02  0.8130119E-01
       -2   -1    0    0    0  501  0.00000000000E+00  0.00000000000E+00  0.11985406091E+04  0.11985406091E+04  0.25500000920E-02 0. -1.
        2   -1    0    0  501    0  0.00000000000E+00  0.00000000000E+00 -0.24567343199E+04  0.24567343199E+04  0.25500000920E-02 0.  1.
    10030    2    1    2    0    0  0.00000000000E+00  0.00000000000E+00 -0.12581937108E+04  0.36552749290E+04  0.34319066701E+04 0.  0.
        3    1    3    3  502    0 -0.83424329686E+03  0.10604267843E+04  0.50010955769E+03  0.14389497639E+04  0.10100000352E+00 0. -1.
       -3    1    3    3    0  502  0.83424329686E+03 -0.10604267843E+04 -0.17583032685E+04  0.22163251651E+04  0.10100000352E+00 0.  1.
</event>
<event>
 5   0  0.6134625E-07  0.3376238E+04  0.7818609E-02  0.8143763E-01
        1   -1    0    0  501    0  0.00000000000E+00  0.00000000000E+00  0.15501786331E+04  0.15501786331E+04  0.50400001928E-02 0.  1.
       -1   -1    0    0    0  501  0.00000000000E+00  0.00000000000E+00 -0.18383337314E+04  0.18383337314E+04  0.50400001928E-02 0. -1.
    10030    2    1    2    0    0  0.00000000000E+00  0.00000000000E+00 -0.28815509834E+03  0.33885123645E+04  0.33762379484E+04 0.  0.
        5    1    3    3  502    0 -0.13130558912E+04  0.10366667971E+04  0.82419130437E+02  0.16749951716E+04  0.46999998093E+01 0. -1.
       -5    1    3    3    0  502  0.13130558912E+04 -0.10366667971E+04 -0.37057422878E+03  0.17135171930E+04  0.46999998093E+01 0.  1.
</event>
<event>
 5   0  0.1797075E-06  0.3401788E+04  0.7818609E-02  0.8137468E-01
        2   -1    0    0  501    0  0.00000000000E+00  0.00000000000E+00  0.18984245911E+04  0.18984245911E+04  0.25500000920E-02 0.  1.
       -2   -1    0    0    0  501  0.00000000000E+00  0.00000000000E+00 -0.15239163996E+04  0.15239163996E+04  0.25500000920E-02 0. -1.
    10030    2    1    2    0    0  0.00000000000E+00  0.00000000000E+00  0.37450819143E+03  0.34223409907E+04  0.34017879815E+04 0.  0.
        2    1    3    3  502    0  0.24027220927E+03 -0.63217098343E+03 -0.13828383129E+04  0.15393546331E+04  0.25500000920E-02 0. -1.
       -2    1    3    3    0  502 -0.24027220927E+03  0.63217098343E+03  0.17573465043E+04  0.18829863576E+04  0.25500000920E-02 0.  1.
</event>
<event>
 5   0  0.6134625E-07  0.3232499E+04  0.7818609E-02  0.8180287E-01
       -3   -1    0    0    0  501  0.00000000000E+00  0.00000000000E+00  0.98343162542E+03  0.98343163061E+03  0.10100000352E+00 0. -1.
        3   -1    0    0  501    0  0.00000000000E+00  0.00000000000E+00 -0.26562728647E+04  0.26562728666E+04  0.10100000352E+00 0.  1.
    10030    2    1    2    0    0  0.00000000000E+00  0.00000000000E+00 -0.16728412393E+04  0.36397044972E+04  0.32324991903E+04 0.  0.
        2    1    3    3  502    0  0.13868303403E+04 -0.28793224778E+02  0.97617546595E+02  0.13905598254E+04  0.25500000920E-02 0. -1.
       -2    1    3    3    0  502 -0.13868303403E+04  0.28793224778E+02 -0.17704587859E+04  0.22491446719E+04  0.25500000920E-02 0.  1.
</event>
<event>
 5   0  0.1880301E-06  0.3396718E+04  0.7818609E-02  0.8138712E-01
       -2   -1    0    0    0  501  0.00000000000E+00  0.00000000000E+00  0.21258697744E+04  0.21258697744E+04  0.25500000920E-02 0. -1.
        2   -1    0    0  501    0  0.00000000000E+00  0.00000000000E+00 -0.13568201634E+04  0.13568201634E+04  0.25500000920E-02 0.  1.
    10030    2    1    2    0    0  0.00000000000E+00  0.00000000000E+00  0.76904961109E+03  0.34826899378E+04  0.33967178126E+04 0.  0.
        4    1    3    3  502    0 -0.13056942533E+04  0.70978870671E+03  0.12273921990E+04  0.19274674354E+04  0.12699999809E+01 0.  1.
       -4    1    3    3    0  502  0.13056942533E+04 -0.70978870671E+03 -0.45834258794E+03  0.15552225024E+04  0.12699999809E+01 0. -1.
</event>
<event>
 5   0  0.6146388E-07  0.3347273E+04  0.7818609E-02  0.8150970E-01
       -1   -1    0    0    0  501  0.00000000000E+00  0.00000000000E+00  0.16858138763E+04  0.16858138763E+04  0.50400001928E-02 0.  1.
        1   -1    0    0  501    0  0.00000000000E+00  0.00000000000E+00 -0.16615472461E+04  0.16615472461E+04  0.50400001928E-02 0. -1.
    10030    2    1    2    0    0  0.00000000000E+00  0.00000000000E+00  0.24266630216E+02  0.33473611224E+04  0.33472731611E+04 0.  0.
        4    1    3    3  502    0 -0.33152956171E+03  0.11115141875E+04 -0.11944149263E+04  0.16649337129E+04  0.12699999809E+01 0. -1.
       -4    1    3    3    0  502  0.33152956171E+03 -0.11115141875E+04  0.12186815565E+04  0.16824274095E+04  0.12699999809E+01 0.  1.
</event>
<event>
 5   0  0.1797075E-06  0.3401755E+04  0.7818609E-02  0.8137476E-01
        2   -1    0    0  501    0  0.00000000000E+00  0.00000000000E+00  0.17592245933E+04  0.17592245933E+04  0.25500000920E-02 0.  1.
       -2   -1    0    0    0  501  0.00000000000E+00  0.00000000000E+00 -0.16444657962E+04  0.16444657962E+04  0.25500000920E-02 0. -1.
    10030    2    1    2    0    0  0.00000000000E+00  0.00000000000E+00  0.11475879714E+03  0.34036903895E+04  0.34017552360E+04 0.  0.
        2    1    3    3  502    0 -0.17237175638E+03 -0.90007215939E+02  0.17480658602E+04  0.17588483656E+04  0.25500000920E-02 0.  1.
       -2    1    3    3    0  502  0.17237175638E+03  0.90007215939E+02 -0.16333070631E+04  0.16448420239E+04  0.25500000920E-02 0. -1.
</event>
<event>
 5   0  0.6134625E-07  0.3389867E+04  0.7818609E-02  0.8140398E-01
        1   -1    0    0  501    0  0.00000000000E+00  0.00000000000E+00  0.18351919163E+04  0.18351919163E+04  0.50400001928E-02 0. -1.
       -1   -1    0    0    0  501  0.00000000000E+00  0.00000000000E+00 -0.15653949676E+04  0.15653949676E+04  0.50400001928E-02 0.  1.
    10030    2    1    2    0    0  0.00000000000E+00  0.00000000000E+00  0.26979694871E+03  0.34005868840E+04  0.33898673664E+04 0.  0.
        3    1    3    3  502    0 -0.47398471940E+03  0.12387944228E+03 -0.14928207375E+04  0.15711528872E+04  0.10100000352E+00 0.  1.
       -3    1    3    3    0  502  0.47398471940E+03 -0.12387944228E+03  0.17626176862E+04  0.18294339968E+04  0.10100000352E+00 0. -1.
</event>
<event>
 5   0  0.6134625E-07  0.3415698E+04  0.7818609E-02  0.8134064E-01
       -1   -1    0    0    0  501  0.00000000000E+00  0.00000000000E+00  0.15165655538E+04  0.15165655538E+04  0.50400001928E-02 0.  1.
        1   -1    0    0  501    0  0.00000000000E+00  0.00000000000E+00 -0.19232584219E+04  0.19232584219E+04  0.50400001928E-02 0. -1.
    10030    2    1    2    0    0  0.00000000000E+00  0.00000000000E+00 -0.40669286812E+03  0.34398239757E+04  0.34156975707E+04 0.  0.
        5    1    3    3  502    0  0.11616719099E+04  0.38474700828E+03 -0.14030685774E+04  0.18617560016E+04  0.46999998093E+01 0. -1.
       -5    1    3    3    0  502 -0.11616719099E+04 -0.38474700828E+03  0.99637570933E+03  0.15780679740E+04  0.46999998093E+01 0.  1.
</event>
<event>
 5   0  0.6134625E-07  0.3065212E+04  0.7818609E-02  0.8225351E-01
        1   -1    0    0  501    0  0.00000000000E+00  0.00000000000E+00  0.11930492499E+04  0.11930492499E+04  0.50400001928E-02 0. -1.
       -1   -1    0    0    0  501  0.00000000000E+00  0.00000000000E+00 -0.19688044711E+04  0.19688044711E+04  0.50400001928E-02 0.  1.
    10030    2    1    2    0    0  0.00000000000E+00  0.00000000000E+00 -0.77575522122E+03  0.31618537210E+04  0.30652117040E+04 0.  0.
        1    1    3    3  502    0  0.71553814106E+03  0.13257459829E+04 -0.97426806906E+02  0.15096652693E+04  0.50400001928E-02 0.  1.
       -1    1    3    3    0  502 -0.71553814106E+03 -0.13257459829E+04 -0.67832841432E+03  0.16521884518E+04  0.50400001928E-02 0. -1.
</event>
<event>
 5   0  0.1911477E-06  0.3384618E+04  0.7818609E-02  0.8141692E-01
        2   -1    0    0  501    0  0.00000000000E+00  0.00000000000E+00  0.12658955962E+04  0.12658955962E+04  0.25500000920E-02 0.  1.
       -2   -1    0    0    0  501  0.00000000000E+00  0.00000000000E+00 -0.22623588529E+04  0.22623588529E+04  0.25500000920E-02 0. -1.
    10030    2    1    2    0    0  0.00000000000E+00  0.00000000000E+00 -0.99646325673E+03  0.35282544491E+04  0.33846182112E+04 0.  0.
        5    1    3    3  502    0  0.15186682712E+04 -0.66088812234E+02 -0.12735468867E+04  0.19830947561E+04  0.46999998093E+01 0. -1.
       -5    1    3    3    0  502 -0.15186682712E+04  0.66088812234E+02  0.27708362994E+03  0.15451596931E+04  0.46999998093E+01 0.  1.
</event>
<event>
 5   0  0.6134625E-07  0.3276638E+04  0.7818609E-02  0.8168865E-01
       -1   -1    0    0    0  501  0.00000000000E+00  0.00000000000E+00  0.13382814833E+04  0.13382814833E+04  0.50400001928E-02 0. -1.
        1   -1    0    0  501    0  0.00000000000E+00  0.00000000000E+00 -0.20056237635E+04  0.20056237635E+04  0.50400001928E-02 0.  1.
    10030    2    1    2    0    0  0.00000000000E+00  0.00000000000E+00 -0.66734228024E+03  0.33439052469E+04  0.32766379997E+04 0.  0.
        3    1    3    3  502    0  0.50551000460E+03 -0.12265042621E+04  0.64743717157E+03  0.14761530988E+04  0.10100000352E+00 0. -1.
       -3    1    3    3    0  502 -0.50551000460E+03  0.12265042621E+04 -0.13147794518E+04  0.18677521481E+04  0.10100000352E+00 0.  1.
</event>
<event>
 5   0  0.1339844E-06  0.2464454E+04  0.7818609E-02  0.8415760E-01
       -2   -1    0    0    0  501  0.00000000000E+00  0.00000000000E+00  0.49482908415E+03  0.49482908416E+03  0.25500000920E-02 0.  1.
        2   -1    0    0  501    0  0.00000000000E+00  0.00000000000E+00 -0.30684999161E+04  0.30684999161E+04  0.25500000920E-02 0. -1.
    10030    2    1    2    0    0  0.00000000000E+00  0.00000000000E+00 -0.25736708319E+04  0.35633290002E+04  0.24644536946E+04 0.  0.
        3    1    3    3  502    0  0.94360890692E+02  0.11039623196E+04 -0.20664721483E+04  0.23447694835E+04  0.10100000352E+00 0. -1.
       -3    1    3    3    0  502 -0.94360890692E+02 -0.11039623196E+04 -0.50719868358E+03  0.12185595167E+04  0.10100000352E+00 0.  1.
</event>
<event>
 5   0  0.6146388E-07  0.3367098E+04  0.7818609E-02  0.8146029E-01
        1   -1    0    0  501    0  0.00000000000E+00  0.00000000000E+00  0.10257883224E+04  0.10257883224E+04  0.50400001928E-02 0. -1.
       -1   -1    0    0    0  501  0.00000000000E+00  0.00000000000E+00 -0.27630824317E+04  0.27630824317E+04  0.50400001928E-02 0.  1.
    10030    2    1    2    0    0  0.00000000000E+00  0.00000000000E+00 -0.17372941092E+04  0.37888707541E+04  0.33670982714E+04 0.  0.
        4    1    3    3  502    0 -0.53421153224E+03  0.10116076263E+04  0.52122533241E+03  0.12571433533E+04  0.12699999809E+01 0. -1.
       -4    1    3    3    0  502  0.53421153224E+03 -0.10116076263E+04 -0.22585194416E+04  0.25317274008E+04  0.12699999809E+01 0.  1.
</event>
<event>
 5   0  0.6134625E-07  0.3259783E+04  0.7818609E-02  0.8173205E-01
       -1   -1    0    0    0  501  0.00000000000E+00  0.00000000000E+00  0.10254386048E+04  0.10254386048E+04  0.50400001928E-02 0.  1.
        1   -1    0    0  501    0  0.00000000000E+00  0.00000000000E+00 -0.25906443595E+04  0.25906443595E+04  0.50400001928E-02 0. -1.
    10030    2    1    2    0    0  0.00000000000E+00  0.00000000000E+00 -0.15652057547E+04  0.36160829644E+04  0.32597832674E+04 0.  0.
        3    1    3    3  502    0 -0.96753097629E+03 -0.56386238622E+03  0.53110712718E+03  0.12394078310E+04  0.10100000352E+00 0.  1.
       -3    1    3    3    0  502  0.96753097629E+03  0.56386238622E+03 -0.20963128819E+04  0.23766751334E+04  0.10100000352E+00 0. -1.
</event>
<event>
 5   0  0.1339844E-06  0.3463010E+04  0.7818609E-02  0.8122612E-01
        2   -1    0    0  501    0  0.00000000000E+00  0.00000000000E+00  0.11427111542E+04  0.11427111542E+04  0.25500000920E-02 0.  1.
       -2   -1    0    0    0  501  0.00000000000E+00  0.00000000000E+00 -0.26236812049E+04  0.26236812049E+04  0.25500000920E-02 0. -1.
    10030    2    1    2    0    0  0.00000000000E+00  0.00000000000E+00 -0.14809700508E+04  0.37663923591E+04  0.34630101229E+04 0.  0.
        3    1    3    3  502    0 -0.14427952994E+04  0.86551339563E+03 -0.11853919401E+04  0.20581364814E+04  0.10100000352E+00 0. -1.
       -3    1    3    3    0  502  0.14427952994E+04 -0.86551339563E+03 -0.29557811065E+03  0.17082558777E+04  0.10100000352E+00 0.  1.
</event>
<event>
 5   0  0.1339844E-06  0.3462869E+04  0.7818609E-02  0.8122646E-01
       -2   -1    0    0    0  501  0.00000000000E+00  0.00000000000E+00  0.30121379778E+04  0.30121379778E+04  0.25500000920E-02 0.  1.
        2   -1    0    0  501    0  0.00000000000E+00  0.00000000000E+00 -0.99526157320E+03  0.99526157321E+03  0.25500000920E-02 0. -1.
    10030    2    1    2    0    0  0.00000000000E+00  0.00000000000E+00  0.20168764046E+04  0.40073995510E+04  0.34628688583E+04 0.  0.
        3    1    3    3  502    0 -0.54894588310E+03  0.11925634853E+04 -0.29792865983E+03  0.13462209126E+04  0.10100000352E+00 0. -1.
       -3    1    3    3    0  502  0.54894588310E+03 -0.11925634853E+04  0.23148050644E+04  0.26611786384E+04  0.10100000352E+00 0.  1.
</event>
<event>
 5   0  0.1911477E-06  0.2843986E+04  0.7818609E-02  0.8289741E-01
        2   -1    0    0  501    0  0.00000000000E+00  0.00000000000E+00  0.12060424953E+04  0.12060424953E+04  0.25500000920E-02 0. -1.
       -2   -1    0    0    0  501  0.00000000000E+00  0.00000000000E+00 -0.16766109855E+04  0.16766109855E+04  0.25500000920E-02 0.  1.
    10030    2    1    2    0    0  0.00000000000E+00  0.00000000000E+00 -0.47056849019E+03  0.28826534807E+04  0.28439860031E+04 0.  0.
        5    1    3    3  502    0  0.24787355760E+03  0.12704965205E+04 -0.83187780300E+03  0.15387155287E+04  0.46999998093E+01 0.  1.
       -5    1    3    3    0  502 -0.24787355760E+03 -0.12704965205E+04  0.36130931281E+03  0.13439379520E+04  0.46999998093E+01 0. -1.
</event>
<event>
 5   0  0.6146388E-07  0.3596360E+04  0.7818609E-02  0.8091326E-01
        1   -1    0    0  501    0  0.00000000000E+00  0.00000000000E+00  0.17309243182E+04  0.17309243182E+04  0.50400001928E-02 0. -1.
       -1   -1    0    0    0  501  0.00000000000E+00  0.00000000000E+00 -0.18680486030E+04  0.18680486030E+04  0.50400001928E-02 0.  1.
    10030    2    1    2    0    0  0.00000000000E+00  0.00000000000E+00 -0.13712428471E+03  0.35989729212E+04  0.35963596898E+04 0.  0.
        4    1    3    3  502    0  0.13456179053E+04  0.11693190987E+04 -0.30422091922E+03  0.18084652837E+04  0.12699999809E+01 0. -1.
       -4    1    3    3    0  502 -0.13456179053E+04 -0.11693190987E+04  0.16709663451E+03  0.17905076375E+04  0.12699999809E+01 0.  1.
</event>
<event>
 5   0  0.6134625E-07  0.3371670E+04  0.7818609E-02  0.8144895E-01
       -1   -1    0    0    0  501  0.00000000000E+00  0.00000000000E+00  0.17359561707E+04  0.17359561707E+04  0.50400001928E-02 0.  1.
        1   -1    0    0  501    0  0.00000000000E+00  0.00000000000E+00 -0.16371610055E+04  0.16371610056E+04  0.50400001928E-02 0. -1.
    10030    2    1    2    0    0  0.00000000000E+00  0.00000000000E+00  0.98795165175E+02  0.33731171763E+04  0.33716700610E+04 0.  0.
        5    1    3    3  502    0 -0.68232575086E+03 -0.15334399732E+04  0.20761437205E+03  0.16911925967E+04  0.46999998093E+01 0. -1.
       -5    1    3    3    0  502  0.68232575086E+03  0.15334399732E+04 -0.10881920687E+03  0.16819245796E+04  0.46999998093E+01 0.  1.
</event>
<event>
 5   0  0.6218695E-07  0.3201471E+04  0.7818609E-02  0.8188429E-01
       -1   -1    0    0    0  501  0.00000000000E+00  0.00000000000E+00  0.12214313902E+04  0.12214313902E+04  0.50400001928E-02 0.  1.
        1   -1    0    0  501    0  0.00000000000E+00  0.00000000000E+00 -0.20978284920E+04  0.20978284920E+04  0.50400001928E-02 0. -1.
    10030    2    1    2    0    0  0.00000000000E+00  0.00000000000E+00 -0.87639710181E+03  0.33192598822E+04  0.32014706442E+04 0.  0.
        2    1    3    3  502    0  0.12589875567E+04 -0.35051976011E+03 -0.13965669128E+04  0.19126716687E+04  0.25500000920E-02 0. -1.
       -2    1    3    3    0  502 -0.12589875567E+04  0.35051976011E+03  0.52016981096E+03  0.14065882135E+04  0.25500000920E-02 0.  1.
</event>
<event>
 5   0  0.6134625E-07  0.3397976E+04  0.7818609E-02  0.8138403E-01
        1   -1    0    0  501    0  0.00000000000E+00  0.00000000000E+00  0.20726336076E+04  0.20726336076E+04  0.50400001928E-02 0. -1.
       -1   -1    0    0    0  501  0.00000000000E+00  0.00000000000E+00 -0.13927012440E+04  0.13927012440E+04  0.50400001928E-02 0.  1.
    10030    2    1    2    0    0  0.00000000000E+00  0.00000000000E+00  0.67993236353E+03  0.34653348516E+04  0.33979755171E+04 0.  0.
        1    1    3    3  502    0  0.68666260984E+03 -0.13548314721E+04 -0.43636363211E+03  0.15803439743E+04  0.50400001928E-02 0.  1.
       -1    1    3    3    0  502 -0.68666260984E+03  0.13548314721E+04  0.11162959956E+04  0.18849908773E+04  0.50400001928E-02 0. -1.
</event>
<event>
 5   0  0.6134625E-07  0.3415779E+04  0.7818609E-02  0.8134045E-01
       -1   -1    0    0    0  501  0.00000000000E+00  0.00000000000E+00  0.15505730968E+04  0.15505730968E+04  0.50400001928E-02 0. -1.
        1   -1    0    0  501    0  0.00000000000E+00  0.00000000000E+00 -0.18811663962E+04  0.18811663962E+04  0.50400001928E-02 0.  1.
    10030    2    1    2    0    0  0.00000000000E+00  0.00000000000E+00 -0.33059329940E+03  0.34317394930E+04  0.34157786840E+04 0.  0.
        5    1    3    3  502    0  0.54980518704E+01  0.96639233347E+02  0.15478085880E+04  0.15508394131E+04  0.46999998093E+01 0. -1.
       -5    1    3    3    0  502 -0.54980518704E+01 -0.96639233347E+02 -0.18784018874E+04  0.18809000799E+04  0.46999998093E+01 0.  1.
</event>
<event>
 5   0  0.6146388E-07  0.3348540E+04  0.7818609E-02  0.8150653E-01
        1   -1    0    0  501    0  0.00000000000E+00  0.00000000000E+00  0.26520638827E+04  0.26520638827E+04  0.50400001928E-02 0.  1.
       -1   -1    0    0    0  501  0.00000000000E+00  0.00000000000E+00 -0.10569802905E+04  0.10569802905E+04  0.50400001928E-02 0. -1.
    10030    2    1    2    0    0  0.00000000000E+00  0.00000000000E+00  0.15950835922E+04  0.37090441732E+04  0.33485395342E+04 0.  0.
        4    1    3    3  502    0  0.77735869822E+03 -0.32828725917E+03 -0.80421252485E+03  0.11656836913E+04  0.12699999809E+01 0. -1.
       -4    1    3    3    0  502 -0.77735869822E+03  0.32828725917E+03  0.23992961171E+04  0.25433604818E+04  0.12699999809E+01 0.  1.
</event>
<event>
 5   0  0.1339844E-06  0.3482405E+04  0.7818609E-02  0.8117973E-01
       -2   -1    0    0    0  501  0.00000000000E+00  0.00000000000E+00  0.16068948933E+04  0.16068948933E+04  0.25500000920E-02 0. -1.
        2   -1    0    0  501    0  0.00000000000E+00  0.00000000000E+00 -0.18867353901E+04  0.18867353901E+04  0.25500000920E-02 0.  1.
    10030    2    1    2    0    0  0.00000000000E+00  0.00000000000E+00 -0.27984049680E+03  0.34936302834E+04  0.34824046079E+04 0.  0.
        3    1    3    3  502    0  0.13903566279E+04  0.84582963276E+03  0.48116031313E+03  0.16970664623E+04  0.10100000352E+00 0. -1.
       -3    1    3    3    0  502 -0.13903566279E+04 -0.84582963276E+03 -0.76100080993E+03  0.17965638211E+04  0.10100000352E+00 0.  1.
</event>
<event>
 5   0  0.1339844E-06  0.3408909E+04  0.7818609E-02  0.8135723E-01
       -2   -1    0    0    0  501  0.00000000000E+00  0.00000000000E+00  0.13184321944E+04  0.13184321944E+04  0.25500000920E-02 0.  1.
        2   -1    0    0  501    0  0.00000000000E+00  0.00000000000E+00 -0.22034994095E+04  0.22034994095E+04  0.25500000920E-02 0. -1.
    10030    2    1    2    0    0  0.00000000000E+00  0.00000000000E+00 -0.88506721519E+03  0.35219316039E+04  0.34089086593E+04 0.  0.
        3    1    3    3  502    0 -0.84237496522E+03  0.40859801213E+03  0.10289842750E+04  0.13911709334E+04  0.10100000352E+00 0.  1.
       -3    1    3    3    0  502  0.84237496522E+03 -0.40859801213E+03 -0.19140514902E+04  0.21307606705E+04  0.10100000352E+00 0. -1.
</event>
<event>
 5   0  0.1911477E-06  0.3441479E+04  0.7818609E-02  0.8127800E-01
       -2   -1    0    0    0  501  0.00000000000E+00  0.00000000000E+00  0.16920814770E+04  0.16920814770E+04  0.25500000920E-02 0.  1.
        2   -1    0    0  501    0  0.00000000000E+00  0.00000000000E+00 -0.17498830371E+04  0.17498830371E+04  0.25500000920E-02 0. -1.
    10030    2    1    2    0    0  0.00000000000E+00  0.00000000000E+00 -0.57801560150E+02  0.34419645141E+04  0.34414791437E+04 0.  0.
        5    1    3    3  502    0 -0.76454479873E+03 -0.69112974949E+03  0.13492389514E+04  0.16978388963E+04  0.46999998093E+01 0.  1.
       -5    1    3    3    0  502  0.76454479873E+03  0.69112974949E+03 -0.14070405115E+04  0.17441256179E+04  0.46999998093E+01 0. -1.
</event>
<event>
 5   0  0.6146388E-07  0.3386864E+04  0.7818609E-02  0.8141138E-01
        1   -1    0    0  501    0  0.00000000000E+00  0.00000000000E+00  0.24067891787E+04  0.24067891787E+04  0.50400001928E-02 0.  1.
       -1   -1    0    0    0  501  0.00000000000E+00  0.00000000000E+00 -0.11915092059E+04  0.11915092059E+04  0.50400001928E-02 0. -1.
    10030    2    1    2    0    0  0.00000000000E+00  0.00000000000E+00  0.12152799727E+04  0.35982983846E+04  0.33868637192E+04 0.  0.
        4    1    3    3  502    0  0.26918787532E+03 -0.10679980269E+04  0.19742658339E+04  0.22607098649E+04  0.12699999809E+01 0.  1.
       -4    1    3    3    0  502 -0.26918787532E+03  0.10679980269E+04 -0.75898586115E+03  0.13375885197E+04  0.12699999809E+01 0. -1.
</event>
<event>
 5   0  0.1948507E-06  0.3412108E+04  0.7818609E-02  0.8134941E-01
       -2   -1    0    0    0  501  0.00000000000E+00  0.00000000000E+00  0.10306714025E+04  0.10306714025E+04  0.25500000920E-02 0. -1.
        2   -1    0    0  501    0  0.00000000000E+00  0.00000000000E+00 -0.28240041092E+04  0.28240041092E+04  0.25500000920E-02 0.  1.
    10030    2    1    2    0    0  0.00000000000E+00  0.00000000000E+00 -0.17933327067E+04  0.38546755117E+04  0.34121080147E+04 0.  0.
        1    1    3    3  502    0  0.13593150521E+04 -0.90589718818E+03 -0.34065732732E+03  0.16686625007E+04  0.50400001928E-02 0. -1.
       -1    1    3    3    0  502 -0.13593150521E+04  0.90589718818E+03 -0.14526753794E+04  0.21860130110E+04  0.50400001928E-02 0.  1.
</event>
<event>
 5   0  0.1948507E-06  0.3268607E+04  0.7818609E-02  0.8170929E-01
        2   -1    0    0  501    0  0.00000000000E+00  0.00000000000E+00  0.29011813955E+04  0.29011813955E+04  0.25500000920E-02 0. -1.
       -2   -1    0    0    0  501  0.00000000000E+00  0.00000000000E+00 -0.92064165949E+03  0.92064165949E+03  0.25500000920E-02 0.  1.
    10030    2    1    2    0    0  0.00000000000E+00  0.00000000000E+00  0.19805397360E+04  0.38218230550E+04  0.32686073208E+04 0.  0.
        1    1    3    3  502    0 -0.12029729232E+04  0.97351911032E+03  0.37592304936E+03  0.15925455884E+04  0.50400001928E-02 0.  1.
       -1    1    3    3    0  502  0.12029729232E+04 -0.97351911032E+03  0.16046166866E+04  0.22292774666E+04  0.50400001928E-02 0. -1.
</event>
<event>
 5   0  0.6134625E-07  0.3413457E+04  0.7818609E-02  0.8134611E-01
        1   -1    0    0  501    0  0.00000000000E+00  0.00000000000E+00  0.17691928252E+04  0.17691928252E+04  0.50400001928E-02 0.  1.
       -1   -1    0    0    0  501  0.00000000000E+00  0.00000000000E+00 -0.16464694927E+04  0.16464694927E+04  0.50400001928E-02 0. -1.
    10030    2    1    2    0    0  0.00000000000E+00  0.00000000000E+00  0.12272333248E+03  0.34156623179E+04  0.34134569067E+04 0.  0.
        1    1    3    3  502    0 -0.14973257904E+04 -0.40339751188E+03  0.77470930218E+03  0.17334614441E+04  0.50400001928E-02 0.  1.
       -1    1    3    3    0  502  0.14973257904E+04  0.40339751188E+03 -0.65198596970E+03  0.16822008738E+04  0.50400001928E-02 0. -1.
</event>
<event>
 5   0  0.1880301E-06  0.3392154E+04  0.7818609E-02  0.8139835E-01
       -2   -1    0    0    0  501  0.00000000000E+00  0.00000000000E+00  0.11572160540E+04  0.11572160540E+04  0.25500000920E-02 0. -1.
        2   -1    0    0  501    0  0.00000000000E+00  0.00000000000E+00 -0.24858593743E+04  0.24858593743E+04  0.25500000920E-02 0.  1.
    10030    2    1    2    0    0  0.00000000000E+00  0.00000000000E+00 -0.13286433204E+04  0.36430754283E+04  0.33921535200E+04 0.  0.
        4    1    3    3  502    0  0.10757742202E+04 -0.22562885896E+02 -0.20723612812E+04  0.23350550635E+04  0.12699999809E+01 0.  1.
       -4    1    3    3    0  502 -0.10757742202E+04  0.22562885896E+02  0.74371796083E+03  0.13080203648E+04  0.12699999809E+01 0. -1.
</event>
<event>
 5   0  0.6218695E-07  0.3295099E+04  0.7818609E-02  0.8164144E-01
        1   -1    0    0  501    0  0.00000000000E+00  0.00000000000E+00  0.16901649206E+04  0.16901649206E+04  0.50400001928E-02 0.  1.
       -1   -1    0    0    0  501  0.00000000000E+00  0.00000000000E+00 -0.16060084628E+04  0.16060084628E+04  0.50400001928E-02 0. -1.
    10030    2    1    2    0    0  0.00000000000E+00  0.00000000000E+00  0.84156457781E+02  0.32961733835E+04  0.32950988854E+04 0.  0.
        2    1    3    3  502    0  0.96618131290E+03 -0.84908386051E+03  0.10719621241E+04  0.16743812371E+04  0.25500000920E-02 0.  1.
       -2    1    3    3    0  502 -0.96618131290E+03  0.84908386051E+03 -0.98780566635E+03  0.16217921464E+04  0.25500000920E-02 0. -1.
</event>
<event>
 5   0  0.1797075E-06  0.3208308E+04  0.7818609E-02  0.8186626E-01
       -2   -1    0    0    0  501  0.00000000000E+00  0.00000000000E+00  0.14769029279E+04  0.14769029279E+04  0.25500000920E-02 0. -1.
        2   -1    0    0  501    0  0.00000000000E+00  0.00000000000E+00 -0.17423693727E+04  0.17423693727E+04  0.25500000920E-02 0.  1.
    10030    2    1    2    0    0  0.00000000000E+00  0.00000000000E+00 -0.26546644479E+03  0.32192723006E+04  0.32083082321E+04 0.  0.
        2    1    3    3  502    0  0.11273503651E+04 -0.74847170345E+03  0.73171054134E+03  0.15383527076E+04  0.25500000920E-02 0. -1.
       -2    1    3    3    0  502 -0.11273503651E+04  0.74847170345E+03 -0.99717698613E+03  0.16809195930E+04  0.25500000920E-02 0.  1.
</event>
<event>
 5   0  0.6134625E-07  0.3424898E+04  0.7818609E-02  0.8131822E-01
       -1   -1    0    0    0  501  0.00000000000E+00  0.00000000000E+00  0.18345315494E+04  0.18345315495E+04  0.50400001928E-02 0. -1.
        1   -1    0    0  501    0  0.00000000000E+00  0.00000000000E+00 -0.15984911389E+04  0.15984911389E+04  0.50400001928E-02 0.  1.
    10030    2    1    2    0    0  0.00000000000E+00  0.00000000000E+00  0.23604041054E+03  0.34330226884E+04  0.34248984954E+04 0.  0.
        1    1    3    3  502    0 -0.13222561170E+04  0.63596828309E+03 -0.76706103518E+03  0.16556568267E+04  0.50400001928E-02 0.  1.
       -1    1    3    3    0  502  0.13222561170E+04 -0.63596828309E+03  0.10031014457E+04  0.17773658617E+04  0.50400001928E-02 0. -1.
</event>
<event>
 5   0  0.1797075E-06  0.3148131E+04  0.7818609E-02  0.8202652E-01
       -2   -1    0    0    0  501  0.00000000000E+00  0.00000000000E+00  0.96135577198E+03  0.96135577199E+03  0.25500000920E-02 0.  1.
        2   -1    0    0  501    0  0.00000000000E+00  0.00000000000E+00 -0.25772787220E+04  0.25772787220E+04  0.25500000920E-02 0. -1.
    10030    2    1    2    0    0  0.00000000000E+00  0.00000000000E+00 -0.16159229500E+04  0.35386344940E+04  0.31481307313E+04 0.  0.
        2    1    3    3  502    0  0.39240268688E+03  0.17066829031E+03  0.89472232786E+03  0.99178403797E+03  0.25500000920E-02 0.  1.
       -2    1    3    3    0  502 -0.39240268688E+03 -0.17066829031E+03 -0.25106452779E+04  0.25468504560E+04  0.25500000920E-02 0. -1.
</event>
<event>
 5   0  0.1339844E-06  0.3405227E+04  0.7818609E-02  0.8136625E-01
        2   -1    0    0  501    0  0.00000000000E+00  0.00000000000E+00  0.12679661979E+04  0.12679661979E+04  0.25500000920E-02 0. -1.
       -2   -1    0    0    0  501  0.00000000000E+00  0.00000000000E+00 -0.22862543486E+04  0.22862543486E+04  0.25500000920E-02 0.  1.
    10030    2    1    2    0    0  0.00000000000E+00  0.00000000000E+00 -0.10182881507E+04  0.35542205465E+04  0.34052272957E+04 0.  0.
        3    1    3    3  502    0 -0.74233051031E+03  0.87387367438E+03 -0.18228585999E+04  0.21534909497E+04  0.10100000352E+00 0.  1.
       -3    1    3    3    0  502  0.74233051031E+03 -0.87387367438E+03  0.80457044920E+03  0.14007295968E+04  0.10100000352E+00 0. -1.
</event>
<event>
 5   0  0.1339844E-06  0.3474702E+04  0.7818609E-02  0.8119812E-01
        2   -1    0    0  501    0  0.00000000000E+00  0.00000000000E+00  0.18729143230E+04  0.18729143230E+04  0.25500000920E-02 0.  1.
       -2   -1    0    0    0  501  0.00000000000E+00  0.00000000000E+00 -0.16115999560E+04  0.16115999560E+04  0.25500000920E-02 0. -1.
    10030    2    1    2    0    0  0.00000000000E+00  0.00000000000E+00  0.26131436699E+03  0.34845142791E+04  0.34747020826E+04 0.  0.
        3    1    3    3  502    0  0.59323034244E+03 -0.79008561197E+02 -0.15049679701E+04  0.16195966143E+04  0.10100000352E+00 0. -1.
       -3    1    3    3    0  502 -0.59323034244E+03  0.79008561197E+02  0.17662823371E+04  0.18649176648E+04  0.10100000352E+00 0.  1.
</event>
<event>
 5   0  0.1911477E-06  0.3406352E+04  0.7818609E-02  0.8136349E-01
        2   -1    0    0  501    0  0.00000000000E+00  0.00000000000E+00  0.18450268365E+04  0.18450268365E+04  0.25500000920E-02 0. -1.
       -2   -1    0    0    0  501  0.00000000000E+00  0.00000000000E+00 -0.15722308033E+04  0.15722308033E+04  0.25500000920E-02 0.  1.
    10030    2    1    2    0    0  0.00000000000E+00  0.00000000000E+00  0.27279603318E+03  0.34172576398E+04  0.34063517289E+04 0.  0.
        5    1    3    3  502    0 -0.14746066716E+04  0.85153054281E+03  0.17139284806E+03  0.17114224200E+04  0.46999998093E+01 0. -1.
       -5    1    3    3    0  502  0.14746066716E+04 -0.85153054281E+03  0.10140318513E+03  0.17058352198E+04  0.46999998093E+01 0.  1.
</event>
<event>
 5   0  0.6134625E-07  0.3368150E+04  0.7818609E-02  0.8145768E-01
       -1   -1    0    0    0  501  0.00000000000E+00  0.00000000000E+00  0.90641465867E+03  0.90641465868E+03  0.50400001928E-02 0. -1.
        1   -1    0    0  501    0  0.00000000000E+00  0.00000000000E+00 -0.31289302195E+04  0.31289302195E+04  0.50400001928E-02 0.  1.
    10030    2    1    2    0    0  0.00000000000E+00  0.00000000000E+00 -0.22225155608E+04  0.40353448782E+04  0.33681497692E+04 0.  0.
        1    1    3    3  502    0 -0.16739752384E+04 -0.14712492199E+03 -0.97854874491E+03  0.19445813142E+04  0.50400001928E-02 0. -1.
       -1    1    3    3    0  502  0.16739752384E+04  0.14712492199E+03 -0.12439668159E+04  0.20907635640E+04  0.50400001928E-02 0.  1.
</event>
<event>
 5   0  0.6134625E-07  0.3371630E+04  0.7818609E-02  0.8144904E-01
        3   -1    0    0  501    0  0.00000000000E+00  0.00000000000E+00  0.19837227381E+04  0.19837227407E+04  0.10100000352E+00 0. -1.
       -3   -1    0    0    0  501  0.00000000000E+00  0.00000000000E+00 -0.14326460331E+04  0.14326460366E+04  0.10100000352E+00 0.  1.
    10030    2    1    2    0    0  0.00000000000E+00  0.00000000000E+00  0.55107670502E+03  0.34163687773E+04  0.33716301825E+04 0.  0.
        3    1    3    3  502    0  0.15795415706E+04 -0.50003127111E+03  0.59110241900E+03  0.17590863894E+04  0.10100000352E+00 0.  1.
       -3    1    3    3    0  502 -0.15795415706E+04  0.50003127111E+03 -0.40025713979E+02  0.16572823879E+04  0.10100000352E+00 0. -1.
</event>
<event>
 5   0  0.6134625E-07  0.3386530E+04  0.7818609E-02  0.8141220E-01
       -1   -1    0    0    0  501  0.00000000000E+00  0.00000000000E+00  0.20679778134E+04  0.20679778134E+04  0.50400001928E-02 0. -1.
        1   -1    0    0  501    0  0.00000000000E+00  0.00000000000E+00 -0.13864488919E+04  0.13864488919E+04  0.50400001928E-02 0.  1.
    10030    2    1    2    0    0  0.00000000000E+00  0.00000000000E+00  0.68152892153E+03  0.34544267053E+04  0.33865295203E+04 0.  0.
        1    1    3    3  502    0  0.14449192302E+03  0.78948395177E+03  0.18616241898E+04  0.20272660038E+04  0.50400001928E-02 0. -1.
       -1    1    3    3    0  502 -0.14449192302E+03 -0.78948395177E+03 -0.11800952683E+04  0.14271607016E+04  0.50400001928E-02 0.  1.
</event>
<event>
 5   0  0.6134625E-07  0.3407627E+04  0.7818609E-02  0.8136037E-01
        1   -1    0    0  501    0  0.00000000000E+00  0.00000000000E+00  0.19262376771E+04  0.19262376771E+04  0.50400001928E-02 0. -1.
       -1   -1    0    0    0  501  0.00000000000E+00  0.00000000000E+00 -0.15070725646E+04  0.15070725646E+04  0.50400001928E-02 0.  1.
    10030    2    1    2    0    0  0.00000000000E+00  0.00000000000E+00  0.41916511249E+03  0.34333102418E+04  0.34076267144E+04 0.  0.
        3    1    3    3  502    0 -0.27492819267E+03 -0.49928305039E+03 -0.14081690131E+04  0.15191474764E+04  0.10100000352E+00 0.  1.
       -3    1    3    3    0  502  0.27492819267E+03  0.49928305039E+03  0.18273341256E+04  0.19141627653E+04  0.10100000352E+00 0. -1.
</event>
<event>
 5   0  0.1948507E-06  0.3414528E+04  0.7818609E-02  0.8134350E-01
        2   -1    0    0  501    0  0.00000000000E+00  0.00000000000E+00  0.88600785574E+03  0.88600785575E+03  0.25500000920E-02 0. -1.
       -2   -1    0    0    0  501  0.00000000000E+00  0.00000000000E+00 -0.32897572260E+04  0.32897572260E+04  0.25500000920E-02 0.  1.
    10030    2    1    2    0    0  0.00000000000E+00  0.00000000000E+00 -0.24037493703E+04  0.41757650817E+04  0.34145282226E+04 0.  0.
        1    1    3    3  502    0 -0.92546923494E+03 -0.10446411826E+04  0.70704211419E+00  0.13956249514E+04  0.50400001928E-02 0. -1.
       -1    1    3    3    0  502  0.92546923494E+03  0.10446411826E+04 -0.24044564124E+04  0.27801401303E+04  0.50400001928E-02 0.  1.
</event>
<event>
 5   0  0.6134625E-07  0.3409432E+04  0.7818609E-02  0.8135595E-01
       -1   -1    0    0    0  501  0.00000000000E+00  0.00000000000E+00  0.21543072051E+04  0.21543072051E+04  0.50400001928E-02 0. -1.
        1   -1    0    0  501    0  0.00000000000E+00  0.00000000000E+00 -0.13489517810E+04  0.13489517810E+04  0.50400001928E-02 0.  1.
    10030    2    1    2    0    0  0.00000000000E+00  0.00000000000E+00  0.80535542407E+03  0.35032589861E+04  0.34094319417E+04 0.  0.
        3    1    3    3  502    0 -0.15909560812E+04  0.13954269138E+03  0.10152752865E+04  0.18924580134E+04  0.10100000352E+00 0. -1.
       -3    1    3    3    0  502  0.15909560812E+04 -0.13954269138E+03 -0.20991986241E+03  0.16108009727E+04  0.10100000352E+00 0.  1.
</event>
<event>
 5   0  0.1948507E-06  0.3330720E+04  0.7818609E-02  0.8155122E-01
       -2   -1    0    0    0  501  0.00000000000E+00  0.00000000000E+00  0.12557323140E+04  0.12557323140E+04  0.25500000920E-02 0. -1.
        2   -1    0    0  501    0  0.00000000000E+00  0.00000000000E+00 -0.22086107121E+04  0.22086107121E+04  0.25500000920E-02 0.  1.
    10030    2    1    2    0    0  0.00000000000E+00  0.00000000000E+00 -0.95287839807E+03  0.34643430261E+04  0.33307199463E+04 0.  0.
        1    1    3    3  502    0 -0.10092758615E+04  0.12565303587E+04 -0.91269110056E+03  0.18521639647E+04  0.50400001928E-02 0.  1.
       -1    1    3    3    0  502  0.10092758615E+04 -0.12565303587E+04 -0.40187297511E+02  0.16121790614E+04  0.50400001928E-02 0. -1.
</event>
<event>
 5   0  0.1339844E-06  0.2855109E+04  0.7818609E-02  0.8286361E-01
       -2   -1    0    0    0  501  0.00000000000E+00  0.00000000000E+00  0.95553269057E+03  0.95553269057E+03  0.25500000920E-02 0.  1.
        2   -1    0    0  501    0  0.00000000000E+00  0.00000000000E+00 -0.21327491662E+04  0.21327491662E+04  0.25500000920E-02 0. -1.
    10030    2    1    2    0    0  0.00000000000E+00  0.00000000000E+00 -0.11772164756E+04  0.30882818568E+04  0.28551087889E+04 0.  0.
        3    1    3    3  502    0  0.73581759679E+03  0.11001396294E+03 -0.19064611858E+04  0.20464908675E+04  0.10100000352E+00 0. -1.
       -3    1    3    3    0  502 -0.73581759679E+03 -0.11001396294E+03  0.72924471015E+03  0.10417909892E+04  0.10100000352E+00 0.  1.
</event>
<event>
 5   0  0.1797075E-06  0.3452015E+04  0.7818609E-02  0.8125257E-01
        2   -1    0    0  501    0  0.00000000000E+00  0.00000000000E+00  0.16962296088E+04  0.16962296088E+04  0.25500000920E-02 0.  1.
       -2   -1    0    0    0  501  0.00000000000E+00  0.00000000000E+00 -0.17563085626E+04  0.17563085626E+04  0.25500000920E-02 0. -1.
    10030    2    1    2    0    0  0.00000000000E+00  0.00000000000E+00 -0.60078953795E+02  0.34525381714E+04  0.34520154033E+04 0.  0.
        2    1    3    3  502    0 -0.11827038112E+04 -0.77025148616E+02 -0.12849730559E+04  0.17481066709E+04  0.25500000920E-02 0. -1.
       -2    1    3    3    0  502  0.11827038112E+04  0.77025148616E+02  0.12248941021E+04  0.17044315005E+04  0.25500000920E-02 0.  1.
</event>
<event>
 5   0  0.6218695E-07  0.3474679E+04  0.7818609E-02  0.8119817E-01
       -1   -1    0    0    0  501  0.00000000000E+00  0.00000000000E+00  0.15109299163E+04  0.15109299163E+04  0.50400001928E-02 0. -1.
        1   -1    0    0  501    0  0.00000000000E+00  0.00000000000E+00 -0.19976764115E+04  0.19976764115E+04  0.50400001928E-02 0.  1.
    10030    2    1    2    0    0  0.00000000000E+00  0.00000000000E+00 -0.48674649520E+03  0.35086063279E+04  0.34746792965E+04 0.  0.
        2    1    3    3  502    0  0.15233962744E+04  0.80286360592E+03 -0.47588855542E+03  0.17865598495E+04  0.25500000920E-02 0. -1.
       -2    1    3    3    0  502 -0.15233962744E+04 -0.80286360592E+03 -0.10857939771E+02  0.17220464783E+04  0.25500000920E-02 0.  1.
</event>
<event>
 5   0  0.1911477E-06  0.3786821E+04  0.7818609E-02  0.8048989E-01
        2   -1    0    0  501    0  0.00000000000E+00  0.00000000000E+00  0.19599765561E+04  0.19599765561E+04  0.25500000920E-02 0.  1.
       -2   -1    0    0    0  501  0.00000000000E+00  0.00000000000E+00 -0.18291052500E+04  0.18291052500E+04  0.25500000920E-02 0. -1.
    10030    2    1    2    0    0  0.00000000000E+00  0.00000000000E+00  0.13087130611E+03  0.37890818060E+04  0.37868210459E+04 0.  0.
        5    1    3    3  502    0  0.86567463824E+03  0.14323421857E+04  0.95139331050E+03  0.19251410436E+04  0.46999998093E+01 0.  1.
       -5    1    3    3    0  502 -0.86567463824E+03 -0.14323421857E+04 -0.82052200439E+03  0.18639407625E+04  0.46999998093E+01 0. -1.
</event>
<event>
 5   0  0.6134625E-07  0.3408813E+04  0.7818609E-02  0.8135747E-01
        1   -1    0    0  501    0  0.00000000000E+00  0.00000000000E+00  0.26198277723E+04  0.26198277723E+04  0.50400001928E-02 0. -1.
       -1   -1    0    0    0  501  0.00000000000E+00  0.00000000000E+00 -0.11088522553E+04  0.11088522553E+04  0.50400001928E-02 0.  1.
    10030    2    1    2    0    0  0.00000000000E+00  0.00000000000E+00  0.15109755169E+04  0.37286800276E+04  0.34088132444E+04 0.  0.
        5    1    3    3  502    0  0.40702858667E+03 -0.31001063984E+03  0.25338367826E+04  0.25849815857E+04  0.46999998093E+01 0. -1.
       -5    1    3    3    0  502 -0.40702858667E+03  0.31001063984E+03 -0.10228612657E+04  0.11436984419E+04  0.46999998093E+01 0.  1.
</event>
<event>
 5   0  0.1339844E-06  0.2725683E+04  0.7818609E-02  0.8326720E-01
       -2   -1    0    0    0  501  0.00000000000E+00  0.00000000000E+00  0.90261820564E+03  0.90261820564E+03  0.25500000920E-02 0. -1.
        2   -1    0    0  501    0  0.00000000000E+00  0.00000000000E+00 -0.20577216938E+04  0.20577216938E+04  0.25500000920E-02 0.  1.
    10030    2    1    2    0    0  0.00000000000E+00  0.00000000000E+00 -0.11551034882E+04  0.29603398995E+04  0.27256830799E+04 0.  0.
        3    1    3    3  502    0 -0.93827340866E+03 -0.82929258353E+03  0.65732810232E+01  0.12522485363E+04  0.10100000352E+00 0. -1.
       -3    1    3    3    0  502  0.93827340866E+03  0.82929258353E+03 -0.11616767692E+04  0.17080913631E+04  0.10100000352E+00 0.  1.
</event>
<event>
 5   0  0.1948507E-06  0.3348209E+04  0.7818609E-02  0.8150736E-01
       -2   -1    0    0    0  501  0.00000000000E+00  0.00000000000E+00  0.19993265102E+04  0.19993265102E+04  0.25500000920E-02 0.  1.
        2   -1    0    0  501    0  0.00000000000E+00  0.00000000000E+00 -0.14017849653E+04  0.14017849653E+04  0.25500000920E-02 0. -1.
    10030    2    1    2    0    0  0.00000000000E+00  0.00000000000E+00  0.59754154492E+03  0.34011114755E+04  0.33482089796E+04 0.  0.
        1    1    3    3  502    0  0.10473618328E+04 -0.10423343672E+04 -0.50055371468E+03  0.15601223552E+04  0.50400001928E-02 0. -1.
       -1    1    3    3    0  502 -0.10473618328E+04  0.10423343672E+04  0.10980952596E+04  0.18409891203E+04  0.50400001928E-02 0.  1.
</event>
<event>
 5   0  0.1797075E-06  0.3457760E+04  0.7818609E-02  0.8123874E-01
       -2   -1    0    0    0  501  0.00000000000E+00  0.00000000000E+00  0.12758556451E+04  0.12758556451E+04  0.25500000920E-02 0. -1.
        2   -1    0    0  501    0  0.00000000000E+00  0.00000000000E+00 -0.23427619693E+04  0.23427619693E+04  0.25500000920E-02 0.  1.
    10030    2    1    2    0    0  0.00000000000E+00  0.00000000000E+00 -0.10669063242E+04  0.36186176144E+04  0.34577600169E+04 0.  0.
        2    1    3    3  502    0  0.19205278920E+03 -0.87625271802E+03  0.10132475039E+04  0.13532825292E+04  0.25500000920E-02 0. -1.
       -2    1    3    3    0  502 -0.19205278920E+03  0.87625271802E+03 -0.20801538281E+04  0.22653350852E+04  0.25500000920E-02 0.  1.
</event>
<event>
 5   0  0.6218695E-07  0.3376189E+04  0.7818609E-02  0.8143775E-01
        1   -1    0    0  501    0  0.00000000000E+00  0.00000000000E+00  0.12607219175E+04  0.12607219176E+04  0.50400001928E-02 0. -1.
       -1   -1    0    0    0  501  0.00000000000E+00  0.00000000000E+00 -0.22603426632E+04  0.22603426632E+04  0.50400001928E-02 0.  1.
    10030    2    1    2    0    0  0.00000000000E+00  0.00000000000E+00 -0.99962074564E+03  0.35210645807E+04  0.33761892937E+04 0.  0.
        2    1    3    3  502    0  0.10291190672E+04 -0.26992046174E+03  0.86704776384E+03  0.13724849489E+04  0.25500000920E-02 0.  1.
       -2    1    3    3    0  502 -0.10291190672E+04  0.26992046174E+03 -0.18666685095E+04  0.21485796319E+04  0.25500000920E-02 0. -1.
</event>
<event>
 5   0  0.6218695E-07  0.3381138E+04  0.7818609E-02  0.8142551E-01
       -1   -1    0    0    0  501  0.00000000000E+00  0.00000000000E+00  0.12395020999E+04  0.12395020999E+04  0.50400001928E-02 0.  1.
        1   -1    0    0  501    0  0.00000000000E+00  0.00000000000E+00 -0.23057829820E+04  0.23057829820E+04  0.50400001928E-02 0. -1.
    10030    2    1    2    0    0  0.00000000000E+00  0.00000000000E+00 -0.10662808821E+04  0.35452850819E+04  0.33811375885E+04 0.  0.
        2    1    3    3  502    0 -0.16086558835E+04  0.26849141374E+02  0.11224868193E+02  0.16089190861E+04  0.25500000920E-02 0.  1.
       -2    1    3    3    0  502  0.16086558835E+04 -0.26849141374E+02 -0.10775057503E+04  0.19363659958E+04  0.25500000920E-02 0. -1.
</event>
<event>
 5   0  0.1911477E-06  0.3385553E+04  0.7818609E-02  0.8141461E-01
        2   -1    0    0  501    0  0.00000000000E+00  0.00000000000E+00  0.15876376176E+04  0.15876376176E+04  0.25500000920E-02 0.  1.
       -2   -1    0    0    0  501  0.00000000000E+00  0.00000000000E+00 -0.18048783331E+04  0.18048783331E+04  0.25500000920E-02 0. -1.
    10030    2    1    2    0    0  0.00000000000E+00  0.00000000000E+00 -0.21724071553E+03  0.33925159507E+04  0.33855532705E+04 0.  0.
        5    1    3    3  502    0  0.21662552120E+03 -0.16194438891E+04  0.33494734471E+03  0.16678539925E+04  0.46999998093E+01 0. -1.
       -5    1    3    3    0  502 -0.21662552120E+03  0.16194438891E+04 -0.55218806024E+03  0.17246619583E+04  0.46999998093E+01 0.  1.
</event>
<event>
 5   0  0.1339844E-06  0.3415007E+04  0.7818609E-02  0.8134233E-01
       -2   -1    0    0    0  501  0.00000000000E+00  0.00000000000E+00  0.20272486067E+04  0.20272486067E+04  0.25500000920E-02 0. -1.
        2   -1    0    0  501    0  0.00000000000E+00  0.00000000000E+00 -0.14381893967E+04  0.14381893967E+04  0.25500000920E-02 0.  1.
    10030    2    1    2    0    0  0.00000000000E+00  0.00000000000E+00  0.58905921007E+03  0.34654380034E+04  0.34150065596E+04 0.  0.
        3    1    3    3  502    0 -0.13563881254E+04  0.92952125937E+03  0.76150898522E+03  0.18120967036E+04  0.10100000352E+00 0. -1.
       -3    1    3    3    0  502  0.13563881254E+04 -0.92952125937E+03 -0.17244977516E+03  0.16533412998E+04  0.10100000352E+00 0.  1.
</event>
<event>
 5   0  0.1911477E-06  0.3598588E+04  0.7818609E-02  0.8090815E-01
        2   -1    0    0  501    0  0.00000000000E+00  0.00000000000E+00  0.25080348006E+04  0.25080348006E+04  0.25500000920E-02 0.  1.
       -2   -1    0    0    0  501  0.00000000000E+00  0.00000000000E+00 -0.12908348659E+04  0.12908348659E+04  0.25500000920E-02 0. -1.
    10030    2    1    2    0    0  0.00000000000E+00  0.00000000000E+00  0.12171999347E+04  0.37988696665E+04  0.35985879261E+04 0.  0.
        5    1    3    3  502    0 -0.49916723484E+03 -0.54818475100E+03  0.23392836472E+04  0.24539650612E+04  0.46999998093E+01 0.  1.
       -5    1    3    3    0  502  0.49916723484E+03  0.54818475100E+03 -0.11220837125E+04  0.13449046053E+04  0.46999998093E+01 0. -1.
</event>
<event>
 5   0  0.1797075E-06  0.2691834E+04  0.7818609E-02  0.8337660E-01
       -2   -1    0    0    0  501  0.00000000000E+00  0.00000000000E+00  0.10355395883E+04  0.10355395883E+04  0.25500000920E-02 0.  1.
        2   -1    0    0  501    0  0.00000000000E+00  0.00000000000E+00 -0.17493219720E+04  0.17493219720E+04  0.25500000920E-02 0. -1.
    10030    2    1    2    0    0  0.00000000000E+00  0.00000000000E+00 -0.71378238371E+03  0.27848615602E+04  0.26918336907E+04 0.  0.
        2    1    3    3  502    0 -0.93478951986E+03  0.84497910469E+03 -0.84617432646E+03  0.15178379770E+04  0.25500000920E-02 0. -1.
       -2    1    3    3    0  502  0.93478951986E+03 -0.84497910469E+03  0.13239194275E+03  0.12670235832E+04  0.25500000920E-02 0.  1.
</event>
<event>
 5   0  0.6218695E-07  0.3412441E+04  0.7818609E-02  0.8134860E-01
        1   -1    0    0  501    0  0.00000000000E+00  0.00000000000E+00  0.15795525755E+04  0.15795525755E+04  0.50400001928E-02 0.  1.
       -1   -1    0    0    0  501  0.00000000000E+00  0.00000000000E+00 -0.18430459238E+04  0.18430459238E+04  0.50400001928E-02 0. -1.
    10030    2    1    2    0    0  0.00000000000E+00  0.00000000000E+00 -0.26349334826E+03  0.34225984993E+04  0.34124407311E+04 0.  0.
        2    1    3    3  502    0 -0.20190433873E+03  0.11402713289E+04 -0.13885544536E+04  0.18080562868E+04  0.25500000920E-02 0. -1.
       -2    1    3    3    0  502  0.20190433873E+03 -0.11402713289E+04  0.11250611053E+04  0.16145422126E+04  0.25500000920E-02 0.  1.
</event>
<event>
 5   0  0.6134625E-07  0.3363109E+04  0.7818609E-02  0.8147020E-01
       -1   -1    0    0    0  501  0.00000000000E+00  0.00000000000E+00  0.19519303101E+04  0.19519303101E+04  0.50400001928E-02 0.  1.
        1   -1    0    0  501    0  0.00000000000E+00  0.00000000000E+00 -0.14486305500E+04  0.14486305500E+04  0.50400001928E-02 0. -1.
    10030    2    1    2    0    0  0.00000000000E+00  0.00000000000E+00  0.50329976012E+03  0.34005608601E+04  0.33631092035E+04 0.  0.
        5    1    3    3  502    0  0.10913740335E+04  0.67151920911E+02 -0.10400727771E+04  0.15090991131E+04  0.46999998093E+01 0. -1.
       -5    1    3    3    0  502 -0.10913740335E+04 -0.67151920911E+02  0.15433725373E+04  0.18914617470E+04  0.46999998093E+01 0.  1.
</event>
<event>
 5   0  0.6134625E-07  0.3324844E+04  0.7818609E-02  0.8156602E-01
       -1   -1    0    0    0  501  0.00000000000E+00  0.00000000000E+00  0.13981472508E+04  0.13981472508E+04  0.50400001928E-02 0. -1.
        1   -1    0    0  501    0  0.00000000000E+00  0.00000000000E+00 -0.19766497685E+04  0.19766497685E+04  0.50400001928E-02 0.  1.
    10030    2    1    2    0    0  0.00000000000E+00  0.00000000000E+00 -0.57850251775E+03  0.33747970193E+04  0.33248443209E+04 0.  0.
        3    1    3    3  502    0 -0.15275162731E+03  0.15380752273E+04 -0.91052473703E+03  0.17938962543E+04  0.10100000352E+00 0.  1.
       -3    1    3    3    0  502  0.15275162731E+03 -0.15380752273E+04  0.33202221928E+03  0.15809007650E+04  0.10100000352E+00 0. -1.
</event>
<event>
 5   0  0.1948507E-06  0.3387662E+04  0.7818609E-02  0.8140941E-01
        2   -1    0    0  501    0  0.00000000000E+00  0.00000000000E+00  0.25839655875E+04  0.25839655875E+04  0.25500000920E-02 0. -1.
       -2   -1    0    0    0  501  0.00000000000E+00  0.00000000000E+00 -0.11103333022E+04  0.11103333022E+04  0.25500000920E-02 0.  1.
    10030    2    1    2    0    0  0.00000000000E+00  0.00000000000E+00  0.14736322853E+04  0.36942988897E+04  0.33876617561E+04 0.  0.
        1    1    3    3  502    0 -0.12893355820E+04  0.10832155011E+04  0.53775299737E+03  0.17677444247E+04  0.50400001928E-02 0.  1.
       -1    1    3    3    0  502  0.12893355820E+04 -0.10832155011E+04  0.93587928790E+03  0.19265544650E+04  0.50400001928E-02 0. -1.
</event>
<event>
 5   0  0.6218695E-07  0.2694152E+04  0.7818609E-02  0.8336905E-01
       -1   -1    0    0    0  501  0.00000000000E+00  0.00000000000E+00  0.12903526318E+04  0.12903526318E+04  0.50400001928E-02 0.  1.
        1   -1    0    0  501    0  0.00000000000E+00  0.00000000000E+00 -0.14062927644E+04  0.14062927644E+04  0.50400001928E-02 0. -1.
    10030    2    1    2    0    0  0.00000000000E+00  0.00000000000E+00 -0.11594013258E+03  0.26966453962E+04  0.26941518662E+04 0.  0.
        2    1    3    3  502    0 -0.48378862178E+03  0.33023941839E+03 -0.12721484638E+04  0.14005253364E+04  0.25500000920E-02 0. -1.
       -2    1    3    3    0  502  0.48378862178E+03 -0.33023941839E+03  0.11562083312E+04  0.12961200597E+04  0.25500000920E-02 0.  1.
</event>
<event>
 5   0  0.1948507E-06  0.3386812E+04  0.7818609E-02  0.8141151E-01
       -2   -1    0    0    0  501  0.00000000000E+00  0.00000000000E+00  0.16783447654E+04  0.16783447654E+04  0.25500000920E-02 0.  1.
        2   -1    0    0  501    0  0.00000000000E+00  0.00000000000E+00 -0.17086020073E+04  0.17086020073E+04  0.25500000920E-02 0. -1.
    10030    2    1    2    0    0  0.00000000000E+00  0.00000000000E+00 -0.30257241956E+02  0.33869467727E+04  0.33868116187E+04 0.  0.
        1    1    3    3  502    0  0.62703288611E+03 -0.14467262513E+04  0.60250119735E+03  0.16879557989E+04  0.50400001928E-02 0. -1.
       -1    1    3    3    0  502 -0.62703288611E+03  0.14467262513E+04 -0.63275843930E+03  0.16989909737E+04  0.50400001928E-02 0.  1.
</event>
<event>
 5   0  0.6134625E-07  0.3167969E+04  0.7818609E-02  0.8197328E-01
       -3   -1    0    0    0  501  0.00000000000E+00  0.00000000000E+00  0.16194057868E+04  0.16194057900E+04  0.10100000352E+00 0.  1.
        3   -1    0    0  501    0  0.00000000000E+00  0.00000000000E+00 -0.15493376600E+04  0.15493376633E+04  0.10100000352E+00 0. -1.
    10030    2    1    2    0    0  0.00000000000E+00  0.00000000000E+00  0.70068126860E+02  0.31687434533E+04  0.31679686757E+04 0.  0.
        1    1    3    3  502    0  0.20840483652E+03  0.91363739595E+03 -0.12423219204E+04  0.15561264798E+04  0.50400001928E-02 0. -1.
       -1    1    3    3    0  502 -0.20840483652E+03 -0.91363739595E+03  0.13123900472E+04  0.16126169735E+04  0.50400001928E-02 0.  1.
</event>
<event>
 5   0  0.1339844E-06  0.3383440E+04  0.7818609E-02  0.8141983E-01
        2   -1    0    0  501    0  0.00000000000E+00  0.00000000000E+00  0.19000629513E+04  0.19000629513E+04  0.25500000920E-02 0. -1.
       -2   -1    0    0    0  501  0.00000000000E+00  0.00000000000E+00 -0.15062216885E+04  0.15062216885E+04  0.25500000920E-02 0.  1.
    10030    2    1    2    0    0  0.00000000000E+00  0.00000000000E+00  0.39384126286E+03  0.34062846398E+04  0.33834396857E+04 0.  0.
        3    1    3    3  502    0 -0.54426038857E+03  0.10769517818E+04 -0.99677969187E+03  0.15651243641E+04  0.10100000352E+00 0.  1.
       -3    1    3    3    0  502  0.54426038857E+03 -0.10769517818E+04  0.13906209547E+04  0.18411602757E+04  0.10100000352E+00 0. -1.
</event>
<event>
 5   0  0.6134625E-07  0.3383736E+04  0.7818609E-02  0.8141910E-01
       -1   -1    0    0    0  501  0.00000000000E+00  0.00000000000E+00  0.29666558063E+04  0.29666558063E+04  0.50400001928E-02 0.  1.
        1   -1    0    0  501    0  0.00000000000E+00  0.00000000000E+00 -0.96486352700E+03  0.96486352702E+03  0.50400001928E-02 0. -1.
    10030    2    1    2    0    0  0.00000000000E+00  0.00000000000E+00  0.20017922793E+04  0.39315193333E+04  0.33837363873E+04 0.  0.
        1    1    3    3  502    0  0.16668572342E+04  0.26003969846E+03  0.11496190407E+04  0.20414841716E+04  0.50400001928E-02 0.  1.
       -1    1    3    3    0  502 -0.16668572342E+04 -0.26003969846E+03  0.85217323852E+03  0.18900351617E+04  0.50400001928E-02 0. -1.
</event>
<event>
 5   0  0.6146388E-07  0.3358671E+04  0.7818609E-02  0.8148125E-01
       -1   -1    0    0    0  501  0.00000000000E+00  0.00000000000E+00  0.24591646678E+04  0.24591646678E+04  0.50400001928E-02 0.  1.
        1   -1    0    0  501    0  0.00000000000E+00  0.00000000000E+00 -0.11467988609E+04  0.11467988609E+04  0.50400001928E-02 0. -1.
    10030    2    1    2    0    0  0.00000000000E+00  0.00000000000E+00  0.13123658069E+04  0.36059635286E+04  0.33586707131E+04 0.  0.
        4    1    3    3  502    0  0.80931492645E+03 -0.20207219103E+03  0.22210090731E+04  0.23724895651E+04  0.12699999809E+01 0.  1.
       -4    1    3    3    0  502 -0.80931492645E+03  0.20207219103E+03 -0.90864326625E+03  0.12334739636E+04  0.12699999809E+01 0. -1.
</event>
<event>
 5   0  0.1948507E-06  0.3350899E+04  0.7818609E-02  0.8150064E-01
       -2   -1    0    0    0  501  0.00000000000E+00  0.00000000000E+00  0.15837601888E+04  0.15837601888E+04  0.25500000920E-02 0.  1.
        2   -1    0    0  501    0  0.00000000000E+00  0.00000000000E+00 -0.17724465115E+04  0.17724465115E+04  0.25500000920E-02 0. -1.
    10030    2    1    2    0    0  0.00000000000E+00  0.00000000000E+00 -0.18868632268E+03  0.33562067003E+04  0.33508985193E+04 0.  0.
        1    1    3    3  502    0 -0.13953936040E+04 -0.37403684951E+03  0.75559012719E+03  0.16303200039E+04  0.50400001928E-02 0.  1.
       -1    1    3    3    0  502  0.13953936040E+04  0.37403684951E+03 -0.94427644987E+03  0.17258866964E+04  0.50400001928E-02 0. -1.
</event>
<event>
 5   0  0.1911477E-06  0.3496951E+04  0.7818609E-02  0.8114513E-01
       -2   -1    0    0    0  501  0.00000000000E+00  0.00000000000E+00  0.12216138344E+04  0.12216138344E+04  0.25500000920E-02 0.  1.
        2   -1    0    0  501    0  0.00000000000E+00  0.00000000000E+00 -0.25025643525E+04  0.25025643525E+04  0.25500000920E-02 0. -1.
    10030    2    1    2    0    0  0.00000000000E+00  0.00000000000E+00 -0.12809505180E+04  0.37241781869E+04  0.34969513777E+04 0.  0.
        5    1    3    3  502    0  0.11129694203E+04  0.10019647261E+04  0.32067062167E+03  0.15314979531E+04  0.46999998093E+01 0.  1.
       -5    1    3    3    0  502 -0.11129694203E+04 -0.10019647261E+04 -0.16016211397E+04  0.21926802338E+04  0.46999998093E+01 0. -1.
</event>
<event>
 5   0  0.6134625E-07  0.3429547E+04  0.7818609E-02  0.8130692E-01
       -1   -1    0    0    0  501  0.00000000000E+00  0.00000000000E+00  0.15524645413E+04  0.15524645413E+04  0.50400001928E-02 0. -1.
        1   -1    0    0  501    0  0.00000000000E+00  0.00000000000E+00 -0.18940512626E+04  0.18940512626E+04  0.50400001928E-02 0.  1.
    10030    2    1    2    0    0  0.00000000000E+00  0.00000000000E+00 -0.34158672132E+03  0.34465158039E+04  0.34295465733E+04 0.  0.
        1    1    3    3  502    0  0.54031718215E+03 -0.13851943246E+04  0.68768247876E+03  0.16381737288E+04  0.50400001928E-02 0. -1.
       -1    1    3    3    0  502 -0.54031718215E+03  0.13851943246E+04 -0.10292692001E+04  0.18083420751E+04  0.50400001928E-02 0.  1.
</event>
<event>
 5   0  0.1339844E-06  0.2656470E+04  0.7818609E-02  0.8349269E-01
       -2   -1    0    0    0  501  0.00000000000E+00  0.00000000000E+00  0.87723665444E+03  0.87723665444E+03  0.25500000920E-02 0. -1.
        2   -1    0    0  501    0  0.00000000000E+00  0.00000000000E+00 -0.20110975660E+04  0.20110975660E+04  0.25500000920E-02 0.  1.
    10030    2    1    2    0    0  0.00000000000E+00  0.00000000000E+00 -0.11338609115E+04  0.28883342204E+04  0.26564702148E+04 0.  0.
        3    1    3    3  502    0  0.90697349104E+03 -0.48182795761E+03  0.34887495813E+03  0.10846533275E+04  0.10100000352E+00 0. -1.
       -3    1    3    3    0  502 -0.90697349104E+03  0.48182795761E+03 -0.14827358697E+04  0.18036808930E+04  0.10100000352E+00 0.  1.
</event>
<event>
 5   0  0.6146388E-07  0.3345554E+04  0.7818609E-02  0.8151400E-01
        1   -1    0    0  501    0  0.00000000000E+00  0.00000000000E+00  0.24064868809E+04  0.24064868809E+04  0.50400001928E-02 0.  1.
       -1   -1    0    0    0  501  0.00000000000E+00  0.00000000000E+00 -0.11627667396E+04  0.11627667396E+04  0.50400001928E-02 0. -1.
    10030    2    1    2    0    0  0.00000000000E+00  0.00000000000E+00  0.12437201413E+04  0.35692536205E+04  0.33455540076E+04 0.  0.
        4    1    3    3  502    0 -0.11951733386E+03  0.73636093298E+03 -0.97547178388E+03  0.12280303867E+04  0.12699999809E+01 0. -1.
       -4    1    3    3    0  502  0.11951733386E+03 -0.73636093298E+03  0.22191919252E+04  0.23412232338E+04  0.12699999809E+01 0.  1.
</event>
<event>
 5   0  0.6146388E-07  0.3381381E+04  0.7818609E-02  0.8142491E-01
        1   -1    0    0  501    0  0.00000000000E+00  0.00000000000E+00  0.25796479204E+04  0.25796479204E+04  0.50400001928E-02 0. -1.
       -1   -1    0    0    0  501  0.00000000000E+00  0.00000000000E+00 -0.11080715346E+04  0.11080715347E+04  0.50400001928E-02 0.  1.
    10030    2    1    2    0    0  0.00000000000E+00  0.00000000000E+00  0.14715763858E+04  0.36877194551E+04  0.33813810374E+04 0.  0.
        4    1    3    3  502    0  0.33930525525E+03 -0.16381589060E+04  0.46922698269E+03  0.17374890594E+04  0.12699999809E+01 0.  1.
       -4    1    3    3    0  502 -0.33930525525E+03  0.16381589060E+04  0.10023494031E+04  0.19502303957E+04  0.12699999809E+01 0. -1.
</event>
<event>
 5   0  0.6146388E-07  0.3379159E+04  0.7818609E-02  0.8143040E-01
        1   -1    0    0  501    0  0.00000000000E+00  0.00000000000E+00  0.13645876814E+04  0.13645876814E+04  0.50400001928E-02 0. -1.
       -1   -1    0    0    0  501  0.00000000000E+00  0.00000000000E+00 -0.20919712777E+04  0.20919712777E+04  0.50400001928E-02 0.  1.
    10030    2    1    2    0    0  0.00000000000E+00  0.00000000000E+00 -0.72738359634E+03  0.34565589592E+04  0.33791586145E+04 0.  0.
        4    1    3    3  502    0 -0.80987407556E+03 -0.14828038458E+04 -0.37245298117E+03  0.17301231457E+04  0.12699999809E+01 0.  1.
       -4    1    3    3    0  502  0.80987407556E+03  0.14828038458E+04 -0.35493061517E+03  0.17264358134E+04  0.12699999809E+01 0. -1.
</event>
<event>
 5   0  0.1797075E-06  0.3498320E+04  0.7818609E-02  0.8114188E-01
        2   -1    0    0  501    0  0.00000000000E+00  0.00000000000E+00  0.25946978993E+04  0.25946978993E+04  0.25500000920E-02 0.  1.
       -2   -1    0    0    0  501  0.00000000000E+00  0.00000000000E+00 -0.11791589945E+04  0.11791589945E+04  0.25500000920E-02 0. -1.
    10030    2    1    2    0    0  0.00000000000E+00  0.00000000000E+00  0.14155389047E+04  0.37738568938E+04  0.34983203776E+04 0.  0.
        2    1    3    3  502    0 -0.56720384675E+03 -0.16831174011E+03 -0.10679379812E+04  0.12208769706E+04  0.25500000920E-02 0. -1.
       -2    1    3    3    0  502  0.56720384675E+03  0.16831174011E+03  0.24834768859E+04  0.25529799232E+04  0.25500000920E-02 0.  1.
</event>
<event>
 5   0  0.1880301E-06  0.3394247E+04  0.7818609E-02  0.8139320E-01
        2   -1    0    0  501    0  0.00000000000E+00  0.00000000000E+00  0.19329726855E+04  0.19329726855E+04  0.25500000920E-02 0. -1.
       -2   -1    0    0    0  501  0.00000000000E+00  0.00000000000E+00 -0.14900512276E+04  0.14900512276E+04  0.25500000920E-02 0.  1.
    10030    2    1    2    0    0  0.00000000000E+00  0.00000000000E+00  0.44292145784E+03  0.34230239131E+04  0.33942470876E+04 0.  0.
        4    1    3    3  502    0 -0.57021314990E+03 -0.53799028971E+03 -0.12965082659E+04  0.15150946784E+04  0.12699999809E+01 0.  1.
       -4    1    3    3    0  502  0.57021314990E+03  0.53799028971E+03  0.17394297237E+04  0.19079292347E+04  0.12699999809E+01 0. -1.
</event>
<event>
 5   0  0.1339844E-06  0.3356849E+04  0.7818609E-02  0.8148579E-01
        2   -1    0    0  501    0  0.00000000000E+00  0.00000000000E+00  0.11275769480E+04  0.11275769480E+04  0.25500000920E-02 0.  1.
       -2   -1    0    0    0  501  0.00000000000E+00  0.00000000000E+00 -0.24983743593E+04  0.24983743593E+04  0.25500000920E-02 0. -1.
    10030    2    1    2    0    0  0.00000000000E+00  0.00000000000E+00 -0.13707974113E+04  0.36259513073E+04  0.33568493175E+04 0.  0.
        3    1    3    3  502    0  0.14202039017E+04  0.39002980780E+03  0.18412204972E+03  0.14842517687E+04  0.10100000352E+00 0.  1.
       -3    1    3    3    0  502 -0.14202039017E+04 -0.39002980780E+03 -0.15549194610E+04  0.21416995386E+04  0.10100000352E+00 0. -1.
</event>
<event>
 5   0  0.6134625E-07  0.3481522E+04  0.7818609E-02  0.8118183E-01
       -1   -1    0    0    0  501  0.00000000000E+00  0.00000000000E+00  0.12038132776E+04  0.12038132776E+04  0.50400001928E-02 0.  1.
        1   -1    0    0  501    0  0.00000000000E+00  0.00000000000E+00 -0.25172079465E+04  0.25172079465E+04  0.50400001928E-02 0. -1.
    10030    2    1    2    0    0  0.00000000000E+00  0.00000000000E+00 -0.13133946689E+04  0.37210212241E+04  0.34815217067E+04 0.  0.
        3    1    3    3  502    0  0.11583453571E+04  0.11532435953E+04 -0.16747624637E+02  0.16346300039E+04  0.10100000352E+00 0.  1.
       -3    1    3    3    0  502 -0.11583453571E+04 -0.11532435953E+04 -0.12966470442E+04  0.20863912203E+04  0.10100000352E+00 0. -1.
</event>
<event>
 5   0  0.1339844E-06  0.3593156E+04  0.7818609E-02  0.8092061E-01
        2   -1    0    0  501    0  0.00000000000E+00  0.00000000000E+00  0.25639748712E+04  0.25639748712E+04  0.25500000920E-02 0. -1.
       -2   -1    0    0    0  501  0.00000000000E+00  0.00000000000E+00 -0.12588626680E+04  0.12588626680E+04  0.25500000920E-02 0.  1.
    10030    2    1    2    0    0  0.00000000000E+00  0.00000000000E+00  0.13051122032E+04  0.38228375392E+04  0.35931558536E+04 0.  0.
        3    1    3    3  502    0  0.17427750472E+04 -0.19222681982E+03  0.23575358135E+03  0.17691228834E+04  0.10100000352E+00 0.  1.
       -3    1    3    3    0  502 -0.17427750472E+04  0.19222681982E+03  0.10693586218E+04  0.20537146558E+04  0.10100000352E+00 0. -1.
</event>
<event>
 5   0  0.6134625E-07  0.3399556E+04  0.7818609E-02  0.8138015E-01
       -1   -1    0    0    0  501  0.00000000000E+00  0.00000000000E+00  0.17937301910E+04  0.17937301910E+04  0.50400001928E-02 0. -1.
        1   -1    0    0  501    0  0.00000000000E+00  0.00000000000E+00 -0.16107468817E+04  0.16107468817E+04  0.50400001928E-02 0.  1.
    10030    2    1    2    0    0  0.00000000000E+00  0.00000000000E+00  0.18298330936E+03  0.34044770727E+04  0.33995560368E+04 0.  0.
        5    1    3    3  502    0  0.35904091214E+03 -0.13056330570E+04  0.11204200061E+04  0.17575412189E+04  0.46999998093E+01 0. -1.
       -5    1    3    3    0  502 -0.35904091214E+03  0.13056330570E+04 -0.93743669676E+03  0.16469358538E+04  0.46999998093E+01 0.  1.
</event>
<event>
 5   0  0.1797075E-06  0.3394672E+04  0.7818609E-02  0.8139215E-01
       -2   -1    0    0    0  501  0.00000000000E+00  0.00000000000E+00  0.17870732077E+04  0.17870732077E+04  0.25500000920E-02 0. -1.
        2   -1    0    0  501    0  0.00000000000E+00  0.00000000000E+00 -0.16121047290E+04  0.16121047290E+04  0.25500000920E-02 0.  1.
    10030    2    1    2    0    0  0.00000000000E+00  0.00000000000E+00  0.17496847876E+03  0.33991779367E+04  0.33946718069E+04 0.  0.
        2    1    3    3  502    0  0.12349841885E+04  0.85226232166E+03 -0.70692387156E+03  0.16586977937E+04  0.25500000920E-02 0.  1.
       -2    1    3    3    0  502 -0.12349841885E+04 -0.85226232166E+03  0.88189235032E+03  0.17404801430E+04  0.25500000920E-02 0. -1.
</event>
<event>
 5   0  0.6134625E-07  0.3392248E+04  0.7818609E-02  0.8139812E-01
        1   -1    0    0  501    0  0.00000000000E+00  0.00000000000E+00  0.26066018392E+04  0.26066018392E+04  0.50400001928E-02 0. -1.
       -1   -1    0    0    0  501  0.00000000000E+00  0.00000000000E+00 -0.11036731941E+04  0.11036731941E+04  0.50400001928E-02 0.  1.
    10030    2    1    2    0    0  0.00000000000E+00  0.00000000000E+00  0.15029286451E+04  0.37102750333E+04  0.33922479730E+04 0.  0.
        3    1    3    3  502    0  0.10029599285E+04 -0.11925231142E+04  0.14841931488E+04  0.21519454708E+04  0.10100000352E+00 0. -1.
       -3    1    3    3    0  502 -0.10029599285E+04  0.11925231142E+04  0.18735496246E+02  0.15583295624E+04  0.10100000352E+00 0.  1.
</event>
<event>
 5   0  0.1911477E-06  0.3351506E+04  0.7818609E-02  0.8149912E-01
        2   -1    0    0  501    0  0.00000000000E+00  0.00000000000E+00  0.20946730297E+04  0.20946730297E+04  0.25500000920E-02 0. -1.
       -2   -1    0    0    0  501  0.00000000000E+00  0.00000000000E+00 -0.13406139663E+04  0.13406139663E+04  0.25500000920E-02 0.  1.
    10030    2    1    2    0    0  0.00000000000E+00  0.00000000000E+00  0.75405906336E+03  0.34352869960E+04  0.33515058815E+04 0.  0.
        5    1    3    3  502    0  0.62107647743E+03  0.14989953832E+04 -0.52250957837E+02  0.16234147351E+04  0.46999998093E+01 0. -1.
       -5    1    3    3    0  502 -0.62107647743E+03 -0.14989953832E+04  0.80631002120E+03  0.18118722609E+04  0.46999998093E+01 0.  1.
</event>
<event>
 5   0  0.6134625E-07  0.3309940E+04  0.7818609E-02  0.8160371E-01
        1   -1    0    0  501    0  0.00000000000E+00  0.00000000000E+00  0.24733839508E+04  0.24733839508E+04  0.50400001928E-02 0.  1.
       -1   -1    0    0    0  501  0.00000000000E+00  0.00000000000E+00 -0.11073597329E+04  0.11073597329E+04  0.50400001928E-02 0. -1.
    10030    2    1    2    0    0  0.00000000000E+00  0.00000000000E+00  0.13660242179E+04  0.35807436837E+04  0.33099400545E+04 0.  0.
        5    1    3    3  502    0 -0.68433953567E+03  0.14199186831E+04  0.12286740186E+04  0.19985373653E+04  0.46999998093E+01 0.  1.
       -5    1    3    3    0  502  0.68433953567E+03 -0.14199186831E+04  0.13735019925E+03  0.15822063183E+04  0.46999998093E+01 0. -1.
</event>
<event>
 5   0  0.1339844E-06  0.3478944E+04  0.7818609E-02  0.8118798E-01
       -2   -1    0    0    0  501  0.00000000000E+00  0.00000000000E+00  0.16793831202E+04  0.16793831202E+04  0.25500000920E-02 0.  1.
        2   -1    0    0  501    0  0.00000000000E+00  0.00000000000E+00 -0.18017109630E+04  0.18017109630E+04  0.25500000920E-02 0. -1.
    10030    2    1    2    0    0  0.00000000000E+00  0.00000000000E+00 -0.12232784278E+03  0.34810940833E+04  0.34789440805E+04 0.  0.
        3    1    3    3  502    0  0.15765444186E+03  0.84913964302E+03  0.14496930282E+04  0.16874545750E+04  0.10100000352E+00 0.  1.
       -3    1    3    3    0  502 -0.15765444186E+03 -0.84913964302E+03 -0.15720208710E+04  0.17936395082E+04  0.10100000352E+00 0. -1.
</event>
<event>
 5   0  0.1948507E-06  0.3383662E+04  0.7818609E-02  0.8141928E-01
        2   -1    0    0  501    0  0.00000000000E+00  0.00000000000E+00  0.14482115157E+04  0.14482115157E+04  0.25500000920E-02 0. -1.
       -2   -1    0    0    0  501  0.00000000000E+00  0.00000000000E+00 -0.19764326205E+04  0.19764326205E+04  0.25500000920E-02 0.  1.
    10030    2    1    2    0    0  0.00000000000E+00  0.00000000000E+00 -0.52822110478E+03  0.34246441362E+04  0.33836622060E+04 0.  0.
        1    1    3    3  502    0  0.29914184706E+03 -0.94221604798E+03 -0.16537054862E+04  0.19266548110E+04  0.50400001928E-02 0.  1.
       -1    1    3    3    0  502 -0.29914184706E+03  0.94221604798E+03  0.11254843814E+04  0.14979893252E+04  0.50400001928E-02 0. -1.
</event>
<event>
 5   0  0.1880301E-06  0.3426032E+04  0.7818609E-02  0.8131547E-01
       -2   -1    0    0    0  501  0.00000000000E+00  0.00000000000E+00  0.13488378945E+04  0.13488378945E+04  0.25500000920E-02 0.  1.
        2   -1    0    0  501    0  0.00000000000E+00  0.00000000000E+00 -0.21755200541E+04  0.21755200541E+04  0.25500000920E-02 0. -1.
    10030    2    1    2    0    0  0.00000000000E+00  0.00000000000E+00 -0.82668215957E+03  0.35243579487E+04  0.34260320427E+04 0.  0.
        4    1    3    3  502    0  0.57393972883E+03  0.26016366497E+03  0.12252745606E+04  0.13778212172E+04  0.12699999809E+01 0.  1.
       -4    1    3    3    0  502 -0.57393972883E+03 -0.26016366497E+03 -0.20519567202E+04  0.21465367314E+04  0.12699999809E+01 0. -1.
</event>
<event>
 5   0  0.6134625E-07  0.3311338E+04  0.7818609E-02  0.8160017E-01
        1   -1    0    0  501    0  0.00000000000E+00  0.00000000000E+00  0.15532221697E+04  0.15532221697E+04  0.50400001928E-02 0. -1.
       -1   -1    0    0    0  501  0.00000000000E+00  0.00000000000E+00 -0.17648725236E+04  0.17648725236E+04  0.50400001928E-02 0.  1.
    10030    2    1    2    0    0  0.00000000000E+00  0.00000000000E+00 -0.21165035391E+03  0.33180946933E+04  0.33113375729E+04 0.  0.
        3    1    3    3  502    0 -0.13652957411E+04  0.87965757151E+03  0.21640405954E+03  0.16384934028E+04  0.10100000352E+00 0.  1.
       -3    1    3    3    0  502  0.13652957411E+04 -0.87965757151E+03 -0.42805441345E+03  0.16796012905E+04  0.10100000352E+00 0. -1.
</event>
<event>
 5   0  0.6146388E-07  0.3376744E+04  0.7818609E-02  0.8143638E-01
       -1   -1    0    0    0  501  0.00000000000E+00  0.00000000000E+00  0.16056224515E+04  0.16056224515E+04  0.50400001928E-02 0. -1.
        1   -1    0    0  501    0  0.00000000000E+00  0.00000000000E+00 -0.17753865358E+04  0.17753865358E+04  0.50400001928E-02 0.  1.
    10030    2    1    2    0    0  0.00000000000E+00  0.00000000000E+00 -0.16976408426E+03  0.33810089873E+04  0.33767442793E+04 0.  0.
        4    1    3    3  502    0  0.85942722041E+03  0.56821916316E+03 -0.14241477830E+04  0.17577504616E+04  0.12699999809E+01 0.  1.
       -4    1    3    3    0  502 -0.85942722041E+03 -0.56821916316E+03  0.12543836987E+04  0.16232585257E+04  0.12699999809E+01 0. -1.
</event>
<event>
 5   0  0.1948507E-06  0.3333917E+04  0.7818609E-02  0.8154318E-01
       -2   -1    0    0    0  501  0.00000000000E+00  0.00000000000E+00  0.10236843496E+04  0.10236843496E+04  0.25500000920E-02 0. -1.
        2   -1    0    0  501    0  0.00000000000E+00  0.00000000000E+00 -0.27144610321E+04  0.27144610321E+04  0.25500000920E-02 0.  1.
    10030    2    1    2    0    0  0.00000000000E+00  0.00000000000E+00 -0.16907766825E+04  0.37381453817E+04  0.33339173812E+04 0.  0.
        1    1    3    3  502    0 -0.15456443070E+04  0.16239878561E+03 -0.15212703112E+04  0.21747765515E+04  0.50400001928E-02 0.  1.
       -1    1    3    3    0  502  0.15456443070E+04 -0.16239878561E+03 -0.16950637138E+03  0.15633688302E+04  0.50400001928E-02 0. -1.
</event>
<event>
 5   0  0.6146388E-07  0.2956129E+04  0.7818609E-02  0.8256371E-01
        1   -1    0    0  501    0  0.00000000000E+00  0.00000000000E+00  0.22684522817E+04  0.22684522817E+04  0.50400001928E-02 0. -1.
       -1   -1    0    0    0  501  0.00000000000E+00  0.00000000000E+00 -0.96306813882E+03  0.96306813884E+03  0.50400001928E-02 0.  1.
    10030    2    1    2    0    0  0.00000000000E+00  0.00000000000E+00  0.13053841429E+04  0.32315204206E+04  0.29561286285E+04 0.  0.
        4    1    3    3  502    0 -0.53332071653E+02 -0.72091133279E+03  0.20620266821E+04  0.21850659282E+04  0.12699999809E+01 0. -1.
       -4    1    3    3    0  502  0.53332071653E+02  0.72091133279E+03 -0.75664253924E+03  0.10464544924E+04  0.12699999809E+01 0.  1.
</event>
<event>
 5   0  0.1880301E-06  0.3422557E+04  0.7818609E-02  0.8132392E-01
        2   -1    0    0  501    0  0.00000000000E+00  0.00000000000E+00  0.23574336640E+04  0.23574336640E+04  0.25500000920E-02 0.  1.
       -2   -1    0    0    0  501  0.00000000000E+00  0.00000000000E+00 -0.12422296908E+04  0.12422296908E+04  0.25500000920E-02 0. -1.
    10030    2    1    2    0    0  0.00000000000E+00  0.00000000000E+00  0.11152039732E+04  0.35996633549E+04  0.34225569924E+04 0.  0.
        4    1    3    3  502    0 -0.14045010452E+04  0.78284209280E+03  0.11735769186E+04  0.19906655482E+04  0.12699999809E+01 0.  1.
       -4    1    3    3    0  502  0.14045010452E+04 -0.78284209280E+03 -0.58372945343E+02  0.16089978066E+04  0.12699999809E+01 0. -1.
</event>
<event>
 5   0  0.1339844E-06  0.2481260E+04  0.7818609E-02  0.8409692E-01
       -2   -1    0    0    0  501  0.00000000000E+00  0.00000000000E+00  0.17454164886E+04  0.17454164886E+04  0.25500000920E-02 0.  1.
        2   -1    0    0  501    0  0.00000000000E+00  0.00000000000E+00 -0.88183114298E+03  0.88183114298E+03  0.25500000920E-02 0. -1.
    10030    2    1    2    0    0  0.00000000000E+00  0.00000000000E+00  0.86358534567E+03  0.26272476316E+04  0.24812598551E+04 0.  0.
        3    1    3    3  502    0  0.69796994370E+02 -0.99547989370E+03  0.12122567463E+04  0.15701650450E+04  0.10100000352E+00 0.  1.
       -3    1    3    3    0  502 -0.69796994370E+02  0.99547989370E+03 -0.34867140067E+03  0.10570825867E+04  0.10100000352E+00 0. -1.
</event>
<event>
 5   0  0.1911477E-06  0.3287015E+04  0.7818609E-02  0.8166207E-01
       -2   -1    0    0    0  501  0.00000000000E+00  0.00000000000E+00  0.34302557557E+04  0.34302557557E+04  0.25500000920E-02 0. -1.
        2   -1    0    0  501    0  0.00000000000E+00  0.00000000000E+00 -0.78743907855E+03  0.78743907855E+03  0.25500000920E-02 0.  1.
    10030    2    1    2    0    0  0.00000000000E+00  0.00000000000E+00  0.26428166771E+04  0.42176948342E+04  0.32870153218E+04 0.  0.
        5    1    3    3  502    0 -0.15114238932E+04 -0.64356441517E+03  0.12570208781E+04  0.20685020956E+04  0.46999998093E+01 0.  1.
       -5    1    3    3    0  502  0.15114238932E+04  0.64356441517E+03  0.13857957990E+04  0.21491927386E+04  0.46999998093E+01 0. -1.
</event>
<event>
 5   0  0.6218695E-07  0.3362161E+04  0.7818609E-02  0.8147256E-01
        1   -1    0    0  501    0  0.00000000000E+00  0.00000000000E+00  0.17682521865E+04  0.17682521865E+04  0.50400001928E-02 0. -1.
       -1   -1    0    0    0  501  0.00000000000E+00  0.00000000000E+00 -0.15982064359E+04  0.15982064359E+04  0.50400001928E-02 0.  1.
    10030    2    1    2    0    0  0.00000000000E+00  0.00000000000E+00  0.17004575057E+03  0.33664586225E+04  0.33621612245E+04 0.  0.
        2    1    3    3  502    0  0.92432096984E+03 -0.12832595304E+04  0.65575823397E+03  0.17120581588E+04  0.25500000920E-02 0.  1.
       -2    1    3    3    0  502 -0.92432096984E+03  0.12832595304E+04 -0.48571248340E+03  0.16544004637E+04  0.25500000920E-02 0. -1.
</event>
<event>
 5   0  0.6218695E-07  0.3242712E+04  0.7818609E-02  0.8177627E-01
        1   -1    0    0  501    0  0.00000000000E+00  0.00000000000E+00  0.19551659527E+04  0.19551659527E+04  0.50400001928E-02 0.  1.
       -1   -1    0    0    0  501  0.00000000000E+00  0.00000000000E+00 -0.13445383653E+04  0.13445383653E+04  0.50400001928E-02 0. -1.
    10030    2    1    2    0    0  0.00000000000E+00  0.00000000000E+00  0.61062758735E+03  0.32997043180E+04  0.32427122191E+04 0.  0.
        2    1    3    3  502    0 -0.67935597514E+02  0.15188778706E+04  0.87840881573E+03  0.17559063981E+04  0.25500000920E-02 0.  1.
       -2    1    3    3    0  502  0.67935597514E+02 -0.15188778706E+04 -0.26778122839E+03  0.15437979199E+04  0.25500000920E-02 0. -1.
</event>
<event>
 5   0  0.6134625E-07  0.3361502E+04  0.7818609E-02  0.8147420E-01
       -1   -1    0    0    0  501  0.00000000000E+00  0.00000000000E+00  0.14521760280E+04  0.14521760280E+04  0.50400001928E-02 0. -1.
        1   -1    0    0  501    0  0.00000000000E+00  0.00000000000E+00 -0.19453041844E+04  0.19453041844E+04  0.50400001928E-02 0.  1.
    10030    2    1    2    0    0  0.00000000000E+00  0.00000000000E+00 -0.49312815636E+03  0.33974802124E+04  0.33615021070E+04 0.  0.
        5    1    3    3  502    0 -0.46992607008E+03 -0.10812901006E+04  0.96412277577E+03  0.15230146453E+04  0.46999998093E+01 0. -1.
       -5    1    3    3    0  502  0.46992607008E+03  0.10812901006E+04 -0.14572509321E+04  0.18744655671E+04  0.46999998093E+01 0.  1.
</event>
<event>
 5   0  0.6134625E-07  0.2834095E+04  0.7818609E-02  0.8292761E-01
        1   -1    0    0  501    0  0.00000000000E+00  0.00000000000E+00  0.97187413827E+03  0.97187413828E+03  0.50400001928E-02 0. -1.
       -1   -1    0    0    0  501  0.00000000000E+00  0.00000000000E+00 -0.20661352221E+04  0.20661352221E+04  0.50400001928E-02 0.  1.
    10030    2    1    2    0    0  0.00000000000E+00  0.00000000000E+00 -0.10942610838E+04  0.30380093603E+04  0.28340948386E+04 0.  0.
        1    1    3    3  502    0 -0.36470092508E+03  0.54884900463E+03 -0.18918971969E+04  0.20033763995E+04  0.50400001928E-02 0.  1.
       -1    1    3    3    0  502  0.36470092508E+03 -0.54884900463E+03  0.79763611310E+03  0.10346329608E+04  0.50400001928E-02 0. -1.
</event>
<event>
 5   0  0.1911477E-06  0.2468155E+04  0.7818609E-02  0.8414419E-01
       -2   -1    0    0    0  501  0.00000000000E+00  0.00000000000E+00  0.76062042478E+03  0.76062042478E+03  0.25500000920E-02 0. -1.
        2   -1    0    0  501    0  0.00000000000E+00  0.00000000000E+00 -0.20022441341E+04  0.20022441341E+04  0.25500000920E-02 0.  1.
    10030    2    1    2    0    0  0.00000000000E+00  0.00000000000E+00 -0.12416237093E+04  0.27628645589E+04  0.24681554115E+04 0.  0.
        5    1    3    3  502    0  0.93769857931E+03 -0.10629895734E+03 -0.15109656142E+04  0.17814649228E+04  0.46999998093E+01 0. -1.
       -5    1    3    3    0  502 -0.93769857931E+03  0.10629895734E+03  0.26934190485E+03  0.98139963607E+03  0.46999998093E+01 0.  1.
</event>
<event>
 5   0  0.1880301E-06  0.3349500E+04  0.7818609E-02  0.8150413E-01
       -2   -1    0    0    0  501  0.00000000000E+00  0.00000000000E+00  0.20390310226E+04  0.20390310226E+04  0.25500000920E-02 0. -1.
        2   -1    0    0  501    0  0.00000000000E+00  0.00000000000E+00 -0.13755489662E+04  0.13755489662E+04  0.25500000920E-02 0.  1.
    10030    2    1    2    0    0  0.00000000000E+00  0.00000000000E+00  0.66348205644E+03  0.34145799888E+04  0.33494996732E+04 0.  0.
        4    1    3    3  502    0  0.16252469184E+04 -0.63059549572E+02 -0.75241814848E+02  0.16282097519E+04  0.12699999809E+01 0.  1.
       -4    1    3    3    0  502 -0.16252469184E+04  0.63059549572E+02  0.73872387129E+03  0.17863702369E+04  0.12699999809E+01 0. -1.
</event>
<event>
 5   0  0.1948507E-06  0.3401413E+04  0.7818609E-02  0.8137560E-01
        2   -1    0    0  501    0  0.00000000000E+00  0.00000000000E+00  0.17584295725E+04  0.17584295725E+04  0.25500000920E-02 0. -1.
       -2   -1    0    0    0  501  0.00000000000E+00  0.00000000000E+00 -0.16448784963E+04  0.16448784963E+04  0.25500000920E-02 0.  1.
    10030    2    1    2    0    0  0.00000000000E+00  0.00000000000E+00  0.11355107615E+03  0.34033080688E+04  0.34014132304E+04 0.  0.
        1    1    3    3  502    0 -0.59492663843E+03  0.63165498679E+03  0.15202855726E+04  0.17504839187E+04  0.50400001928E-02 0. -1.
       -1    1    3    3    0  502  0.59492663843E+03 -0.63165498679E+03 -0.14067344965E+04  0.16528241501E+04  0.50400001928E-02 0.  1.
</event>
<event>
 5   0  0.1948507E-06  0.3452184E+04  0.7818609E-02  0.8125216E-01
        2   -1    0    0  501    0  0.00000000000E+00  0.00000000000E+00  0.23248456030E+04  0.23248456030E+04  0.25500000920E-02 0. -1.
       -2   -1    0    0    0  501  0.00000000000E+00  0.00000000000E+00 -0.12815450516E+04  0.12815450516E+04  0.25500000920E-02 0.  1.
    10030    2    1    2    0    0  0.00000000000E+00  0.00000000000E+00  0.10433005513E+04  0.36063906546E+04  0.34521844553E+04 0.  0.
        1    1    3    3  502    0 -0.65666393517E+03 -0.15934017210E+04  0.62216574588E+03  0.18322736651E+04  0.50400001928E-02 0. -1.
       -1    1    3    3    0  502  0.65666393517E+03  0.15934017210E+04  0.42113480546E+03  0.17741169896E+04  0.50400001928E-02 0.  1.
</event>
<event>
 5   0  0.6218695E-07  0.3426732E+04  0.7818609E-02  0.8131377E-01
       -1   -1    0    0    0  501  0.00000000000E+00  0.00000000000E+00  0.15789364379E+04  0.15789364379E+04  0.50400001928E-02 0. -1.
        1   -1    0    0  501    0  0.00000000000E+00  0.00000000000E+00 -0.18592403347E+04  0.18592403347E+04  0.50400001928E-02 0.  1.
    10030    2    1    2    0    0  0.00000000000E+00  0.00000000000E+00 -0.28030389676E+03  0.34381767726E+04  0.34267315689E+04 0.  0.
        2    1    3    3  502    0 -0.14159688222E+04 -0.73029709636E+03  0.49228719766E+03  0.16675275828E+04  0.25500000920E-02 0. -1.
       -2    1    3    3    0  502  0.14159688222E+04  0.73029709636E+03 -0.77259109442E+03  0.17706491898E+04  0.25500000920E-02 0.  1.
</event>
<event>
 5   0  0.6134625E-07  0.3327430E+04  0.7818609E-02  0.8155951E-01
       -1   -1    0    0    0  501  0.00000000000E+00  0.00000000000E+00  0.23586989230E+04  0.23586989230E+04  0.50400001928E-02 0.  1.
        1   -1    0    0  501    0  0.00000000000E+00  0.00000000000E+00 -0.11735059621E+04  0.11735059621E+04  0.50400001928E-02 0. -1.
    10030    2    1    2    0    0  0.00000000000E+00  0.00000000000E+00  0.11851929609E+04  0.35322048851E+04  0.33274297882E+04 0.  0.
        5    1    3    3  502    0 -0.50783942383E+03 -0.14735597663E+04  0.12103424115E+04  0.19733803760E+04  0.46999998093E+01 0.  1.
       -5    1    3    3    0  502  0.50783942383E+03  0.14735597663E+04 -0.25149450665E+02  0.15588245091E+04  0.46999998093E+01 0. -1.
</event>
<event>
 5   0  0.1339844E-06  0.3320616E+04  0.7818609E-02  0.8157669E-01
       -2   -1    0    0    0  501  0.00000000000E+00  0.00000000000E+00  0.29954027902E+04  0.29954027902E+04  0.25500000920E-02 0.  1.
        2   -1    0    0  501    0  0.00000000000E+00  0.00000000000E+00 -0.92028468601E+03  0.92028468601E+03  0.25500000920E-02 0. -1.
    10030    2    1    2    0    0  0.00000000000E+00  0.00000000000E+00  0.20751181042E+04  0.39156874762E+04  0.33206163983E+04 0.  0.
        3    1    3    3  502    0 -0.41700336527E+03  0.82917618098E+03  0.26609258145E+04  0.28181467574E+04  0.10100000352E+00 0.  1.
       -3    1    3    3    0  502  0.41700336527E+03 -0.82917618098E+03 -0.58580771033E+03  0.10975407188E+04  0.10100000352E+00 0. -1.
</event>
<event>
 5   0  0.6218695E-07  0.3420668E+04  0.7818609E-02  0.8132852E-01
       -1   -1    0    0    0  501  0.00000000000E+00  0.00000000000E+00  0.10843880545E+04  0.10843880545E+04  0.50400001928E-02 0.  1.
        1   -1    0    0  501    0  0.00000000000E+00  0.00000000000E+00 -0.26975967322E+04  0.26975967322E+04  0.50400001928E-02 0. -1.
    10030    2    1    2    0    0  0.00000000000E+00  0.00000000000E+00 -0.16132086777E+04  0.37819847867E+04  0.34206675794E+04 0.  0.
        2    1    3    3  502    0  0.87190425306E+03 -0.90141617866E+03 -0.20924039534E+04  0.24394512616E+04  0.25500000920E-02 0. -1.
       -2    1    3    3    0  502 -0.87190425306E+03  0.90141617866E+03  0.47919527568E+03  0.13425335251E+04  0.25500000920E-02 0.  1.
</event>
<event>
 5   0  0.1797075E-06  0.2623058E+04  0.7818609E-02  0.8360411E-01
        2   -1    0    0  501    0  0.00000000000E+00  0.00000000000E+00  0.17121133320E+04  0.17121133320E+04  0.25500000920E-02 0. -1.
       -2   -1    0    0    0  501  0.00000000000E+00  0.00000000000E+00 -0.10046699595E+04  0.10046699595E+04  0.25500000920E-02 0.  1.
    10030    2    1    2    0    0  0.00000000000E+00  0.00000000000E+00  0.70744337252E+03  0.27167832916E+04  0.26230583920E+04 0.  0.
        2    1    3    3  502    0 -0.11104021751E+04 -0.49647480444E+03  0.86178831531E+03  0.14906908876E+04  0.25500000920E-02 0.  1.
       -2    1    3    3    0  502  0.11104021751E+04  0.49647480444E+03 -0.15434494279E+03  0.12260924040E+04  0.25500000920E-02 0. -1.
</event>
<event>
 5   0  0.6134625E-07  0.3415573E+04  0.7818609E-02  0.8134095E-01
       -1   -1    0    0    0  501  0.00000000000E+00  0.00000000000E+00  0.15046895293E+04  0.15046895293E+04  0.50400001928E-02 0. -1.
        1   -1    0    0  501    0  0.00000000000E+00  0.00000000000E+00 -0.19382967617E+04  0.19382967617E+04  0.50400001928E-02 0.  1.
    10030    2    1    2    0    0  0.00000000000E+00  0.00000000000E+00 -0.43360723241E+03  0.34429862910E+04  0.34155730659E+04 0.  0.
        1    1    3    3  502    0 -0.15257511520E+04 -0.14536211051E+03 -0.97616778519E+03  0.18171269262E+04  0.50400001928E-02 0.  1.
       -1    1    3    3    0  502  0.15257511520E+04  0.14536211051E+03  0.54256055278E+03  0.16258593649E+04  0.50400001928E-02 0. -1.
</event>
<event>
 5   0  0.1339844E-06  0.3495336E+04  0.7818609E-02  0.8114896E-01
        2   -1    0    0  501    0  0.00000000000E+00  0.00000000000E+00  0.11264818740E+04  0.11264818740E+04  0.25500000920E-02 0. -1.
       -2   -1    0    0    0  501  0.00000000000E+00  0.00000000000E+00 -0.27113999349E+04  0.27113999349E+04  0.25500000920E-02 0.  1.
    10030    2    1    2    0    0  0.00000000000E+00  0.00000000000E+00 -0.15849180609E+04  0.38378818089E+04  0.34953356805E+04 0.  0.
        3    1    3    3  502    0 -0.16815203626E+04 -0.46423639741E+03 -0.67565367763E+03  0.18707041628E+04  0.10100000352E+00 0.  1.
       -3    1    3    3    0  502  0.16815203626E+04  0.46423639741E+03 -0.90926438332E+03  0.19671776461E+04  0.10100000352E+00 0. -1.
</event>
<event>
 5   0  0.1911477E-06  0.3388364E+04  0.7818609E-02  0.8140768E-01
       -2   -1    0    0    0  501  0.00000000000E+00  0.00000000000E+00  0.11908353720E+04  0.11908353720E+04  0.25500000920E-02 0. -1.
        2   -1    0    0  501    0  0.00000000000E+00  0.00000000000E+00 -0.24102849151E+04  0.24102849151E+04  0.25500000920E-02 0.  1.
    10030    2    1    2    0    0  0.00000000000E+00  0.00000000000E+00 -0.12194495432E+04  0.36011202871E+04  0.33883639317E+04 0.  0.
        5    1    3    3  502    0  0.93307237319E+03  0.62754453842E+03 -0.19564919575E+04  0.22566167311E+04  0.46999998093E+01 0.  1.
       -5    1    3    3    0  502 -0.93307237319E+03 -0.62754453842E+03  0.73704241438E+03  0.13445035559E+04  0.46999998093E+01 0. -1.
</event>
<event>
 5   0  0.6134625E-07  0.3286915E+04  0.7818609E-02  0.8166233E-01
       -1   -1    0    0    0  501  0.00000000000E+00  0.00000000000E+00  0.18007910985E+04  0.18007910985E+04  0.50400001928E-02 0. -1.
        1   -1    0    0  501    0  0.00000000000E+00  0.00000000000E+00 -0.14998698004E+04  0.14998698004E+04  0.50400001928E-02 0.  1.
    10030    2    1    2    0    0  0.00000000000E+00  0.00000000000E+00  0.30092129814E+03  0.33006608989E+04  0.32869147756E+04 0.  0.
        1    1    3    3  502    0 -0.91005468225E+03 -0.80764356305E+03 -0.95890585002E+03  0.15491894909E+04  0.50400001928E-02 0.  1.
       -1    1    3    3    0  502  0.91005468225E+03  0.80764356305E+03  0.12598271482E+04  0.17514714080E+04  0.50400001928E-02 0. -1.
</event>
<event>
 5   0  0.6146388E-07  0.3230970E+04  0.7818609E-02  0.8180686E-01
       -1   -1    0    0    0  501  0.00000000000E+00  0.00000000000E+00  0.11985990767E+04  0.11985990767E+04  0.50400001928E-02 0. -1.
        1   -1    0    0  501    0  0.00000000000E+00  0.00000000000E+00 -0.21773682290E+04  0.21773682290E+04  0.50400001928E-02 0.  1.
    10030    2    1    2    0    0  0.00000000000E+00  0.00000000000E+00 -0.97876915227E+03  0.33759673057E+04  0.32309698538E+04 0.  0.
        4    1    3    3  502    0  0.14320276531E+03  0.62093108655E+01 -0.21707102499E+04  0.21754379305E+04  0.12699999809E+01 0.  1.
       -4    1    3    3    0  502 -0.14320276531E+03 -0.62093108655E+01  0.11919410977E+04  0.12005293752E+04  0.12699999809E+01 0. -1.
</event>
<event>
 5   0  0.6134625E-07  0.2540658E+04  0.7818609E-02  0.8388642E-01
       -1   -1    0    0    0  501  0.00000000000E+00  0.00000000000E+00  0.76545538892E+03  0.76545538894E+03  0.50400001928E-02 0. -1.
        1   -1    0    0  501    0  0.00000000000E+00  0.00000000000E+00 -0.21082032571E+04  0.21082032571E+04  0.50400001928E-02 0.  1.
    10030    2    1    2    0    0  0.00000000000E+00  0.00000000000E+00 -0.13427478681E+04  0.28736586460E+04  0.25406578236E+04 0.  0.
        5    1    3    3  502    0 -0.45617887973E+03 -0.11806731407E+04 -0.79332611258E+03  0.14938127883E+04  0.46999998093E+01 0. -1.
       -5    1    3    3    0  502  0.45617887973E+03  0.11806731407E+04 -0.54942175556E+03  0.13798458577E+04  0.46999998093E+01 0.  1.
</event>
<event>
 5   0  0.6134625E-07  0.3358866E+04  0.7818609E-02  0.8148076E-01
        1   -1    0    0  501    0  0.00000000000E+00  0.00000000000E+00  0.18813278845E+04  0.18813278845E+04  0.50400001928E-02 0.  1.
       -1   -1    0    0    0  501  0.00000000000E+00  0.00000000000E+00 -0.14992040547E+04  0.14992040547E+04  0.50400001928E-02 0. -1.
    10030    2    1    2    0    0  0.00000000000E+00  0.00000000000E+00  0.38212382974E+03  0.33805319392E+04  0.33588655184E+04 0.  0.
        5    1    3    3  502    0 -0.23966578927E+03  0.74053975850E+03 -0.13067019822E+04  0.15209638341E+04  0.46999998093E+01 0. -1.
       -5    1    3    3    0  502  0.23966578927E+03 -0.74053975850E+03  0.16888258119E+04  0.18595681051E+04  0.46999998093E+01 0.  1.
</event>
<event>
 5   0  0.1911477E-06  0.3519173E+04  0.7818609E-02  0.8109261E-01
        2   -1    0    0  501    0  0.00000000000E+00  0.00000000000E+00  0.12727446055E+04  0.12727446055E+04  0.25500000920E-02 0.  1.
       -2   -1    0    0    0  501  0.00000000000E+00  0.00000000000E+00 -0.24326523704E+04  0.24326523704E+04  0.25500000920E-02 0. -1.
    10030    2    1    2    0    0  0.00000000000E+00  0.00000000000E+00 -0.11599077649E+04  0.37053969759E+04  0.35191733015E+04 0.  0.
        5    1    3    3  502    0  0.72423053664E+03  0.15467825716E+04 -0.10255217557E+04  0.19921754831E+04  0.46999998093E+01 0. -1.
       -5    1    3    3    0  502 -0.72423053664E+03 -0.15467825716E+04 -0.13438600922E+03  0.17132214928E+04  0.46999998093E+01 0.  1.
</event>
<event>
 5   0  0.1339844E-06  0.3408692E+04  0.7818609E-02  0.8135776E-01
        2   -1    0    0  501    0  0.00000000000E+00  0.00000000000E+00  0.23831352506E+04  0.23831352506E+04  0.25500000920E-02 0.  1.
       -2   -1    0    0    0  501  0.00000000000E+00  0.00000000000E+00 -0.12188965498E+04  0.12188965498E+04  0.25500000920E-02 0. -1.
    10030    2    1    2    0    0  0.00000000000E+00  0.00000000000E+00  0.11642387008E+04  0.36020318005E+04  0.34086920276E+04 0.  0.
        3    1    3    3  502    0 -0.14274992408E+04 -0.28568531795E+03  0.15186288287E+04  0.21037118892E+04  0.10100000352E+00 0.  1.
       -3    1    3    3    0  502  0.14274992408E+04  0.28568531795E+03 -0.35439012781E+03  0.14983199112E+04  0.10100000352E+00 0. -1.
</event>
<event>
 5   0  0.1339844E-06  0.3423063E+04  0.7818609E-02  0.8132269E-01
       -2   -1    0    0    0  501  0.00000000000E+00  0.00000000000E+00  0.15388392306E+04  0.15388392306E+04  0.25500000920E-02 0. -1.
        2   -1    0    0  501    0  0.00000000000E+00  0.00000000000E+00 -0.19036035408E+04  0.19036035408E+04  0.25500000920E-02 0.  1.
    10030    2    1    2    0    0  0.00000000000E+00  0.00000000000E+00 -0.36476431025E+03  0.34424427714E+04  0.34230628437E+04 0.  0.
        3    1    3    3  502    0 -0.46262013861E+03  0.19117800031E+03  0.14635799936E+04  0.15468137665E+04  0.10100000352E+00 0. -1.
       -3    1    3    3    0  502  0.46262013861E+03 -0.19117800031E+03 -0.18283443038E+04  0.18956290049E+04  0.10100000352E+00 0.  1.
</event>
<event>
 5   0  0.1339844E-06  0.3392974E+04  0.7818609E-02  0.8139633E-01
       -2   -1    0    0    0  501  0.00000000000E+00  0.00000000000E+00  0.14390377156E+04  0.14390377156E+04  0.25500000920E-02 0.  1.
        2   -1    0    0  501    0  0.00000000000E+00  0.00000000000E+00 -0.19999946665E+04  0.19999946665E+04  0.25500000920E-02 0. -1.
    10030    2    1    2    0    0  0.00000000000E+00  0.00000000000E+00 -0.56095695091E+03  0.34390323820E+04  0.33929737729E+04 0.  0.
        3    1    3    3  502    0  0.46949997947E+03  0.17585087970E+03 -0.19231932211E+04  0.19874672169E+04  0.10100000352E+00 0. -1.
       -3    1    3    3    0  502 -0.46949997947E+03 -0.17585087970E+03  0.13622362702E+04  0.14515651651E+04  0.10100000352E+00 0.  1.
</event>
<event>
 5   0  0.6218695E-07  0.3415590E+04  0.7818609E-02  0.8134091E-01
       -1   -1    0    0    0  501  0.00000000000E+00  0.00000000000E+00  0.83658791555E+03  0.83658791557E+03  0.50400001928E-02 0.  1.
        1   -1    0    0  501    0  0.00000000000E+00  0.00000000000E+00 -0.34862611858E+04  0.34862611858E+04  0.50400001928E-02 0. -1.
    10030    2    1    2    0    0  0.00000000000E+00  0.00000000000E+00 -0.26496732702E+04  0.43228491013E+04  0.34155901268E+04 0.  0.
        2    1    3    3  502    0 -0.90842195273E+03 -0.16441446018E+03 -0.31432427447E+04  0.32760093881E+04  0.25500000920E-02 0. -1.
       -2    1    3    3    0  502  0.90842195273E+03  0.16441446018E+03  0.49356947452E+03  0.10468397132E+04  0.25500000920E-02 0.  1.
</event>
<event>
 5   0  0.1339844E-06  0.3332204E+04  0.7818609E-02  0.8154749E-01
        2   -1    0    0  501    0  0.00000000000E+00  0.00000000000E+00  0.22192719760E+04  0.22192719760E+04  0.25500000920E-02 0. -1.
       -2   -1    0    0    0  501  0.00000000000E+00  0.00000000000E+00 -0.12508137022E+04  0.12508137022E+04  0.25500000920E-02 0.  1.
    10030    2    1    2    0    0  0.00000000000E+00  0.00000000000E+00  0.96845827379E+03  0.34700856783E+04  0.33322039533E+04 0.  0.
        3    1    3    3  502    0 -0.11192408926E+04  0.52442323359E+03  0.16476759010E+04  0.20597465350E+04  0.10100000352E+00 0. -1.
       -3    1    3    3    0  502  0.11192408926E+04 -0.52442323359E+03 -0.67921762720E+03  0.14103391432E+04  0.10100000352E+00 0.  1.
</event>
<event>
 5   0  0.1797075E-06  0.3040938E+04  0.7818609E-02  0.8232137E-01
       -2   -1    0    0    0  501  0.00000000000E+00  0.00000000000E+00  0.11404684355E+04  0.11404684355E+04  0.25500000920E-02 0.  1.
        2   -1    0    0  501    0  0.00000000000E+00  0.00000000000E+00 -0.20270842824E+04  0.20270842824E+04  0.25500000920E-02 0. -1.
    10030    2    1    2    0    0  0.00000000000E+00  0.00000000000E+00 -0.88661584698E+03  0.31675527179E+04  0.30409377765E+04 0.  0.
        2    1    3    3  502    0 -0.83120124947E+03  0.12730671801E+04 -0.45910780679E+03  0.15881988353E+04  0.25500000920E-02 0.  1.
       -2    1    3    3    0  502  0.83120124947E+03 -0.12730671801E+04 -0.42750804020E+03  0.15793538826E+04  0.25500000920E-02 0. -1.
</event>
<event>
 5   0  0.1339844E-06  0.2501730E+04  0.7818609E-02  0.8402369E-01
       -2   -1    0    0    0  501  0.00000000000E+00  0.00000000000E+00  0.10906997595E+04  0.10906997595E+04  0.25500000920E-02 0.  1.
        2   -1    0    0  501    0  0.00000000000E+00  0.00000000000E+00 -0.14345503568E+04  0.14345503568E+04  0.25500000920E-02 0. -1.
    10030    2    1    2    0    0  0.00000000000E+00  0.00000000000E+00 -0.34385059724E+03  0.25252501163E+04  0.25017303845E+04 0.  0.
        3    1    3    3  502    0 -0.84686349002E+03 -0.71255007123E+03  0.41644259009E+03  0.11825099643E+04  0.10100000352E+00 0.  1.
       -3    1    3    3    0  502  0.84686349002E+03  0.71255007123E+03 -0.76029318733E+03  0.13427401519E+04  0.10100000352E+00 0. -1.
</event>
<event>
 5   0  0.1911477E-06  0.3316370E+04  0.7818609E-02  0.8158742E-01
       -2   -1    0    0    0  501  0.00000000000E+00  0.00000000000E+00  0.11965471408E+04  0.11965471408E+04  0.25500000920E-02 0. -1.
        2   -1    0    0  501    0  0.00000000000E+00  0.00000000000E+00 -0.22979269130E+04  0.22979269130E+04  0.25500000920E-02 0.  1.
    10030    2    1    2    0    0  0.00000000000E+00  0.00000000000E+00 -0.11013797722E+04  0.34944740539E+04  0.33163702312E+04 0.  0.
        5    1    3    3  502    0  0.70952342558E+03  0.40432850606E+03  0.96995230540E+03  0.12679647460E+04  0.46999998093E+01 0. -1.
       -5    1    3    3    0  502 -0.70952342558E+03 -0.40432850606E+03 -0.20713320776E+04  0.22265093079E+04  0.46999998093E+01 0.  1.
</event>
<event>
 5   0  0.1797075E-06  0.3309757E+04  0.7818609E-02  0.8160417E-01
       -2   -1    0    0    0  501  0.00000000000E+00  0.00000000000E+00  0.17141068442E+04  0.17141068442E+04  0.25500000920E-02 0.  1.
        2   -1    0    0  501    0  0.00000000000E+00  0.00000000000E+00 -0.15976966143E+04  0.15976966143E+04  0.25500000920E-02 0. -1.
    10030    2    1    2    0    0  0.00000000000E+00  0.00000000000E+00  0.11641022996E+03  0.33118034585E+04  0.33097569104E+04 0.  0.
        2    1    3    3  502    0  0.40319482803E+02  0.92346794671E+03 -0.13153067568E+04  0.16076226466E+04  0.25500000920E-02 0. -1.
       -2    1    3    3    0  502 -0.40319482803E+02 -0.92346794671E+03  0.14317169868E+04  0.17041808119E+04  0.25500000920E-02 0.  1.
</event>
<event>
 5   0  0.6218695E-07  0.3413730E+04  0.7818609E-02  0.8134545E-01
       -1   -1    0    0    0  501  0.00000000000E+00  0.00000000000E+00  0.18457956219E+04  0.18457956219E+04  0.50400001928E-02 0. -1.
        1   -1    0    0  501    0  0.00000000000E+00  0.00000000000E+00 -0.15783911224E+04  0.15783911224E+04  0.50400001928E-02 0.  1.
    10030    2    1    2    0    0  0.00000000000E+00  0.00000000000E+00  0.26740449952E+03  0.34241867443E+04  0.34137295871E+04 0.  0.
        2    1    3    3  502    0  0.43447807804E+03 -0.29874848376E+03 -0.14946515018E+04  0.15849305880E+04  0.25500000920E-02 0.  1.
       -2    1    3    3    0  502 -0.43447807804E+03  0.29874848376E+03  0.17620560013E+04  0.18392561564E+04  0.25500000920E-02 0. -1.
</event>
<event>
 5   0  0.6218695E-07  0.3521464E+04  0.7818609E-02  0.8108722E-01
        1   -1    0    0  501    0  0.00000000000E+00  0.00000000000E+00  0.19516472922E+04  0.19516472922E+04  0.50400001928E-02 0.  1.
       -1   -1    0    0    0  501  0.00000000000E+00  0.00000000000E+00 -0.15884928528E+04  0.15884928528E+04  0.50400001928E-02 0. -1.
    10030    2    1    2    0    0  0.00000000000E+00  0.00000000000E+00  0.36315443940E+03  0.35401401451E+04  0.35214643403E+04 0.  0.
        2    1    3    3  502    0 -0.69492197813E+03  0.10327743681E+03 -0.14414804012E+04  0.16035736751E+04  0.25500000920E-02 0. -1.
       -2    1    3    3    0  502  0.69492197813E+03 -0.10327743681E+03  0.18046348406E+04  0.19365664699E+04  0.25500000920E-02 0.  1.
</event>
<event>
 5   0  0.1880301E-06  0.3384444E+04  0.7818609E-02  0.8141735E-01
       -2   -1    0    0    0  501  0.00000000000E+00  0.00000000000E+00  0.16053314997E+04  0.16053314997E+04  0.25500000920E-02 0.  1.
        2   -1    0    0  501    0  0.00000000000E+00  0.00000000000E+00 -0.17838151448E+04  0.17838151448E+04  0.25500000920E-02 0. -1.
    10030    2    1    2    0    0  0.00000000000E+00  0.00000000000E+00 -0.17848364513E+03  0.33891466445E+04  0.33844436126E+04 0.  0.
        4    1    3    3  502    0  0.90429149739E+03 -0.89956425222E+03 -0.12028366215E+04  0.17532188988E+04  0.12699999809E+01 0. -1.
       -4    1    3    3    0  502 -0.90429149739E+03  0.89956425222E+03  0.10243529764E+04  0.16359277457E+04  0.12699999809E+01 0.  1.
</event>
<event>
 5   0  0.6134625E-07  0.3424605E+04  0.7818609E-02  0.8131894E-01
        3   -1    0    0  501    0  0.00000000000E+00  0.00000000000E+00  0.13610621197E+04  0.13610621235E+04  0.10100000352E+00 0. -1.
       -3   -1    0    0    0  501  0.00000000000E+00  0.00000000000E+00 -0.21541845791E+04  0.21541845815E+04  0.10100000352E+00 0.  1.
    10030    2    1    2    0    0  0.00000000000E+00  0.00000000000E+00 -0.79312245939E+03  0.35152467050E+04  0.34246045263E+04 0.  0.
        3    1    3    3  502    0 -0.88600356306E+03 -0.42985717891E+03  0.10412999757E+04  0.14332079953E+04  0.10100000352E+00 0. -1.
       -3    1    3    3    0  502  0.88600356306E+03  0.42985717891E+03 -0.18344224351E+04  0.20820387097E+04  0.10100000352E+00 0.  1.
</event>
<event>
 5   0  0.6134625E-07  0.3135492E+04  0.7818609E-02  0.8206065E-01
       -1   -1    0    0    0  501  0.00000000000E+00  0.00000000000E+00  0.13761027769E+04  0.13761027769E+04  0.50400001928E-02 0.  1.
        1   -1    0    0  501    0  0.00000000000E+00  0.00000000000E+00 -0.17860780528E+04  0.17860780528E+04  0.50400001928E-02 0. -1.
    10030    2    1    2    0    0  0.00000000000E+00  0.00000000000E+00 -0.40997527597E+03  0.31621808297E+04  0.31354916477E+04 0.  0.
        3    1    3    3  502    0 -0.13286006813E+04 -0.11138305501E+03 -0.10367752659E+04  0.16889312945E+04  0.10100000352E+00 0. -1.
       -3    1    3    3    0  502  0.13286006813E+04  0.11138305501E+03  0.62679998993E+03  0.14732495352E+04  0.10100000352E+00 0.  1.
</event>
<event>
 5   0  0.1911477E-06  0.3409933E+04  0.7818609E-02  0.8135473E-01
       -2   -1    0    0    0  501  0.00000000000E+00  0.00000000000E+00  0.17399768469E+04  0.17399768469E+04  0.25500000920E-02 0.  1.
        2   -1    0    0  501    0  0.00000000000E+00  0.00000000000E+00 -0.16706604721E+04  0.16706604721E+04  0.25500000920E-02 0. -1.
    10030    2    1    2    0    0  0.00000000000E+00  0.00000000000E+00  0.69316374767E+02  0.34106373190E+04  0.34099328677E+04 0.  0.
        5    1    3    3  502    0 -0.67676238603E+03 -0.15629347915E+04 -0.43562579071E+02  0.17037289332E+04  0.46999998093E+01 0.  1.
       -5    1    3    3    0  502  0.67676238603E+03  0.15629347915E+04  0.11287895384E+03  0.17069083859E+04  0.46999998093E+01 0. -1.
</event>
<event>
 5   0  0.1948507E-06  0.3343140E+04  0.7818609E-02  0.8152004E-01
        2   -1    0    0  501    0  0.00000000000E+00  0.00000000000E+00  0.20426822975E+04  0.20426822975E+04  0.25500000920E-02 0. -1.
       -2   -1    0    0    0  501  0.00000000000E+00  0.00000000000E+00 -0.13678807750E+04  0.13678807750E+04  0.25500000920E-02 0.  1.
    10030    2    1    2    0    0  0.00000000000E+00  0.00000000000E+00  0.67480152257E+03  0.34105630725E+04  0.33431397483E+04 0.  0.
        1    1    3    3  502    0 -0.13664467897E+04 -0.89477884410E+03 -0.25210850538E+02  0.16335365304E+04  0.50400001928E-02 0.  1.
       -1    1    3    3    0  502  0.13664467897E+04  0.89477884410E+03  0.70001237310E+03  0.17770265422E+04  0.50400001928E-02 0. -1.
</event>
<event>
 5   0  0.1339844E-06  0.3297671E+04  0.7818609E-02  0.8163488E-01
        2   -1    0    0  501    0  0.00000000000E+00  0.00000000000E+00  0.29424312516E+04  0.29424312516E+04  0.25500000920E-02 0. -1.
       -2   -1    0    0    0  501  0.00000000000E+00  0.00000000000E+00 -0.92394978068E+03  0.92394978068E+03  0.25500000920E-02 0.  1.
    10030    2    1    2    0    0  0.00000000000E+00  0.00000000000E+00  0.20184814710E+04  0.38663810323E+04  0.32976711235E+04 0.  0.
        3    1    3    3  502    0  0.10925332327E+04  0.10027175890E+04  0.18543766586E+04  0.23744018678E+04  0.10100000352E+00 0. -1.
       -3    1    3    3    0  502 -0.10925332327E+04 -0.10027175890E+04  0.16410481236E+03  0.14919791645E+04  0.10100000352E+00 0.  1.
</event>
<event>
 5   0  0.1797075E-06  0.3421605E+04  0.7818609E-02  0.8132624E-01
       -2   -1    0    0    0  501  0.00000000000E+00  0.00000000000E+00  0.15097055772E+04  0.15097055772E+04  0.25500000920E-02 0. -1.
        2   -1    0    0  501    0  0.00000000000E+00  0.00000000000E+00 -0.19386864643E+04  0.19386864643E+04  0.25500000920E-02 0.  1.
    10030    2    1    2    0    0  0.00000000000E+00  0.00000000000E+00 -0.42898088705E+03  0.34483920415E+04  0.34216053353E+04 0.  0.
        2    1    3    3  502    0  0.64093768598E+03  0.18685901002E+03  0.13730007917E+04  0.15267116889E+04  0.25500000920E-02 0. -1.
       -2    1    3    3    0  502 -0.64093768598E+03 -0.18685901002E+03 -0.18019816788E+04  0.19216803526E+04  0.25500000920E-02 0.  1.
</event>
<event>
 5   0  0.6134625E-07  0.3371561E+04  0.7818609E-02  0.8144922E-01
       -1   -1    0    0    0  501  0.00000000000E+00  0.00000000000E+00  0.11275522387E+04  0.11275522387E+04  0.50400001928E-02 0. -1.
        1   -1    0    0  501    0  0.00000000000E+00  0.00000000000E+00 -0.25203761831E+04  0.25203761831E+04  0.50400001928E-02 0.  1.
    10030    2    1    2    0    0  0.00000000000E+00  0.00000000000E+00 -0.13928239445E+04  0.36479284218E+04  0.33715609486E+04 0.  0.
        1    1    3    3  502    0 -0.30044912004E+03 -0.72518452207E+03  0.91775321323E+03  0.12076560873E+04  0.50400001928E-02 0. -1.
       -1    1    3    3    0  502  0.30044912004E+03  0.72518452207E+03 -0.23105771577E+04  0.24402723345E+04  0.50400001928E-02 0.  1.
</event>
<event>
 5   0  0.1880301E-06  0.3410826E+04  0.7818609E-02  0.8135254E-01
       -2   -1    0    0    0  501  0.00000000000E+00  0.00000000000E+00  0.12410856169E+04  0.12410856169E+04  0.25500000920E-02 0. -1.
        2   -1    0    0  501    0  0.00000000000E+00  0.00000000000E+00 -0.23434587349E+04  0.23434587349E+04  0.25500000920E-02 0.  1.
    10030    2    1    2    0    0  0.00000000000E+00  0.00000000000E+00 -0.11023731180E+04  0.35845443518E+04  0.34108256652E+04 0.  0.
        4    1    3    3  502    0  0.11863830153E+04  0.49126638698E+02 -0.18376715596E+04  0.21879114377E+04  0.12699999809E+01 0.  1.
       -4    1    3    3    0  502 -0.11863830153E+04 -0.49126638698E+02  0.73529844156E+03  0.13966329140E+04  0.12699999809E+01 0. -1.
</event>
<event>
 5   0  0.6134625E-07  0.3337136E+04  0.7818609E-02  0.8153510E-01
       -1   -1    0    0    0  501  0.00000000000E+00  0.00000000000E+00  0.15567489309E+04  0.15567489309E+04  0.50400001928E-02 0.  1.
        1   -1    0    0  501    0  0.00000000000E+00  0.00000000000E+00 -0.17884193102E+04  0.17884193102E+04  0.50400001928E-02 0. -1.
    10030    2    1    2    0    0  0.00000000000E+00  0.00000000000E+00 -0.23167037936E+03  0.33451682411E+04  0.33371364066E+04 0.  0.
        1    1    3    3  502    0 -0.59470976204E+03  0.10251902413E+04  0.10614808769E+04  0.15910488314E+04  0.50400001928E-02 0.  1.
       -1    1    3    3    0  502  0.59470976204E+03 -0.10251902413E+04 -0.12931512563E+04  0.17541194097E+04  0.50400001928E-02 0. -1.
</event>
<event>
 5   0  0.1339844E-06  0.3410178E+04  0.7818609E-02  0.8135413E-01
        2   -1    0    0  501    0  0.00000000000E+00  0.00000000000E+00  0.29906849120E+04  0.29906849120E+04  0.25500000920E-02 0. -1.
       -2   -1    0    0    0  501  0.00000000000E+00  0.00000000000E+00 -0.97212820236E+03  0.97212820237E+03  0.25500000920E-02 0.  1.
    10030    2    1    2    0    0  0.00000000000E+00  0.00000000000E+00  0.20185567096E+04  0.39628131143E+04  0.34101783809E+04 0.  0.
        3    1    3    3  502    0  0.15746619750E+04  0.10059470272E+03  0.25829124721E+03  0.15988727305E+04  0.10100000352E+00 0.  1.
       -3    1    3    3    0  502 -0.15746619750E+04 -0.10059470272E+03  0.17602654624E+04  0.23639403838E+04  0.10100000352E+00 0. -1.
</event>
<event>
 5   0  0.1339844E-06  0.3387761E+04  0.7818609E-02  0.8140917E-01
       -2   -1    0    0    0  501  0.00000000000E+00  0.00000000000E+00  0.10582153544E+04  0.10582153544E+04  0.25500000920E-02 0.  1.
        2   -1    0    0  501    0  0.00000000000E+00  0.00000000000E+00 -0.27113874204E+04  0.27113874204E+04  0.25500000920E-02 0. -1.
    10030    2    1    2    0    0  0.00000000000E+00  0.00000000000E+00 -0.16531720660E+04  0.37696027748E+04  0.33877613848E+04 0.  0.
        3    1    3    3  502    0  0.80431164623E+03 -0.14807050570E+04 -0.63441483852E+03  0.18005240591E+04  0.10100000352E+00 0. -1.
       -3    1    3    3    0  502 -0.80431164623E+03  0.14807050570E+04 -0.10187572275E+04  0.19690787157E+04  0.10100000352E+00 0.  1.
</event>
<event>
 5   0  0.6146388E-07  0.3474859E+04  0.7818609E-02  0.8119774E-01
        1   -1    0    0  501    0  0.00000000000E+00  0.00000000000E+00  0.20853554225E+04  0.20853554225E+04  0.50400001928E-02 0.  1.
       -1   -1    0    0    0  501  0.00000000000E+00  0.00000000000E+00 -0.14475521227E+04  0.14475521227E+04  0.50400001928E-02 0. -1.
    10030    2    1    2    0    0  0.00000000000E+00  0.00000000000E+00  0.63780329980E+03  0.35329075452E+04  0.34748586552E+04 0.  0.
        4    1    3    3  502    0 -0.15539972897E+04  0.14814109690E+03 -0.45660247537E+03  0.16264503664E+04  0.12699999809E+01 0.  1.
       -4    1    3    3    0  502  0.15539972897E+04 -0.14814109690E+03  0.10944057752E+04  0.19064571788E+04  0.12699999809E+01 0. -1.
</event>
<event>
 5   0  0.6134625E-07  0.3425427E+04  0.7818609E-02  0.8131694E-01
       -1   -1    0    0    0  501  0.00000000000E+00  0.00000000000E+00  0.19979289310E+04  0.19979289310E+04  0.50400001928E-02 0.  1.
        1   -1    0    0  501    0  0.00000000000E+00  0.00000000000E+00 -0.14682140651E+04  0.14682140652E+04  0.50400001928E-02 0. -1.
    10030    2    1    2    0    0  0.00000000000E+00  0.00000000000E+00  0.52971486590E+03  0.34661429962E+04  0.34254268976E+04 0.  0.
        1    1    3    3  502    0  0.95786713139E+03  0.14102547608E+04  0.98404649569E+02  0.17076332764E+04  0.50400001928E-02 0. -1.
       -1    1    3    3    0  502 -0.95786713139E+03 -0.14102547608E+04  0.43131021633E+03  0.17585097198E+04  0.50400001928E-02 0.  1.
</event>
<event>
 5   0  0.1948507E-06  0.3268380E+04  0.7818609E-02  0.8170988E-01
       -2   -1    0    0    0  501  0.00000000000E+00  0.00000000000E+00  0.16330286889E+04  0.16330286889E+04  0.25500000920E-02 0.  1.
        2   -1    0    0  501    0  0.00000000000E+00  0.00000000000E+00 -0.16353524656E+04  0.16353524656E+04  0.25500000920E-02 0. -1.
    10030    2    1    2    0    0  0.00000000000E+00  0.00000000000E+00 -0.23237766819E+01  0.32683811545E+04  0.32683803284E+04 0.  0.
        1    1    3    3  502    0  0.73101500918E+03 -0.11505676691E+04  0.90016435593E+03  0.16335497459E+04  0.50400001928E-02 0.  1.
       -1    1    3    3    0  502 -0.73101500918E+03  0.11505676691E+04 -0.90248813261E+03  0.16348314085E+04  0.50400001928E-02 0. -1.
</event>
<event>
 5   0  0.6218695E-07  0.2457278E+04  0.7818609E-02  0.8418365E-01
        1   -1    0    0  501    0  0.00000000000E+00  0.00000000000E+00  0.15259965594E+04  0.15259965594E+04  0.50400001928E-02 0. -1.
       -1   -1    0    0    0  501  0.00000000000E+00  0.00000000000E+00 -0.98922523440E+03  0.98922523442E+03  0.50400001928E-02 0.  1.
    10030    2    1    2    0    0  0.00000000000E+00  0.00000000000E+00  0.53677132499E+03  0.25152217938E+04  0.24572784166E+04 0.  0.
        2    1    3    3  502    0 -0.54011202556E+03  0.46904414307E+03  0.12908552398E+04  0.14758152521E+04  0.25500000920E-02 0. -1.
       -2    1    3    3    0  502  0.54011202556E+03 -0.46904414307E+03 -0.75408391481E+03  0.10394065417E+04  0.25500000920E-02 0.  1.
</event>
<event>
 5   0  0.1339844E-06  0.2708427E+04  0.7818609E-02  0.8332276E-01
       -2   -1    0    0    0  501  0.00000000000E+00  0.00000000000E+00  0.11181290272E+04  0.11181290272E+04  0.25500000920E-02 0.  1.
        2   -1    0    0  501    0  0.00000000000E+00  0.00000000000E+00 -0.16401451343E+04  0.16401451343E+04  0.25500000920E-02 0. -1.
    10030    2    1    2    0    0  0.00000000000E+00  0.00000000000E+00 -0.52201610705E+03  0.27582741615E+04  0.27084267636E+04 0.  0.
        3    1    3    3  502    0 -0.56104945572E+03 -0.10100347966E+04 -0.98037020145E+03  0.15152796852E+04  0.10100000352E+00 0. -1.
       -3    1    3    3    0  502  0.56104945572E+03  0.10100347966E+04  0.45835409440E+03  0.12429944763E+04  0.10100000352E+00 0.  1.
</event>
<event>
 5   0  0.6218695E-07  0.3388865E+04  0.7818609E-02  0.8140645E-01
       -1   -1    0    0    0  501  0.00000000000E+00  0.00000000000E+00  0.12995260296E+04  0.12995260296E+04  0.50400001928E-02 0. -1.
        1   -1    0    0  501    0  0.00000000000E+00  0.00000000000E+00 -0.22093447945E+04  0.22093447945E+04  0.50400001928E-02 0.  1.
    10030    2    1    2    0    0  0.00000000000E+00  0.00000000000E+00 -0.90981876493E+03  0.35088708241E+04  0.33888647473E+04 0.  0.
        2    1    3    3  502    0 -0.86987851990E+03  0.78110468558E+03  0.81501723287E+03  0.14251548193E+04  0.25500000920E-02 0. -1.
       -2    1    3    3    0  502  0.86987851990E+03 -0.78110468558E+03 -0.17248359978E+04  0.20837160048E+04  0.25500000920E-02 0.  1.
</event>
<event>
 5   0  0.6134625E-07  0.3375275E+04  0.7818609E-02  0.8144001E-01
        1   -1    0    0  501    0  0.00000000000E+00  0.00000000000E+00  0.23131273479E+04  0.23131273479E+04  0.50400001928E-02 0. -1.
       -1   -1    0    0    0  501  0.00000000000E+00  0.00000000000E+00 -0.12312857960E+04  0.12312857960E+04  0.50400001928E-02 0.  1.
    10030    2    1    2    0    0  0.00000000000E+00  0.00000000000E+00  0.10818415519E+04  0.35444131439E+04  0.33752753060E+04 0.  0.
        5    1    3    3  502    0 -0.14604843982E+04 -0.81224069685E+03  0.29386754407E+03  0.16967998852E+04  0.46999998093E+01 0.  1.
       -5    1    3    3    0  502  0.14604843982E+04  0.81224069685E+03  0.78797400783E+03  0.18476132587E+04  0.46999998093E+01 0. -1.
</event>
<event>
 5   0  0.6134625E-07  0.3384742E+04  0.7818609E-02  0.8141661E-01
       -1   -1    0    0    0  501  0.00000000000E+00  0.00000000000E+00  0.13810928942E+04  0.13810928942E+04  0.50400001928E-02 0.  1.
        1   -1    0    0  501    0  0.00000000000E+00  0.00000000000E+00 -0.20738061079E+04  0.20738061079E+04  0.50400001928E-02 0. -1.
    10030    2    1    2    0    0  0.00000000000E+00  0.00000000000E+00 -0.69271321373E+03  0.34548990021E+04  0.33847415733E+04 0.  0.
        1    1    3    3  502    0  0.15228902032E+04 -0.69828701459E+03 -0.10197909392E+03  0.16784513879E+04  0.50400001928E-02 0.  1.
       -1    1    3    3    0  502 -0.15228902032E+04  0.69828701459E+03 -0.59073411980E+03  0.17764476142E+04  0.50400001928E-02 0. -1.
</event>
<event>
 5   0  0.1911477E-06  0.3216961E+04  0.7818609E-02  0.8184352E-01
        2   -1    0    0  501    0  0.00000000000E+00  0.00000000000E+00  0.16463251148E+04  0.16463251148E+04  0.25500000920E-02 0.  1.
       -2   -1    0    0    0  501  0.00000000000E+00  0.00000000000E+00 -0.15715054191E+04  0.15715054191E+04  0.25500000920E-02 0. -1.
    10030    2    1    2    0    0  0.00000000000E+00  0.00000000000E+00  0.74819695758E+02  0.32178305339E+04  0.32169605777E+04 0.  0.
        5    1    3    3  502    0  0.70867396759E+03 -0.94507746650E+03 -0.10545797203E+04  0.15835247666E+04  0.46999998093E+01 0. -1.
       -5    1    3    3    0  502 -0.70867396759E+03  0.94507746650E+03  0.11293994161E+04  0.16343057673E+04  0.46999998093E+01 0.  1.
</event>
<event>
 5   0  0.6218695E-07  0.4097648E+04  0.7818609E-02  0.7985132E-01
       -1   -1    0    0    0  501  0.00000000000E+00  0.00000000000E+00  0.25379609807E+04  0.25379609808E+04  0.50400001928E-02 0. -1.
        1   -1    0    0  501    0  0.00000000000E+00  0.00000000000E+00 -0.16539576354E+04  0.16539576354E+04  0.50400001928E-02 0.  1.
    10030    2    1    2    0    0  0.00000000000E+00  0.00000000000E+00  0.88400334536E+03  0.41919186161E+04  0.40976480778E+04 0.  0.
        2    1    3    3  502    0 -0.28321576979E+02  0.80913451757E+02 -0.16521220787E+04  0.16543447226E+04  0.25500000920E-02 0.  1.
       -2    1    3    3    0  502  0.28321576979E+02 -0.80913451757E+02  0.25361254241E+04  0.25375738935E+04  0.25500000920E-02 0. -1.
</event>
<event>
 5   0  0.6134625E-07  0.3298353E+04  0.7818609E-02  0.8163315E-01
       -1   -1    0    0    0  501  0.00000000000E+00  0.00000000000E+00  0.18747998926E+04  0.18747998926E+04  0.50400001928E-02 0. -1.
        1   -1    0    0  501    0  0.00000000000E+00  0.00000000000E+00 -0.14507054066E+04  0.14507054066E+04  0.50400001928E-02 0.  1.
    10030    2    1    2    0    0  0.00000000000E+00  0.00000000000E+00  0.42409448600E+03  0.33255052992E+04  0.32983525224E+04 0.  0.
        1    1    3    3  502    0 -0.52236200745E+03 -0.17728287077E+03 -0.13549321701E+04  0.14629191600E+04  0.50400001928E-02 0.  1.
       -1    1    3    3    0  502  0.52236200745E+03  0.17728287077E+03  0.17790266561E+04  0.18625861393E+04  0.50400001928E-02 0. -1.
</event>
<event>
 5   0  0.1339844E-06  0.3388494E+04  0.7818609E-02  0.8140736E-01
        2   -1    0    0  501    0  0.00000000000E+00  0.00000000000E+00  0.22465387893E+04  0.22465387893E+04  0.25500000920E-02 0.  1.
       -2   -1    0    0    0  501  0.00000000000E+00  0.00000000000E+00 -0.12777313248E+04  0.12777313248E+04  0.25500000920E-02 0. -1.
    10030    2    1    2    0    0  0.00000000000E+00  0.00000000000E+00  0.96880746457E+03  0.35242701141E+04  0.33884940510E+04 0.  0.
        3    1    3    3  502    0  0.12669150027E+03 -0.88417364425E+03  0.19817643593E+04  0.21737533796E+04  0.10100000352E+00 0.  1.
       -3    1    3    3    0  502 -0.12669150027E+03  0.88417364425E+03 -0.10129568947E+04  0.13505167345E+04  0.10100000352E+00 0. -1.
</event>
<event>
 5   0  0.1911477E-06  0.3281991E+04  0.7818609E-02  0.8167493E-01
       -2   -1    0    0    0  501  0.00000000000E+00  0.00000000000E+00  0.15615013220E+04  0.15615013220E+04  0.25500000920E-02 0. -1.
        2   -1    0    0  501    0  0.00000000000E+00  0.00000000000E+00 -0.17245364207E+04  0.17245364207E+04  0.25500000920E-02 0.  1.
    10030    2    1    2    0    0  0.00000000000E+00  0.00000000000E+00 -0.16303509866E+03  0.32860377427E+04  0.32819907988E+04 0.  0.
        5    1    3    3  502    0  0.15613631930E+03  0.69853726573E+02 -0.17155795354E+04  0.17240920294E+04  0.46999998093E+01 0.  1.
       -5    1    3    3    0  502 -0.15613631930E+03 -0.69853726573E+02  0.15525444368E+04  0.15619457134E+04  0.46999998093E+01 0. -1.
</event>
<event>
 5   0  0.1948507E-06  0.3229138E+04  0.7818609E-02  0.8181164E-01
        2   -1    0    0  501    0  0.00000000000E+00  0.00000000000E+00  0.27932632097E+04  0.27932632097E+04  0.25500000920E-02 0. -1.
       -2   -1    0    0    0  501  0.00000000000E+00  0.00000000000E+00 -0.93325732718E+03  0.93325732718E+03  0.25500000920E-02 0.  1.
    10030    2    1    2    0    0  0.00000000000E+00  0.00000000000E+00  0.18600058825E+04  0.37265205369E+04  0.32291381867E+04 0.  0.
        1    1    3    3  502    0 -0.14455034979E+03  0.15714666673E+04  0.53622505149E+03  0.16667152114E+04  0.50400001928E-02 0.  1.
       -1    1    3    3    0  502  0.14455034979E+03 -0.15714666673E+04  0.13237808310E+04  0.20598053254E+04  0.50400001928E-02 0. -1.
</event>
<event>
 5   0  0.6218695E-07  0.2896991E+04  0.7818609E-02  0.8273773E-01
       -1   -1    0    0    0  501  0.00000000000E+00  0.00000000000E+00  0.12827228566E+04  0.12827228566E+04  0.50400001928E-02 0.  1.
        1   -1    0    0  501    0  0.00000000000E+00  0.00000000000E+00 -0.16356915260E+04  0.16356915260E+04  0.50400001928E-02 0. -1.
    10030    2    1    2    0    0  0.00000000000E+00  0.00000000000E+00 -0.35296866934E+03  0.29184143826E+04  0.28969907882E+04 0.  0.
        2    1    3    3  502    0  0.73328794987E+03 -0.12017153380E+04 -0.52004585569E+03  0.15007593621E+04  0.25500000920E-02 0. -1.
       -2    1    3    3    0  502 -0.73328794987E+03  0.12017153380E+04  0.16707718635E+03  0.14176550205E+04  0.25500000920E-02 0.  1.
</event>
<event>
 5   0  0.6134625E-07  0.3420009E+04  0.7818609E-02  0.8133013E-01
        1   -1    0    0  501    0  0.00000000000E+00  0.00000000000E+00  0.24416854498E+04  0.24416854498E+04  0.50400001928E-02 0. -1.
       -1   -1    0    0    0  501  0.00000000000E+00  0.00000000000E+00 -0.11975804173E+04  0.11975804173E+04  0.50400001928E-02 0.  1.
    10030    2    1    2    0    0  0.00000000000E+00  0.00000000000E+00  0.12441050325E+04  0.36392658671E+04  0.34200085847E+04 0.  0.
        3    1    3    3  502    0  0.56323514354E+03  0.14397192833E+04  0.13997192069E+04  0.20854829920E+04  0.10100000352E+00 0. -1.
       -3    1    3    3    0  502 -0.56323514354E+03 -0.14397192833E+04 -0.15561417439E+03  0.15537828751E+04  0.10100000352E+00 0.  1.
</event>
<event>
 5   0  0.6134625E-07  0.3255014E+04  0.7818609E-02  0.8174437E-01
       -1   -1    0    0    0  501  0.00000000000E+00  0.00000000000E+00  0.11790221981E+04  0.11790221981E+04  0.50400001928E-02 0. -1.
        1   -1    0    0  501    0  0.00000000000E+00  0.00000000000E+00 -0.22465899884E+04  0.22465899884E+04  0.50400001928E-02 0.  1.
    10030    2    1    2    0    0  0.00000000000E+00  0.00000000000E+00 -0.10675677903E+04  0.34256121866E+04  0.32550142651E+04 0.  0.
        1    1    3    3  502    0  0.39344524532E+03  0.13462067133E+04 -0.14027131662E+04  0.19836017500E+04  0.50400001928E-02 0.  1.
       -1    1    3    3    0  502 -0.39344524532E+03 -0.13462067133E+04  0.33514537590E+03  0.14420104365E+04  0.50400001928E-02 0. -1.
</event>
<event>
 5   0  0.1797075E-06  0.3329494E+04  0.7818609E-02  0.8155431E-01
       -2   -1    0    0    0  501  0.00000000000E+00  0.00000000000E+00  0.16956352028E+04  0.16956352028E+04  0.25500000920E-02 0.  1.
        2   -1    0    0  501    0  0.00000000000E+00  0.00000000000E+00 -0.16344210674E+04  0.16344210674E+04  0.25500000920E-02 0. -1.
    10030    2    1    2    0    0  0.00000000000E+00  0.00000000000E+00  0.61214135427E+02  0.33300562702E+04  0.33294935940E+04 0.  0.
        2    1    3    3  502    0 -0.12308307815E+02 -0.64148861191E+03  0.15670055858E+04  0.16932706930E+04  0.25500000920E-02 0.  1.
       -2    1    3    3    0  502  0.12308307815E+02  0.64148861191E+03 -0.15057914504E+04  0.16367855772E+04  0.25500000920E-02 0. -1.
</event>
<event>
 5   0  0.6134625E-07  0.3365931E+04  0.7818609E-02  0.8146319E-01
       -1   -1    0    0    0  501  0.00000000000E+00  0.00000000000E+00  0.20650260029E+04  0.20650260029E+04  0.50400001928E-02 0.  1.
        1   -1    0    0  501    0  0.00000000000E+00  0.00000000000E+00 -0.13715915319E+04  0.13715915319E+04  0.50400001928E-02 0. -1.
    10030    2    1    2    0    0  0.00000000000E+00  0.00000000000E+00  0.69343447102E+03  0.34366175348E+04  0.33659305867E+04 0.  0.
        1    1    3    3  502    0  0.12587467163E+04  0.69289612900E+03  0.12413748065E+04  0.18988311541E+04  0.50400001928E-02 0.  1.
       -1    1    3    3    0  502 -0.12587467163E+04 -0.69289612900E+03 -0.54794033544E+03  0.15377863807E+04  0.50400001928E-02 0. -1.
</event>
<event>
 5   0  0.1911477E-06  0.3381545E+04  0.7818609E-02  0.8142451E-01
        2   -1    0    0  501    0  0.00000000000E+00  0.00000000000E+00  0.17959349370E+04  0.17959349371E+04  0.25500000920E-02 0.  1.
       -2   -1    0    0    0  501  0.00000000000E+00  0.00000000000E+00 -0.15917682799E+04  0.15917682799E+04  0.25500000920E-02 0. -1.
    10030    2    1    2    0    0  0.00000000000E+00  0.00000000000E+00  0.20416665718E+03  0.33877032169E+04  0.33815453660E+04 0.  0.
        5    1    3    3  502    0  0.19747652158E+03  0.81422286894E+03 -0.13691734027E+04  0.16051834019E+04  0.46999998093E+01 0. -1.
       -5    1    3    3    0  502 -0.19747652158E+03 -0.81422286894E+03  0.15733400599E+04  0.17825198150E+04  0.46999998093E+01 0.  1.
</event>
<event>
 5   0  0.6146388E-07  0.3333497E+04  0.7818609E-02  0.8154424E-01
       -1   -1    0    0    0  501  0.00000000000E+00  0.00000000000E+00  0.16448503037E+04  0.16448503037E+04  0.50400001928E-02 0.  1.
        1   -1    0    0  501    0  0.00000000000E+00  0.00000000000E+00 -0.16889383890E+04  0.16889383890E+04  0.50400001928E-02 0. -1.
    10030    2    1    2    0    0  0.00000000000E+00  0.00000000000E+00 -0.44088085227E+02  0.33337886927E+04  0.33334971559E+04 0.  0.
        4    1    3    3  502    0  0.44782511913E+03  0.36862866302E+03  0.15406593428E+04  0.16462281895E+04  0.12699999809E+01 0.  1.
       -4    1    3    3    0  502 -0.44782511913E+03 -0.36862866302E+03 -0.15847474280E+04  0.16875605032E+04  0.12699999809E+01 0. -1.
</event>
<event>
 5   0  0.1948507E-06  0.3193342E+04  0.7818609E-02  0.8190578E-01
        2   -1    0    0  501    0  0.00000000000E+00  0.00000000000E+00  0.15084224944E+04  0.15084224944E+04  0.25500000920E-02 0. -1.
       -2   -1    0    0    0  501  0.00000000000E+00  0.00000000000E+00 -0.16900828320E+04  0.16900828320E+04  0.25500000920E-02 0.  1.
    10030    2    1    2    0    0  0.00000000000E+00  0.00000000000E+00 -0.18166033765E+03  0.31985053264E+04  0.31933424253E+04 0.  0.
        1    1    3    3  502    0  0.20789187425E+03 -0.14898029061E+04 -0.62707153320E+03  0.16297086973E+04  0.50400001928E-02 0.  1.
       -1    1    3    3    0  502 -0.20789187425E+03  0.14898029061E+04  0.44541119554E+03  0.15687966291E+04  0.50400001928E-02 0. -1.
</event>
<event>
 5   0  0.1339844E-06  0.3373417E+04  0.7818609E-02  0.8144462E-01
        2   -1    0    0  501    0  0.00000000000E+00  0.00000000000E+00  0.17495522848E+04  0.17495522848E+04  0.25500000920E-02 0. -1.
       -2   -1    0    0    0  501  0.00000000000E+00  0.00000000000E+00 -0.16261217189E+04  0.16261217189E+04  0.25500000920E-02 0.  1.
    10030    2    1    2    0    0  0.00000000000E+00  0.00000000000E+00  0.12343056588E+03  0.33756740037E+04  0.33734166471E+04 0.  0.
        3    1    3    3  502    0  0.69711855785E+03 -0.12408733304E+04  0.96744196958E+03  0.17209546422E+04  0.10100000352E+00 0. -1.
       -3    1    3    3    0  502 -0.69711855785E+03  0.12408733304E+04 -0.84401140370E+03  0.16547193615E+04  0.10100000352E+00 0.  1.
</event>
<event>
 5   0  0.1911477E-06  0.2657423E+04  0.7818609E-02  0.8348954E-01
        2   -1    0    0  501    0  0.00000000000E+00  0.00000000000E+00  0.27080816821E+04  0.27080816821E+04  0.25500000920E-02 0. -1.
       -2   -1    0    0    0  501  0.00000000000E+00  0.00000000000E+00 -0.65192779055E+03  0.65192779056E+03  0.25500000920E-02 0.  1.
    10030    2    1    2    0    0  0.00000000000E+00  0.00000000000E+00  0.20561538916E+04  0.33600094727E+04  0.26574225917E+04 0.  0.
        5    1    3    3  502    0 -0.67869360211E+03  0.11375250347E+04  0.89629287579E+03  0.15993596279E+04  0.46999998093E+01 0. -1.
       -5    1    3    3    0  502  0.67869360211E+03 -0.11375250347E+04  0.11598610158E+04  0.17606498448E+04  0.46999998093E+01 0.  1.
</event>
<event>
 5   0  0.6134625E-07  0.3159707E+04  0.7818609E-02  0.8199540E-01
        1   -1    0    0  501    0  0.00000000000E+00  0.00000000000E+00  0.15875371476E+04  0.15875371477E+04  0.50400001928E-02 0.  1.
       -1   -1    0    0    0  501  0.00000000000E+00  0.00000000000E+00 -0.15722069210E+04  0.15722069210E+04  0.50400001928E-02 0. -1.
    10030    2    1    2    0    0  0.00000000000E+00  0.00000000000E+00  0.15330226645E+02  0.31597440687E+04  0.31597068794E+04 0.  0.
        5    1    3    3  502    0  0.88231202433E+03  0.44743858652E+02  0.13174279395E+04  0.15862266506E+04  0.46999998093E+01 0.  1.
       -5    1    3    3    0  502 -0.88231202433E+03 -0.44743858652E+02 -0.13020977129E+04  0.15735174181E+04  0.46999998093E+01 0. -1.
</event>
<event>
 5   0  0.6134625E-07  0.3381651E+04  0.7818609E-02  0.8142425E-01
        1   -1    0    0  501    0  0.00000000000E+00  0.00000000000E+00  0.27487338926E+04  0.27487338926E+04  0.50400001928E-02 0. -1.
       -1   -1    0    0    0  501  0.00000000000E+00  0.00000000000E+00 -0.10400752591E+04  0.10400752591E+04  0.50400001928E-02 0.  1.
    10030    2    1    2    0    0  0.00000000000E+00  0.00000000000E+00  0.17086586335E+04  0.37888091517E+04  0.33816505530E+04 0.  0.
        5    1    3    3  502    0  0.38444863146E+03 -0.16451896398E+04  0.92880299530E+03  0.19279903514E+04  0.46999998093E+01 0. -1.
       -5    1    3    3    0  502 -0.38444863146E+03  0.16451896398E+04  0.77985563816E+03  0.18608188003E+04  0.46999998093E+01 0.  1.
</event>
<event>
 5   0  0.1911477E-06  0.3372217E+04  0.7818609E-02  0.8144759E-01
        2   -1    0    0  501    0  0.00000000000E+00  0.00000000000E+00  0.17199777849E+04  0.17199777849E+04  0.25500000920E-02 0.  1.
       -2   -1    0    0    0  501  0.00000000000E+00  0.00000000000E+00 -0.16529063689E+04  0.16529063689E+04  0.25500000920E-02 0. -1.
    10030    2    1    2    0    0  0.00000000000E+00  0.00000000000E+00  0.67071415972E+02  0.33728841538E+04  0.33722172143E+04 0.  0.
        5    1    3    3  502    0 -0.11492322303E+03  0.10656817943E+04  0.13353518472E+04  0.17123293140E+04  0.46999998093E+01 0.  1.
       -5    1    3    3    0  502  0.11492322303E+03 -0.10656817943E+04 -0.12682804312E+04  0.16605548398E+04  0.46999998093E+01 0. -1.
</event>
<event>
 5   0  0.1948507E-06  0.3362182E+04  0.7818609E-02  0.8147251E-01
       -2   -1    0    0    0  501  0.00000000000E+00  0.00000000000E+00  0.17230317485E+04  0.17230317485E+04  0.25500000920E-02 0.  1.
        2   -1    0    0  501    0  0.00000000000E+00  0.00000000000E+00 -0.16401709055E+04  0.16401709055E+04  0.25500000920E-02 0. -1.
    10030    2    1    2    0    0  0.00000000000E+00  0.00000000000E+00  0.82860843029E+02  0.33632026540E+04  0.33621817578E+04 0.  0.
        1    1    3    3  502    0  0.12292233538E+03  0.37249787557E+03 -0.15937530549E+04  0.16413145244E+04  0.50400001928E-02 0. -1.
       -1    1    3    3    0  502 -0.12292233538E+03 -0.37249787557E+03  0.16766138980E+04  0.17218881296E+04  0.50400001928E-02 0.  1.
</event>
<event>
 5   0  0.6134625E-07  0.3367558E+04  0.7818609E-02  0.8145915E-01
       -1   -1    0    0    0  501  0.00000000000E+00  0.00000000000E+00  0.99629148795E+03  0.99629148796E+03  0.50400001928E-02 0.  1.
        1   -1    0    0  501    0  0.00000000000E+00  0.00000000000E+00 -0.28456656409E+04  0.28456656409E+04  0.50400001928E-02 0. -1.
    10030    2    1    2    0    0  0.00000000000E+00  0.00000000000E+00 -0.18493741529E+04  0.38419571288E+04  0.33675584364E+04 0.  0.
        5    1    3    3  502    0 -0.16350126913E+04  0.17715702356E+03 -0.51264503826E+03  0.17226369719E+04  0.46999998093E+01 0. -1.
       -5    1    3    3    0  502  0.16350126913E+04 -0.17715702356E+03 -0.13367291146E+04  0.21193201569E+04  0.46999998093E+01 0.  1.
</event>
<event>
 5   0  0.6218695E-07  0.3390187E+04  0.7818609E-02  0.8140319E-01
        1   -1    0    0  501    0  0.00000000000E+00  0.00000000000E+00  0.22153474477E+04  0.22153474477E+04  0.50400001928E-02 0. -1.
       -1   -1    0    0    0  501  0.00000000000E+00  0.00000000000E+00 -0.12970166389E+04  0.12970166389E+04  0.50400001928E-02 0.  1.
    10030    2    1    2    0    0  0.00000000000E+00  0.00000000000E+00  0.91833080880E+03  0.35123640866E+04  0.33901873108E+04 0.  0.
        2    1    3    3  502    0  0.12252364315E+04 -0.51428689749E+03  0.15495420876E+04  0.20412682350E+04  0.25500000920E-02 0. -1.
       -2    1    3    3    0  502 -0.12252364315E+04  0.51428689749E+03 -0.63121127883E+03  0.14710958515E+04  0.25500000920E-02 0.  1.
</event>
<event>
 5   0  0.1880301E-06  0.3541657E+04  0.7818609E-02  0.8103988E-01
       -2   -1    0    0    0  501  0.00000000000E+00  0.00000000000E+00  0.20317374073E+04  0.20317374073E+04  0.25500000920E-02 0.  1.
        2   -1    0    0  501    0  0.00000000000E+00  0.00000000000E+00 -0.15434244544E+04  0.15434244544E+04  0.25500000920E-02 0. -1.
    10030    2    1    2    0    0  0.00000000000E+00  0.00000000000E+00  0.48831295285E+03  0.35751618617E+04  0.35416567871E+04 0.  0.
        4    1    3    3  502    0  0.34330002841E+03  0.17100130880E+04 -0.65061353549E+02  0.17453464594E+04  0.12699999809E+01 0. -1.
       -4    1    3    3    0  502 -0.34330002841E+03 -0.17100130880E+04  0.55337430640E+03  0.18298154023E+04  0.12699999809E+01 0.  1.
</event>
<event>
 5   0  0.1948507E-06  0.3408860E+04  0.7818609E-02  0.8135735E-01
        2   -1    0    0  501    0  0.00000000000E+00  0.00000000000E+00  0.12445411232E+04  0.12445411232E+04  0.25500000920E-02 0.  1.
       -2   -1    0    0    0  501  0.00000000000E+00  0.00000000000E+00 -0.23342594474E+04  0.23342594474E+04  0.25500000920E-02 0. -1.
    10030    2    1    2    0    0  0.00000000000E+00  0.00000000000E+00 -0.10897183243E+04  0.35788005706E+04  0.34088601465E+04 0.  0.
        1    1    3    3  502    0  0.49741995976E+03 -0.41089952992E+03  0.11113866065E+04  0.12850856894E+04  0.50400001928E-02 0.  1.
       -1    1    3    3    0  502 -0.49741995976E+03  0.41089952992E+03 -0.22011049308E+04  0.22937148812E+04  0.50400001928E-02 0. -1.
</event>
<event>
 5   0  0.1339844E-06  0.3393285E+04  0.7818609E-02  0.8139556E-01
        2   -1    0    0  501    0  0.00000000000E+00  0.00000000000E+00  0.20231022864E+04  0.20231022864E+04  0.25500000920E-02 0.  1.
       -2   -1    0    0    0  501  0.00000000000E+00  0.00000000000E+00 -0.14228623613E+04  0.14228623613E+04  0.25500000920E-02 0. -1.
    10030    2    1    2    0    0  0.00000000000E+00  0.00000000000E+00  0.60023992516E+03  0.34459646477E+04  0.33932851907E+04 0.  0.
        3    1    3    3  502    0 -0.14908024661E+04 -0.80637219092E+03  0.37791195312E+03  0.17365326250E+04  0.10100000352E+00 0.  1.
       -3    1    3    3    0  502  0.14908024661E+04  0.80637219092E+03  0.22232797205E+03  0.17094320228E+04  0.10100000352E+00 0. -1.
</event>
<event>
 5   0  0.1911477E-06  0.3438414E+04  0.7818609E-02  0.8128542E-01
        2   -1    0    0  501    0  0.00000000000E+00  0.00000000000E+00  0.28109249276E+04  0.28109249276E+04  0.25500000920E-02 0. -1.
       -2   -1    0    0    0  501  0.00000000000E+00  0.00000000000E+00 -0.10514947991E+04  0.10514947991E+04  0.25500000920E-02 0.  1.
    10030    2    1    2    0    0  0.00000000000E+00  0.00000000000E+00  0.17594301285E+04  0.38624197266E+04  0.34384141355E+04 0.  0.
        5    1    3    3  502    0 -0.59162617779E+03  0.49008822927E+03  0.26073720175E+04  0.27182014153E+04  0.46999998093E+01 0. -1.
       -5    1    3    3    0  502  0.59162617779E+03 -0.49008822927E+03 -0.84794188901E+03  0.11442183113E+04  0.46999998093E+01 0.  1.
</event>
<event>
 5   0  0.1911477E-06  0.3439599E+04  0.7818609E-02  0.8128255E-01
       -2   -1    0    0    0  501  0.00000000000E+00  0.00000000000E+00  0.16315422330E+04  0.16315422330E+04  0.25500000920E-02 0. -1.
        2   -1    0    0  501    0  0.00000000000E+00  0.00000000000E+00 -0.18128310219E+04  0.18128310219E+04  0.25500000920E-02 0.  1.
    10030    2    1    2    0    0  0.00000000000E+00  0.00000000000E+00 -0.18128878888E+03  0.34443732548E+04  0.34395990309E+04 0.  0.
        5    1    3    3  502    0 -0.34995181789E+03  0.12029822383E+04 -0.12704374732E+04  0.17842830504E+04  0.46999998093E+01 0.  1.
       -5    1    3    3    0  502  0.34995181789E+03 -0.12029822383E+04  0.10891486843E+04  0.16600902045E+04  0.46999998093E+01 0. -1.
</event>
<event>
 5   0  0.6134625E-07  0.3171022E+04  0.7818609E-02  0.8196512E-01
        1   -1    0    0  501    0  0.00000000000E+00  0.00000000000E+00  0.24015107997E+04  0.24015107997E+04  0.50400001928E-02 0. -1.
       -1   -1    0    0    0  501  0.00000000000E+00  0.00000000000E+00 -0.10467762662E+04  0.10467762662E+04  0.50400001928E-02 0.  1.
    10030    2    1    2    0    0  0.00000000000E+00  0.00000000000E+00  0.13547345335E+04  0.34482870658E+04  0.31710216070E+04 0.  0.
        3    1    3    3  502    0  0.14048640980E+04  0.55806135965E+03  0.11974862292E+04  0.19284835738E+04  0.10100000352E+00 0. -1.
       -3    1    3    3    0  502 -0.14048640980E+04 -0.55806135965E+03  0.15724830427E+03  0.15198034920E+04  0.10100000352E+00 0.  1.
</event>
<event>
 5   0  0.1948507E-06  0.3279229E+04  0.7818609E-02  0.8168201E-01
       -2   -1    0    0    0  501  0.00000000000E+00  0.00000000000E+00  0.12186466930E+04  0.12186466930E+04  0.25500000920E-02 0. -1.
        2   -1    0    0  501    0  0.00000000000E+00  0.00000000000E+00 -0.22060011608E+04  0.22060011608E+04  0.25500000920E-02 0.  1.
    10030    2    1    2    0    0  0.00000000000E+00  0.00000000000E+00 -0.98735446778E+03  0.34246478538E+04  0.32792291896E+04 0.  0.
        1    1    3    3  502    0  0.63154285198E+03  0.10042734889E+04 -0.16756457267E+04  0.20530952768E+04  0.50400001928E-02 0.  1.
       -1    1    3    3    0  502 -0.63154285198E+03 -0.10042734889E+04  0.68829125892E+03  0.13715525770E+04  0.50400001928E-02 0. -1.
</event>
<event>
 5   0  0.1911477E-06  0.3388833E+04  0.7818609E-02  0.8140653E-01
        2   -1    0    0  501    0  0.00000000000E+00  0.00000000000E+00  0.21157275629E+04  0.21157275629E+04  0.25500000920E-02 0.  1.
       -2   -1    0    0    0  501  0.00000000000E+00  0.00000000000E+00 -0.13570019877E+04  0.13570019877E+04  0.25500000920E-02 0. -1.
    10030    2    1    2    0    0  0.00000000000E+00  0.00000000000E+00  0.75872557513E+03  0.34727295506E+04  0.33888325473E+04 0.  0.
        5    1    3    3  502    0  0.36716196550E+02  0.16305776876E+04 -0.91236940574E+02  0.16335476558E+04  0.46999998093E+01 0. -1.
       -5    1    3    3    0  502 -0.36716196550E+02 -0.16305776876E+04  0.84996251571E+03  0.18391818949E+04  0.46999998093E+01 0.  1.
</event>
<event>
 5   0  0.6218695E-07  0.3365271E+04  0.7818609E-02  0.8146483E-01
       -1   -1    0    0    0  501  0.00000000000E+00  0.00000000000E+00  0.20699407921E+04  0.20699407921E+04  0.50400001928E-02 0.  1.
        1   -1    0    0  501    0  0.00000000000E+00  0.00000000000E+00 -0.13677983946E+04  0.13677983946E+04  0.50400001928E-02 0. -1.
    10030    2    1    2    0    0  0.00000000000E+00  0.00000000000E+00  0.70214239749E+03  0.34377391867E+04  0.33652706830E+04 0.  0.
        2    1    3    3  502    0 -0.15213966121E+04  0.23872123601E+03 -0.34148547221E+03  0.15774180827E+04  0.25500000920E-02 0. -1.
       -2    1    3    3    0  502  0.15213966121E+04 -0.23872123601E+03  0.10436278697E+04  0.18603211041E+04  0.25500000920E-02 0.  1.
</event>
<event>
 5   0  0.6134625E-07  0.3395751E+04  0.7818609E-02  0.8138950E-01
        1   -1    0    0  501    0  0.00000000000E+00  0.00000000000E+00  0.17323777025E+04  0.17323777025E+04  0.50400001928E-02 0.  1.
       -1   -1    0    0    0  501  0.00000000000E+00  0.00000000000E+00 -0.16640600576E+04  0.16640600576E+04  0.50400001928E-02 0. -1.
    10030    2    1    2    0    0  0.00000000000E+00  0.00000000000E+00  0.68317644906E+02  0.33964377600E+04  0.33957506029E+04 0.  0.
        1    1    3    3  502    0 -0.29865458661E+03 -0.83224676555E+02 -0.16355080754E+04  0.16646343664E+04  0.50400001928E-02 0. -1.
       -1    1    3    3    0  502  0.29865458661E+03  0.83224676555E+02  0.17038257203E+04  0.17318033936E+04  0.50400001928E-02 0.  1.
</event>
<event>
 5   0  0.1948507E-06  0.3381415E+04  0.7818609E-02  0.8142483E-01
        2   -1    0    0  501    0  0.00000000000E+00  0.00000000000E+00  0.16833046385E+04  0.16833046385E+04  0.25500000920E-02 0. -1.
       -2   -1    0    0    0  501  0.00000000000E+00  0.00000000000E+00 -0.16981428641E+04  0.16981428641E+04  0.25500000920E-02 0.  1.
    10030    2    1    2    0    0  0.00000000000E+00  0.00000000000E+00 -0.14838225590E+02  0.33814475025E+04  0.33814149464E+04 0.  0.
        1    1    3    3  502    0  0.67437233439E+03 -0.10827784542E+04 -0.11170714204E+04  0.16955930480E+04  0.50400001928E-02 0.  1.
       -1    1    3    3    0  502 -0.67437233439E+03  0.10827784542E+04  0.11022331948E+04  0.16858544545E+04  0.50400001928E-02 0. -1.
</event>
<event>
 5   0  0.6218695E-07  0.3363182E+04  0.7818609E-02  0.8147002E-01
       -1   -1    0    0    0  501  0.00000000000E+00  0.00000000000E+00  0.12838563900E+04  0.12838563900E+04  0.50400001928E-02 0.  1.
        1   -1    0    0  501    0  0.00000000000E+00  0.00000000000E+00 -0.22025430299E+04  0.22025430299E+04  0.50400001928E-02 0. -1.
    10030    2    1    2    0    0  0.00000000000E+00  0.00000000000E+00 -0.91868663996E+03  0.34863994199E+04  0.33631823877E+04 0.  0.
        2    1    3    3  502    0  0.18972486760E+03  0.13909933486E+03  0.12667133130E+04  0.12883736910E+04  0.25500000920E-02 0.  1.
       -2    1    3    3    0  502 -0.18972486760E+03 -0.13909933486E+03 -0.21853999530E+04  0.21980257289E+04  0.25500000920E-02 0. -1.
</event>
<event>
 5   0  0.6146388E-07  0.3412439E+04  0.7818609E-02  0.8134860E-01
        1   -1    0    0  501    0  0.00000000000E+00  0.00000000000E+00  0.11328576999E+04  0.11328576999E+04  0.50400001928E-02 0. -1.
       -1   -1    0    0    0  501  0.00000000000E+00  0.00000000000E+00 -0.25697704738E+04  0.25697704738E+04  0.50400001928E-02 0.  1.
    10030    2    1    2    0    0  0.00000000000E+00  0.00000000000E+00 -0.14369127739E+04  0.37026281737E+04  0.34124385815E+04 0.  0.
        4    1    3    3  502    0  0.37840658303E+03  0.14197797248E+04  0.22260234303E+03  0.14861088200E+04  0.12699999809E+01 0. -1.
       -4    1    3    3    0  502 -0.37840658303E+03 -0.14197797248E+04 -0.16595151169E+04  0.22165193536E+04  0.12699999809E+01 0.  1.
</event>
<event>
 5   0  0.6134625E-07  0.3513088E+04  0.7818609E-02  0.8110695E-01
       -1   -1    0    0    0  501  0.00000000000E+00  0.00000000000E+00  0.17410101484E+04  0.17410101484E+04  0.50400001928E-02 0.  1.
        1   -1    0    0  501    0  0.00000000000E+00  0.00000000000E+00 -0.17722160602E+04  0.17722160602E+04  0.50400001928E-02 0. -1.
    10030    2    1    2    0    0  0.00000000000E+00  0.00000000000E+00 -0.31205911859E+02  0.35132262086E+04  0.35130876141E+04 0.  0.
        3    1    3    3  502    0  0.36515174376E+03  0.79933417802E+03 -0.15365755820E+04  0.17701230052E+04  0.10100000352E+00 0. -1.
       -3    1    3    3    0  502 -0.36515174376E+03 -0.79933417802E+03  0.15053696701E+04  0.17431032035E+04  0.10100000352E+00 0.  1.
</event>
<event>
 5   0  0.1797075E-06  0.3406769E+04  0.7818609E-02  0.8136247E-01
        2   -1    0    0  501    0  0.00000000000E+00  0.00000000000E+00  0.21880421260E+04  0.21880421260E+04  0.25500000920E-02 0. -1.
       -2   -1    0    0    0  501  0.00000000000E+00  0.00000000000E+00 -0.13260797788E+04  0.13260797788E+04  0.25500000920E-02 0.  1.
    10030    2    1    2    0    0  0.00000000000E+00  0.00000000000E+00  0.86196234722E+03  0.35141219048E+04  0.34067688025E+04 0.  0.
        2    1    3    3  502    0  0.86320326704E+03  0.14637695941E+04  0.55205583958E+03  0.17867587848E+04  0.25500000920E-02 0.  1.
       -2    1    3    3    0  502 -0.86320326704E+03 -0.14637695941E+04  0.30990650763E+03  0.17273631200E+04  0.25500000920E-02 0. -1.
</event>
<event>
 5   0  0.1880301E-06  0.3356920E+04  0.7818609E-02  0.8148561E-01
       -2   -1    0    0    0  501  0.00000000000E+00  0.00000000000E+00  0.13002281564E+04  0.13002281564E+04  0.25500000920E-02 0.  1.
        2   -1    0    0  501    0  0.00000000000E+00  0.00000000000E+00 -0.21667177217E+04  0.21667177217E+04  0.25500000920E-02 0. -1.
    10030    2    1    2    0    0  0.00000000000E+00  0.00000000000E+00 -0.86648956526E+03  0.34669458781E+04  0.33569196528E+04 0.  0.
        4    1    3    3  502    0  0.44058679433E+03 -0.15546282199E+04 -0.90226625289E+03  0.18506949045E+04  0.12699999809E+01 0. -1.
       -4    1    3    3    0  502 -0.44058679433E+03  0.15546282199E+04  0.35776687631E+02  0.16162509736E+04  0.12699999809E+01 0.  1.
</event>
<event>
 5   0  0.1911477E-06  0.3235029E+04  0.7818609E-02  0.8179627E-01
        2   -1    0    0  501    0  0.00000000000E+00  0.00000000000E+00  0.29502262432E+04  0.29502262432E+04  0.25500000920E-02 0.  1.
       -2   -1    0    0    0  501  0.00000000000E+00  0.00000000000E+00 -0.88683114291E+03  0.88683114292E+03  0.25500000920E-02 0. -1.
    10030    2    1    2    0    0  0.00000000000E+00  0.00000000000E+00  0.20633951003E+04  0.38370573861E+04  0.32350286003E+04 0.  0.
        5    1    3    3  502    0 -0.16153653716E+04  0.82403187810E+02  0.10454711879E+04  0.19259355295E+04  0.46999998093E+01 0. -1.
       -5    1    3    3    0  502  0.16153653716E+04 -0.82403187810E+02  0.10179239124E+04  0.19111218566E+04  0.46999998093E+01 0.  1.
</event>
<event>
 5   0  0.1339844E-06  0.3395810E+04  0.7818609E-02  0.8138936E-01
       -2   -1    0    0    0  501  0.00000000000E+00  0.00000000000E+00  0.12116666030E+04  0.12116666030E+04  0.25500000920E-02 0.  1.
        2   -1    0    0  501    0  0.00000000000E+00  0.00000000000E+00 -0.23792689590E+04  0.23792689590E+04  0.25500000920E-02 0. -1.
    10030    2    1    2    0    0  0.00000000000E+00  0.00000000000E+00 -0.11676023559E+04  0.35909355620E+04  0.33958096161E+04 0.  0.
        3    1    3    3  502    0 -0.15015192314E+04  0.47380150973E+03 -0.12557947244E+04  0.20139682900E+04  0.10100000352E+00 0. -1.
       -3    1    3    3    0  502  0.15015192314E+04 -0.47380150973E+03  0.88192368453E+02  0.15769672720E+04  0.10100000352E+00 0.  1.
</event>
<event>
 5   0  0.1911477E-06  0.3385358E+04  0.7818609E-02  0.8141509E-01
       -2   -1    0    0    0  501  0.00000000000E+00  0.00000000000E+00  0.14318704854E+04  0.14318704854E+04  0.25500000920E-02 0.  1.
        2   -1    0    0  501    0  0.00000000000E+00  0.00000000000E+00 -0.20009921877E+04  0.20009921877E+04  0.25500000920E-02 0. -1.
    10030    2    1    2    0    0  0.00000000000E+00  0.00000000000E+00 -0.56912170229E+03  0.34328626731E+04  0.33853576798E+04 0.  0.
        5    1    3    3  502    0 -0.14939299989E+04  0.50959517517E+03 -0.90438731268E+03  0.18191900905E+04  0.46999998093E+01 0. -1.
       -5    1    3    3    0  502  0.14939299989E+04 -0.50959517517E+03  0.33526561038E+03  0.16136725826E+04  0.46999998093E+01 0.  1.
</event>
<event>
 5   0  0.1797075E-06  0.2543328E+04  0.7818609E-02  0.8387710E-01
        2   -1    0    0  501    0  0.00000000000E+00  0.00000000000E+00  0.19591040617E+04  0.19591040617E+04  0.25500000920E-02 0. -1.
       -2   -1    0    0    0  501  0.00000000000E+00  0.00000000000E+00 -0.82544300208E+03  0.82544300208E+03  0.25500000920E-02 0.  1.
    10030    2    1    2    0    0  0.00000000000E+00  0.00000000000E+00  0.11336610596E+04  0.27845470638E+04  0.25433275354E+04 0.  0.
        2    1    3    3  502    0 -0.98410196928E+03 -0.69143260927E+03  0.10190329386E+04  0.15763768170E+04  0.25500000920E-02 0. -1.
       -2    1    3    3    0  502  0.98410196928E+03  0.69143260927E+03  0.11462812097E+03  0.12081702468E+04  0.25500000920E-02 0.  1.
</event>
<event>
 5   0  0.6134625E-07  0.3444323E+04  0.7818609E-02  0.8127113E-01
        1   -1    0    0  501    0  0.00000000000E+00  0.00000000000E+00  0.21098481654E+04  0.21098481654E+04  0.50400001928E-02 0. -1.
       -1   -1    0    0    0  501  0.00000000000E+00  0.00000000000E+00 -0.14057127719E+04  0.14057127719E+04  0.50400001928E-02 0.  1.
    10030    2    1    2    0    0  0.00000000000E+00  0.00000000000E+00  0.70413539355E+03  0.35155609373E+04  0.34443231630E+04 0.  0.
        1    1    3    3  502    0  0.62363423980E+03  0.53751582595E+03 -0.11918299980E+04  0.14485515774E+04  0.50400001928E-02 0.  1.
       -1    1    3    3    0  502 -0.62363423980E+03 -0.53751582595E+03  0.18959653915E+04  0.20670093599E+04  0.50400001928E-02 0. -1.
</event>
<event>
 5   0  0.6218695E-07  0.3373274E+04  0.7818609E-02  0.8144497E-01
       -1   -1    0    0    0  501  0.00000000000E+00  0.00000000000E+00  0.12654931611E+04  0.12654931611E+04  0.50400001928E-02 0.  1.
        1   -1    0    0  501    0  0.00000000000E+00  0.00000000000E+00 -0.22479340529E+04  0.22479340529E+04  0.50400001928E-02 0. -1.
    10030    2    1    2    0    0  0.00000000000E+00  0.00000000000E+00 -0.98244089179E+03  0.35134272140E+04  0.33732744747E+04 0.  0.
        2    1    3    3  502    0  0.12707592224E+04 -0.12300052929E+03 -0.16391873186E+04  0.20777134540E+04  0.25500000920E-02 0. -1.
       -2    1    3    3    0  502 -0.12707592224E+04  0.12300052929E+03  0.65674642677E+03  0.14357137600E+04  0.25500000920E-02 0.  1.
</event>
<event>
 5   0  0.1880301E-06  0.3264263E+04  0.7818609E-02  0.8172049E-01
       -2   -1    0    0    0  501  0.00000000000E+00  0.00000000000E+00  0.16030291882E+04  0.16030291882E+04  0.25500000920E-02 0. -1.
        2   -1    0    0  501    0  0.00000000000E+00  0.00000000000E+00 -0.16617620365E+04  0.16617620365E+04  0.25500000920E-02 0.  1.
    10030    2    1    2    0    0  0.00000000000E+00  0.00000000000E+00 -0.58732848336E+02  0.32647912247E+04  0.32642628867E+04 0.  0.
        4    1    3    3  502    0 -0.11341605996E+03  0.38045827057E+03 -0.16127334375E+04  0.16608800232E+04  0.12699999809E+01 0.  1.
       -4    1    3    3    0  502  0.11341605996E+03 -0.38045827057E+03  0.15540005891E+04  0.16039112015E+04  0.12699999809E+01 0. -1.
</event>
<event>
 5   0  0.1880301E-06  0.3492493E+04  0.7818609E-02  0.8115571E-01
        2   -1    0    0  501    0  0.00000000000E+00  0.00000000000E+00  0.12054151912E+04  0.12054151912E+04  0.25500000920E-02 0.  1.
       -2   -1    0    0    0  501  0.00000000000E+00  0.00000000000E+00 -0.25297309887E+04  0.25297309887E+04  0.25500000920E-02 0. -1.
    10030    2    1    2    0    0  0.00000000000E+00  0.00000000000E+00 -0.13243157975E+04  0.37351461799E+04  0.34924926132E+04 0.  0.
        4    1    3    3  502    0  0.77229685225E+03 -0.29843798909E+03 -0.23064675871E+04  0.24505717709E+04  0.12699999809E+01 0. -1.
       -4    1    3    3    0  502 -0.77229685225E+03  0.29843798909E+03  0.98215178962E+03  0.12845744089E+04  0.12699999809E+01 0.  1.
</event>
<event>
 5   0  0.6134625E-07  0.3376404E+04  0.7818609E-02  0.8143722E-01
       -4   -1    0    0    0  501  0.00000000000E+00  0.00000000000E+00  0.15444311728E+04  0.15444316950E+04  0.12699999809E+01 0. -1.
        4   -1    0    0  501    0  0.00000000000E+00  0.00000000000E+00 -0.18453554386E+04  0.18453558757E+04  0.12699999809E+01 0.  1.
    10030    2    1    2    0    0  0.00000000000E+00  0.00000000000E+00 -0.30092426583E+03  0.33897875706E+04  0.33764040576E+04 0.  0.
        5    1    3    3  502    0 -0.10368670423E+04  0.11313403789E+04  0.55587454153E+03  0.16321896067E+04  0.46999998093E+01 0. -1.
       -5    1    3    3    0  502  0.10368670423E+04 -0.11313403789E+04 -0.85679880736E+03  0.17575979639E+04  0.46999998093E+01 0.  1.
</event>
<event>
 5   0  0.1911477E-06  0.3388671E+04  0.7818609E-02  0.8140692E-01
       -2   -1    0    0    0  501  0.00000000000E+00  0.00000000000E+00  0.17439675304E+04  0.17439675304E+04  0.25500000920E-02 0. -1.
        2   -1    0    0  501    0  0.00000000000E+00  0.00000000000E+00 -0.16461157515E+04  0.16461157515E+04  0.25500000920E-02 0.  1.
    10030    2    1    2    0    0  0.00000000000E+00  0.00000000000E+00  0.97851778955E+02  0.33900832819E+04  0.33886707848E+04 0.  0.
        5    1    3    3  502    0  0.17056536556E+03  0.54612517016E+02 -0.16366132646E+04  0.16463900324E+04  0.46999998093E+01 0.  1.
       -5    1    3    3    0  502 -0.17056536556E+03 -0.54612517016E+02  0.17344650436E+04  0.17436932495E+04  0.46999998093E+01 0. -1.
</event>
<event>
 5   0  0.1797075E-06  0.3399944E+04  0.7818609E-02  0.8137920E-01
        2   -1    0    0  501    0  0.00000000000E+00  0.00000000000E+00  0.15464279843E+04  0.15464279843E+04  0.25500000920E-02 0.  1.
       -2   -1    0    0    0  501  0.00000000000E+00  0.00000000000E+00 -0.18687610399E+04  0.18687610399E+04  0.25500000920E-02 0. -1.
    10030    2    1    2    0    0  0.00000000000E+00  0.00000000000E+00 -0.32233305558E+03  0.34151890242E+04  0.33999437455E+04 0.  0.
        2    1    3    3  502    0  0.16450324690E+04 -0.42234537665E+03 -0.87373338109E+02  0.17006297485E+04  0.25500000920E-02 0.  1.
       -2    1    3    3    0  502 -0.16450324690E+04  0.42234537665E+03 -0.23495971747E+03  0.17145592758E+04  0.25500000920E-02 0. -1.
</event>
<event>
 5   0  0.1339844E-06  0.3351027E+04  0.7818609E-02  0.8150032E-01
        2   -1    0    0  501    0  0.00000000000E+00  0.00000000000E+00  0.16290725217E+04  0.16290725217E+04  0.25500000920E-02 0.  1.
       -2   -1    0    0    0  501  0.00000000000E+00  0.00000000000E+00 -0.17232784187E+04  0.17232784187E+04  0.25500000920E-02 0. -1.
    10030    2    1    2    0    0  0.00000000000E+00  0.00000000000E+00 -0.94205897064E+02  0.33523509404E+04  0.33510270182E+04 0.  0.
        3    1    3    3  502    0  0.27343227397E+03 -0.14130733201E+04  0.81102618489E+03  0.16520608037E+04  0.10100000352E+00 0.  1.
       -3    1    3    3    0  502 -0.27343227397E+03  0.14130733201E+04 -0.90523208196E+03  0.17002901367E+04  0.10100000352E+00 0. -1.
</event>
<event>
 5   0  0.6134625E-07  0.2894849E+04  0.7818609E-02  0.8274412E-01
        3   -1    0    0  501    0  0.00000000000E+00  0.00000000000E+00  0.17929535789E+04  0.17929535817E+04  0.10100000352E+00 0. -1.
       -3   -1    0    0    0  501  0.00000000000E+00  0.00000000000E+00 -0.11684842027E+04  0.11684842071E+04  0.10100000352E+00 0.  1.
    10030    2    1    2    0    0  0.00000000000E+00  0.00000000000E+00  0.62446937618E+03  0.29614377888E+04  0.28948491801E+04 0.  0.
        3    1    3    3  502    0  0.88769769977E+03 -0.29594089644E+03  0.14419229588E+04  0.17189328229E+04  0.10100000352E+00 0. -1.
       -3    1    3    3    0  502 -0.88769769977E+03  0.29594089644E+03 -0.81745358262E+03  0.12425049659E+04  0.10100000352E+00 0.  1.
</event>
<event>
 5   0  0.6134625E-07  0.3134833E+04  0.7818609E-02  0.8206243E-01
        1   -1    0    0  501    0  0.00000000000E+00  0.00000000000E+00  0.19003439084E+04  0.19003439084E+04  0.50400001928E-02 0. -1.
       -1   -1    0    0    0  501  0.00000000000E+00  0.00000000000E+00 -0.12928161287E+04  0.12928161288E+04  0.50400001928E-02 0.  1.
    10030    2    1    2    0    0  0.00000000000E+00  0.00000000000E+00  0.60752777969E+03  0.31931600372E+04  0.31348334916E+04 0.  0.
        5    1    3    3  502    0 -0.77124321809E+03 -0.83809676222E+03  0.14006236711E+04  0.18052675820E+04  0.46999998093E+01 0. -1.
       -5    1    3    3    0  502  0.77124321809E+03  0.83809676222E+03 -0.79309589146E+03  0.13878924552E+04  0.46999998093E+01 0.  1.
</event>
<event>
 5   0  0.1797075E-06  0.2575174E+04  0.7818609E-02  0.8376683E-01
        2   -1    0    0  501    0  0.00000000000E+00  0.00000000000E+00  0.96708947472E+03  0.96708947472E+03  0.25500000920E-02 0. -1.
       -2   -1    0    0    0  501  0.00000000000E+00  0.00000000000E+00 -0.17142987447E+04  0.17142987447E+04  0.25500000920E-02 0.  1.
    10030    2    1    2    0    0  0.00000000000E+00  0.00000000000E+00 -0.74720927000E+03  0.26813882194E+04  0.25751739922E+04 0.  0.
        2    1    3    3  502    0 -0.94137129493E+03 -0.58758380102E+03 -0.10535671254E+04  0.15301759134E+04  0.25500000920E-02 0.  1.
       -2    1    3    3    0  502  0.94137129493E+03  0.58758380102E+03  0.30635785536E+03  0.11512123061E+04  0.25500000920E-02 0. -1.
</event>
<event>
 5   0  0.1948507E-06  0.3423070E+04  0.7818609E-02  0.8132267E-01
       -2   -1    0    0    0  501  0.00000000000E+00  0.00000000000E+00  0.13769388207E+04  0.13769388207E+04  0.25500000920E-02 0. -1.
        2   -1    0    0  501    0  0.00000000000E+00  0.00000000000E+00 -0.21274381902E+04  0.21274381902E+04  0.25500000920E-02 0.  1.
    10030    2    1    2    0    0  0.00000000000E+00  0.00000000000E+00 -0.75049936947E+03  0.35043770108E+04  0.34230701031E+04 0.  0.
        1    1    3    3  502    0 -0.80745117408E+03  0.14263200936E+04 -0.87989413143E+03  0.18602634465E+04  0.50400001928E-02 0.  1.
       -1    1    3    3    0  502  0.80745117408E+03 -0.14263200936E+04  0.12939476196E+03  0.16441135643E+04  0.50400001928E-02 0. -1.
</event>
<event>
 5   0  0.6134625E-07  0.3399041E+04  0.7818609E-02  0.8138142E-01
       -1   -1    0    0    0  501  0.00000000000E+00  0.00000000000E+00  0.23072666857E+04  0.23072666857E+04  0.50400001928E-02 0. -1.
        1   -1    0    0  501    0  0.00000000000E+00  0.00000000000E+00 -0.12518578553E+04  0.12518578553E+04  0.50400001928E-02 0.  1.
    10030    2    1    2    0    0  0.00000000000E+00  0.00000000000E+00  0.10554088304E+04  0.35591245410E+04  0.33990409970E+04 0.  0.
        3    1    3    3  502    0 -0.89622668307E+03  0.12075843348E+04  0.13567562106E+04  0.20254060379E+04  0.10100000352E+00 0. -1.
       -3    1    3    3    0  502  0.89622668307E+03 -0.12075843348E+04 -0.30134738017E+03  0.15337185031E+04  0.10100000352E+00 0.  1.
</event>
<event>
 5   0  0.1911477E-06  0.3390004E+04  0.7818609E-02  0.8140364E-01
        2   -1    0    0  501    0  0.00000000000E+00  0.00000000000E+00  0.21627988995E+04  0.21627988995E+04  0.25500000920E-02 0. -1.
       -2   -1    0    0    0  501  0.00000000000E+00  0.00000000000E+00 -0.13283861836E+04  0.13283861836E+04  0.25500000920E-02 0.  1.
    10030    2    1    2    0    0  0.00000000000E+00  0.00000000000E+00  0.83441271584E+03  0.34911850831E+04  0.33900042337E+04 0.  0.
        5    1    3    3  502    0  0.13723801820E+04  0.99476577475E+03  0.42222790596E+03  0.17467927196E+04  0.46999998093E+01 0. -1.
       -5    1    3    3    0  502 -0.13723801820E+04 -0.99476577475E+03  0.41218480988E+03  0.17443923636E+04  0.46999998093E+01 0.  1.
</event>
<event>
 5   0  0.1880301E-06  0.3436729E+04  0.7818609E-02  0.8128950E-01
       -2   -1    0    0    0  501  0.00000000000E+00  0.00000000000E+00  0.12500419229E+04  0.12500419229E+04  0.25500000920E-02 0.  1.
        2   -1    0    0  501    0  0.00000000000E+00  0.00000000000E+00 -0.23621413885E+04  0.23621413886E+04  0.25500000920E-02 0. -1.
    10030    2    1    2    0    0  0.00000000000E+00  0.00000000000E+00 -0.11120994656E+04  0.36121833115E+04  0.34367285395E+04 0.  0.
        4    1    3    3  502    0  0.57340105917E+03 -0.14714684131E+03  0.11394823121E+04  0.12840804181E+04  0.12699999809E+01 0.  1.
       -4    1    3    3    0  502 -0.57340105917E+03  0.14714684131E+03 -0.22515817777E+04  0.23281028934E+04  0.12699999809E+01 0. -1.
</event>
<event>
 5   0  0.1797075E-06  0.3413079E+04  0.7818609E-02  0.8134704E-01
        2   -1    0    0  501    0  0.00000000000E+00  0.00000000000E+00  0.22678487368E+04  0.22678487368E+04  0.25500000920E-02 0. -1.
       -2   -1    0    0    0  501  0.00000000000E+00  0.00000000000E+00 -0.12841584005E+04  0.12841584005E+04  0.25500000920E-02 0.  1.
    10030    2    1    2    0    0  0.00000000000E+00  0.00000000000E+00  0.98369033629E+03  0.35520071373E+04  0.34130789656E+04 0.  0.
        2    1    3    3  502    0 -0.87109541986E+03 -0.59708201145E+02  0.20177839074E+04  0.21985959604E+04  0.25500000920E-02 0. -1.
       -2    1    3    3    0  502  0.87109541986E+03  0.59708201145E+02 -0.10340935712E+04  0.13534111769E+04  0.25500000920E-02 0.  1.
</event>
<event>
 5   0  0.6134625E-07  0.3350456E+04  0.7818609E-02  0.8150174E-01
        1   -1    0    0  501    0  0.00000000000E+00  0.00000000000E+00  0.21728088465E+04  0.21728088465E+04  0.50400001928E-02 0.  1.
       -1   -1    0    0    0  501  0.00000000000E+00  0.00000000000E+00 -0.12915950347E+04  0.12915950347E+04  0.50400001928E-02 0. -1.
    10030    2    1    2    0    0  0.00000000000E+00  0.00000000000E+00  0.88121381175E+03  0.34644038812E+04  0.33504561585E+04 0.  0.
        3    1    3    3  502    0  0.10603853359E+04 -0.57439988106E+03  0.16429234884E+04  0.20380259770E+04  0.10100000352E+00 0.  1.
       -3    1    3    3    0  502 -0.10603853359E+04  0.57439988106E+03 -0.76170967670E+03  0.14263779042E+04  0.10100000352E+00 0. -1.
</event>
<event>
 5   0  0.6134625E-07  0.3369519E+04  0.7818609E-02  0.8145428E-01
       -1   -1    0    0    0  501  0.00000000000E+00  0.00000000000E+00  0.11081827072E+04  0.11081827072E+04  0.50400001928E-02 0. -1.
        1   -1    0    0  501    0  0.00000000000E+00  0.00000000000E+00 -0.25613235062E+04  0.25613235062E+04  0.50400001928E-02 0.  1.
    10030    2    1    2    0    0  0.00000000000E+00  0.00000000000E+00 -0.14531407990E+04  0.36695062134E+04  0.33695189075E+04 0.  0.
        5    1    3    3  502    0  0.16397029386E+04 -0.36321178847E+03 -0.87204372460E+03  0.18923611911E+04  0.46999998093E+01 0.  1.
       -5    1    3    3    0  502 -0.16397029386E+04  0.36321178847E+03 -0.58109707445E+03  0.17771450222E+04  0.46999998093E+01 0. -1.
</event>
<event>
 5   0  0.1948507E-06  0.3394511E+04  0.7818609E-02  0.8139255E-01
       -2   -1    0    0    0  501  0.00000000000E+00  0.00000000000E+00  0.13830820667E+04  0.13830820667E+04  0.25500000920E-02 0. -1.
        2   -1    0    0  501    0  0.00000000000E+00  0.00000000000E+00 -0.20827943887E+04  0.20827943887E+04  0.25500000920E-02 0.  1.
    10030    2    1    2    0    0  0.00000000000E+00  0.00000000000E+00 -0.69971232197E+03  0.34658764554E+04  0.33945106085E+04 0.  0.
        1    1    3    3  502    0  0.67466365128E+03 -0.27339674793E+03  0.12155964944E+04  0.14168950777E+04  0.50400001928E-02 0. -1.
       -1    1    3    3    0  502 -0.67466365128E+03  0.27339674793E+03 -0.19153088164E+04  0.20489813777E+04  0.50400001928E-02 0.  1.
</event>
<event>
 5   0  0.1911477E-06  0.3422755E+04  0.7818609E-02  0.8132344E-01
       -2   -1    0    0    0  501  0.00000000000E+00  0.00000000000E+00  0.18669283046E+04  0.18669283046E+04  0.25500000920E-02 0. -1.
        2   -1    0    0  501    0  0.00000000000E+00  0.00000000000E+00 -0.15687869310E+04  0.15687869310E+04  0.25500000920E-02 0.  1.
    10030    2    1    2    0    0  0.00000000000E+00  0.00000000000E+00  0.29814137353E+03  0.34357152356E+04  0.34227548702E+04 0.  0.
        5    1    3    3  502    0  0.12625058652E+04 -0.85197169391E+02 -0.10075122683E+04  0.16174927135E+04  0.46999998093E+01 0.  1.
       -5    1    3    3    0  502 -0.12625058652E+04  0.85197169391E+02  0.13056536419E+04  0.18182225221E+04  0.46999998093E+01 0. -1.
</event>
<event>
 5   0  0.1339844E-06  0.3356791E+04  0.7818609E-02  0.8148593E-01
        2   -1    0    0  501    0  0.00000000000E+00  0.00000000000E+00  0.18051833828E+04  0.18051833828E+04  0.25500000920E-02 0. -1.
       -2   -1    0    0    0  501  0.00000000000E+00  0.00000000000E+00 -0.15605130025E+04  0.15605130025E+04  0.25500000920E-02 0.  1.
    10030    2    1    2    0    0  0.00000000000E+00  0.00000000000E+00  0.24467038027E+03  0.33656963853E+04  0.33567914090E+04 0.  0.
        3    1    3    3  502    0 -0.13005393456E+04  0.33455475686E+03 -0.88715380570E+03  0.16094630657E+04  0.10100000352E+00 0.  1.
       -3    1    3    3    0  502  0.13005393456E+04 -0.33455475686E+03  0.11318241860E+04  0.17562333196E+04  0.10100000352E+00 0. -1.
</event>
<event>
 5   0  0.6218695E-07  0.3222734E+04  0.7818609E-02  0.8182839E-01
        1   -1    0    0  501    0  0.00000000000E+00  0.00000000000E+00  0.96923418120E+03  0.96923418122E+03  0.50400001928E-02 0.  1.
       -1   -1    0    0    0  501  0.00000000000E+00  0.00000000000E+00 -0.26789226381E+04  0.26789226381E+04  0.50400001928E-02 0. -1.
    10030    2    1    2    0    0  0.00000000000E+00  0.00000000000E+00 -0.17096884569E+04  0.36481568193E+04  0.32227338641E+04 0.  0.
        2    1    3    3  502    0 -0.37027554466E+03  0.50287782853E+02 -0.26291979152E+04  0.26556194226E+04  0.25500000920E-02 0. -1.
       -2    1    3    3    0  502  0.37027554466E+03 -0.50287782853E+02  0.91950945831E+03  0.99253739678E+03  0.25500000920E-02 0.  1.
</event>
<event>
 5   0  0.6218695E-07  0.3159912E+04  0.7818609E-02  0.8199485E-01
        1   -1    0    0  501    0  0.00000000000E+00  0.00000000000E+00  0.19555158273E+04  0.19555158273E+04  0.50400001928E-02 0. -1.
       -1   -1    0    0    0  501  0.00000000000E+00  0.00000000000E+00 -0.12765233975E+04  0.12765233975E+04  0.50400001928E-02 0.  1.
    10030    2    1    2    0    0  0.00000000000E+00  0.00000000000E+00  0.67899242972E+03  0.32320392248E+04  0.31599124721E+04 0.  0.
        2    1    3    3  502    0  0.91192741192E+03 -0.90560673717E+03  0.12794537226E+04  0.18134875228E+04  0.25500000920E-02 0. -1.
       -2    1    3    3    0  502 -0.91192741192E+03  0.90560673717E+03 -0.60046129289E+03  0.14185517020E+04  0.25500000920E-02 0.  1.
</event>
<event>
 5   0  0.6218695E-07  0.3307165E+04  0.7818609E-02  0.8161075E-01
       -1   -1    0    0    0  501  0.00000000000E+00  0.00000000000E+00  0.11640255774E+04  0.11640255775E+04  0.50400001928E-02 0.  1.
        1   -1    0    0  501    0  0.00000000000E+00  0.00000000000E+00 -0.23490335067E+04  0.23490335067E+04  0.50400001928E-02 0. -1.
    10030    2    1    2    0    0  0.00000000000E+00  0.00000000000E+00 -0.11850079292E+04  0.35130590841E+04  0.33071649999E+04 0.  0.
        2    1    3    3  502    0 -0.11127210058E+04 -0.11807157263E+04 -0.93192361111E+03  0.18710209192E+04  0.25500000920E-02 0.  1.
       -2    1    3    3    0  502  0.11127210058E+04  0.11807157263E+04 -0.25308431812E+03  0.16420381650E+04  0.25500000920E-02 0. -1.
</event>
<event>
 5   0  0.1948507E-06  0.3402354E+04  0.7818609E-02  0.8137329E-01
        2   -1    0    0  501    0  0.00000000000E+00  0.00000000000E+00  0.28314823745E+04  0.28314823745E+04  0.25500000920E-02 0. -1.
       -2   -1    0    0    0  501  0.00000000000E+00  0.00000000000E+00 -0.10220808812E+04  0.10220808812E+04  0.25500000920E-02 0.  1.
    10030    2    1    2    0    0  0.00000000000E+00  0.00000000000E+00  0.18094014932E+04  0.38535632557E+04  0.34023544792E+04 0.  0.
        1    1    3    3  502    0 -0.12146597325E+04  0.68421183601E+03  0.20089060583E+04  0.24452500186E+04  0.50400001928E-02 0. -1.
       -1    1    3    3    0  502  0.12146597325E+04 -0.68421183601E+03 -0.19950456502E+03  0.14083132371E+04  0.50400001928E-02 0.  1.
</event>
<event>
 5   0  0.1911477E-06  0.3388840E+04  0.7818609E-02  0.8140651E-01
       -2   -1    0    0    0  501  0.00000000000E+00  0.00000000000E+00  0.10825849627E+04  0.10825849627E+04  0.25500000920E-02 0.  1.
        2   -1    0    0  501    0  0.00000000000E+00  0.00000000000E+00 -0.26520410126E+04  0.26520410126E+04  0.25500000920E-02 0. -1.
    10030    2    1    2    0    0  0.00000000000E+00  0.00000000000E+00 -0.15694560499E+04  0.37346259754E+04  0.33888403449E+04 0.  0.
        5    1    3    3  502    0 -0.77429689048E+03  0.13235170133E+04  0.98125748043E+01  0.15334116655E+04  0.46999998093E+01 0.  1.
       -5    1    3    3    0  502  0.77429689048E+03 -0.13235170133E+04 -0.15792686247E+04  0.22012143099E+04  0.46999998093E+01 0. -1.
</event>
<event>
 5   0  0.1339844E-06  0.3390484E+04  0.7818609E-02  0.8140246E-01
        2   -1    0    0  501    0  0.00000000000E+00  0.00000000000E+00  0.14616030315E+04  0.14616030315E+04  0.25500000920E-02 0.  1.
       -2   -1    0    0    0  501  0.00000000000E+00  0.00000000000E+00 -0.19662282820E+04  0.19662282820E+04  0.25500000920E-02 0. -1.
    10030    2    1    2    0    0  0.00000000000E+00  0.00000000000E+00 -0.50462525049E+03  0.34278313134E+04  0.33904838696E+04 0.  0.
        3    1    3    3  502    0  0.83286112969E+03 -0.74100957136E+03  0.10388978364E+04  0.15238312147E+04  0.10100000352E+00 0.  1.
       -3    1    3    3    0  502 -0.83286112969E+03  0.74100957136E+03 -0.15435230869E+04  0.19040000988E+04  0.10100000352E+00 0. -1.
</event>
<event>
 5   0  0.6146388E-07  0.3405696E+04  0.7818609E-02  0.8136510E-01
        1   -1    0    0  501    0  0.00000000000E+00  0.00000000000E+00  0.20617620536E+04  0.20617620536E+04  0.50400001928E-02 0. -1.
       -1   -1    0    0    0  501  0.00000000000E+00  0.00000000000E+00 -0.14064138444E+04  0.14064138444E+04  0.50400001928E-02 0.  1.
    10030    2    1    2    0    0  0.00000000000E+00  0.00000000000E+00  0.65534820919E+03  0.34681758979E+04  0.34056956387E+04 0.  0.
        4    1    3    3  502    0  0.86800198555E+03  0.16082247365E+03 -0.11551988754E+04  0.14538835474E+04  0.12699999809E+01 0.  1.
       -4    1    3    3    0  502 -0.86800198555E+03 -0.16082247365E+03  0.18105470846E+04  0.20142923505E+04  0.12699999809E+01 0. -1.
</event>
<event>
 5   0  0.1948507E-06  0.3406108E+04  0.7818609E-02  0.8136409E-01
        2   -1    0    0  501    0  0.00000000000E+00  0.00000000000E+00  0.17077337503E+04  0.17077337504E+04  0.25500000920E-02 0.  1.
       -2   -1    0    0    0  501  0.00000000000E+00  0.00000000000E+00 -0.16983870075E+04  0.16983870075E+04  0.25500000920E-02 0. -1.
    10030    2    1    2    0    0  0.00000000000E+00  0.00000000000E+00  0.93467428354E+01  0.34061207579E+04  0.34061079336E+04 0.  0.
        1    1    3    3  502    0 -0.23888616785E+03 -0.10565427667E+04  0.13188486259E+04  0.17066666099E+04  0.50400001928E-02 0.  1.
       -1    1    3    3    0  502  0.23888616785E+03  0.10565427667E+04 -0.13095018831E+04  0.16994541480E+04  0.50400001928E-02 0. -1.
</event>
<event>
 5   0  0.6146388E-07  0.2607451E+04  0.7818609E-02  0.8365675E-01
        1   -1    0    0  501    0  0.00000000000E+00  0.00000000000E+00  0.17979514131E+04  0.17979514131E+04  0.50400001928E-02 0.  1.
       -1   -1    0    0    0  501  0.00000000000E+00  0.00000000000E+00 -0.94535364195E+03  0.94535364196E+03  0.50400001928E-02 0. -1.
    10030    2    1    2    0    0  0.00000000000E+00  0.00000000000E+00  0.85259777119E+03  0.27433050551E+04  0.26074507984E+04 0.  0.
        4    1    3    3  502    0 -0.60634006622E+03  0.46229714765E+03 -0.68631182455E+03  0.10258618143E+04  0.12699999809E+01 0. -1.
       -4    1    3    3    0  502  0.60634006622E+03 -0.46229714765E+03  0.15389095957E+04  0.17174432408E+04  0.12699999809E+01 0.  1.
</event>
<event>
 5   0  0.1339844E-06  0.3316089E+04  0.7818609E-02  0.8158814E-01
        2   -1    0    0  501    0  0.00000000000E+00  0.00000000000E+00  0.17318510563E+04  0.17318510563E+04  0.25500000920E-02 0.  1.
       -2   -1    0    0    0  501  0.00000000000E+00  0.00000000000E+00 -0.15873829532E+04  0.15873829532E+04  0.25500000920E-02 0. -1.
    10030    2    1    2    0    0  0.00000000000E+00  0.00000000000E+00  0.14446810309E+03  0.33192340094E+04  0.33160885659E+04 0.  0.
        3    1    3    3  502    0 -0.71626326122E+02 -0.90612971171E+03 -0.13157713855E+04  0.15992047192E+04  0.10100000352E+00 0. -1.
       -3    1    3    3    0  502  0.71626326122E+02  0.90612971171E+03  0.14602394885E+04  0.17200292902E+04  0.10100000352E+00 0.  1.
</event>
<event>
 5   0  0.1880301E-06  0.3472974E+04  0.7818609E-02  0.8120225E-01
        2   -1    0    0  501    0  0.00000000000E+00  0.00000000000E+00  0.11280153933E+04  0.11280153933E+04  0.25500000920E-02 0.  1.
       -2   -1    0    0    0  501  0.00000000000E+00  0.00000000000E+00 -0.26731797381E+04  0.26731797381E+04  0.25500000920E-02 0. -1.
    10030    2    1    2    0    0  0.00000000000E+00  0.00000000000E+00 -0.15451643447E+04  0.38011951314E+04  0.34729744564E+04 0.  0.
        4    1    3    3  502    0 -0.13404288906E+04  0.11489534841E+03  0.42910273080E+03  0.14121194419E+04  0.12699999809E+01 0.  1.
       -4    1    3    3    0  502  0.13404288906E+04 -0.11489534841E+03 -0.19742670756E+04  0.23890756895E+04  0.12699999809E+01 0. -1.
</event>
<event>
 5   0  0.6134625E-07  0.3192188E+04  0.7818609E-02  0.8190883E-01
       -1   -1    0    0    0  501  0.00000000000E+00  0.00000000000E+00  0.11181758846E+04  0.11181758846E+04  0.50400001928E-02 0.  1.
        1   -1    0    0  501    0  0.00000000000E+00  0.00000000000E+00 -0.22782777999E+04  0.22782777999E+04  0.50400001928E-02 0. -1.
    10030    2    1    2    0    0  0.00000000000E+00  0.00000000000E+00 -0.11601019153E+04  0.33964536845E+04  0.31921875222E+04 0.  0.
        1    1    3    3  502    0  0.25539466603E+03  0.15701291530E+04 -0.71871005378E+03  0.17455876185E+04  0.50400001928E-02 0. -1.
       -1    1    3    3    0  502 -0.25539466603E+03 -0.15701291530E+04 -0.44139186152E+03  0.16508660660E+04  0.50400001928E-02 0.  1.
</event>
<event>
 5   0  0.1948507E-06  0.3428710E+04  0.7818609E-02  0.8130896E-01
       -2   -1    0    0    0  501  0.00000000000E+00  0.00000000000E+00  0.18407577936E+04  0.18407577936E+04  0.25500000920E-02 0. -1.
        2   -1    0    0  501    0  0.00000000000E+00  0.00000000000E+00 -0.15966322849E+04  0.15966322849E+04  0.25500000920E-02 0.  1.
    10030    2    1    2    0    0  0.00000000000E+00  0.00000000000E+00  0.24412550870E+03  0.34373900785E+04  0.34287101493E+04 0.  0.
        1    1    3    3  502    0  0.51354365095E+03  0.16347840372E+04  0.17480193675E+03  0.17224406077E+04  0.50400001928E-02 0. -1.
       -1    1    3    3    0  502 -0.51354365095E+03 -0.16347840372E+04  0.69323571948E+02  0.17149494708E+04  0.50400001928E-02 0.  1.
</event>
<event>
 5   0  0.6134625E-07  0.3034626E+04  0.7818609E-02  0.8233912E-01
        1   -1    0    0  501    0  0.00000000000E+00  0.00000000000E+00  0.20164193841E+04  0.20164193841E+04  0.50400001928E-02 0. -1.
       -1   -1    0    0    0  501  0.00000000000E+00  0.00000000000E+00 -0.11417460718E+04  0.11417460719E+04  0.50400001928E-02 0.  1.
    10030    2    1    2    0    0  0.00000000000E+00  0.00000000000E+00  0.87467331227E+03  0.31581654560E+04  0.30346261127E+04 0.  0.
        3    1    3    3  502    0 -0.69324388224E+03  0.30376533695E+03 -0.93125758623E+03  0.12000421502E+04  0.10100000352E+00 0.  1.
       -3    1    3    3    0  502  0.69324388224E+03 -0.30376533695E+03  0.18059308985E+04  0.19581233058E+04  0.10100000352E+00 0. -1.
</event>
<event>
 5   0  0.6134625E-07  0.3384563E+04  0.7818609E-02  0.8141705E-01
        1   -1    0    0  501    0  0.00000000000E+00  0.00000000000E+00  0.22802719505E+04  0.22802719505E+04  0.50400001928E-02 0. -1.
       -1   -1    0    0    0  501  0.00000000000E+00  0.00000000000E+00 -0.12559105047E+04  0.12559105047E+04  0.50400001928E-02 0.  1.
    10030    2    1    2    0    0  0.00000000000E+00  0.00000000000E+00  0.10243614458E+04  0.35361824552E+04  0.33845634851E+04 0.  0.
        5    1    3    3  502    0  0.13278003546E+04  0.32574563826E+03  0.15541696023E+04  0.20699345992E+04  0.46999998093E+01 0. -1.
       -5    1    3    3    0  502 -0.13278003546E+04 -0.32574563826E+03 -0.52980815648E+03  0.14662478560E+04  0.46999998093E+01 0.  1.
</event>
<event>
 5   0  0.6146388E-07  0.3597609E+04  0.7818609E-02  0.8091040E-01
       -1   -1    0    0    0  501  0.00000000000E+00  0.00000000000E+00  0.13312280446E+04  0.13312280446E+04  0.50400001928E-02 0.  1.
        1   -1    0    0  501    0  0.00000000000E+00  0.00000000000E+00 -0.24306105995E+04  0.24306105995E+04  0.50400001928E-02 0. -1.
    10030    2    1    2    0    0  0.00000000000E+00  0.00000000000E+00 -0.10993825549E+04  0.37618386441E+04  0.35976086477E+04 0.  0.
        4    1    3    3  502    0  0.14682983745E+03 -0.12035479946E+04 -0.19391110135E+04  0.22869717777E+04  0.12699999809E+01 0. -1.
       -4    1    3    3    0  502 -0.14682983745E+03  0.12035479946E+04  0.83972845860E+03  0.14748668664E+04  0.12699999809E+01 0.  1.
</event>
<event>
 5   0  0.6134625E-07  0.3664702E+04  0.7818609E-02  0.8075830E-01
       -1   -1    0    0    0  501  0.00000000000E+00  0.00000000000E+00  0.16272435406E+04  0.16272435406E+04  0.50400001928E-02 0.  1.
        1   -1    0    0  501    0  0.00000000000E+00  0.00000000000E+00 -0.20633116630E+04  0.20633116630E+04  0.50400001928E-02 0. -1.
    10030    2    1    2    0    0  0.00000000000E+00  0.00000000000E+00 -0.43606812245E+03  0.36905552036E+04  0.36647022121E+04 0.  0.
        1    1    3    3  502    0 -0.17504543474E+04 -0.49922618125E+03 -0.63288279365E+01  0.18202629635E+04  0.50400001928E-02 0.  1.
       -1    1    3    3    0  502  0.17504543474E+04  0.49922618125E+03 -0.42973929451E+03  0.18702922401E+04  0.50400001928E-02 0. -1.
</event>
<event>
 5   0  0.6134625E-07  0.3027799E+04  0.7818609E-02  0.8235837E-01
        1   -1    0    0  501    0  0.00000000000E+00  0.00000000000E+00  0.20682989594E+04  0.20682989594E+04  0.50400001928E-02 0.  1.
       -1   -1    0    0    0  501  0.00000000000E+00  0.00000000000E+00 -0.11081049990E+04  0.11081049990E+04  0.50400001928E-02 0. -1.
    10030    2    1    2    0    0  0.00000000000E+00  0.00000000000E+00  0.96019396042E+03  0.31764039584E+04  0.30277994757E+04 0.  0.
        3    1    3    3  502    0  0.23846986244E+03  0.12784750385E+04 -0.33287310516E+03  0.13424495572E+04  0.10100000352E+00 0. -1.
       -3    1    3    3    0  502 -0.23846986244E+03 -0.12784750385E+04  0.12930670656E+04  0.18339544012E+04  0.10100000352E+00 0.  1.
</event>
<event>
 5   0  0.6146388E-07  0.3383570E+04  0.7818609E-02  0.8141951E-01
       -1   -1    0    0    0  501  0.00000000000E+00  0.00000000000E+00  0.16771076211E+04  0.16771076211E+04  0.50400001928E-02 0. -1.
        1   -1    0    0  501    0  0.00000000000E+00  0.00000000000E+00 -0.17065909934E+04  0.17065909934E+04  0.50400001928E-02 0.  1.
    10030    2    1    2    0    0  0.00000000000E+00  0.00000000000E+00 -0.29483372330E+02  0.33836986145E+04  0.33835701625E+04 0.  0.
        4    1    3    3  502    0 -0.75416384252E+03 -0.15118653417E+04 -0.10212483854E+03  0.16926107078E+04  0.12699999809E+01 0. -1.
       -4    1    3    3    0  502  0.75416384252E+03  0.15118653417E+04  0.72641466206E+02  0.16910879067E+04  0.12699999809E+01 0.  1.
</event>
<event>
 5   0  0.6134625E-07  0.3385988E+04  0.7818609E-02  0.8141354E-01
       -1   -1    0    0    0  501  0.00000000000E+00  0.00000000000E+00  0.12440232227E+04  0.12440232228E+04  0.50400001928E-02 0.  1.
        1   -1    0    0  501    0  0.00000000000E+00  0.00000000000E+00 -0.23039989634E+04  0.23039989634E+04  0.50400001928E-02 0. -1.
    10030    2    1    2    0    0  0.00000000000E+00  0.00000000000E+00 -0.10599757407E+04  0.35480221862E+04  0.33859877234E+04 0.  0.
        1    1    3    3  502    0 -0.23952034956E+03  0.71323232518E+03  0.10592165700E+04  0.12992344245E+04  0.50400001928E-02 0.  1.
       -1    1    3    3    0  502  0.23952034956E+03 -0.71323232518E+03 -0.21191923107E+04  0.22487877617E+04  0.50400001928E-02 0. -1.
</event>
<event>
 5   0  0.6134625E-07  0.3380905E+04  0.7818609E-02  0.8142609E-01
       -1   -1    0    0    0  501  0.00000000000E+00  0.00000000000E+00  0.14695661583E+04  0.14695661583E+04  0.50400001928E-02 0.  1.
        1   -1    0    0  501    0  0.00000000000E+00  0.00000000000E+00 -0.19445394884E+04  0.19445394884E+04  0.50400001928E-02 0. -1.
    10030    2    1    2    0    0  0.00000000000E+00  0.00000000000E+00 -0.47497333011E+03  0.34141056468E+04  0.33809048645E+04 0.  0.
        1    1    3    3  502    0  0.12189401281E+04 -0.85337206407E+03 -0.10475930839E+04  0.18197555289E+04  0.50400001928E-02 0. -1.
       -1    1    3    3    0  502 -0.12189401281E+04  0.85337206407E+03  0.57261975379E+03  0.15943501178E+04  0.50400001928E-02 0.  1.
</event>
<event>
 5   0  0.6134625E-07  0.3375835E+04  0.7818609E-02  0.8143863E-01
        1   -1    0    0  501    0  0.00000000000E+00  0.00000000000E+00  0.16553700299E+04  0.16553700299E+04  0.50400001928E-02 0. -1.
       -1   -1    0    0    0  501  0.00000000000E+00  0.00000000000E+00 -0.17211044686E+04  0.17211044686E+04  0.50400001928E-02 0.  1.
    10030    2    1    2    0    0  0.00000000000E+00  0.00000000000E+00 -0.65734438751E+02  0.33764744985E+04  0.33758345668E+04 0.  0.
        3    1    3    3  502    0  0.12357104490E+03 -0.37761419107E+03 -0.16736666781E+04  0.17201809324E+04  0.10100000352E+00 0.  1.
       -3    1    3    3    0  502 -0.12357104490E+03  0.37761419107E+03  0.16079322394E+04  0.16562935661E+04  0.10100000352E+00 0. -1.
</event>
<event>
 5   0  0.1339844E-06  0.3161722E+04  0.7818609E-02  0.8199000E-01
        2   -1    0    0  501    0  0.00000000000E+00  0.00000000000E+00  0.18825713812E+04  0.18825713812E+04  0.25500000920E-02 0.  1.
       -2   -1    0    0    0  501  0.00000000000E+00  0.00000000000E+00 -0.13275039850E+04  0.13275039850E+04  0.25500000920E-02 0. -1.
    10030    2    1    2    0    0  0.00000000000E+00  0.00000000000E+00  0.55506739620E+03  0.32100753662E+04  0.31617216895E+04 0.  0.
        3    1    3    3  502    0 -0.30368536456E+03 -0.24048432247E+03  0.18336389479E+04  0.18741102719E+04  0.10100000352E+00 0.  1.
       -3    1    3    3    0  502  0.30368536456E+03  0.24048432247E+03 -0.12785715517E+04  0.13359650942E+04  0.10100000352E+00 0. -1.
</event>
<event>
 5   0  0.1797075E-06  0.3366820E+04  0.7818609E-02  0.8146098E-01
       -2   -1    0    0    0  501  0.00000000000E+00  0.00000000000E+00  0.19477993717E+04  0.19477993717E+04  0.25500000920E-02 0. -1.
        2   -1    0    0  501    0  0.00000000000E+00  0.00000000000E+00 -0.14549083129E+04  0.14549083129E+04  0.25500000920E-02 0.  1.
    10030    2    1    2    0    0  0.00000000000E+00  0.00000000000E+00  0.49289105874E+03  0.34027076846E+04  0.33668201602E+04 0.  0.
        2    1    3    3  502    0  0.40280884922E+01  0.27641510088E+03 -0.14318111552E+04  0.14582539963E+04  0.25500000920E-02 0.  1.
       -2    1    3    3    0  502 -0.40280884922E+01 -0.27641510088E+03  0.19247022140E+04  0.19444536883E+04  0.25500000920E-02 0. -1.
</event>
<event>
 5   0  0.6134625E-07  0.3039652E+04  0.7818609E-02  0.8232498E-01
       -1   -1    0    0    0  501  0.00000000000E+00  0.00000000000E+00  0.14269210408E+04  0.14269210408E+04  0.50400001928E-02 0.  1.
        1   -1    0    0  501    0  0.00000000000E+00  0.00000000000E+00 -0.16187794882E+04  0.16187794882E+04  0.50400001928E-02 0. -1.
    10030    2    1    2    0    0  0.00000000000E+00  0.00000000000E+00 -0.19185844734E+03  0.30457005290E+04  0.30396516328E+04 0.  0.
        5    1    3    3  502    0 -0.13933838826E+04  0.55359848171E+03 -0.34513785170E+03  0.15385487155E+04  0.46999998093E+01 0. -1.
       -5    1    3    3    0  502  0.13933838826E+04 -0.55359848171E+03  0.15327940435E+03  0.15071518135E+04  0.46999998093E+01 0.  1.
</event>
<event>
 5   0  0.1339844E-06  0.3405174E+04  0.7818609E-02  0.8136638E-01
       -2   -1    0    0    0  501  0.00000000000E+00  0.00000000000E+00  0.10140668572E+04  0.10140668572E+04  0.25500000920E-02 0.  1.
        2   -1    0    0  501    0  0.00000000000E+00  0.00000000000E+00 -0.28585903909E+04  0.28585903909E+04  0.25500000920E-02 0. -1.
    10030    2    1    2    0    0  0.00000000000E+00  0.00000000000E+00 -0.18445235337E+04  0.38726572482E+04  0.34051735778E+04 0.  0.
        3    1    3    3  502    0 -0.55496211319E+03 -0.11248457301E+04  0.38712025188E+03  0.13126777835E+04  0.10100000352E+00 0.  1.
       -3    1    3    3    0  502  0.55496211319E+03  0.11248457301E+04 -0.22316437856E+04  0.25599794647E+04  0.10100000352E+00 0. -1.
</event>
<event>
 5   0  0.1948507E-06  0.3329273E+04  0.7818609E-02  0.8155487E-01
       -2   -1    0    0    0  501  0.00000000000E+00  0.00000000000E+00  0.13150439779E+04  0.13150439779E+04  0.25500000920E-02 0.  1.
        2   -1    0    0  501    0  0.00000000000E+00  0.00000000000E+00 -0.21071649089E+04  0.21071649089E+04  0.25500000920E-02 0. -1.
    10030    2    1    2    0    0  0.00000000000E+00  0.00000000000E+00 -0.79212093109E+03  0.34222088868E+04  0.33292729079E+04 0.  0.
        1    1    3    3  502    0  0.71109047654E+03 -0.13279147838E+04  0.33224251045E+03  0.15425279332E+04  0.50400001928E-02 0.  1.
       -1    1    3    3    0  502 -0.71109047654E+03  0.13279147838E+04 -0.11243634415E+04  0.18796809536E+04  0.50400001928E-02 0. -1.
</event>
<event>
 5   0  0.1880301E-06  0.3424448E+04  0.7818609E-02  0.8131932E-01
       -2   -1    0    0    0  501  0.00000000000E+00  0.00000000000E+00  0.27408869061E+04  0.27408869061E+04  0.25500000920E-02 0.  1.
        2   -1    0    0  501    0  0.00000000000E+00  0.00000000000E+00 -0.10696215059E+04  0.10696215059E+04  0.25500000920E-02 0. -1.
    10030    2    1    2    0    0  0.00000000000E+00  0.00000000000E+00  0.16712654003E+04  0.38105084120E+04  0.34244483234E+04 0.  0.
        4    1    3    3  502    0  0.67791766541E+03 -0.15681733911E+04  0.70890857390E+03  0.18496737887E+04  0.12699999809E+01 0.  1.
       -4    1    3    3    0  502 -0.67791766541E+03  0.15681733911E+04  0.96235682636E+03  0.19608346233E+04  0.12699999809E+01 0. -1.
</event>
<event>
 5   0  0.1797075E-06  0.3426829E+04  0.7818609E-02  0.8131353E-01
       -2   -1    0    0    0  501  0.00000000000E+00  0.00000000000E+00  0.20038480469E+04  0.20038480469E+04  0.25500000920E-02 0. -1.
        2   -1    0    0  501    0  0.00000000000E+00  0.00000000000E+00 -0.14650761202E+04  0.14650761202E+04  0.25500000920E-02 0.  1.
    10030    2    1    2    0    0  0.00000000000E+00  0.00000000000E+00  0.53877192667E+03  0.34689241672E+04  0.34268293930E+04 0.  0.
        2    1    3    3  502    0 -0.68795876259E+03  0.98193693511E+03 -0.96970182666E+03  0.15420146031E+04  0.25500000920E-02 0.  1.
       -2    1    3    3    0  502  0.68795876259E+03 -0.98193693511E+03  0.15084737533E+04  0.19269095641E+04  0.25500000920E-02 0. -1.
</event>
<event>
 5   0  0.6134625E-07  0.3114707E+04  0.7818609E-02  0.8211713E-01
        1   -1    0    0  501    0  0.00000000000E+00  0.00000000000E+00  0.12067017781E+04  0.12067017781E+04  0.50400001928E-02 0.  1.
       -1   -1    0    0    0  501  0.00000000000E+00  0.00000000000E+00 -0.20099001815E+04  0.20099001815E+04  0.50400001928E-02 0. -1.
    10030    2    1    2    0    0  0.00000000000E+00  0.00000000000E+00 -0.80319840337E+03  0.32166019596E+04  0.31147071277E+04 0.  0.
        3    1    3    3  502    0 -0.12685258718E+04 -0.67206273484E+03 -0.10251087561E+04  0.17639938149E+04  0.10100000352E+00 0.  1.
       -3    1    3    3    0  502  0.12685258718E+04  0.67206273484E+03  0.22191035271E+03  0.14526081447E+04  0.10100000352E+00 0. -1.
</event>
<event>
 5   0  0.1797075E-06  0.3441335E+04  0.7818609E-02  0.8127835E-01
       -2   -1    0    0    0  501  0.00000000000E+00  0.00000000000E+00  0.14140418987E+04  0.14140418987E+04  0.25500000920E-02 0. -1.
        2   -1    0    0  501    0  0.00000000000E+00  0.00000000000E+00 -0.20937824279E+04  0.20937824279E+04  0.25500000920E-02 0.  1.
    10030    2    1    2    0    0  0.00000000000E+00  0.00000000000E+00 -0.67974052914E+03  0.35078243266E+04  0.34413346712E+04 0.  0.
        2    1    3    3  502    0  0.12315839355E+04  0.11206285116E+04  0.10220114296E+03  0.16682482804E+04  0.25500000920E-02 0. -1.
       -2    1    3    3    0  502 -0.12315839355E+04 -0.11206285116E+04 -0.78194167210E+03  0.18395760462E+04  0.25500000920E-02 0.  1.
</event>
<event>
 5   0  0.6134625E-07  0.3419417E+04  0.7818609E-02  0.8133157E-01
       -1   -1    0    0    0  501  0.00000000000E+00  0.00000000000E+00  0.11154813305E+04  0.11154813305E+04  0.50400001928E-02 0. -1.
        1   -1    0    0  501    0  0.00000000000E+00  0.00000000000E+00 -0.26204862862E+04  0.26204862862E+04  0.50400001928E-02 0.  1.
    10030    2    1    2    0    0  0.00000000000E+00  0.00000000000E+00 -0.15050049557E+04  0.37359676167E+04  0.34194172188E+04 0.  0.
        3    1    3    3  502    0  0.11475016492E+04  0.51522555653E+03  0.51266189838E+03  0.13583223628E+04  0.10100000352E+00 0. -1.
       -3    1    3    3    0  502 -0.11475016492E+04 -0.51522555653E+03 -0.20176668541E+04  0.23776452539E+04  0.10100000352E+00 0.  1.
</event>
<event>
 5   0  0.6218695E-07  0.3429081E+04  0.7818609E-02  0.8130806E-01
       -1   -1    0    0    0  501  0.00000000000E+00  0.00000000000E+00  0.17851519995E+04  0.17851519996E+04  0.50400001928E-02 0.  1.
        1   -1    0    0  501    0  0.00000000000E+00  0.00000000000E+00 -0.16467218228E+04  0.16467218228E+04  0.50400001928E-02 0. -1.
    10030    2    1    2    0    0  0.00000000000E+00  0.00000000000E+00  0.13843017674E+03  0.34318738224E+04  0.34290807834E+04 0.  0.
        2    1    3    3  502    0 -0.12120335758E+04 -0.70656088853E+03 -0.91718146148E+03  0.16761490123E+04  0.25500000920E-02 0. -1.
       -2    1    3    3    0  502  0.12120335758E+04  0.70656088853E+03  0.10556116382E+04  0.17557248101E+04  0.25500000920E-02 0.  1.
</event>
<event>
 5   0  0.1911477E-06  0.3005073E+04  0.7818609E-02  0.8242284E-01
        2   -1    0    0  501    0  0.00000000000E+00  0.00000000000E+00  0.26922420198E+04  0.26922420198E+04  0.25500000920E-02 0. -1.
       -2   -1    0    0    0  501  0.00000000000E+00  0.00000000000E+00 -0.83856332151E+03  0.83856332152E+03  0.25500000920E-02 0.  1.
    10030    2    1    2    0    0  0.00000000000E+00  0.00000000000E+00  0.18536786983E+04  0.35308053413E+04  0.30050726517E+04 0.  0.
        5    1    3    3  502    0  0.10875137923E+04  0.26499455029E+02 -0.29092247016E+03  0.11260756827E+04  0.46999998093E+01 0. -1.
       -5    1    3    3    0  502 -0.10875137923E+04 -0.26499455029E+02  0.21446011684E+04  0.24047296586E+04  0.46999998093E+01 0.  1.
</event>
<event>
 5   0  0.6218695E-07  0.3618251E+04  0.7818609E-02  0.8086324E-01
        1   -1    0    0  501    0  0.00000000000E+00  0.00000000000E+00  0.18202456442E+04  0.18202456442E+04  0.50400001928E-02 0.  1.
       -1   -1    0    0    0  501  0.00000000000E+00  0.00000000000E+00 -0.17980735896E+04  0.17980735896E+04  0.50400001928E-02 0. -1.
    10030    2    1    2    0    0  0.00000000000E+00  0.00000000000E+00  0.22172054612E+02  0.36183192338E+04  0.36182513011E+04 0.  0.
        2    1    3    3  502    0  0.11703951543E+04 -0.13408220961E+04 -0.31343032559E+03  0.18071710709E+04  0.25500000920E-02 0.  1.
       -2    1    3    3    0  502 -0.11703951543E+04  0.13408220961E+04  0.33560238020E+03  0.18111481629E+04  0.25500000920E-02 0. -1.
</event>
<event>
 5   0  0.1948507E-06  0.3118038E+04  0.7818609E-02  0.8210805E-01
        2   -1    0    0  501    0  0.00000000000E+00  0.00000000000E+00  0.23964116316E+04  0.23964116316E+04  0.25500000920E-02 0. -1.
       -2   -1    0    0    0  501  0.00000000000E+00  0.00000000000E+00 -0.10142414811E+04  0.10142414811E+04  0.25500000920E-02 0.  1.
    10030    2    1    2    0    0  0.00000000000E+00  0.00000000000E+00  0.13821701505E+04  0.34106531127E+04  0.31180378975E+04 0.  0.
        1    1    3    3  502    0 -0.36622544804E+03 -0.15135164785E+04  0.60859666499E+03  0.16718980561E+04  0.50400001928E-02 0. -1.
       -1    1    3    3    0  502  0.36622544804E+03  0.15135164785E+04  0.77357348551E+03  0.17387550566E+04  0.50400001928E-02 0.  1.
</event>
<event>
 5   0  0.1880301E-06  0.3413674E+04  0.7818609E-02  0.8134558E-01
       -2   -1    0    0    0  501  0.00000000000E+00  0.00000000000E+00  0.10147009853E+04  0.10147009853E+04  0.25500000920E-02 0. -1.
        2   -1    0    0  501    0  0.00000000000E+00  0.00000000000E+00 -0.28710849816E+04  0.28710849816E+04  0.25500000920E-02 0.  1.
    10030    2    1    2    0    0  0.00000000000E+00  0.00000000000E+00 -0.18563839963E+04  0.38857859669E+04  0.34136741261E+04 0.  0.
        4    1    3    3  502    0  0.14995110061E+04  0.53290995137E+03 -0.16305932117E+04  0.22784560801E+04  0.12699999809E+01 0.  1.
       -4    1    3    3    0  502 -0.14995110061E+04 -0.53290995137E+03 -0.22579078459E+03  0.16073298868E+04  0.12699999809E+01 0. -1.
</event>
<event>
 5   0  0.6134625E-07  0.3195049E+04  0.7818609E-02  0.8190126E-01
       -3   -1    0    0    0  501  0.00000000000E+00  0.00000000000E+00  0.17876889836E+04  0.17876889864E+04  0.10100000352E+00 0.  1.
        3   -1    0    0  501    0  0.00000000000E+00  0.00000000000E+00 -0.14275890835E+04  0.14275890871E+04  0.10100000352E+00 0. -1.
    10030    2    1    2    0    0  0.00000000000E+00  0.00000000000E+00  0.36009990003E+03  0.32152780735E+04  0.31950494757E+04 0.  0.
        3    1    3    3  502    0  0.80303505384E+02  0.35558219598E+03 -0.13851746036E+04  0.14323393605E+04  0.10100000352E+00 0. -1.
       -3    1    3    3    0  502 -0.80303505384E+02 -0.35558219598E+03  0.17452745036E+04  0.17829387130E+04  0.10100000352E+00 0.  1.
</event>
<event>
 5   0  0.6134625E-07  0.3065385E+04  0.7818609E-02  0.8225302E-01
        1   -1    0    0  501    0  0.00000000000E+00  0.00000000000E+00  0.20863929620E+04  0.20863929620E+04  0.50400001928E-02 0.  1.
       -1   -1    0    0    0  501  0.00000000000E+00  0.00000000000E+00 -0.11259369651E+04  0.11259369651E+04  0.50400001928E-02 0. -1.
    10030    2    1    2    0    0  0.00000000000E+00  0.00000000000E+00  0.96045599688E+03  0.32123299271E+04  0.30653854306E+04 0.  0.
        3    1    3    3  502    0 -0.13114113170E+04  0.70067596118E+03  0.87008370132E+03  0.17227280988E+04  0.10100000352E+00 0.  1.
       -3    1    3    3    0  502  0.13114113170E+04 -0.70067596118E+03  0.90372295557E+02  0.14896018283E+04  0.10100000352E+00 0. -1.
</event>
<event>
 5   0  0.1339844E-06  0.3290934E+04  0.7818609E-02  0.8165206E-01
        2   -1    0    0  501    0  0.00000000000E+00  0.00000000000E+00  0.19557190361E+04  0.19557190361E+04  0.25500000920E-02 0. -1.
       -2   -1    0    0    0  501  0.00000000000E+00  0.00000000000E+00 -0.13844324461E+04  0.13844324461E+04  0.25500000920E-02 0.  1.
    10030    2    1    2    0    0  0.00000000000E+00  0.00000000000E+00  0.57128658993E+03  0.33401514822E+04  0.32909335387E+04 0.  0.
        3    1    3    3  502    0  0.13304259593E+04  0.48656234644E+02  0.12671427507E+04  0.18379476116E+04  0.10100000352E+00 0. -1.
       -3    1    3    3    0  502 -0.13304259593E+04 -0.48656234644E+02 -0.69585616073E+03  0.15022038706E+04  0.10100000352E+00 0.  1.
</event>
<event>
 5   0  0.6134625E-07  0.3299609E+04  0.7818609E-02  0.8162995E-01
        1   -1    0    0  501    0  0.00000000000E+00  0.00000000000E+00  0.16551989968E+04  0.16551989968E+04  0.50400001928E-02 0. -1.
       -1   -1    0    0    0  501  0.00000000000E+00  0.00000000000E+00 -0.16444273767E+04  0.16444273768E+04  0.50400001928E-02 0.  1.
    10030    2    1    2    0    0  0.00000000000E+00  0.00000000000E+00  0.10771620055E+02  0.32996263736E+04  0.32996087916E+04 0.  0.
        3    1    3    3  502    0 -0.10793087149E+02  0.72143224143E+03 -0.14782910495E+04  0.16449697283E+04  0.10100000352E+00 0.  1.
       -3    1    3    3    0  502  0.10793087149E+02 -0.72143224143E+03  0.14890626696E+04  0.16546566453E+04  0.10100000352E+00 0. -1.
</event>
<event>
 5   0  0.6218695E-07  0.3355174E+04  0.7818609E-02  0.8148996E-01
       -1   -1    0    0    0  501  0.00000000000E+00  0.00000000000E+00  0.25796170251E+04  0.25796170251E+04  0.50400001928E-02 0. -1.
        1   -1    0    0  501    0  0.00000000000E+00  0.00000000000E+00 -0.10909754547E+04  0.10909754547E+04  0.50400001928E-02 0.  1.
    10030    2    1    2    0    0  0.00000000000E+00  0.00000000000E+00  0.14886415704E+04  0.36705924798E+04  0.33551744258E+04 0.  0.
        2    1    3    3  502    0 -0.13022496834E+04  0.32215191052E+03 -0.35768006489E+03  0.13883699507E+04  0.25500000920E-02 0.  1.
       -2    1    3    3    0  502  0.13022496834E+04 -0.32215191052E+03  0.18463216353E+04  0.22822225291E+04  0.25500000920E-02 0. -1.
</event>
<event>
 5   0  0.1797075E-06  0.2513015E+04  0.7818609E-02  0.8398364E-01
        2   -1    0    0  501    0  0.00000000000E+00  0.00000000000E+00  0.16614027119E+04  0.16614027119E+04  0.25500000920E-02 0.  1.
       -2   -1    0    0    0  501  0.00000000000E+00  0.00000000000E+00 -0.95028772660E+03  0.95028772660E+03  0.25500000920E-02 0. -1.
    10030    2    1    2    0    0  0.00000000000E+00  0.00000000000E+00  0.71111498533E+03  0.26116904385E+04  0.25130146089E+04 0.  0.
        2    1    3    3  502    0 -0.45241275520E+03  0.92228986038E+03  0.11075112504E+04  0.15105883150E+04  0.25500000920E-02 0.  1.
       -2    1    3    3    0  502  0.45241275520E+03 -0.92228986038E+03 -0.39639626502E+03  0.11011021236E+04  0.25500000920E-02 0. -1.
</event>
<event>
 5   0  0.6134625E-07  0.2772260E+04  0.7818609E-02  0.8311933E-01
        1   -1    0    0  501    0  0.00000000000E+00  0.00000000000E+00  0.16336569965E+04  0.16336569965E+04  0.50400001928E-02 0. -1.
       -1   -1    0    0    0  501  0.00000000000E+00  0.00000000000E+00 -0.11761071912E+04  0.11761071912E+04  0.50400001928E-02 0.  1.
    10030    2    1    2    0    0  0.00000000000E+00  0.00000000000E+00  0.45754980525E+03  0.28097641877E+04  0.27722595416E+04 0.  0.
        5    1    3    3  502    0 -0.39714884616E+03 -0.10927856109E+04 -0.53603702636E+03  0.12803379949E+04  0.46999998093E+01 0.  1.
       -5    1    3    3    0  502  0.39714884616E+03  0.10927856109E+04  0.99358683161E+03  0.15294261929E+04  0.46999998093E+01 0. -1.
</event>
<event>
 5   0  0.6146388E-07  0.3380802E+04  0.7818609E-02  0.8142634E-01
       -1   -1    0    0    0  501  0.00000000000E+00  0.00000000000E+00  0.13987795529E+04  0.13987795529E+04  0.50400001928E-02 0. -1.
        1   -1    0    0  501    0  0.00000000000E+00  0.00000000000E+00 -0.20428203041E+04  0.20428203042E+04  0.50400001928E-02 0.  1.
    10030    2    1    2    0    0  0.00000000000E+00  0.00000000000E+00 -0.64404075129E+03  0.34415998570E+04  0.33808018408E+04 0.  0.
        4    1    3    3  502    0  0.10419498250E+04 -0.44182511338E+03  0.95618113076E+03  0.14816048179E+04  0.12699999809E+01 0. -1.
       -4    1    3    3    0  502 -0.10419498250E+04  0.44182511338E+03 -0.16002218821E+04  0.19599950391E+04  0.12699999809E+01 0.  1.
</event>
<event>
 5   0  0.1880301E-06  0.3371537E+04  0.7818609E-02  0.8144928E-01
        2   -1    0    0  501    0  0.00000000000E+00  0.00000000000E+00  0.22006954795E+04  0.22006954795E+04  0.25500000920E-02 0. -1.
       -2   -1    0    0    0  501  0.00000000000E+00  0.00000000000E+00 -0.12913261610E+04  0.12913261610E+04  0.25500000920E-02 0.  1.
    10030    2    1    2    0    0  0.00000000000E+00  0.00000000000E+00  0.90936931851E+03  0.34920216405E+04  0.33715371242E+04 0.  0.
        4    1    3    3  502    0  0.13062367469E+04  0.55332318523E+03 -0.48857046922E+03  0.15003745208E+04  0.12699999809E+01 0.  1.
       -4    1    3    3    0  502 -0.13062367469E+04 -0.55332318523E+03  0.13979397877E+04  0.19916471197E+04  0.12699999809E+01 0. -1.
</event>
<event>
 5   0  0.6146388E-07  0.3382694E+04  0.7818609E-02  0.8142167E-01
        1   -1    0    0  501    0  0.00000000000E+00  0.00000000000E+00  0.21240355144E+04  0.21240355144E+04  0.50400001928E-02 0. -1.
       -1   -1    0    0    0  501  0.00000000000E+00  0.00000000000E+00 -0.13468018619E+04  0.13468018619E+04  0.50400001928E-02 0.  1.
    10030    2    1    2    0    0  0.00000000000E+00  0.00000000000E+00  0.77723365252E+03  0.34708373763E+04  0.33826941840E+04 0.  0.
        4    1    3    3  502    0  0.48645472642E+03  0.11907711740E+03  0.20462106580E+04  0.21066079917E+04  0.12699999809E+01 0. -1.
       -4    1    3    3    0  502 -0.48645472642E+03 -0.11907711740E+03 -0.12689770055E+04  0.13642293847E+04  0.12699999809E+01 0.  1.
</event>
<event>
 5   0  0.1880301E-06  0.2947660E+04  0.7818609E-02  0.8258837E-01
        2   -1    0    0  501    0  0.00000000000E+00  0.00000000000E+00  0.18020654330E+04  0.18020654331E+04  0.25500000920E-02 0. -1.
       -2   -1    0    0    0  501  0.00000000000E+00  0.00000000000E+00 -0.12053806303E+04  0.12053806303E+04  0.25500000920E-02 0.  1.
    10030    2    1    2    0    0  0.00000000000E+00  0.00000000000E+00  0.59668480279E+03  0.30074460633E+04  0.29476599312E+04 0.  0.
        4    1    3    3  502    0 -0.11656532714E+04 -0.73617229290E+03  0.82994385367E+03  0.16091940862E+04  0.12699999809E+01 0. -1.
       -4    1    3    3    0  502  0.11656532714E+04  0.73617229290E+03 -0.23325905087E+03  0.13982519771E+04  0.12699999809E+01 0.  1.
</event>
<event>
 5   0  0.1339844E-06  0.3397204E+04  0.7818609E-02  0.8138593E-01
       -2   -1    0    0    0  501  0.00000000000E+00  0.00000000000E+00  0.12036567831E+04  0.12036567831E+04  0.25500000920E-02 0.  1.
        2   -1    0    0  501    0  0.00000000000E+00  0.00000000000E+00 -0.23970692094E+04  0.23970692094E+04  0.25500000920E-02 0. -1.
    10030    2    1    2    0    0  0.00000000000E+00  0.00000000000E+00 -0.11934124263E+04  0.36007259925E+04  0.33972039171E+04 0.  0.
        3    1    3    3  502    0  0.45354854950E+03  0.42478703662E+03  0.10788543355E+04  0.12450208836E+04  0.10100000352E+00 0.  1.
       -3    1    3    3    0  502 -0.45354854950E+03 -0.42478703662E+03 -0.22722667618E+04  0.23557051089E+04  0.10100000352E+00 0. -1.
</event>
<event>
 5   0  0.6146388E-07  0.3415144E+04  0.7818609E-02  0.8134199E-01
       -1   -1    0    0    0  501  0.00000000000E+00  0.00000000000E+00  0.12067245515E+04  0.12067245515E+04  0.50400001928E-02 0.  1.
        1   -1    0    0  501    0  0.00000000000E+00  0.00000000000E+00 -0.24162952267E+04  0.24162952267E+04  0.50400001928E-02 0. -1.
    10030    2    1    2    0    0  0.00000000000E+00  0.00000000000E+00 -0.12095706753E+04  0.36230197782E+04  0.34151443739E+04 0.  0.
        4    1    3    3  502    0 -0.40984947600E+02  0.17003102582E+04 -0.44366448845E+03  0.17577185586E+04  0.12699999809E+01 0.  1.
       -4    1    3    3    0  502  0.40984947600E+02 -0.17003102582E+04 -0.76590618682E+03  0.18653012196E+04  0.12699999809E+01 0. -1.
</event>
<event>
 5   0  0.1911477E-06  0.3431050E+04  0.7818609E-02  0.8130327E-01
        2   -1    0    0  501    0  0.00000000000E+00  0.00000000000E+00  0.28071694119E+04  0.28071694119E+04  0.25500000920E-02 0.  1.
       -2   -1    0    0    0  501  0.00000000000E+00  0.00000000000E+00 -0.10483961363E+04  0.10483961363E+04  0.25500000920E-02 0. -1.
    10030    2    1    2    0    0  0.00000000000E+00  0.00000000000E+00  0.17587732756E+04  0.38555655483E+04  0.34310497318E+04 0.  0.
        5    1    3    3  502    0 -0.15413108636E+04 -0.63424072431E+03  0.42278384731E+03  0.17194966549E+04  0.46999998093E+01 0.  1.
       -5    1    3    3    0  502  0.15413108636E+04  0.63424072431E+03  0.13359894283E+04  0.21360688933E+04  0.46999998093E+01 0. -1.
</event>
<event>
 5   0  0.1911477E-06  0.3067748E+04  0.7818609E-02  0.8224645E-01
        2   -1    0    0  501    0  0.00000000000E+00  0.00000000000E+00  0.28834371193E+04  0.28834371193E+04  0.25500000920E-02 0.  1.
       -2   -1    0    0    0  501  0.00000000000E+00  0.00000000000E+00 -0.81596022477E+03  0.81596022478E+03  0.25500000920E-02 0. -1.
    10030    2    1    2    0    0  0.00000000000E+00  0.00000000000E+00  0.20674768945E+04  0.36993973441E+04  0.30677483599E+04 0.  0.
        5    1    3    3  502    0  0.11210940359E+04  0.46783138760E+03  0.21630621389E+04  0.24808421859E+04  0.46999998093E+01 0.  1.
       -5    1    3    3    0  502 -0.11210940359E+04 -0.46783138760E+03 -0.95585244363E+02  0.12185551582E+04  0.46999998093E+01 0. -1.
</event>
<event>
 5   0  0.6134625E-07  0.2632316E+04  0.7818609E-02  0.8357306E-01
        3   -1    0    0  501    0  0.00000000000E+00  0.00000000000E+00  0.20896610166E+04  0.20896610191E+04  0.10100000352E+00 0. -1.
       -3   -1    0    0    0  501  0.00000000000E+00  0.00000000000E+00 -0.82897262596E+03  0.82897263211E+03  0.10100000352E+00 0.  1.
    10030    2    1    2    0    0  0.00000000000E+00  0.00000000000E+00  0.12606883907E+04  0.29186336512E+04  0.26323159331E+04 0.  0.
        1    1    3    3  502    0  0.47759776800E+03  0.11634492152E+04  0.10605671902E+04  0.16451493760E+04  0.50400001928E-02 0. -1.
       -1    1    3    3    0  502 -0.47759776800E+03 -0.11634492152E+04  0.20012120052E+03  0.12734842752E+04  0.50400001928E-02 0.  1.
</event>
<event>
 5   0  0.1797075E-06  0.3390689E+04  0.7818609E-02  0.8140195E-01
       -2   -1    0    0    0  501  0.00000000000E+00  0.00000000000E+00  0.10560498094E+04  0.10560498094E+04  0.25500000920E-02 0. -1.
        2   -1    0    0  501    0  0.00000000000E+00  0.00000000000E+00 -0.27216452995E+04  0.27216452995E+04  0.25500000920E-02 0.  1.
    10030    2    1    2    0    0  0.00000000000E+00  0.00000000000E+00 -0.16655954901E+04  0.37776951089E+04  0.33906890153E+04 0.  0.
        2    1    3    3  502    0 -0.54450688479E+03  0.25418995023E+03 -0.25990112481E+04  0.26675756308E+04  0.25500000920E-02 0.  1.
       -2    1    3    3    0  502  0.54450688479E+03 -0.25418995023E+03  0.93341575794E+03  0.11101194781E+04  0.25500000920E-02 0. -1.
</event>
<event>
 5   0  0.6134625E-07  0.3389651E+04  0.7818609E-02  0.8140451E-01
       -1   -1    0    0    0  501  0.00000000000E+00  0.00000000000E+00  0.11770243915E+04  0.11770243915E+04  0.50400001928E-02 0.  1.
        1   -1    0    0  501    0  0.00000000000E+00  0.00000000000E+00 -0.24404193864E+04  0.24404193864E+04  0.50400001928E-02 0. -1.
    10030    2    1    2    0    0  0.00000000000E+00  0.00000000000E+00 -0.12633949948E+04  0.36174437779E+04  0.33896508040E+04 0.  0.
        3    1    3    3  502    0  0.11191620087E+04  0.90676421321E+03 -0.15848522370E+04  0.21416119078E+04  0.10100000352E+00 0. -1.
       -3    1    3    3    0  502 -0.11191620087E+04 -0.90676421321E+03  0.32145724220E+03  0.14758318701E+04  0.10100000352E+00 0.  1.
</event>
</LesHouchesEvents>
