<LesHouchesEvents version="3.0">
<header>
<!--
#*********************************************************************
#                                                                    *
#                        MadGraph5_aMC@NLO                           *
#                                                                    *
#                           Going Beyond                             *
#                                                                    *
#                   http://madgraph.hep.uiuc.edu                     *
#                   http://madgraph.phys.ucl.ac.be                   *
#                   http://amcatnlo.cern.ch                          *
#                                                                    *
#                     The MadGraph5_aMC@NLO team                     *
#                                                                    *
#....................................................................*
#                                                                    *
# This file contains all the information necessary to reproduce      *
# the events generated:                                              *
#                                                                    *
# 1. software version                                                *
# 2. proc_card          : code generation info including model       *
# 3. param_card         : model primary parameters in the LH format  *
# 4. run_card           : running parameters (collider and cuts)     *
# 5. pythia_card        : present only if pythia has been run        *
# 6. pgs_card           : present only if pgs has been run           *
# 7. delphes_cards      : present only if delphes has been run       *
#                                                                    *
#                                                                    *
#*********************************************************************
-->
<MGVersion>
#5.2.2.3
</MGVersion>
<MG5ProcCard>
#************************************************************
#*                     MadGraph5_aMC@NLO                    *
#*                                                          *
#*                *                       *                 *
#*                  *        * *        *                   *
#*                    * * * * 5 * * * *                     *
#*                  *        * *        *                   *
#*                *                       *                 *
#*                                                          *
#*                                                          *
#*         VERSION 2.2.3                 2015-02-10         *
#*                                                          *
#*    The MadGraph5_aMC@NLO Development Team - Find us at   *
#*    https://server06.fynu.ucl.ac.be/projects/madgraph     *
#*                                                          *
#************************************************************
#*                                                          *
#*               Command File for MadGraph5_aMC@NLO         *
#*                                                          *
#*     run as ./bin/mg5_aMC  filename                       *
#*                                                          *
#************************************************************
set group_subprocesses Auto
set ignore_six_quark_processes False
set loop_optimized_output True
set gauge unitary
set complex_mass_scheme False
import model sm
define p = g u c d s u~ c~ d~ s~
define j = g u c d s u~ c~ d~ s~
define l+ = e+ mu+
define l- = e- mu-
define vl = ve vm vt
define vl~ = ve~ vm~ vt~
import model Zprime_UFO
generate p p > zph, zph > j j
add process p p > zph, zph > b b~
output Dijet_signal
</MG5ProcCard>
<MGProcCard>
#*********************************************************************
#                        MadGraph/MadEvent                           *
#                   http://madgraph.hep.uiuc.edu                     *
#                                                                    *
#                          proc_card.dat                             *
#*********************************************************************
#                                                                    *
#            This Files is generated by MADGRAPH 5                   *
#                                                                    *
# WARNING: This Files is generated for MADEVENT (compatibility issue)*
#          This files is NOT a valid MG4 proc_card.dat               *
#          Running this in MG4 will NEVER reproduce the result of MG5*
#                                                                    *
#*********************************************************************
#*********************************************************************
# Process(es) requested : mg2 input                                  *
#*********************************************************************
# Begin PROCESS # This is TAG. Do not modify this line
p p > zph , zph > j j           #Process
# Be carefull the coupling are here in MG5 convention
          
end_coup           # End the couplings input

done               # this tells MG there are no more procs
# End PROCESS  # This is TAG. Do not modify this line
#*********************************************************************
# Model information                                                  *
#*********************************************************************
# Begin MODEL  # This is TAG. Do not modify this line
Zprime_UFO
# End   MODEL  # This is TAG. Do not modify this line
#*********************************************************************
# Start multiparticle definitions                                    *
#*********************************************************************
# Begin MULTIPARTICLES # This is TAG. Do not modify this line

# End  MULTIPARTICLES # This is TAG. Do not modify this line
</MGProcCard>
<MGRunCard>
#*********************************************************************
#                       MadGraph5_aMC@NLO                            *
#                                                                    *
#                     run_card.dat MadEvent                          *
#                                                                    *
#  This file is used to set the parameters of the run.               *
#                                                                    *
#  Some notation/conventions:                                        *
#                                                                    *
#   Lines starting with a '# ' are info or comments                  *
#                                                                    *
#   mind the format:   value    = variable     ! comment             *
#*********************************************************************
#
#*******************                                                 
# Running parameters
#*******************                                                 
#                                                                    
#*********************************************************************
# Tag name for the run (one word)                                    *
#*********************************************************************
  tag_1     = run_tag ! name of the run 
#*********************************************************************
# Run to generate the grid pack                                      *
#*********************************************************************
  .false.     = gridpack  !True = setting up the grid pack
#*********************************************************************
# Number of events and rnd seed                                      *
# Warning: Do not generate more than 1M events in a single run       *
# If you want to run Pythia, avoid more than 50k events in a run.    *
#*********************************************************************
  2000 = nevents ! Number of unweighted events requested 
 1119 = iseed   ! rnd seed (0=assigned automatically=default))
#*********************************************************************
# Collider type and energy                                           *
# lpp: 0=No PDF, 1=proton, -1=antiproton, 2=photon from proton,      *
#                                         3=photon from electron     *
#*********************************************************************
        1     = lpp1    ! beam 1 type 
        1     = lpp2    ! beam 2 type
     4000     = ebeam1  ! beam 1 total energy in GeV
     4000     = ebeam2  ! beam 2 total energy in GeV
#*********************************************************************
# Beam polarization from -100 (left-handed) to 100 (right-handed)    *
#*********************************************************************
        0     = polbeam1 ! beam polarization for beam 1
        0     = polbeam2 ! beam polarization for beam 2
#*********************************************************************
# PDF CHOICE: this automatically fixes also alpha_s and its evol.    *
#*********************************************************************
 'nn23lo1'    = pdlabel     ! PDF set                                     
 230000    = lhaid     ! if pdlabel=lhapdf, this is the lhapdf number
#*********************************************************************
# Renormalization and factorization scales                           *
#*********************************************************************
 F        = fixed_ren_scale  ! if .true. use fixed ren scale
 F        = fixed_fac_scale  ! if .true. use fixed fac scale
 91.1880  = scale            ! fixed ren scale
 91.1880  = dsqrt_q2fact1    ! fixed fact scale for pdf1
 91.1880  = dsqrt_q2fact2    ! fixed fact scale for pdf2
 1        = scalefact        ! scale factor for event-by-event scales
#*********************************************************************
# Matching - Warning! ickkw > 1 is still beta
#*********************************************************************
 0        = ickkw            ! 0 no matching, 1 MLM, 2 CKKW matching
 1        = highestmult      ! for ickkw=2, highest mult group
 1        = ktscheme         ! for ickkw=1, 1 Durham kT, 2 Pythia pTE
 1        = alpsfact         ! scale factor for QCD emission vx
 F        = chcluster        ! cluster only according to channel diag
 T        = pdfwgt           ! for ickkw=1, perform pdf reweighting
 5        = asrwgtflavor     ! highest quark flavor for a_s reweight
 T        = clusinfo         ! include clustering tag in output
 3.0      = lhe_version       ! Change the way clustering information pass to shower.        
#*********************************************************************
#**********************************************************
#
#**********************************************************
# Automatic ptj and mjj cuts if xqcut > 0
# (turn off for VBF and single top processes)
#**********************************************************
   T  = auto_ptj_mjj  ! Automatic setting of ptj and mjj
#**********************************************************
#                                                                    
#**********************************
# BW cutoff (M+/-bwcutoff*Gamma)
#**********************************
  15  = bwcutoff      ! (M+/-bwcutoff*Gamma)
#**********************************************************
# Apply pt/E/eta/dr/mij cuts on decay products or not
# (note that etmiss/ptll/ptheavy/ht/sorted cuts always apply)
#**********************************************************
   T  = cut_decays    ! Cut decay products 
#*************************************************************
# Number of helicities to sum per event (0 = all helicities)
# 0 gives more stable result, but longer run time (needed for
# long decay chains e.g.).
# Use >=2 if most helicities contribute, e.g. pure QCD.
#*************************************************************
   0  = nhel          ! Number of helicities used per event
#*******************                                                 
# Standard Cuts
#*******************                                                 
#                                                                    
#*********************************************************************
# Minimum and maximum pt's (for max, -1 means no cut)                *
#*********************************************************************
 20  = ptj       ! minimum pt for the jets 
  0  = ptb       ! minimum pt for the b 
 10  = pta       ! minimum pt for the photons 
 10  = ptl       ! minimum pt for the charged leptons 
  0  = misset    ! minimum missing Et (sum of neutrino's momenta)
  0  = ptheavy   ! minimum pt for one heavy final state
 1.0 = ptonium   ! minimum pt for the quarkonium states
 -1  = ptjmax    ! maximum pt for the jets
 -1  = ptbmax    ! maximum pt for the b
 -1  = ptamax    ! maximum pt for the photons
 -1  = ptlmax    ! maximum pt for the charged leptons
 -1  = missetmax ! maximum missing Et (sum of neutrino's momenta)
#*********************************************************************
# Minimum and maximum E's (in the center of mass frame)              *
#*********************************************************************
  0  = ej     ! minimum E for the jets 
  0  = eb     ! minimum E for the b 
  0  = ea     ! minimum E for the photons 
  0  = el     ! minimum E for the charged leptons 
 -1   = ejmax ! maximum E for the jets
 -1   = ebmax ! maximum E for the b
 -1   = eamax ! maximum E for the photons
 -1   = elmax ! maximum E for the charged leptons
#*********************************************************************
# Maximum and minimum absolute rapidity (for max, -1 means no cut)   *
#*********************************************************************
   5  = etaj    ! max rap for the jets 
  -1  = etab    ! max rap for the b
 2.5  = etaa    ! max rap for the photons 
 2.5  = etal    ! max rap for the charged leptons 
 0.6  = etaonium ! max rap for the quarkonium states
   0  = etajmin ! min rap for the jets
   0  = etabmin ! min rap for the b
   0  = etaamin ! min rap for the photons
   0  = etalmin ! main rap for the charged leptons
#*********************************************************************
# Minimum and maximum DeltaR distance                                *
#*********************************************************************
 0.4 = drjj    ! min distance between jets 
 0   = drbb    ! min distance between b's 
 0.4 = drll    ! min distance between leptons 
 0.4 = draa    ! min distance between gammas 
 0   = drbj    ! min distance between b and jet 
 0.4 = draj    ! min distance between gamma and jet 
 0.4 = drjl    ! min distance between jet and lepton 
 0   = drab    ! min distance between gamma and b 
 0   = drbl    ! min distance between b and lepton 
 0.4 = dral    ! min distance between gamma and lepton 
 -1  = drjjmax ! max distance between jets
 -1  = drbbmax ! max distance between b's
 -1  = drllmax ! max distance between leptons
 -1  = draamax ! max distance between gammas
 -1  = drbjmax ! max distance between b and jet
 -1  = drajmax ! max distance between gamma and jet
 -1  = drjlmax ! max distance between jet and lepton
 -1  = drabmax ! max distance between gamma and b
 -1  = drblmax ! max distance between b and lepton
 -1  = dralmax ! maxdistance between gamma and lepton
#*********************************************************************
# Minimum and maximum invariant mass for pairs                       *
# WARNING: for four lepton final state mmll cut require to have      *
#          different lepton masses for each flavor!                  *           
#*********************************************************************
 0   = mmjj    ! min invariant mass of a jet pair 
 0   = mmbb    ! min invariant mass of a b pair 
 0   = mmaa    ! min invariant mass of gamma gamma pair
 0   = mmll    ! min invariant mass of l+l- (same flavour) lepton pair
 -1  = mmjjmax ! max invariant mass of a jet pair
 -1  = mmbbmax ! max invariant mass of a b pair
 -1  = mmaamax ! max invariant mass of gamma gamma pair
 -1  = mmllmax ! max invariant mass of l+l- (same flavour) lepton pair
#*********************************************************************
# Minimum and maximum invariant mass for all letpons                 *
#*********************************************************************
 0   = mmnl    ! min invariant mass for all letpons (l+- and vl) 
 -1  = mmnlmax ! max invariant mass for all letpons (l+- and vl) 
#*********************************************************************
# Minimum and maximum pt for 4-momenta sum of leptons                *
#*********************************************************************
 0   = ptllmin  ! Minimum pt for 4-momenta sum of leptons(l and vl)
 -1  = ptllmax  ! Maximum pt for 4-momenta sum of leptons(l and vl)
#*********************************************************************
# Inclusive cuts                                                     *
#*********************************************************************
 0  = xptj ! minimum pt for at least one jet  
 0  = xptb ! minimum pt for at least one b 
 0  = xpta ! minimum pt for at least one photon 
 0  = xptl ! minimum pt for at least one charged lepton 
#*********************************************************************
# Control the pt's of the jets sorted by pt                          *
#*********************************************************************
 0   = ptj1min ! minimum pt for the leading jet in pt
 0   = ptj2min ! minimum pt for the second jet in pt
 0   = ptj3min ! minimum pt for the third jet in pt
 0   = ptj4min ! minimum pt for the fourth jet in pt
 -1  = ptj1max ! maximum pt for the leading jet in pt 
 -1  = ptj2max ! maximum pt for the second jet in pt
 -1  = ptj3max ! maximum pt for the third jet in pt
 -1  = ptj4max ! maximum pt for the fourth jet in pt
 0   = cutuse  ! reject event if fails any (0) / all (1) jet pt cuts
#*********************************************************************
# Control the pt's of leptons sorted by pt                           *
#*********************************************************************
 0   = ptl1min ! minimum pt for the leading lepton in pt
 0   = ptl2min ! minimum pt for the second lepton in pt
 0   = ptl3min ! minimum pt for the third lepton in pt
 0   = ptl4min ! minimum pt for the fourth lepton in pt
 -1  = ptl1max ! maximum pt for the leading lepton in pt 
 -1  = ptl2max ! maximum pt for the second lepton in pt
 -1  = ptl3max ! maximum pt for the third lepton in pt
 -1  = ptl4max ! maximum pt for the fourth lepton in pt
#*********************************************************************
# Control the Ht(k)=Sum of k leading jets                            *
#*********************************************************************
 0   = htjmin ! minimum jet HT=Sum(jet pt)
 -1  = htjmax ! maximum jet HT=Sum(jet pt)
 0   = ihtmin  !inclusive Ht for all partons (including b)
 -1  = ihtmax  !inclusive Ht for all partons (including b)
 0   = ht2min ! minimum Ht for the two leading jets
 0   = ht3min ! minimum Ht for the three leading jets
 0   = ht4min ! minimum Ht for the four leading jets
 -1  = ht2max ! maximum Ht for the two leading jets
 -1  = ht3max ! maximum Ht for the three leading jets
 -1  = ht4max ! maximum Ht for the four leading jets
#***********************************************************************
# Photon-isolation cuts, according to hep-ph/9801442                   *
# When ptgmin=0, all the other parameters are ignored                  *
# When ptgmin>0, pta and draj are not going to be used                 *
#***********************************************************************
   0 = ptgmin ! Min photon transverse momentum
 0.4 = R0gamma ! Radius of isolation code
 1.0 = xn ! n parameter of eq.(3.4) in hep-ph/9801442
 1.0 = epsgamma ! epsilon_gamma parameter of eq.(3.4) in hep-ph/9801442
 .true. = isoEM ! isolate photons from EM energy (photons and leptons)
#*********************************************************************
# WBF cuts                                                           *
#*********************************************************************
 0   = xetamin ! minimum rapidity for two jets in the WBF case  
 0   = deltaeta ! minimum rapidity for two jets in the WBF case 
#*********************************************************************
# KT DURHAM CUT                                                      *
#*********************************************************************
 -1    =  ktdurham        
 0.4  =  dparameter 
#*********************************************************************
# maximal pdg code for quark to be considered as a light jet         *
# (otherwise b cuts are applied)                                     *
#*********************************************************************
 4 = maxjetflavor    ! Maximum jet pdg code
#*********************************************************************
# Jet measure cuts                                                   *
#*********************************************************************
 0   = xqcut   ! minimum kt jet measure between partons
#*********************************************************************
#
#*********************************************************************
# Store info for systematics studies                                 *
# WARNING: If use_syst is T, matched Pythia output is                *
#          meaningful ONLY if plotted taking matchscale              *
#          reweighting into account!                                 *
#*********************************************************************
   F  = use_syst      ! Enable systematics studies
#
#**************************************
# Parameter of the systematics study
#  will be used by SysCalc (if installed)
#**************************************                                  
#
0.5 1 2 = sys_scalefact  # factorization/renormalization scale factor
0.5 1 2 = sys_alpsfact  # \alpha_s emission scale factors
30 50 = sys_matchscale # variation of merging scale
# PDF sets and number of members (0 or none for all members).
CT10nlo.LHgrid = sys_pdf # matching scales
# MSTW2008nlo68cl.LHgrid 1  = sys_pdf
</MGRunCard>
<slha>
######################################################################
## PARAM_CARD AUTOMATICALY GENERATED BY MG5 FOLLOWING UFO MODEL   ####
######################################################################
##                                                                  ##
##  Width set on Auto will be computed following the information    ##
##        present in the decay.py files of the model.               ##
##        See  arXiv:1402.1178 for more details.                    ##
##                                                                  ##
######################################################################

###################################
## INFORMATION FOR CKMBLOCK
###################################
Block ckmblock 
    1 2.277360e-01 # cabi 

###################################
## INFORMATION FOR FRBLOCK
###################################
Block frblock 
    1 4.000000e-01 # gz 

###################################
## INFORMATION FOR MASS
###################################
Block mass 
    1 5.040000e-03 # MD 
    2 2.550000e-03 # MU 
    3 1.010000e-01 # MS 
    4 1.270000e+00 # MC 
    5 4.700000e+00 # MB 
    6 1.720000e+02 # MT 
   11 5.110000e-04 # Me 
   13 1.056600e-01 # MM 
   15 1.777000e+00 # MTA 
   23 9.118760e+01 # MZ 
   25 1.200000e+02 # MH 
  10030 3.800000e+03 # MZph 
  10031 3.000000e+02 # MZpl 
## Dependent parameters, given by model restrictions.
## Those values should be edited following the 
## analytical expression. MG5 ignores those values 
## but they are important for interfacing the output of MG5
## to external program such as Pythia.
  12 0.000000 # ve : 0.0 
  14 0.000000 # vm : 0.0 
  16 0.000000 # vt : 0.0 
  21 0.000000 # g : 0.0 
  22 0.000000 # a : 0.0 
  24 79.824360 # w+ : cmath.sqrt(MZ__exp__2/2. + cmath.sqrt(MZ__exp__4/4. - (aEW*cmath.pi*MZ__exp__2)/(Gf*sqrt__2))) 

###################################
## INFORMATION FOR SMINPUTS
###################################
Block sminputs 
    1 1.279000e+02 # aEWM1 
    2 1.166370e-05 # Gf 
    3 1.184000e-01 # aS 

###################################
## INFORMATION FOR YUKAWA
###################################
Block yukawa 
    1 5.040000e-03 # ymdo 
    2 2.550000e-03 # ymup 
    3 1.010000e-01 # yms 
    4 1.270000e+00 # ymc 
    5 4.700000e+00 # ymb 
    6 1.720000e+02 # ymt 
   11 5.110000e-04 # yme 
   13 1.056600e-01 # ymm 
   15 1.777000e+00 # ymtau 

###################################
## INFORMATION FOR DECAY
###################################
DECAY   6 1.508336e+00 # WT 
DECAY  23 2.495200e+00 # WZ 
DECAY  24 2.085000e+00 # WW 
DECAY  25 5.753088e-03 # WH 
## Dependent parameters, given by model restrictions.
## Those values should be edited following the 
## analytical expression. MG5 ignores those values 
## but they are important for interfacing the output of MG5
## to external program such as Pythia.
DECAY  1 0.000000 # d : 0.0 
DECAY  2 0.000000 # u : 0.0 
DECAY  3 0.000000 # s : 0.0 
DECAY  4 0.000000 # c : 0.0 
DECAY  5 0.000000 # b : 0.0 
DECAY  11 0.000000 # e- : 0.0 
DECAY  12 0.000000 # ve : 0.0 
DECAY  13 0.000000 # mu- : 0.0 
DECAY  14 0.000000 # vm : 0.0 
DECAY  15 0.000000 # ta- : 0.0 
DECAY  16 0.000000 # vt : 0.0 
DECAY  21 0.000000 # g : 0.0 
DECAY  22 0.000000 # a : 0.0 
DECAY  10030 0.308725 # zph : (gz__exp__2*MZph*(5 + cmath.sqrt(1 - (4*MT__exp__2)/MZph__exp__2)))/(144.*cmath.pi) 
DECAY  10031 0.132629 # zpl : (5*gz__exp__2*MZpl)/(144.*cmath.pi) 
#===========================================================
# QUANTUM NUMBERS OF NEW STATE(S) (NON SM PDG CODE)
#===========================================================

Block QNUMBERS 10030  # zph 
        1 0  # 3 times electric charge
        2 3  # number of spin states (2S+1)
        3 1  # colour rep (1: singlet, 3: triplet, 8: octet)
        4 0  # Particle/Antiparticle distinction (0=own anti)
Block QNUMBERS 10031  # zpl 
        1 0  # 3 times electric charge
        2 3  # number of spin states (2S+1)
        3 1  # colour rep (1: singlet, 3: triplet, 8: octet)
        4 0  # Particle/Antiparticle distinction (0=own anti)
</slha>
## END BANNER##
<MGGenerationInfo>
#  Number of Events        :         3847
#  Integrated weight (pb)  :  0.13026E-04
#  Max wgt                 :  0.52075E-08
#  Average wgt             :  0.33860E-08
</MGGenerationInfo>
</header>
<init>
     2212     2212  0.40000000000E+04  0.40000000000E+04 0 0  247000  247000 2   1
  0.13028460653E-04  0.29982662751E-07  0.52074740000E-08   0
</init>
<event>
 5   0  0.5147582E-08  0.3799277E+04  0.7818609E-02  0.8046310E-01
        2   -1    0    0  501    0  0.00000000000E+00  0.00000000000E+00  0.26307433473E+04  0.26307433473E+04  0.25500000920E-02 0. -1.
       -2   -1    0    0    0  501  0.00000000000E+00  0.00000000000E+00 -0.13717135160E+04  0.13717135160E+04  0.25500000920E-02 0.  1.
    10030    2    1    2    0    0  0.00000000000E+00  0.00000000000E+00  0.12590298313E+04  0.40024568633E+04  0.37992768820E+04 0.  0.
        1    1    3    3  502    0 -0.41784833088E+03  0.14239256113E+04  0.18788822697E+04  0.23942347332E+04  0.50400001928E-02 0. -1.
       -1    1    3    3    0  502  0.41784833088E+03 -0.14239256113E+04 -0.61985243846E+03  0.16082221301E+04  0.50400001928E-02 0.  1.
</event>
<event>
 5   0  0.5147582E-08  0.3803262E+04  0.7818609E-02  0.8045455E-01
       -2   -1    0    0    0  501  0.00000000000E+00  0.00000000000E+00  0.19218033321E+04  0.19218033321E+04  0.25500000920E-02 0.  1.
        2   -1    0    0  501    0  0.00000000000E+00  0.00000000000E+00 -0.18816705877E+04  0.18816705877E+04  0.25500000920E-02 0. -1.
    10030    2    1    2    0    0  0.00000000000E+00  0.00000000000E+00  0.40132744383E+02  0.38034739197E+04  0.38032621815E+04 0.  0.
        1    1    3    3  502    0 -0.11633232851E+04 -0.64698849789E+03 -0.13380540135E+04  0.18874066136E+04  0.50400001928E-02 0. -1.
       -1    1    3    3    0  502  0.11633232851E+04  0.64698849789E+03  0.13781867579E+04  0.19160673061E+04  0.50400001928E-02 0.  1.
</event>
<event>
 5   0  0.5086209E-08  0.3842027E+04  0.7818609E-02  0.8037196E-01
       -2   -1    0    0    0  501  0.00000000000E+00  0.00000000000E+00  0.28095470823E+04  0.28095470823E+04  0.25500000920E-02 0. -1.
        2   -1    0    0  501    0  0.00000000000E+00  0.00000000000E+00 -0.13134830442E+04  0.13134830442E+04  0.25500000920E-02 0.  1.
    10030    2    1    2    0    0  0.00000000000E+00  0.00000000000E+00  0.14960640381E+04  0.41230301265E+04  0.38420267852E+04 0.  0.
        3    1    3    3  502    0 -0.13130248645E+04 -0.13128777228E+04  0.12766119608E+04  0.22533131869E+04  0.10100000352E+00 0. -1.
       -3    1    3    3    0  502  0.13130248645E+04  0.13128777228E+04  0.21945207734E+03  0.18697169396E+04  0.10100000352E+00 0.  1.
</event>
<event>
 5   0  0.5147582E-08  0.3794986E+04  0.7818609E-02  0.8047232E-01
       -2   -1    0    0    0  501  0.00000000000E+00  0.00000000000E+00  0.15056896242E+04  0.15056896242E+04  0.25500000920E-02 0. -1.
        2   -1    0    0  501    0  0.00000000000E+00  0.00000000000E+00 -0.23912494635E+04  0.23912494635E+04  0.25500000920E-02 0.  1.
    10030    2    1    2    0    0  0.00000000000E+00  0.00000000000E+00 -0.88555983925E+03  0.38969390877E+04  0.37949859057E+04 0.  0.
        1    1    3    3  502    0  0.55407065368E+03 -0.17016483753E+04  0.20494174920E+03  0.18012780471E+04  0.50400001928E-02 0. -1.
       -1    1    3    3    0  502 -0.55407065368E+03  0.17016483753E+04 -0.10905015885E+04  0.20956610406E+04  0.50400001928E-02 0.  1.
</event>
<event>
 5   0  0.5086209E-08  0.3795617E+04  0.7818609E-02  0.8047096E-01
        2   -1    0    0  501    0  0.00000000000E+00  0.00000000000E+00  0.28311466325E+04  0.28311466325E+04  0.25500000920E-02 0.  1.
       -2   -1    0    0    0  501  0.00000000000E+00  0.00000000000E+00 -0.12721618456E+04  0.12721618456E+04  0.25500000920E-02 0. -1.
    10030    2    1    2    0    0  0.00000000000E+00  0.00000000000E+00  0.15589847869E+04  0.41033084781E+04  0.37956168011E+04 0.  0.
        3    1    3    3  502    0  0.12750857828E+04 -0.12123495592E+04  0.15485252192E+04  0.23438356537E+04  0.10100000352E+00 0.  1.
       -3    1    3    3    0  502 -0.12750857828E+04  0.12123495592E+04  0.10459567731E+02  0.17594728244E+04  0.10100000352E+00 0. -1.
</event>
<event>
 5   0  0.1628250E-08  0.3797202E+04  0.7818609E-02  0.8046755E-01
       -1   -1    0    0    0  501  0.00000000000E+00  0.00000000000E+00  0.14716643252E+04  0.14716643252E+04  0.50400001928E-02 0. -1.
        1   -1    0    0  501    0  0.00000000000E+00  0.00000000000E+00 -0.24493945883E+04  0.24493945883E+04  0.50400001928E-02 0.  1.
    10030    2    1    2    0    0  0.00000000000E+00  0.00000000000E+00 -0.97773026311E+03  0.39210589136E+04  0.37972024618E+04 0.  0.
        1    1    3    3  502    0 -0.12285930120E+04 -0.26871077526E+03  0.97986460476E+03  0.15942963695E+04  0.50400001928E-02 0. -1.
       -1    1    3    3    0  502  0.12285930120E+04  0.26871077526E+03 -0.19575948679E+04  0.23267625441E+04  0.50400001928E-02 0.  1.
</event>
<event>
 5   0  0.1628473E-08  0.3804782E+04  0.7818609E-02  0.8045129E-01
       -1   -1    0    0    0  501  0.00000000000E+00  0.00000000000E+00  0.13669229001E+04  0.13669229001E+04  0.50400001928E-02 0. -1.
        1   -1    0    0  501    0  0.00000000000E+00  0.00000000000E+00 -0.26476192405E+04  0.26476192405E+04  0.50400001928E-02 0.  1.
    10030    2    1    2    0    0  0.00000000000E+00  0.00000000000E+00 -0.12806963404E+04  0.40145421406E+04  0.38047819231E+04 0.  0.
        3    1    3    3  502    0  0.28656004994E+03  0.16693386900E+04  0.27359420739E+03  0.17157103848E+04  0.10100000352E+00 0. -1.
       -3    1    3    3    0  502 -0.28656004994E+03 -0.16693386900E+04 -0.15542905478E+04  0.22988317558E+04  0.10100000352E+00 0.  1.
</event>
<event>
 5   0  0.5147582E-08  0.3804310E+04  0.7818609E-02  0.8045231E-01
       -2   -1    0    0    0  501  0.00000000000E+00  0.00000000000E+00  0.19136552405E+04  0.19136552405E+04  0.25500000920E-02 0. -1.
        2   -1    0    0  501    0  0.00000000000E+00  0.00000000000E+00 -0.18907239044E+04  0.18907239044E+04  0.25500000920E-02 0.  1.
    10030    2    1    2    0    0  0.00000000000E+00  0.00000000000E+00  0.22931336131E+02  0.38043791449E+04  0.38043100336E+04 0.  0.
        1    1    3    3  502    0  0.17843753770E+04  0.55618004845E+03 -0.34189889165E+03  0.19000596266E+04  0.50400001928E-02 0. -1.
       -1    1    3    3    0  502 -0.17843753770E+04 -0.55618004845E+03  0.36483022778E+03  0.19043195183E+04  0.50400001928E-02 0.  1.
</event>
<event>
 5   0  0.1666051E-08  0.3802068E+04  0.7818609E-02  0.8045711E-01
        1   -1    0    0  501    0  0.00000000000E+00  0.00000000000E+00  0.20097299173E+04  0.20097299173E+04  0.50400001928E-02 0. -1.
       -1   -1    0    0    0  501  0.00000000000E+00  0.00000000000E+00 -0.17982168880E+04  0.17982168880E+04  0.50400001928E-02 0.  1.
    10030    2    1    2    0    0  0.00000000000E+00  0.00000000000E+00  0.21151302926E+03  0.38079468053E+04  0.38020680045E+04 0.  0.
        2    1    3    3  502    0  0.51655465229E+03  0.67094948776E+03  0.18104247541E+04  0.19986594793E+04  0.25500000920E-02 0. -1.
       -2    1    3    3    0  502 -0.51655465229E+03 -0.67094948776E+03 -0.15989117249E+04  0.18092873260E+04  0.25500000920E-02 0.  1.
</event>
<event>
 5   0  0.5147582E-08  0.3801802E+04  0.7818609E-02  0.8045768E-01
        2   -1    0    0  501    0  0.00000000000E+00  0.00000000000E+00  0.25428694448E+04  0.25428694448E+04  0.25500000920E-02 0.  1.
       -2   -1    0    0    0  501  0.00000000000E+00  0.00000000000E+00 -0.14210028995E+04  0.14210028995E+04  0.25500000920E-02 0. -1.
    10030    2    1    2    0    0  0.00000000000E+00  0.00000000000E+00  0.11218665454E+04  0.39638723443E+04  0.38018021275E+04 0.  0.
        1    1    3    3  502    0 -0.12955185265E+04 -0.78530275554E+02  0.20089841989E+04  0.23917677078E+04  0.50400001928E-02 0.  1.
       -1    1    3    3    0  502  0.12955185265E+04  0.78530275554E+02 -0.88711765355E+03  0.15721046365E+04  0.50400001928E-02 0. -1.
</event>
<event>
 5   0  0.1666051E-08  0.3799625E+04  0.7818609E-02  0.8046235E-01
        1   -1    0    0  501    0  0.00000000000E+00  0.00000000000E+00  0.26389952485E+04  0.26389952485E+04  0.50400001928E-02 0. -1.
       -1   -1    0    0    0  501  0.00000000000E+00  0.00000000000E+00 -0.13676752016E+04  0.13676752016E+04  0.50400001928E-02 0.  1.
    10030    2    1    2    0    0  0.00000000000E+00  0.00000000000E+00  0.12713200470E+04  0.40066704501E+04  0.37996254334E+04 0.  0.
        2    1    3    3  502    0 -0.16246308926E+04 -0.12132989259E+03 -0.39490827905E+03  0.16763349990E+04  0.25500000920E-02 0.  1.
       -2    1    3    3    0  502  0.16246308926E+04  0.12132989259E+03  0.16662283260E+04  0.23303354511E+04  0.25500000920E-02 0. -1.
</event>
<event>
 5   0  0.5159761E-08  0.3791825E+04  0.7818609E-02  0.8047912E-01
        2   -1    0    0  501    0  0.00000000000E+00  0.00000000000E+00  0.19683348450E+04  0.19683348450E+04  0.25500000920E-02 0.  1.
       -2   -1    0    0    0  501  0.00000000000E+00  0.00000000000E+00 -0.18261546272E+04  0.18261546272E+04  0.25500000920E-02 0. -1.
    10030    2    1    2    0    0  0.00000000000E+00  0.00000000000E+00  0.14218021780E+03  0.37944894723E+04  0.37918247772E+04 0.  0.
        5    1    3    3  502    0  0.58689218083E+03 -0.15948331185E+03  0.18680648070E+04  0.19645777083E+04  0.46999998093E+01 0.  1.
       -5    1    3    3    0  502 -0.58689218083E+03  0.15948331185E+03 -0.17258845892E+04  0.18299117640E+04  0.46999998093E+01 0. -1.
</event>
<event>
 5   0  0.1628250E-08  0.3811126E+04  0.7818609E-02  0.8043771E-01
       -1   -1    0    0    0  501  0.00000000000E+00  0.00000000000E+00  0.22771099304E+04  0.22771099304E+04  0.50400001928E-02 0.  1.
        1   -1    0    0  501    0  0.00000000000E+00  0.00000000000E+00 -0.15946402466E+04  0.15946402466E+04  0.50400001928E-02 0. -1.
    10030    2    1    2    0    0  0.00000000000E+00  0.00000000000E+00  0.68246968381E+03  0.38717501770E+04  0.38111264167E+04 0.  0.
        5    1    3    3  502    0  0.17423904657E+04  0.69667339593E+03  0.44946858779E+01  0.18765182248E+04  0.46999998093E+01 0. -1.
       -5    1    3    3    0  502 -0.17423904657E+04 -0.69667339593E+03  0.67797499793E+03  0.19952319523E+04  0.46999998093E+01 0.  1.
</event>
<event>
 5   0  0.1628250E-08  0.3801800E+04  0.7818609E-02  0.8045769E-01
        1   -1    0    0  501    0  0.00000000000E+00  0.00000000000E+00  0.18192834447E+04  0.18192834447E+04  0.50400001928E-02 0. -1.
       -1   -1    0    0    0  501  0.00000000000E+00  0.00000000000E+00 -0.19861782594E+04  0.19861782594E+04  0.50400001928E-02 0.  1.
    10030    2    1    2    0    0  0.00000000000E+00  0.00000000000E+00 -0.16689481472E+03  0.38054617041E+04  0.38018002186E+04 0.  0.
        1    1    3    3  502    0  0.32840503677E+03 -0.18687650465E+04 -0.19883443759E+03  0.19077913410E+04  0.50400001928E-02 0.  1.
       -1    1    3    3    0  502 -0.32840503677E+03  0.18687650465E+04  0.31939622869E+02  0.18976703631E+04  0.50400001928E-02 0. -1.
</event>
<event>
 5   0  0.1628473E-08  0.3793535E+04  0.7818609E-02  0.8047544E-01
       -1   -1    0    0    0  501  0.00000000000E+00  0.00000000000E+00  0.19167894582E+04  0.19167894582E+04  0.50400001928E-02 0.  1.
        1   -1    0    0  501    0  0.00000000000E+00  0.00000000000E+00 -0.18769548419E+04  0.18769548419E+04  0.50400001928E-02 0. -1.
    10030    2    1    2    0    0  0.00000000000E+00  0.00000000000E+00  0.39834616320E+02  0.37937443001E+04  0.37935351610E+04 0.  0.
        3    1    3    3  502    0 -0.12846448821E+04  0.13240637745E+04 -0.42086757507E+03  0.18922438738E+04  0.10100000352E+00 0. -1.
       -3    1    3    3    0  502  0.12846448821E+04 -0.13240637745E+04  0.46070219139E+03  0.19015004263E+04  0.10100000352E+00 0.  1.
</event>
<event>
 5   0  0.1628473E-08  0.3803740E+04  0.7818609E-02  0.8045353E-01
        1   -1    0    0  501    0  0.00000000000E+00  0.00000000000E+00  0.17157172905E+04  0.17157172905E+04  0.50400001928E-02 0.  1.
       -1   -1    0    0    0  501  0.00000000000E+00  0.00000000000E+00 -0.21082197677E+04  0.21082197677E+04  0.50400001928E-02 0. -1.
    10030    2    1    2    0    0  0.00000000000E+00  0.00000000000E+00 -0.39250247723E+03  0.38239370583E+04  0.38037397954E+04 0.  0.
        3    1    3    3  502    0  0.11752356112E+04  0.71660327909E+03  0.11231236568E+04  0.17765432052E+04  0.10100000352E+00 0.  1.
       -3    1    3    3    0  502 -0.11752356112E+04 -0.71660327909E+03 -0.15156261340E+04  0.20473938531E+04  0.10100000352E+00 0. -1.
</event>
<event>
 5   0  0.5147582E-08  0.3799720E+04  0.7818609E-02  0.8046215E-01
       -2   -1    0    0    0  501  0.00000000000E+00  0.00000000000E+00  0.17330976153E+04  0.17330976153E+04  0.25500000920E-02 0.  1.
        2   -1    0    0  501    0  0.00000000000E+00  0.00000000000E+00 -0.20826682088E+04  0.20826682088E+04  0.25500000920E-02 0. -1.
    10030    2    1    2    0    0  0.00000000000E+00  0.00000000000E+00 -0.34957059349E+03  0.38157658240E+04  0.37997196244E+04 0.  0.
        1    1    3    3  502    0 -0.39385978940E+03  0.10008891988E+03  0.16889411145E+04  0.17371428882E+04  0.50400001928E-02 0.  1.
       -1    1    3    3    0  502  0.39385978940E+03 -0.10008891988E+03 -0.20385117080E+04  0.20786229358E+04  0.50400001928E-02 0. -1.
</event>
<event>
 5   0  0.1628250E-08  0.3801622E+04  0.7818609E-02  0.8045807E-01
        1   -1    0    0  501    0  0.00000000000E+00  0.00000000000E+00  0.21477719860E+04  0.21477719860E+04  0.50400001928E-02 0.  1.
       -1   -1    0    0    0  501  0.00000000000E+00  0.00000000000E+00 -0.16822464948E+04  0.16822464948E+04  0.50400001928E-02 0. -1.
    10030    2    1    2    0    0  0.00000000000E+00  0.00000000000E+00  0.46552549121E+03  0.38300184808E+04  0.38016217040E+04 0.  0.
        4    1    3    3  502    0 -0.13627012474E+04  0.69556223859E+03  0.13691593760E+04  0.20531343179E+04  0.12699999809E+01 0.  1.
       -4    1    3    3    0  502  0.13627012474E+04 -0.69556223859E+03 -0.90363388483E+03  0.17768841629E+04  0.12699999809E+01 0. -1.
</event>
<event>
 5   0  0.1628250E-08  0.3801721E+04  0.7818609E-02  0.8045786E-01
        1   -1    0    0  501    0  0.00000000000E+00  0.00000000000E+00  0.13284169085E+04  0.13284169085E+04  0.50400001928E-02 0. -1.
       -1   -1    0    0    0  501  0.00000000000E+00  0.00000000000E+00 -0.27199818217E+04  0.27199818217E+04  0.50400001928E-02 0.  1.
    10030    2    1    2    0    0  0.00000000000E+00  0.00000000000E+00 -0.13915649132E+04  0.40483987303E+04  0.38017205804E+04 0.  0.
        1    1    3    3  502    0 -0.53294953300E+03  0.12191103889E+04 -0.21414428527E+04  0.25211193618E+04  0.50400001928E-02 0.  1.
       -1    1    3    3    0  502  0.53294953300E+03 -0.12191103889E+04  0.74987793951E+03  0.15272793684E+04  0.50400001928E-02 0. -1.
</event>
<event>
 5   0  0.5140842E-08  0.3799200E+04  0.7818609E-02  0.8046327E-01
       -2   -1    0    0    0  501  0.00000000000E+00  0.00000000000E+00  0.17539067484E+04  0.17539067484E+04  0.25500000920E-02 0. -1.
        2   -1    0    0  501    0  0.00000000000E+00  0.00000000000E+00 -0.20573958501E+04  0.20573958501E+04  0.25500000920E-02 0.  1.
    10030    2    1    2    0    0  0.00000000000E+00  0.00000000000E+00 -0.30348910167E+03  0.38113025986E+04  0.37992001610E+04 0.  0.
        2    1    3    3  502    0 -0.12440855913E+04 -0.83460361868E+03  0.10199522221E+04  0.18123505991E+04  0.25500000920E-02 0. -1.
       -2    1    3    3    0  502  0.12440855913E+04  0.83460361868E+03 -0.13234413238E+04  0.19989519995E+04  0.25500000920E-02 0.  1.
</event>
<event>
 5   0  0.1628473E-08  0.3800468E+04  0.7818609E-02  0.8046054E-01
       -1   -1    0    0    0  501  0.00000000000E+00  0.00000000000E+00  0.15978921372E+04  0.15978921373E+04  0.50400001928E-02 0.  1.
        1   -1    0    0  501    0  0.00000000000E+00  0.00000000000E+00 -0.22597826879E+04  0.22597826879E+04  0.50400001928E-02 0. -1.
    10030    2    1    2    0    0  0.00000000000E+00  0.00000000000E+00 -0.66189055066E+03  0.38576748252E+04  0.38004678601E+04 0.  0.
        3    1    3    3  502    0  0.18877738751E+04 -0.20512900478E+03 -0.40358267482E+03  0.19413003626E+04  0.10100000352E+00 0. -1.
       -3    1    3    3    0  502 -0.18877738751E+04  0.20512900478E+03 -0.25830787584E+03  0.19163744626E+04  0.10100000352E+00 0.  1.
</event>
<event>
 5   0  0.5086209E-08  0.3811347E+04  0.7818609E-02  0.8043724E-01
       -2   -1    0    0    0  501  0.00000000000E+00  0.00000000000E+00  0.16115661406E+04  0.16115661406E+04  0.25500000920E-02 0. -1.
        2   -1    0    0  501    0  0.00000000000E+00  0.00000000000E+00 -0.22534543554E+04  0.22534543554E+04  0.25500000920E-02 0.  1.
    10030    2    1    2    0    0  0.00000000000E+00  0.00000000000E+00 -0.64188821481E+03  0.38650204959E+04  0.38113466063E+04 0.  0.
        3    1    3    3  502    0 -0.47637010467E+03 -0.11088628063E+03  0.15468316646E+04  0.16223170013E+04  0.10100000352E+00 0. -1.
       -3    1    3    3    0  502  0.47637010467E+03  0.11088628063E+03 -0.21887198794E+04  0.22427034946E+04  0.10100000352E+00 0.  1.
</event>
<event>
 5   0  0.1628250E-08  0.3806483E+04  0.7818609E-02  0.8044765E-01
       -1   -1    0    0    0  501  0.00000000000E+00  0.00000000000E+00  0.14589069285E+04  0.14589069285E+04  0.50400001928E-02 0. -1.
        1   -1    0    0  501    0  0.00000000000E+00  0.00000000000E+00 -0.24829053472E+04  0.24829053472E+04  0.50400001928E-02 0.  1.
    10030    2    1    2    0    0  0.00000000000E+00  0.00000000000E+00 -0.10239984187E+04  0.39418122757E+04  0.38064827932E+04 0.  0.
        1    1    3    3  502    0 -0.27749222592E+03 -0.14276792258E+04  0.75926856061E+03  0.16406579943E+04  0.50400001928E-02 0. -1.
       -1    1    3    3    0  502  0.27749222592E+03  0.14276792258E+04 -0.17832669793E+04  0.23011542814E+04  0.50400001928E-02 0.  1.
</event>
<event>
 5   0  0.5140842E-08  0.3799926E+04  0.7818609E-02  0.8046171E-01
        2   -1    0    0  501    0  0.00000000000E+00  0.00000000000E+00  0.21359059500E+04  0.21359059500E+04  0.25500000920E-02 0.  1.
       -2   -1    0    0    0  501  0.00000000000E+00  0.00000000000E+00 -0.16900838158E+04  0.16900838158E+04  0.25500000920E-02 0. -1.
    10030    2    1    2    0    0  0.00000000000E+00  0.00000000000E+00  0.44582213412E+03  0.38259897658E+04  0.37999263562E+04 0.  0.
        2    1    3    3  502    0  0.49146548299E+03 -0.15764704686E+04 -0.72324847697E+03  0.18027439693E+04  0.25500000920E-02 0.  1.
       -2    1    3    3    0  502 -0.49146548299E+03  0.15764704686E+04  0.11690706111E+04  0.20232457965E+04  0.25500000920E-02 0. -1.
</event>
<event>
 5   0  0.1666051E-08  0.3808742E+04  0.7818609E-02  0.8044282E-01
        1   -1    0    0  501    0  0.00000000000E+00  0.00000000000E+00  0.23483459785E+04  0.23483459785E+04  0.50400001928E-02 0.  1.
       -1   -1    0    0    0  501  0.00000000000E+00  0.00000000000E+00 -0.15443331843E+04  0.15443331843E+04  0.50400001928E-02 0. -1.
    10030    2    1    2    0    0  0.00000000000E+00  0.00000000000E+00  0.80401279416E+03  0.38926791628E+04  0.38087418515E+04 0.  0.
        2    1    3    3  502    0  0.56978177936E+03 -0.56792095416E+03 -0.13621400032E+04  0.15819642457E+04  0.25500000920E-02 0. -1.
       -2    1    3    3    0  502 -0.56978177936E+03  0.56792095416E+03  0.21661527974E+04  0.23107149171E+04  0.25500000920E-02 0.  1.
</event>
<event>
 5   0  0.5086209E-08  0.3810954E+04  0.7818609E-02  0.8043808E-01
        2   -1    0    0  501    0  0.00000000000E+00  0.00000000000E+00  0.27567355105E+04  0.27567355105E+04  0.25500000920E-02 0.  1.
       -2   -1    0    0    0  501  0.00000000000E+00  0.00000000000E+00 -0.13170807568E+04  0.13170807568E+04  0.25500000920E-02 0. -1.
    10030    2    1    2    0    0  0.00000000000E+00  0.00000000000E+00  0.14396547537E+04  0.40738162673E+04  0.38109543648E+04 0.  0.
        3    1    3    3  502    0 -0.12977487232E+04  0.38960153785E+03 -0.71232121988E+03  0.15307980394E+04  0.10100000352E+00 0. -1.
       -3    1    3    3    0  502  0.12977487232E+04 -0.38960153785E+03  0.21519759735E+04  0.25430182280E+04  0.10100000352E+00 0.  1.
</event>
<event>
 5   0  0.5159761E-08  0.3800182E+04  0.7818609E-02  0.8046116E-01
       -2   -1    0    0    0  501  0.00000000000E+00  0.00000000000E+00  0.12722768097E+04  0.12722768097E+04  0.25500000920E-02 0. -1.
        2   -1    0    0  501    0  0.00000000000E+00  0.00000000000E+00 -0.28377053773E+04  0.28377053773E+04  0.25500000920E-02 0.  1.
    10030    2    1    2    0    0  0.00000000000E+00  0.00000000000E+00 -0.15654285676E+04  0.41099821870E+04  0.38001824926E+04 0.  0.
        5    1    3    3  502    0 -0.18867081247E+04 -0.14704575533E+03 -0.59842766512E+03  0.19847991743E+04  0.46999998093E+01 0. -1.
       -5    1    3    3    0  502  0.18867081247E+04  0.14704575533E+03 -0.96700090246E+03  0.21251830127E+04  0.46999998093E+01 0.  1.
</event>
<event>
 5   0  0.1666051E-08  0.3845106E+04  0.7818609E-02  0.8036544E-01
        1   -1    0    0  501    0  0.00000000000E+00  0.00000000000E+00  0.12333203963E+04  0.12333203963E+04  0.50400001928E-02 0.  1.
       -1   -1    0    0    0  501  0.00000000000E+00  0.00000000000E+00 -0.29969580363E+04  0.29969580363E+04  0.50400001928E-02 0. -1.
    10030    2    1    2    0    0  0.00000000000E+00  0.00000000000E+00 -0.17636376400E+04  0.42302784326E+04  0.38451057062E+04 0.  0.
        2    1    3    3  502    0 -0.87573150342E+03 -0.14485047285E+04 -0.18848102035E+04  0.25332945185E+04  0.25500000920E-02 0. -1.
       -2    1    3    3    0  502  0.87573150342E+03  0.14485047285E+04  0.12117256343E+03  0.16969839141E+04  0.25500000920E-02 0.  1.
</event>
<event>
 5   0  0.5086209E-08  0.3781759E+04  0.7818609E-02  0.8050081E-01
       -2   -1    0    0    0  501  0.00000000000E+00  0.00000000000E+00  0.31812471936E+04  0.31812471936E+04  0.25500000920E-02 0.  1.
        2   -1    0    0  501    0  0.00000000000E+00  0.00000000000E+00 -0.11239066428E+04  0.11239066428E+04  0.25500000920E-02 0. -1.
    10030    2    1    2    0    0  0.00000000000E+00  0.00000000000E+00  0.20573405508E+04  0.43051538364E+04  0.37817587725E+04 0.  0.
        3    1    3    3  502    0  0.68872709330E+03 -0.16281023099E+04  0.26470070595E+03  0.17874922698E+04  0.10100000352E+00 0. -1.
       -3    1    3    3    0  502 -0.68872709330E+03  0.16281023099E+04  0.17926398448E+04  0.25176615666E+04  0.10100000352E+00 0.  1.
</event>
<event>
 5   0  0.5147582E-08  0.3889722E+04  0.7818609E-02  0.8027170E-01
        2   -1    0    0  501    0  0.00000000000E+00  0.00000000000E+00  0.26853996568E+04  0.26853996568E+04  0.25500000920E-02 0. -1.
       -2   -1    0    0    0  501  0.00000000000E+00  0.00000000000E+00 -0.14085369713E+04  0.14085369713E+04  0.25500000920E-02 0.  1.
    10030    2    1    2    0    0  0.00000000000E+00  0.00000000000E+00  0.12768626855E+04  0.40939366282E+04  0.38897222006E+04 0.  0.
        1    1    3    3  502    0  0.68657874829E+03  0.13089644729E+04  0.19687969474E+04  0.24618975993E+04  0.50400001928E-02 0. -1.
       -1    1    3    3    0  502 -0.68657874829E+03 -0.13089644729E+04 -0.69193426195E+03  0.16320390289E+04  0.50400001928E-02 0.  1.
</event>
<event>
 5   0  0.1628250E-08  0.3797010E+04  0.7818609E-02  0.8046797E-01
        1   -1    0    0  501    0  0.00000000000E+00  0.00000000000E+00  0.26344869849E+04  0.26344869849E+04  0.50400001928E-02 0. -1.
       -1   -1    0    0    0  501  0.00000000000E+00  0.00000000000E+00 -0.13681303999E+04  0.13681303999E+04  0.50400001928E-02 0.  1.
    10030    2    1    2    0    0  0.00000000000E+00  0.00000000000E+00  0.12663565850E+04  0.40026173848E+04  0.37970102619E+04 0.  0.
        5    1    3    3  502    0 -0.87108856470E+03  0.16318082872E+04  0.10837654326E+04  0.21438664083E+04  0.46999998093E+01 0.  1.
       -5    1    3    3    0  502  0.87108856470E+03 -0.16318082872E+04  0.18259115237E+03  0.18587509765E+04  0.46999998093E+01 0. -1.
</event>
<event>
 5   0  0.5086209E-08  0.3805058E+04  0.7818609E-02  0.8045070E-01
        2   -1    0    0  501    0  0.00000000000E+00  0.00000000000E+00  0.20958108960E+04  0.20958108960E+04  0.25500000920E-02 0. -1.
       -2   -1    0    0    0  501  0.00000000000E+00  0.00000000000E+00 -0.17270719315E+04  0.17270719315E+04  0.25500000920E-02 0.  1.
    10030    2    1    2    0    0  0.00000000000E+00  0.00000000000E+00  0.36873896453E+03  0.38228828275E+04  0.38050577773E+04 0.  0.
        3    1    3    3  502    0 -0.10023576053E+04  0.72251725316E+03 -0.12690810562E+04  0.17712477770E+04  0.10100000352E+00 0.  1.
       -3    1    3    3    0  502  0.10023576053E+04 -0.72251725316E+03  0.16378200208E+04  0.20516350505E+04  0.10100000352E+00 0. -1.
</event>
<event>
 5   0  0.1628250E-08  0.3799800E+04  0.7818609E-02  0.8046198E-01
        1   -1    0    0  501    0  0.00000000000E+00  0.00000000000E+00  0.18722074390E+04  0.18722074390E+04  0.50400001928E-02 0.  1.
       -1   -1    0    0    0  501  0.00000000000E+00  0.00000000000E+00 -0.19280023231E+04  0.19280023231E+04  0.50400001928E-02 0. -1.
    10030    2    1    2    0    0  0.00000000000E+00  0.00000000000E+00 -0.55794884054E+02  0.38002097622E+04  0.37998001483E+04 0.  0.
        4    1    3    3  502    0 -0.32544437302E+03  0.14459569590E+04  0.11608909111E+04  0.18826510266E+04  0.12699999809E+01 0.  1.
       -4    1    3    3    0  502  0.32544437302E+03 -0.14459569590E+04 -0.12166857952E+04  0.19175587356E+04  0.12699999809E+01 0. -1.
</event>
<event>
 5   0  0.1628250E-08  0.3801901E+04  0.7818609E-02  0.8045747E-01
       -1   -1    0    0    0  501  0.00000000000E+00  0.00000000000E+00  0.12498508138E+04  0.12498508138E+04  0.50400001928E-02 0.  1.
        1   -1    0    0  501    0  0.00000000000E+00  0.00000000000E+00 -0.28912354086E+04  0.28912354086E+04  0.50400001928E-02 0. -1.
    10030    2    1    2    0    0  0.00000000000E+00  0.00000000000E+00 -0.16413845948E+04  0.41410862224E+04  0.38019010657E+04 0.  0.
        1    1    3    3  502    0 -0.56277270596E+03 -0.13894520891E+04 -0.20938731656E+04  0.25751883543E+04  0.50400001928E-02 0. -1.
       -1    1    3    3    0  502  0.56277270596E+03  0.13894520891E+04  0.45248857086E+03  0.15658978681E+04  0.50400001928E-02 0.  1.
</event>
<event>
 5   0  0.1628250E-08  0.3796715E+04  0.7818609E-02  0.8046860E-01
       -1   -1    0    0    0  501  0.00000000000E+00  0.00000000000E+00  0.17861306568E+04  0.17861306568E+04  0.50400001928E-02 0.  1.
        1   -1    0    0  501    0  0.00000000000E+00  0.00000000000E+00 -0.20176353548E+04  0.20176353548E+04  0.50400001928E-02 0. -1.
    10030    2    1    2    0    0  0.00000000000E+00  0.00000000000E+00 -0.23150469805E+03  0.38037660116E+04  0.37967145595E+04 0.  0.
        5    1    3    3  502    0  0.39241385081E+02 -0.15400697232E+04 -0.12270390535E+04  0.19695181054E+04  0.46999998093E+01 0. -1.
       -5    1    3    3    0  502 -0.39241385081E+02  0.15400697232E+04  0.99553435547E+03  0.18342479062E+04  0.46999998093E+01 0.  1.
</event>
<event>
 5   0  0.5207474E-08  0.3796513E+04  0.7818609E-02  0.8046904E-01
       -2   -1    0    0    0  501  0.00000000000E+00  0.00000000000E+00  0.21945597694E+04  0.21945597694E+04  0.25500000920E-02 0. -1.
        2   -1    0    0  501    0  0.00000000000E+00  0.00000000000E+00 -0.16419592345E+04  0.16419592345E+04  0.25500000920E-02 0.  1.
    10030    2    1    2    0    0  0.00000000000E+00  0.00000000000E+00  0.55260053493E+03  0.38365190039E+04  0.37965129680E+04 0.  0.
        4    1    3    3  502    0  0.18676386317E+04 -0.23039628031E+03  0.24233298654E+02  0.18819525420E+04  0.12699999809E+01 0.  1.
       -4    1    3    3    0  502 -0.18676386317E+04  0.23039628031E+03  0.52836723628E+03  0.19545664619E+04  0.12699999809E+01 0. -1.
</event>
<event>
 5   0  0.5207474E-08  0.3799731E+04  0.7818609E-02  0.8046213E-01
        2   -1    0    0  501    0  0.00000000000E+00  0.00000000000E+00  0.24643285226E+04  0.24643285226E+04  0.25500000920E-02 0. -1.
       -2   -1    0    0    0  501  0.00000000000E+00  0.00000000000E+00 -0.14646947934E+04  0.14646947934E+04  0.25500000920E-02 0.  1.
    10030    2    1    2    0    0  0.00000000000E+00  0.00000000000E+00  0.99963372921E+03  0.39290233160E+04  0.37997311254E+04 0.  0.
        4    1    3    3  502    0  0.12815895071E+04  0.46351355558E+03 -0.86892008530E+03  0.16162735562E+04  0.12699999809E+01 0.  1.
       -4    1    3    3    0  502 -0.12815895071E+04 -0.46351355558E+03  0.18685538145E+04  0.23127497598E+04  0.12699999809E+01 0. -1.
</event>
<event>
 5   0  0.1666051E-08  0.3797695E+04  0.7818609E-02  0.8046650E-01
        1   -1    0    0  501    0  0.00000000000E+00  0.00000000000E+00  0.27106339379E+04  0.27106339379E+04  0.50400001928E-02 0.  1.
       -1   -1    0    0    0  501  0.00000000000E+00  0.00000000000E+00 -0.13301767714E+04  0.13301767714E+04  0.50400001928E-02 0. -1.
    10030    2    1    2    0    0  0.00000000000E+00  0.00000000000E+00  0.13804571665E+04  0.40408107093E+04  0.37976952484E+04 0.  0.
        2    1    3    3  502    0 -0.15562502151E+04  0.47618062333E+03  0.17310954711E+04  0.23759954226E+04  0.25500000920E-02 0.  1.
       -2    1    3    3    0  502  0.15562502151E+04 -0.47618062333E+03 -0.35063830466E+03  0.16648152867E+04  0.25500000920E-02 0. -1.
</event>
<event>
 5   0  0.1628250E-08  0.3784609E+04  0.7818609E-02  0.8049466E-01
        1   -1    0    0  501    0  0.00000000000E+00  0.00000000000E+00  0.18781331400E+04  0.18781331400E+04  0.50400001928E-02 0.  1.
       -1   -1    0    0    0  501  0.00000000000E+00  0.00000000000E+00 -0.19065828327E+04  0.19065828327E+04  0.50400001928E-02 0. -1.
    10030    2    1    2    0    0  0.00000000000E+00  0.00000000000E+00 -0.28449692716E+02  0.37847159728E+04  0.37846090432E+04 0.  0.
        5    1    3    3  502    0 -0.66275823517E+03 -0.21803521832E+03 -0.17732533609E+04  0.19055805957E+04  0.46999998093E+01 0. -1.
       -5    1    3    3    0  502  0.66275823517E+03  0.21803521832E+03  0.17448036682E+04  0.18791353771E+04  0.46999998093E+01 0.  1.
</event>
<event>
 5   0  0.1628250E-08  0.3695331E+04  0.7818609E-02  0.8068997E-01
       -1   -1    0    0    0  501  0.00000000000E+00  0.00000000000E+00  0.25016191330E+04  0.25016191330E+04  0.50400001928E-02 0.  1.
        1   -1    0    0  501    0  0.00000000000E+00  0.00000000000E+00 -0.13646635859E+04  0.13646635859E+04  0.50400001928E-02 0. -1.
    10030    2    1    2    0    0  0.00000000000E+00  0.00000000000E+00  0.11369555471E+04  0.38662827189E+04  0.36953313987E+04 0.  0.
        5    1    3    3  502    0  0.15819930192E+04  0.85129627493E+03  0.11671669114E+03  0.18002922364E+04  0.46999998093E+01 0. -1.
       -5    1    3    3    0  502 -0.15819930192E+04 -0.85129627493E+03  0.10202388560E+04  0.20659904825E+04  0.46999998093E+01 0.  1.
</event>
<event>
 5   0  0.5140842E-08  0.3802104E+04  0.7818609E-02  0.8045704E-01
       -2   -1    0    0    0  501  0.00000000000E+00  0.00000000000E+00  0.17831401000E+04  0.17831401000E+04  0.25500000920E-02 0.  1.
        2   -1    0    0  501    0  0.00000000000E+00  0.00000000000E+00 -0.20267609793E+04  0.20267609793E+04  0.25500000920E-02 0. -1.
    10030    2    1    2    0    0  0.00000000000E+00  0.00000000000E+00 -0.24362087936E+03  0.38099010793E+04  0.38021040361E+04 0.  0.
        2    1    3    3  502    0  0.11084857443E+04  0.99246470269E+03 -0.13075679860E+04  0.19807727960E+04  0.25500000920E-02 0. -1.
       -2    1    3    3    0  502 -0.11084857443E+04 -0.99246470269E+03  0.10639471066E+04  0.18291282834E+04  0.25500000920E-02 0.  1.
</event>
<event>
 5   0  0.5086209E-08  0.3797970E+04  0.7818609E-02  0.8046591E-01
        2   -1    0    0  501    0  0.00000000000E+00  0.00000000000E+00  0.10888745675E+04  0.10888745675E+04  0.25500000920E-02 0.  1.
       -2   -1    0    0    0  501  0.00000000000E+00  0.00000000000E+00 -0.33118080529E+04  0.33118080529E+04  0.25500000920E-02 0. -1.
    10030    2    1    2    0    0  0.00000000000E+00  0.00000000000E+00 -0.22229334854E+04  0.44006826204E+04  0.37979697530E+04 0.  0.
        3    1    3    3  502    0 -0.80327324712E+03 -0.98260808871E+03  0.52527826837E+03  0.13735661014E+04  0.10100000352E+00 0.  1.
       -3    1    3    3    0  502  0.80327324712E+03  0.98260808871E+03 -0.27482117538E+04  0.30271165190E+04  0.10100000352E+00 0. -1.
</event>
<event>
 5   0  0.5147582E-08  0.3808984E+04  0.7818609E-02  0.8044230E-01
       -2   -1    0    0    0  501  0.00000000000E+00  0.00000000000E+00  0.15162092816E+04  0.15162092816E+04  0.25500000920E-02 0. -1.
        2   -1    0    0  501    0  0.00000000000E+00  0.00000000000E+00 -0.23922087555E+04  0.23922087555E+04  0.25500000920E-02 0.  1.
    10030    2    1    2    0    0  0.00000000000E+00  0.00000000000E+00 -0.87599947394E+03  0.39084180371E+04  0.38089836537E+04 0.  0.
        1    1    3    3  502    0 -0.70194058450E+03  0.66124635787E+03 -0.21231637600E+04  0.23319073056E+04  0.50400001928E-02 0.  1.
       -1    1    3    3    0  502  0.70194058450E+03 -0.66124635787E+03  0.12471642861E+04  0.15765107315E+04  0.50400001928E-02 0. -1.
</event>
<event>
 5   0  0.5140842E-08  0.3797559E+04  0.7818609E-02  0.8046679E-01
        2   -1    0    0  501    0  0.00000000000E+00  0.00000000000E+00  0.24419840935E+04  0.24419840935E+04  0.25500000920E-02 0. -1.
       -2   -1    0    0    0  501  0.00000000000E+00  0.00000000000E+00 -0.14764077920E+04  0.14764077920E+04  0.25500000920E-02 0.  1.
    10030    2    1    2    0    0  0.00000000000E+00  0.00000000000E+00  0.96557630151E+03  0.39183918856E+04  0.37975593971E+04 0.  0.
        2    1    3    3  502    0  0.10487863631E+04 -0.13902744996E+03  0.21096890313E+04  0.23600994208E+04  0.25500000920E-02 0. -1.
       -2    1    3    3    0  502 -0.10487863631E+04  0.13902744996E+03 -0.11441127298E+04  0.15582924648E+04  0.25500000920E-02 0.  1.
</event>
<event>
 5   0  0.5086209E-08  0.3791209E+04  0.7818609E-02  0.8048044E-01
       -2   -1    0    0    0  501  0.00000000000E+00  0.00000000000E+00  0.21401034906E+04  0.21401034906E+04  0.25500000920E-02 0.  1.
        2   -1    0    0  501    0  0.00000000000E+00  0.00000000000E+00 -0.16790389322E+04  0.16790389322E+04  0.25500000920E-02 0. -1.
    10030    2    1    2    0    0  0.00000000000E+00  0.00000000000E+00  0.46106455840E+03  0.38191424227E+04  0.37912093477E+04 0.  0.
        3    1    3    3  502    0 -0.51366694354E+03 -0.18141076187E+04  0.42813278766E+03  0.19334264598E+04  0.10100000352E+00 0.  1.
       -3    1    3    3    0  502  0.51366694354E+03  0.18141076187E+04  0.32931770740E+02  0.18857159630E+04  0.10100000352E+00 0. -1.
</event>
<event>
 5   0  0.1628250E-08  0.3805209E+04  0.7818609E-02  0.8045038E-01
        1   -1    0    0  501    0  0.00000000000E+00  0.00000000000E+00  0.20085529537E+04  0.20085529537E+04  0.50400001928E-02 0. -1.
       -1   -1    0    0    0  501  0.00000000000E+00  0.00000000000E+00 -0.18022448071E+04  0.18022448071E+04  0.50400001928E-02 0.  1.
    10030    2    1    2    0    0  0.00000000000E+00  0.00000000000E+00  0.20630814658E+03  0.38107977607E+04  0.38052091299E+04 0.  0.
        5    1    3    3  502    0 -0.12405356775E+04  0.25190281071E+03 -0.13193186729E+04  0.18283893579E+04  0.46999998093E+01 0.  1.
       -5    1    3    3    0  502  0.12405356775E+04 -0.25190281071E+03  0.15256268195E+04  0.19824084029E+04  0.46999998093E+01 0. -1.
</event>
<event>
 5   0  0.5159761E-08  0.3799501E+04  0.7818609E-02  0.8046262E-01
       -2   -1    0    0    0  501  0.00000000000E+00  0.00000000000E+00  0.23145943852E+04  0.23145943852E+04  0.25500000920E-02 0.  1.
        2   -1    0    0  501    0  0.00000000000E+00  0.00000000000E+00 -0.15592587723E+04  0.15592587723E+04  0.25500000920E-02 0. -1.
    10030    2    1    2    0    0  0.00000000000E+00  0.00000000000E+00  0.75533561290E+03  0.38738531574E+04  0.37995008090E+04 0.  0.
        5    1    3    3  502    0 -0.12056518227E+04 -0.99259508589E+03  0.14805889637E+04  0.21519774840E+04  0.46999998093E+01 0.  1.
       -5    1    3    3    0  502  0.12056518227E+04  0.99259508589E+03 -0.72525335077E+03  0.17218756735E+04  0.46999998093E+01 0. -1.
</event>
<event>
 5   0  0.1628250E-08  0.3788583E+04  0.7818609E-02  0.8048609E-01
       -1   -1    0    0    0  501  0.00000000000E+00  0.00000000000E+00  0.11962598330E+04  0.11962598330E+04  0.50400001928E-02 0.  1.
        1   -1    0    0  501    0  0.00000000000E+00  0.00000000000E+00 -0.29996324337E+04  0.29996324337E+04  0.50400001928E-02 0. -1.
    10030    2    1    2    0    0  0.00000000000E+00  0.00000000000E+00 -0.18033726007E+04  0.41958922667E+04  0.37885827399E+04 0.  0.
        5    1    3    3  502    0  0.48372503457E+03 -0.16064133987E+04 -0.18758944377E+04  0.25166557071E+04  0.46999998093E+01 0. -1.
       -5    1    3    3    0  502 -0.48372503457E+03  0.16064133987E+04  0.72521837000E+02  0.16792365597E+04  0.46999998093E+01 0.  1.
</event>
<event>
 5   0  0.1628473E-08  0.3789543E+04  0.7818609E-02  0.8048403E-01
        1   -1    0    0  501    0  0.00000000000E+00  0.00000000000E+00  0.13195253850E+04  0.13195253850E+04  0.50400001928E-02 0. -1.
       -1   -1    0    0    0  501  0.00000000000E+00  0.00000000000E+00 -0.27207951194E+04  0.27207951194E+04  0.50400001928E-02 0.  1.
    10030    2    1    2    0    0  0.00000000000E+00  0.00000000000E+00 -0.14012697344E+04  0.40403205044E+04  0.37895425726E+04 0.  0.
        3    1    3    3  502    0 -0.15434443886E+04  0.94010148443E+03 -0.13076505619E+04  0.22306863034E+04  0.10100000352E+00 0.  1.
       -3    1    3    3    0  502  0.15434443886E+04 -0.94010148443E+03 -0.93619172456E+02  0.18096342010E+04  0.10100000352E+00 0. -1.
</event>
<event>
 5   0  0.5086209E-08  0.3795540E+04  0.7818609E-02  0.8047113E-01
       -2   -1    0    0    0  501  0.00000000000E+00  0.00000000000E+00  0.13929044683E+04  0.13929044683E+04  0.25500000920E-02 0. -1.
        2   -1    0    0  501    0  0.00000000000E+00  0.00000000000E+00 -0.25856263696E+04  0.25856263696E+04  0.25500000920E-02 0.  1.
    10030    2    1    2    0    0  0.00000000000E+00  0.00000000000E+00 -0.11927219013E+04  0.39785308379E+04  0.37955397632E+04 0.  0.
        3    1    3    3  502    0  0.10879038666E+04  0.43388829772E+03  0.96886113709E+03  0.15200282204E+04  0.10100000352E+00 0. -1.
       -3    1    3    3    0  502 -0.10879038666E+04 -0.43388829772E+03 -0.21615830384E+04  0.24585026175E+04  0.10100000352E+00 0.  1.
</event>
<event>
 5   0  0.1628250E-08  0.3798349E+04  0.7818609E-02  0.8046509E-01
       -1   -1    0    0    0  501  0.00000000000E+00  0.00000000000E+00  0.29966250838E+04  0.29966250838E+04  0.50400001928E-02 0. -1.
        1   -1    0    0  501    0  0.00000000000E+00  0.00000000000E+00 -0.12036422903E+04  0.12036422903E+04  0.50400001928E-02 0.  1.
    10030    2    1    2    0    0  0.00000000000E+00  0.00000000000E+00  0.17929827936E+04  0.42002673741E+04  0.37983494726E+04 0.  0.
        1    1    3    3  502    0 -0.15183268281E+04  0.89807343549E+03  0.16745101539E+04  0.24322492693E+04  0.50400001928E-02 0. -1.
       -1    1    3    3    0  502  0.15183268281E+04 -0.89807343549E+03  0.11847263962E+03  0.17680181048E+04  0.50400001928E-02 0.  1.
</event>
<event>
 5   0  0.1628250E-08  0.3814131E+04  0.7818609E-02  0.8043129E-01
       -1   -1    0    0    0  501  0.00000000000E+00  0.00000000000E+00  0.21089617590E+04  0.21089617590E+04  0.50400001928E-02 0. -1.
        1   -1    0    0  501    0  0.00000000000E+00  0.00000000000E+00 -0.17244969850E+04  0.17244969850E+04  0.50400001928E-02 0.  1.
    10030    2    1    2    0    0  0.00000000000E+00  0.00000000000E+00  0.38446477400E+03  0.38334587440E+04  0.38141306716E+04 0.  0.
        5    1    3    3  502    0  0.33196212658E+02 -0.22140124270E+03 -0.17112379739E+04  0.17258267561E+04  0.46999998093E+01 0.  1.
       -5    1    3    3    0  502 -0.33196212658E+02  0.22140124270E+03  0.20957027479E+04  0.21076319879E+04  0.46999998093E+01 0. -1.
</event>
<event>
 5   0  0.1628250E-08  0.3800741E+04  0.7818609E-02  0.8045996E-01
        1   -1    0    0  501    0  0.00000000000E+00  0.00000000000E+00  0.13056985456E+04  0.13056985456E+04  0.50400001928E-02 0. -1.
       -1   -1    0    0    0  501  0.00000000000E+00  0.00000000000E+00 -0.27658825475E+04  0.27658825475E+04  0.50400001928E-02 0.  1.
    10030    2    1    2    0    0  0.00000000000E+00  0.00000000000E+00 -0.14601840019E+04  0.40715810931E+04  0.38007414117E+04 0.  0.
        4    1    3    3  502    0  0.78217692549E+03  0.11805927508E+04  0.62741309759E+03  0.15489508688E+04  0.12699999809E+01 0. -1.
       -4    1    3    3    0  502 -0.78217692549E+03 -0.11805927508E+04 -0.20875970995E+04  0.25226302243E+04  0.12699999809E+01 0.  1.
</event>
<event>
 5   0  0.1628250E-08  0.3787863E+04  0.7818609E-02  0.8048764E-01
        1   -1    0    0  501    0  0.00000000000E+00  0.00000000000E+00  0.20717488432E+04  0.20717488432E+04  0.50400001928E-02 0. -1.
       -1   -1    0    0    0  501  0.00000000000E+00  0.00000000000E+00 -0.17313760700E+04  0.17313760700E+04  0.50400001928E-02 0.  1.
    10030    2    1    2    0    0  0.00000000000E+00  0.00000000000E+00  0.34037277318E+03  0.38031249132E+04  0.37878629174E+04 0.  0.
        5    1    3    3  502    0 -0.10436329787E+04  0.11115926394E+04  0.12981658273E+04  0.20025145681E+04  0.46999998093E+01 0. -1.
       -5    1    3    3    0  502  0.10436329787E+04 -0.11115926394E+04 -0.95779305417E+03  0.18006103451E+04  0.46999998093E+01 0.  1.
</event>
<event>
 5   0  0.5207474E-08  0.3800773E+04  0.7818609E-02  0.8045989E-01
        2   -1    0    0  501    0  0.00000000000E+00  0.00000000000E+00  0.26625120276E+04  0.26625120276E+04  0.25500000920E-02 0. -1.
       -2   -1    0    0    0  501  0.00000000000E+00  0.00000000000E+00 -0.13564140663E+04  0.13564140663E+04  0.25500000920E-02 0.  1.
    10030    2    1    2    0    0  0.00000000000E+00  0.00000000000E+00  0.13060979613E+04  0.40189260939E+04  0.38007729561E+04 0.  0.
        4    1    3    3  502    0  0.42554463646E+02  0.64160807905E+03  0.25439857468E+04  0.26239925500E+04  0.12699999809E+01 0. -1.
       -4    1    3    3    0  502 -0.42554463646E+02 -0.64160807905E+03 -0.12378877855E+04  0.13949335439E+04  0.12699999809E+01 0.  1.
</event>
<event>
 5   0  0.5147582E-08  0.3803079E+04  0.7818609E-02  0.8045495E-01
       -2   -1    0    0    0  501  0.00000000000E+00  0.00000000000E+00  0.26432506451E+04  0.26432506451E+04  0.25500000920E-02 0.  1.
        2   -1    0    0  501    0  0.00000000000E+00  0.00000000000E+00 -0.13679564052E+04  0.13679564052E+04  0.25500000920E-02 0. -1.
    10030    2    1    2    0    0  0.00000000000E+00  0.00000000000E+00  0.12752942399E+04  0.40112070503E+04  0.38030785690E+04 0.  0.
        1    1    3    3  502    0 -0.82650111569E+03 -0.16027253200E+04  0.12885886545E+01  0.18032842833E+04  0.50400001928E-02 0. -1.
       -1    1    3    3    0  502  0.82650111569E+03  0.16027253200E+04  0.12740056513E+04  0.22079227671E+04  0.50400001928E-02 0.  1.
</event>
<event>
 5   0  0.1628250E-08  0.3784667E+04  0.7818609E-02  0.8049453E-01
        1   -1    0    0  501    0  0.00000000000E+00  0.00000000000E+00  0.31837090315E+04  0.31837090315E+04  0.50400001928E-02 0.  1.
       -1   -1    0    0    0  501  0.00000000000E+00  0.00000000000E+00 -0.11247656175E+04  0.11247656175E+04  0.50400001928E-02 0. -1.
    10030    2    1    2    0    0  0.00000000000E+00  0.00000000000E+00  0.20589434140E+04  0.43084746490E+04  0.37846672005E+04 0.  0.
        4    1    3    3  502    0  0.11151018164E+04  0.12622950864E+03 -0.70506632715E+03  0.13253324445E+04  0.12699999809E+01 0.  1.
       -4    1    3    3    0  502 -0.11151018164E+04 -0.12622950864E+03  0.27640097412E+04  0.29831422045E+04  0.12699999809E+01 0. -1.
</event>
<event>
 5   0  0.5140842E-08  0.3828394E+04  0.7818609E-02  0.8040089E-01
       -2   -1    0    0    0  501  0.00000000000E+00  0.00000000000E+00  0.18267146801E+04  0.18267146801E+04  0.25500000920E-02 0.  1.
        2   -1    0    0  501    0  0.00000000000E+00  0.00000000000E+00 -0.20058689972E+04  0.20058689972E+04  0.25500000920E-02 0. -1.
    10030    2    1    2    0    0  0.00000000000E+00  0.00000000000E+00 -0.17915431711E+03  0.38325836773E+04  0.38283940986E+04 0.  0.
        2    1    3    3  502    0 -0.96687969220E+03 -0.76057197759E+03 -0.15577509660E+04  0.19849216973E+04  0.25500000920E-02 0. -1.
       -2    1    3    3    0  502  0.96687969220E+03  0.76057197759E+03  0.13785966489E+04  0.18476619801E+04  0.25500000920E-02 0.  1.
</event>
<event>
 5   0  0.1628250E-08  0.3816607E+04  0.7818609E-02  0.8042601E-01
       -1   -1    0    0    0  501  0.00000000000E+00  0.00000000000E+00  0.27188150998E+04  0.27188150998E+04  0.50400001928E-02 0.  1.
        1   -1    0    0  501    0  0.00000000000E+00  0.00000000000E+00 -0.13394148829E+04  0.13394148829E+04  0.50400001928E-02 0. -1.
    10030    2    1    2    0    0  0.00000000000E+00  0.00000000000E+00  0.13794002168E+04  0.40582299827E+04  0.38166065601E+04 0.  0.
        5    1    3    3  502    0 -0.17571535384E+04 -0.45027212483E+03  0.59501875574E+02  0.18149093937E+04  0.46999998093E+01 0. -1.
       -5    1    3    3    0  502  0.17571535384E+04  0.45027212483E+03  0.13198983413E+04  0.22433205891E+04  0.46999998093E+01 0.  1.
</event>
<event>
 5   0  0.5140842E-08  0.3796751E+04  0.7818609E-02  0.8046852E-01
       -2   -1    0    0    0  501  0.00000000000E+00  0.00000000000E+00  0.22250842118E+04  0.22250842118E+04  0.25500000920E-02 0. -1.
        2   -1    0    0  501    0  0.00000000000E+00  0.00000000000E+00 -0.16196374970E+04  0.16196374971E+04  0.25500000920E-02 0.  1.
    10030    2    1    2    0    0  0.00000000000E+00  0.00000000000E+00  0.60544671480E+03  0.38447217089E+04  0.37967511499E+04 0.  0.
        2    1    3    3  502    0 -0.70451867822E+03  0.17284209003E+04  0.65357524274E+03  0.19776111788E+04  0.25500000920E-02 0.  1.
       -2    1    3    3    0  502  0.70451867822E+03 -0.17284209003E+04 -0.48128527939E+02  0.18671105301E+04  0.25500000920E-02 0. -1.
</event>
<event>
 5   0  0.1628250E-08  0.3803568E+04  0.7818609E-02  0.8045390E-01
        1   -1    0    0  501    0  0.00000000000E+00  0.00000000000E+00  0.28443549756E+04  0.28443549756E+04  0.50400001928E-02 0.  1.
       -1   -1    0    0    0  501  0.00000000000E+00  0.00000000000E+00 -0.12715647777E+04  0.12715647778E+04  0.50400001928E-02 0. -1.
    10030    2    1    2    0    0  0.00000000000E+00  0.00000000000E+00  0.15727901979E+04  0.41159197534E+04  0.38035675898E+04 0.  0.
        4    1    3    3  502    0  0.81899576268E+03 -0.13532189308E+04  0.19289550689E+04  0.24945590402E+04  0.12699999809E+01 0.  1.
       -4    1    3    3    0  502 -0.81899576268E+03  0.13532189308E+04 -0.35616487104E+03  0.16213607132E+04  0.12699999809E+01 0. -1.
</event>
<event>
 5   0  0.1628250E-08  0.3882971E+04  0.7818609E-02  0.8028580E-01
        1   -1    0    0  501    0  0.00000000000E+00  0.00000000000E+00  0.16478995492E+04  0.16478995492E+04  0.50400001928E-02 0.  1.
       -1   -1    0    0    0  501  0.00000000000E+00  0.00000000000E+00 -0.22873762422E+04  0.22873762422E+04  0.50400001928E-02 0. -1.
    10030    2    1    2    0    0  0.00000000000E+00  0.00000000000E+00 -0.63947669297E+03  0.39352757914E+04  0.38829711709E+04 0.  0.
        4    1    3    3  502    0 -0.21897355672E+03  0.83564687017E+03 -0.20818683697E+04  0.22539815066E+04  0.12699999809E+01 0. -1.
       -4    1    3    3    0  502  0.21897355672E+03 -0.83564687017E+03  0.14423916768E+04  0.16812942848E+04  0.12699999809E+01 0.  1.
</event>
<event>
 5   0  0.1628250E-08  0.3798376E+04  0.7818609E-02  0.8046504E-01
       -1   -1    0    0    0  501  0.00000000000E+00  0.00000000000E+00  0.31858480047E+04  0.31858480047E+04  0.50400001928E-02 0. -1.
        1   -1    0    0  501    0  0.00000000000E+00  0.00000000000E+00 -0.11321678265E+04  0.11321678266E+04  0.50400001928E-02 0.  1.
    10030    2    1    2    0    0  0.00000000000E+00  0.00000000000E+00  0.20536801781E+04  0.43180158312E+04  0.37983757640E+04 0.  0.
        4    1    3    3  502    0 -0.11828989955E+04 -0.17973024173E+03  0.27035266132E+04  0.29564523934E+04  0.12699999809E+01 0. -1.
       -4    1    3    3    0  502  0.11828989955E+04  0.17973024173E+03 -0.64984643504E+03  0.13615634379E+04  0.12699999809E+01 0.  1.
</event>
<event>
 5   0  0.5140842E-08  0.3801847E+04  0.7818609E-02  0.8045759E-01
       -2   -1    0    0    0  501  0.00000000000E+00  0.00000000000E+00  0.25598038542E+04  0.25598038542E+04  0.25500000920E-02 0.  1.
        2   -1    0    0  501    0  0.00000000000E+00  0.00000000000E+00 -0.14116354561E+04  0.14116354561E+04  0.25500000920E-02 0. -1.
    10030    2    1    2    0    0  0.00000000000E+00  0.00000000000E+00  0.11481683981E+04  0.39714393103E+04  0.38018468571E+04 0.  0.
        2    1    3    3  502    0 -0.11750414576E+04  0.14341613484E+04  0.10122828139E+04  0.21124056655E+04  0.25500000920E-02 0.  1.
       -2    1    3    3    0  502  0.11750414576E+04 -0.14341613484E+04  0.13588558425E+03  0.18590336448E+04  0.25500000920E-02 0. -1.
</event>
<event>
 5   0  0.5159761E-08  0.3780394E+04  0.7818609E-02  0.8050375E-01
       -2   -1    0    0    0  501  0.00000000000E+00  0.00000000000E+00  0.21787686479E+04  0.21787686479E+04  0.25500000920E-02 0.  1.
        2   -1    0    0  501    0  0.00000000000E+00  0.00000000000E+00 -0.16398458944E+04  0.16398458944E+04  0.25500000920E-02 0. -1.
    10030    2    1    2    0    0  0.00000000000E+00  0.00000000000E+00  0.53892275351E+03  0.38186145423E+04  0.37803940652E+04 0.  0.
        5    1    3    3  502    0  0.65916091864E+03 -0.12613797729E+04  0.15259226032E+04  0.20866321978E+04  0.46999998093E+01 0.  1.
       -5    1    3    3    0  502 -0.65916091864E+03  0.12613797729E+04 -0.98699984964E+03  0.17319823444E+04  0.46999998093E+01 0. -1.
</event>
<event>
 5   0  0.5159761E-08  0.3763058E+04  0.7818609E-02  0.8054129E-01
       -2   -1    0    0    0  501  0.00000000000E+00  0.00000000000E+00  0.26028286859E+04  0.26028286859E+04  0.25500000920E-02 0. -1.
        2   -1    0    0  501    0  0.00000000000E+00  0.00000000000E+00 -0.13601172446E+04  0.13601172446E+04  0.25500000920E-02 0.  1.
    10030    2    1    2    0    0  0.00000000000E+00  0.00000000000E+00  0.12427114413E+04  0.39629459306E+04  0.37630584266E+04 0.  0.
        5    1    3    3  502    0 -0.18494885838E+04 -0.56881493862E+02  0.98047767505E+03  0.20940874115E+04  0.46999998093E+01 0. -1.
       -5    1    3    3    0  502  0.18494885838E+04  0.56881493862E+02  0.26223376622E+03  0.18688585190E+04  0.46999998093E+01 0.  1.
</event>
<event>
 5   0  0.5207474E-08  0.3802212E+04  0.7818609E-02  0.8045680E-01
        2   -1    0    0  501    0  0.00000000000E+00  0.00000000000E+00  0.24085192964E+04  0.24085192964E+04  0.25500000920E-02 0.  1.
       -2   -1    0    0    0  501  0.00000000000E+00  0.00000000000E+00 -0.15005918857E+04  0.15005918857E+04  0.25500000920E-02 0. -1.
    10030    2    1    2    0    0  0.00000000000E+00  0.00000000000E+00  0.90792741068E+03  0.39091111821E+04  0.38022122575E+04 0.  0.
        4    1    3    3  502    0 -0.17468143457E+04 -0.69686762331E+03  0.73965769280E+03  0.20209106754E+04  0.12699999809E+01 0.  1.
       -4    1    3    3    0  502  0.17468143457E+04  0.69686762331E+03  0.16826971788E+03  0.18882005067E+04  0.12699999809E+01 0. -1.
</event>
<event>
 5   0  0.1628250E-08  0.3795227E+04  0.7818609E-02  0.8047180E-01
        1   -1    0    0  501    0  0.00000000000E+00  0.00000000000E+00  0.19818620172E+04  0.19818620173E+04  0.50400001928E-02 0.  1.
       -1   -1    0    0    0  501  0.00000000000E+00  0.00000000000E+00 -0.18169467476E+04  0.18169467476E+04  0.50400001928E-02 0. -1.
    10030    2    1    2    0    0  0.00000000000E+00  0.00000000000E+00  0.16491526969E+03  0.37988087648E+04  0.37952273958E+04 0.  0.
        4    1    3    3  502    0  0.10964963638E+04  0.50476630616E+03  0.15480260640E+04  0.19630281728E+04  0.12699999809E+01 0. -1.
       -4    1    3    3    0  502 -0.10964963638E+04 -0.50476630616E+03 -0.13831107943E+04  0.18357805920E+04  0.12699999809E+01 0.  1.
</event>
<event>
 5   0  0.1666051E-08  0.3799106E+04  0.7818609E-02  0.8046347E-01
        1   -1    0    0  501    0  0.00000000000E+00  0.00000000000E+00  0.31396691156E+04  0.31396691156E+04  0.50400001928E-02 0.  1.
       -1   -1    0    0    0  501  0.00000000000E+00  0.00000000000E+00 -0.11492617510E+04  0.11492617510E+04  0.50400001928E-02 0. -1.
    10030    2    1    2    0    0  0.00000000000E+00  0.00000000000E+00  0.19904073646E+04  0.42889308665E+04  0.37991060134E+04 0.  0.
        2    1    3    3  502    0 -0.14598170170E+04  0.11943240919E+04  0.74069064967E+03  0.20263510056E+04  0.25500000920E-02 0.  1.
       -2    1    3    3    0  502  0.14598170170E+04 -0.11943240919E+04  0.12497167149E+04  0.22625798609E+04  0.25500000920E-02 0. -1.
</event>
<event>
 5   0  0.5140842E-08  0.3801229E+04  0.7818609E-02  0.8045891E-01
       -2   -1    0    0    0  501  0.00000000000E+00  0.00000000000E+00  0.18018587672E+04  0.18018587672E+04  0.25500000920E-02 0. -1.
        2   -1    0    0  501    0  0.00000000000E+00  0.00000000000E+00 -0.20047829093E+04  0.20047829093E+04  0.25500000920E-02 0.  1.
    10030    2    1    2    0    0  0.00000000000E+00  0.00000000000E+00 -0.20292414214E+03  0.38066416766E+04  0.38012290968E+04 0.  0.
        2    1    3    3  502    0  0.12631857945E+04 -0.11899667511E+04  0.67467468782E+03  0.18619466036E+04  0.25500000920E-02 0. -1.
       -2    1    3    3    0  502 -0.12631857945E+04  0.11899667511E+04 -0.87759882996E+03  0.19446950729E+04  0.25500000920E-02 0.  1.
</event>
<event>
 5   0  0.1666051E-08  0.3787175E+04  0.7818609E-02  0.8048913E-01
        1   -1    0    0  501    0  0.00000000000E+00  0.00000000000E+00  0.21517395555E+04  0.21517395555E+04  0.50400001928E-02 0. -1.
       -1   -1    0    0    0  501  0.00000000000E+00  0.00000000000E+00 -0.16664072022E+04  0.16664072022E+04  0.50400001928E-02 0.  1.
    10030    2    1    2    0    0  0.00000000000E+00  0.00000000000E+00  0.48533235331E+03  0.38181467577E+04  0.37871753551E+04 0.  0.
        2    1    3    3  502    0 -0.11779839617E+04  0.14429284171E+04  0.58601799785E+03  0.19527175230E+04  0.25500000920E-02 0. -1.
       -2    1    3    3    0  502  0.11779839617E+04 -0.14429284171E+04 -0.10068564454E+03  0.18654292347E+04  0.25500000920E-02 0.  1.
</event>
<event>
 5   0  0.5086209E-08  0.3802312E+04  0.7818609E-02  0.8045659E-01
       -2   -1    0    0    0  501  0.00000000000E+00  0.00000000000E+00  0.20866891029E+04  0.20866891029E+04  0.25500000920E-02 0.  1.
        2   -1    0    0  501    0  0.00000000000E+00  0.00000000000E+00 -0.17321188367E+04  0.17321188367E+04  0.25500000920E-02 0. -1.
    10030    2    1    2    0    0  0.00000000000E+00  0.00000000000E+00  0.35457026617E+03  0.38188079397E+04  0.38023116661E+04 0.  0.
        3    1    3    3  502    0  0.17694044571E+03  0.18802858942E+03 -0.17144286807E+04  0.17337613397E+04  0.10100000352E+00 0. -1.
       -3    1    3    3    0  502 -0.17694044571E+03 -0.18802858942E+03  0.20689989468E+04  0.20850466000E+04  0.10100000352E+00 0.  1.
</event>
<event>
 5   0  0.5159761E-08  0.3794416E+04  0.7818609E-02  0.8047354E-01
       -2   -1    0    0    0  501  0.00000000000E+00  0.00000000000E+00  0.29226884184E+04  0.29226884184E+04  0.25500000920E-02 0. -1.
        2   -1    0    0  501    0  0.00000000000E+00  0.00000000000E+00 -0.12315370020E+04  0.12315370020E+04  0.25500000920E-02 0.  1.
    10030    2    1    2    0    0  0.00000000000E+00  0.00000000000E+00  0.16911514164E+04  0.41542254204E+04  0.37944163886E+04 0.  0.
        5    1    3    3  502    0  0.14542497576E+04  0.58310265330E+03  0.20168479779E+04  0.25539281348E+04  0.46999998093E+01 0. -1.
       -5    1    3    3    0  502 -0.14542497576E+04 -0.58310265330E+03 -0.32569656147E+03  0.16002972855E+04  0.46999998093E+01 0.  1.
</event>
<event>
 5   0  0.1628250E-08  0.3795500E+04  0.7818609E-02  0.8047121E-01
        1   -1    0    0  501    0  0.00000000000E+00  0.00000000000E+00  0.19929074921E+04  0.19929074921E+04  0.50400001928E-02 0. -1.
       -1   -1    0    0    0  501  0.00000000000E+00  0.00000000000E+00 -0.18071357510E+04  0.18071357510E+04  0.50400001928E-02 0.  1.
    10030    2    1    2    0    0  0.00000000000E+00  0.00000000000E+00  0.18577174108E+03  0.38000432431E+04  0.37954996390E+04 0.  0.
        5    1    3    3  502    0 -0.16050791459E+04 -0.80651448202E+03  0.70573595771E+03  0.19299818668E+04  0.46999998093E+01 0. -1.
       -5    1    3    3    0  502  0.16050791459E+04  0.80651448202E+03 -0.51996421663E+03  0.18700613762E+04  0.46999998093E+01 0.  1.
</event>
<event>
 5   0  0.1628473E-08  0.3798071E+04  0.7818609E-02  0.8046569E-01
        1   -1    0    0  501    0  0.00000000000E+00  0.00000000000E+00  0.25201235110E+04  0.25201235110E+04  0.50400001928E-02 0.  1.
       -1   -1    0    0    0  501  0.00000000000E+00  0.00000000000E+00 -0.14310155273E+04  0.14310155273E+04  0.50400001928E-02 0. -1.
    10030    2    1    2    0    0  0.00000000000E+00  0.00000000000E+00  0.10891079837E+04  0.39511390383E+04  0.37980710236E+04 0.  0.
        3    1    3    3  502    0 -0.78743806450E+03 -0.16037725262E+04  0.12140677065E+04  0.21601169939E+04  0.10100000352E+00 0.  1.
       -3    1    3    3    0  502  0.78743806450E+03  0.16037725262E+04 -0.12495972285E+03  0.17910220444E+04  0.10100000352E+00 0. -1.
</event>
<event>
 5   0  0.5086209E-08  0.3779181E+04  0.7818609E-02  0.8050637E-01
       -2   -1    0    0    0  501  0.00000000000E+00  0.00000000000E+00  0.21112037810E+04  0.21112037810E+04  0.25500000920E-02 0.  1.
        2   -1    0    0  501    0  0.00000000000E+00  0.00000000000E+00 -0.16912397471E+04  0.16912397471E+04  0.25500000920E-02 0. -1.
    10030    2    1    2    0    0  0.00000000000E+00  0.00000000000E+00  0.41996403385E+03  0.38024435282E+04  0.37791807307E+04 0.  0.
        3    1    3    3  502    0  0.28765380039E+02  0.60160617843E+03  0.20120383655E+04  0.21002513743E+04  0.10100000352E+00 0.  1.
       -3    1    3    3    0  502 -0.28765380039E+02 -0.60160617843E+03 -0.15920743316E+04  0.17021921538E+04  0.10100000352E+00 0. -1.
</event>
<event>
 5   0  0.5147582E-08  0.3760351E+04  0.7818609E-02  0.8054717E-01
        2   -1    0    0  501    0  0.00000000000E+00  0.00000000000E+00  0.27682285484E+04  0.27682285484E+04  0.25500000920E-02 0.  1.
       -2   -1    0    0    0  501  0.00000000000E+00  0.00000000000E+00 -0.12770114012E+04  0.12770114012E+04  0.25500000920E-02 0. -1.
    10030    2    1    2    0    0  0.00000000000E+00  0.00000000000E+00  0.14912171472E+04  0.40452399496E+04  0.37603507376E+04 0.  0.
        1    1    3    3  502    0 -0.18684839570E+04 -0.20873971629E+03  0.72843506593E+03  0.20162892183E+04  0.50400001928E-02 0. -1.
       -1    1    3    3    0  502  0.18684839570E+04  0.20873971629E+03  0.76278208124E+03  0.20289507313E+04  0.50400001928E-02 0.  1.
</event>
<event>
 5   0  0.5147582E-08  0.3801244E+04  0.7818609E-02  0.8045888E-01
        2   -1    0    0  501    0  0.00000000000E+00  0.00000000000E+00  0.31325388356E+04  0.31325388356E+04  0.25500000920E-02 0.  1.
       -2   -1    0    0    0  501  0.00000000000E+00  0.00000000000E+00 -0.11531748176E+04  0.11531748176E+04  0.25500000920E-02 0. -1.
    10030    2    1    2    0    0  0.00000000000E+00  0.00000000000E+00  0.19793640181E+04  0.42857136532E+04  0.38012444806E+04 0.  0.
        1    1    3    3  502    0 -0.32345813587E+03 -0.18384071756E+04  0.13930489322E+04  0.23291525147E+04  0.50400001928E-02 0.  1.
       -1    1    3    3    0  502  0.32345813587E+03  0.18384071756E+04  0.58631508582E+03  0.19565611385E+04  0.50400001928E-02 0. -1.
</event>
<event>
 5   0  0.5140842E-08  0.3803787E+04  0.7818609E-02  0.8045343E-01
        2   -1    0    0  501    0  0.00000000000E+00  0.00000000000E+00  0.28450622556E+04  0.28450622556E+04  0.25500000920E-02 0.  1.
       -2   -1    0    0    0  501  0.00000000000E+00  0.00000000000E+00 -0.12713955619E+04  0.12713955619E+04  0.25500000920E-02 0. -1.
    10030    2    1    2    0    0  0.00000000000E+00  0.00000000000E+00  0.15736666937E+04  0.41164578174E+04  0.38037873363E+04 0.  0.
        2    1    3    3  502    0  0.14447400269E+04  0.60029451611E+03 -0.38353070347E+03  0.16108144064E+04  0.25500000920E-02 0. -1.
       -2    1    3    3    0  502 -0.14447400269E+04 -0.60029451611E+03  0.19571973972E+04  0.25056434110E+04  0.25500000920E-02 0.  1.
</event>
<event>
 5   0  0.1628250E-08  0.3815411E+04  0.7818609E-02  0.8042856E-01
       -1   -1    0    0    0  501  0.00000000000E+00  0.00000000000E+00  0.16327919834E+04  0.16327919834E+04  0.50400001928E-02 0. -1.
        1   -1    0    0  501    0  0.00000000000E+00  0.00000000000E+00 -0.22289059183E+04  0.22289059183E+04  0.50400001928E-02 0.  1.
    10030    2    1    2    0    0  0.00000000000E+00  0.00000000000E+00 -0.59611393492E+03  0.38616979017E+04  0.38154107067E+04 0.  0.
        1    1    3    3  502    0 -0.15925701013E+04 -0.10386112549E+04 -0.14012924236E+03  0.19064703174E+04  0.50400001928E-02 0.  1.
       -1    1    3    3    0  502  0.15925701013E+04  0.10386112549E+04 -0.45598469256E+03  0.19552275843E+04  0.50400001928E-02 0. -1.
</event>
<event>
 5   0  0.5147582E-08  0.3798088E+04  0.7818609E-02  0.8046565E-01
        2   -1    0    0  501    0  0.00000000000E+00  0.00000000000E+00  0.26083432201E+04  0.26083432201E+04  0.25500000920E-02 0. -1.
       -2   -1    0    0    0  501  0.00000000000E+00  0.00000000000E+00 -0.13826280360E+04  0.13826280360E+04  0.25500000920E-02 0.  1.
    10030    2    1    2    0    0  0.00000000000E+00  0.00000000000E+00  0.12257151841E+04  0.39909712562E+04  0.37980881842E+04 0.  0.
        1    1    3    3  502    0  0.18969970080E+04 -0.64828186876E+02  0.67562488101E+03  0.20147628451E+04  0.50400001928E-02 0. -1.
       -1    1    3    3    0  502 -0.18969970080E+04  0.64828186876E+02  0.55009030307E+03  0.19762084110E+04  0.50400001928E-02 0.  1.
</event>
<event>
 5   0  0.5207474E-08  0.3813623E+04  0.7818609E-02  0.8043238E-01
        2   -1    0    0  501    0  0.00000000000E+00  0.00000000000E+00  0.21640541904E+04  0.21640541904E+04  0.25500000920E-02 0.  1.
       -2   -1    0    0    0  501  0.00000000000E+00  0.00000000000E+00 -0.16801477546E+04  0.16801477546E+04  0.25500000920E-02 0. -1.
    10030    2    1    2    0    0  0.00000000000E+00  0.00000000000E+00  0.48390643583E+03  0.38442019451E+04  0.38136233631E+04 0.  0.
        4    1    3    3  502    0  0.11226806672E+04 -0.29047907743E+03  0.17677409991E+04  0.21141664617E+04  0.12699999809E+01 0.  1.
       -4    1    3    3    0  502 -0.11226806672E+04  0.29047907743E+03 -0.12838345633E+04  0.17300354834E+04  0.12699999809E+01 0. -1.
</event>
<event>
 5   0  0.5086209E-08  0.3805349E+04  0.7818609E-02  0.8045008E-01
        2   -1    0    0  501    0  0.00000000000E+00  0.00000000000E+00  0.30393114340E+04  0.30393114340E+04  0.25500000920E-02 0.  1.
       -2   -1    0    0    0  501  0.00000000000E+00  0.00000000000E+00 -0.11911153028E+04  0.11911153028E+04  0.25500000920E-02 0. -1.
    10030    2    1    2    0    0  0.00000000000E+00  0.00000000000E+00  0.18481961312E+04  0.42304267368E+04  0.38053490558E+04 0.  0.
        3    1    3    3  502    0 -0.11675350057E+04  0.11012912859E+04 -0.21190476863E+03  0.16189144904E+04  0.10100000352E+00 0. -1.
       -3    1    3    3    0  502  0.11675350057E+04 -0.11012912859E+04  0.20601008998E+04  0.26115122465E+04  0.10100000352E+00 0.  1.
</event>
<event>
 5   0  0.1628250E-08  0.3804221E+04  0.7818609E-02  0.8045250E-01
        1   -1    0    0  501    0  0.00000000000E+00  0.00000000000E+00  0.11257400057E+04  0.11257400057E+04  0.50400001928E-02 0.  1.
       -1   -1    0    0    0  501  0.00000000000E+00  0.00000000000E+00 -0.32139078084E+04  0.32139078084E+04  0.50400001928E-02 0. -1.
    10030    2    1    2    0    0  0.00000000000E+00  0.00000000000E+00 -0.20881678026E+04  0.43396478141E+04  0.38042211264E+04 0.  0.
        5    1    3    3  502    0 -0.12997494601E+04 -0.13777259737E+04 -0.84477968954E+03  0.20739219685E+04  0.46999998093E+01 0. -1.
       -5    1    3    3    0  502  0.12997494601E+04  0.13777259737E+04 -0.12433881131E+04  0.22657258456E+04  0.46999998093E+01 0.  1.
</event>
<event>
 5   0  0.1666051E-08  0.3806982E+04  0.7818609E-02  0.8044658E-01
       -1   -1    0    0    0  501  0.00000000000E+00  0.00000000000E+00  0.12542342347E+04  0.12542342347E+04  0.50400001928E-02 0. -1.
        1   -1    0    0  501    0  0.00000000000E+00  0.00000000000E+00 -0.28888370998E+04  0.28888370998E+04  0.50400001928E-02 0.  1.
    10030    2    1    2    0    0  0.00000000000E+00  0.00000000000E+00 -0.16346028651E+04  0.41430713345E+04  0.38069822112E+04 0.  0.
        2    1    3    3  502    0  0.28251770467E+03  0.15165483024E+04 -0.20308915570E+04  0.25503441971E+04  0.25500000920E-02 0.  1.
       -2    1    3    3    0  502 -0.28251770467E+03 -0.15165483024E+04  0.39628869193E+03  0.15927271374E+04  0.25500000920E-02 0. -1.
</event>
<event>
 5   0  0.5147582E-08  0.3790278E+04  0.7818609E-02  0.8048244E-01
       -2   -1    0    0    0  501  0.00000000000E+00  0.00000000000E+00  0.14514408759E+04  0.14514408759E+04  0.25500000920E-02 0.  1.
        2   -1    0    0  501    0  0.00000000000E+00  0.00000000000E+00 -0.24744733012E+04  0.24744733012E+04  0.25500000920E-02 0. -1.
    10030    2    1    2    0    0  0.00000000000E+00  0.00000000000E+00 -0.10230324253E+04  0.39259141772E+04  0.37902779296E+04 0.  0.
        1    1    3    3  502    0  0.49105632212E+03 -0.14254610863E+04  0.67782336654E+03  0.16530336162E+04  0.50400001928E-02 0.  1.
       -1    1    3    3    0  502 -0.49105632212E+03  0.14254610863E+04 -0.17008557918E+04  0.22728805610E+04  0.50400001928E-02 0. -1.
</event>
<event>
 5   0  0.5207474E-08  0.3804678E+04  0.7818609E-02  0.8045152E-01
       -2   -1    0    0    0  501  0.00000000000E+00  0.00000000000E+00  0.21259813199E+04  0.21259813199E+04  0.25500000920E-02 0. -1.
        2   -1    0    0  501    0  0.00000000000E+00  0.00000000000E+00 -0.17022227550E+04  0.17022227550E+04  0.25500000920E-02 0.  1.
    10030    2    1    2    0    0  0.00000000000E+00  0.00000000000E+00  0.42375856491E+03  0.38282040748E+04  0.38046780570E+04 0.  0.
        4    1    3    3  502    0  0.10505813629E+04  0.15669651779E+04 -0.34154888827E+02  0.18868675731E+04  0.12699999809E+01 0. -1.
       -4    1    3    3    0  502 -0.10505813629E+04 -0.15669651779E+04  0.45791345373E+03  0.19413365018E+04  0.12699999809E+01 0.  1.
</event>
<event>
 5   0  0.5086209E-08  0.3799257E+04  0.7818609E-02  0.8046314E-01
        2   -1    0    0  501    0  0.00000000000E+00  0.00000000000E+00  0.17045023986E+04  0.17045023986E+04  0.25500000920E-02 0.  1.
       -2   -1    0    0    0  501  0.00000000000E+00  0.00000000000E+00 -0.21170924185E+04  0.21170924185E+04  0.25500000920E-02 0. -1.
    10030    2    1    2    0    0  0.00000000000E+00  0.00000000000E+00 -0.41259001990E+03  0.38215948171E+04  0.37992573513E+04 0.  0.
        3    1    3    3  502    0 -0.10763010623E+04 -0.37394674191E+03  0.13226182144E+04  0.17457316787E+04  0.10100000352E+00 0.  1.
       -3    1    3    3    0  502  0.10763010623E+04  0.37394674191E+03 -0.17352082344E+04  0.20758631384E+04  0.10100000352E+00 0. -1.
</event>
<event>
 5   0  0.1628473E-08  0.3796939E+04  0.7818609E-02  0.8046812E-01
        1   -1    0    0  501    0  0.00000000000E+00  0.00000000000E+00  0.20961214920E+04  0.20961214920E+04  0.50400001928E-02 0.  1.
       -1   -1    0    0    0  501  0.00000000000E+00  0.00000000000E+00 -0.17194551786E+04  0.17194551786E+04  0.50400001928E-02 0. -1.
    10030    2    1    2    0    0  0.00000000000E+00  0.00000000000E+00  0.37666631347E+03  0.38155766706E+04  0.37969392697E+04 0.  0.
        3    1    3    3  502    0  0.24563270858E+03 -0.78986358639E+03 -0.15288456028E+04  0.17382717854E+04  0.10100000352E+00 0. -1.
       -3    1    3    3    0  502 -0.24563270858E+03  0.78986358639E+03  0.19055119163E+04  0.20773048852E+04  0.10100000352E+00 0.  1.
</event>
<event>
 5   0  0.5140842E-08  0.3784043E+04  0.7818609E-02  0.8049588E-01
        2   -1    0    0  501    0  0.00000000000E+00  0.00000000000E+00  0.24115798835E+04  0.24115798835E+04  0.25500000920E-02 0. -1.
       -2   -1    0    0    0  501  0.00000000000E+00  0.00000000000E+00 -0.14843987790E+04  0.14843987790E+04  0.25500000920E-02 0.  1.
    10030    2    1    2    0    0  0.00000000000E+00  0.00000000000E+00  0.92718110459E+03  0.38959786625E+04  0.37840434641E+04 0.  0.
        2    1    3    3  502    0  0.14243140965E+04  0.41431903552E+03  0.16728179456E+04  0.22357662642E+04  0.25500000920E-02 0. -1.
       -2    1    3    3    0  502 -0.14243140965E+04 -0.41431903552E+03 -0.74563684105E+03  0.16602123983E+04  0.25500000920E-02 0.  1.
</event>
<event>
 5   0  0.1628250E-08  0.3803005E+04  0.7818609E-02  0.8045510E-01
       -1   -1    0    0    0  501  0.00000000000E+00  0.00000000000E+00  0.20987446535E+04  0.20987446535E+04  0.50400001928E-02 0.  1.
        1   -1    0    0  501    0  0.00000000000E+00  0.00000000000E+00 -0.17227978046E+04  0.17227978046E+04  0.50400001928E-02 0. -1.
    10030    2    1    2    0    0  0.00000000000E+00  0.00000000000E+00  0.37594684895E+03  0.38215424581E+04  0.38030054859E+04 0.  0.
        1    1    3    3  502    0 -0.29298679742E+03 -0.16061351370E+04 -0.79156066850E+03  0.18144088938E+04  0.50400001928E-02 0. -1.
       -1    1    3    3    0  502  0.29298679742E+03  0.16061351370E+04  0.11675075175E+04  0.20071335644E+04  0.50400001928E-02 0.  1.
</event>
<event>
 5   0  0.1666051E-08  0.3794145E+04  0.7818609E-02  0.8047413E-01
        1   -1    0    0  501    0  0.00000000000E+00  0.00000000000E+00  0.22738108213E+04  0.22738108213E+04  0.50400001928E-02 0. -1.
       -1   -1    0    0    0  501  0.00000000000E+00  0.00000000000E+00 -0.15827539975E+04  0.15827539975E+04  0.50400001928E-02 0.  1.
    10030    2    1    2    0    0  0.00000000000E+00  0.00000000000E+00  0.69105682379E+03  0.38565648188E+04  0.37941445239E+04 0.  0.
        2    1    3    3  502    0 -0.11664238947E+04 -0.71926411779E+03  0.16789789070E+04  0.21672230488E+04  0.25500000920E-02 0. -1.
       -2    1    3    3    0  502  0.11664238947E+04  0.71926411779E+03 -0.98792208320E+03  0.16893417700E+04  0.25500000920E-02 0.  1.
</event>
<event>
 5   0  0.5159761E-08  0.3819871E+04  0.7818609E-02  0.8041904E-01
       -2   -1    0    0    0  501  0.00000000000E+00  0.00000000000E+00  0.22010759624E+04  0.22010759624E+04  0.25500000920E-02 0.  1.
        2   -1    0    0  501    0  0.00000000000E+00  0.00000000000E+00 -0.16573050334E+04  0.16573050334E+04  0.25500000920E-02 0. -1.
    10030    2    1    2    0    0  0.00000000000E+00  0.00000000000E+00  0.54377092902E+03  0.38583809957E+04  0.38198713441E+04 0.  0.
        5    1    3    3  502    0 -0.10617459537E+04 -0.49701943622E+03  0.17948991124E+04  0.21438324804E+04  0.46999998093E+01 0.  1.
       -5    1    3    3    0  502  0.10617459537E+04  0.49701943622E+03 -0.12511281834E+04  0.17145485154E+04  0.46999998093E+01 0. -1.
</event>
<event>
 5   0  0.1628250E-08  0.3804610E+04  0.7818609E-02  0.8045166E-01
       -1   -1    0    0    0  501  0.00000000000E+00  0.00000000000E+00  0.27801013901E+04  0.27801013901E+04  0.50400001928E-02 0.  1.
        1   -1    0    0  501    0  0.00000000000E+00  0.00000000000E+00 -0.13016660174E+04  0.13016660174E+04  0.50400001928E-02 0. -1.
    10030    2    1    2    0    0  0.00000000000E+00  0.00000000000E+00  0.14784353727E+04  0.40817674074E+04  0.38046095749E+04 0.  0.
        1    1    3    3  502    0 -0.96530499301E+03 -0.26332104406E+03  0.24749820873E+04  0.26695857420E+04  0.50400001928E-02 0.  1.
       -1    1    3    3    0  502  0.96530499301E+03  0.26332104406E+03 -0.99654671458E+03  0.14121816654E+04  0.50400001928E-02 0. -1.
</event>
<event>
 5   0  0.5207474E-08  0.3783160E+04  0.7818609E-02  0.8049778E-01
        2   -1    0    0  501    0  0.00000000000E+00  0.00000000000E+00  0.12342183022E+04  0.12342183022E+04  0.25500000920E-02 0.  1.
       -2   -1    0    0    0  501  0.00000000000E+00  0.00000000000E+00 -0.28990621877E+04  0.28990621877E+04  0.25500000920E-02 0. -1.
    10030    2    1    2    0    0  0.00000000000E+00  0.00000000000E+00 -0.16648438855E+04  0.41332804899E+04  0.37831603779E+04 0.  0.
        4    1    3    3  502    0 -0.13086008409E+04  0.13645215029E+04 -0.89904855338E+03  0.20934767748E+04  0.12699999809E+01 0.  1.
       -4    1    3    3    0  502  0.13086008409E+04 -0.13645215029E+04 -0.76579533216E+03  0.20398037151E+04  0.12699999809E+01 0. -1.
</event>
<event>
 5   0  0.5086209E-08  0.3796347E+04  0.7818609E-02  0.8046939E-01
        2   -1    0    0  501    0  0.00000000000E+00  0.00000000000E+00  0.26905672190E+04  0.26905672190E+04  0.25500000920E-02 0. -1.
       -2   -1    0    0    0  501  0.00000000000E+00  0.00000000000E+00 -0.13391459287E+04  0.13391459287E+04  0.25500000920E-02 0.  1.
    10030    2    1    2    0    0  0.00000000000E+00  0.00000000000E+00  0.13514212903E+04  0.40297131477E+04  0.37963467372E+04 0.  0.
        3    1    3    3  502    0 -0.89711617015E+03 -0.39528641408E+03  0.24010483812E+04  0.25934729825E+04  0.10100000352E+00 0. -1.
       -3    1    3    3    0  502  0.89711617015E+03  0.39528641408E+03 -0.10496270910E+04  0.14362401652E+04  0.10100000352E+00 0.  1.
</event>
<event>
 5   0  0.5086209E-08  0.3809472E+04  0.7818609E-02  0.8044125E-01
        2   -1    0    0  501    0  0.00000000000E+00  0.00000000000E+00  0.19940412995E+04  0.19940412995E+04  0.25500000920E-02 0.  1.
       -2   -1    0    0    0  501  0.00000000000E+00  0.00000000000E+00 -0.18194301440E+04  0.18194301440E+04  0.25500000920E-02 0. -1.
    10030    2    1    2    0    0  0.00000000000E+00  0.00000000000E+00  0.17461115546E+03  0.38134714436E+04  0.38094718000E+04 0.  0.
        3    1    3    3  502    0 -0.16721082056E+04  0.66918448485E+03  0.70784762467E+03  0.19351490888E+04  0.10100000352E+00 0.  1.
       -3    1    3    3    0  502  0.16721082056E+04 -0.66918448485E+03 -0.53323646921E+03  0.18783223547E+04  0.10100000352E+00 0. -1.
</event>
<event>
 5   0  0.1628250E-08  0.3788054E+04  0.7818609E-02  0.8048723E-01
        1   -1    0    0  501    0  0.00000000000E+00  0.00000000000E+00  0.31141835925E+04  0.31141835925E+04  0.50400001928E-02 0.  1.
       -1   -1    0    0    0  501  0.00000000000E+00  0.00000000000E+00 -0.11519354096E+04  0.11519354097E+04  0.50400001928E-02 0. -1.
    10030    2    1    2    0    0  0.00000000000E+00  0.00000000000E+00  0.19622481829E+04  0.42661190022E+04  0.37880540399E+04 0.  0.
        5    1    3    3  502    0 -0.13203177529E+03  0.44852921273E+02 -0.11461401405E+04  0.11546010072E+04  0.46999998093E+01 0. -1.
       -5    1    3    3    0  502  0.13203177529E+03 -0.44852921273E+02  0.31083883234E+04  0.31115179950E+04  0.46999998093E+01 0.  1.
</event>
<event>
 5   0  0.5140842E-08  0.3797750E+04  0.7818609E-02  0.8046638E-01
        2   -1    0    0  501    0  0.00000000000E+00  0.00000000000E+00  0.25109327026E+04  0.25109327026E+04  0.25500000920E-02 0.  1.
       -2   -1    0    0    0  501  0.00000000000E+00  0.00000000000E+00 -0.14360108980E+04  0.14360108980E+04  0.25500000920E-02 0. -1.
    10030    2    1    2    0    0  0.00000000000E+00  0.00000000000E+00  0.10749218046E+04  0.39469436006E+04  0.37977502420E+04 0.  0.
        2    1    3    3  502    0  0.10457123171E+04  0.14523536914E+04  0.11971252879E+04  0.21531266684E+04  0.25500000920E-02 0.  1.
       -2    1    3    3    0  502 -0.10457123171E+04 -0.14523536914E+04 -0.12220348329E+03  0.17938169322E+04  0.25500000920E-02 0. -1.
</event>
<event>
 5   0  0.5207474E-08  0.3838801E+04  0.7818609E-02  0.8037879E-01
       -2   -1    0    0    0  501  0.00000000000E+00  0.00000000000E+00  0.16157694759E+04  0.16157694759E+04  0.25500000920E-02 0. -1.
        2   -1    0    0  501    0  0.00000000000E+00  0.00000000000E+00 -0.22800892868E+04  0.22800892868E+04  0.25500000920E-02 0.  1.
    10030    2    1    2    0    0  0.00000000000E+00  0.00000000000E+00 -0.66431981094E+03  0.38958587626E+04  0.38388012044E+04 0.  0.
        4    1    3    3  502    0 -0.12930169187E+04  0.13189187115E+04 -0.86208745300E+03  0.20382923512E+04  0.12699999809E+01 0.  1.
       -4    1    3    3    0  502  0.12930169187E+04 -0.13189187115E+04  0.19776764207E+03  0.18575664114E+04  0.12699999809E+01 0. -1.
</event>
<event>
 5   0  0.5207474E-08  0.3793478E+04  0.7818609E-02  0.8047556E-01
       -2   -1    0    0    0  501  0.00000000000E+00  0.00000000000E+00  0.16947808402E+04  0.16947808402E+04  0.25500000920E-02 0. -1.
        2   -1    0    0  501    0  0.00000000000E+00  0.00000000000E+00 -0.21227636533E+04  0.21227636533E+04  0.25500000920E-02 0.  1.
    10030    2    1    2    0    0  0.00000000000E+00  0.00000000000E+00 -0.42798281303E+03  0.38175444935E+04  0.37934781760E+04 0.  0.
        4    1    3    3  502    0  0.15336190323E+04  0.11014127560E+04 -0.39546893335E+03  0.19291175924E+04  0.12699999809E+01 0.  1.
       -4    1    3    3    0  502 -0.15336190323E+04 -0.11014127560E+04 -0.32513879684E+02  0.18884269011E+04  0.12699999809E+01 0. -1.
</event>
<event>
 5   0  0.1628250E-08  0.3803232E+04  0.7818609E-02  0.8045462E-01
        1   -1    0    0  501    0  0.00000000000E+00  0.00000000000E+00  0.33025242490E+04  0.33025242490E+04  0.50400001928E-02 0.  1.
       -1   -1    0    0    0  501  0.00000000000E+00  0.00000000000E+00 -0.10949631945E+04  0.10949631945E+04  0.50400001928E-02 0. -1.
    10030    2    1    2    0    0  0.00000000000E+00  0.00000000000E+00  0.22075610546E+04  0.43974874435E+04  0.38032315216E+04 0.  0.
        4    1    3    3  502    0  0.10425945926E+04 -0.53791377542E+02  0.29415434379E+04  0.31213100465E+04  0.12699999809E+01 0.  1.
       -4    1    3    3    0  502 -0.10425945926E+04  0.53791377542E+02 -0.73398238332E+03  0.12761773970E+04  0.12699999809E+01 0. -1.
</event>
<event>
 5   0  0.1628250E-08  0.3796161E+04  0.7818609E-02  0.8046979E-01
       -1   -1    0    0    0  501  0.00000000000E+00  0.00000000000E+00  0.10843931345E+04  0.10843931345E+04  0.50400001928E-02 0.  1.
        1   -1    0    0  501    0  0.00000000000E+00  0.00000000000E+00 -0.33223272406E+04  0.33223272406E+04  0.50400001928E-02 0. -1.
    10030    2    1    2    0    0  0.00000000000E+00  0.00000000000E+00 -0.22379341061E+04  0.44067203751E+04  0.37961606133E+04 0.  0.
        5    1    3    3  502    0  0.43256324465E+03  0.18472690830E+04 -0.11843535095E+04  0.22365664200E+04  0.46999998093E+01 0.  1.
       -5    1    3    3    0  502 -0.43256324465E+03 -0.18472690830E+04 -0.10535805966E+04  0.21701539552E+04  0.46999998093E+01 0. -1.
</event>
<event>
 5   0  0.1628250E-08  0.3831411E+04  0.7818609E-02  0.8039448E-01
        1   -1    0    0  501    0  0.00000000000E+00  0.00000000000E+00  0.20712468317E+04  0.20712468317E+04  0.50400001928E-02 0. -1.
       -1   -1    0    0    0  501  0.00000000000E+00  0.00000000000E+00 -0.17718447041E+04  0.17718447041E+04  0.50400001928E-02 0.  1.
    10030    2    1    2    0    0  0.00000000000E+00  0.00000000000E+00  0.29940212760E+03  0.38430915359E+04  0.38314110872E+04 0.  0.
        1    1    3    3  502    0 -0.15534800964E+04 -0.11202614409E+04  0.10906058675E+03  0.19183796073E+04  0.50400001928E-02 0.  1.
       -1    1    3    3    0  502  0.15534800964E+04  0.11202614409E+04  0.19034154084E+03  0.19247119286E+04  0.50400001928E-02 0. -1.
</event>
<event>
 5   0  0.1628250E-08  0.3798893E+04  0.7818609E-02  0.8046393E-01
       -1   -1    0    0    0  501  0.00000000000E+00  0.00000000000E+00  0.19046325362E+04  0.19046325362E+04  0.50400001928E-02 0.  1.
        1   -1    0    0  501    0  0.00000000000E+00  0.00000000000E+00 -0.18942741245E+04  0.18942741245E+04  0.50400001928E-02 0. -1.
    10030    2    1    2    0    0  0.00000000000E+00  0.00000000000E+00  0.10358411726E+02  0.37989066607E+04  0.37988925386E+04 0.  0.
        4    1    3    3  502    0 -0.28660232472E+03  0.15009425329E+04 -0.11230648287E+04  0.18963769673E+04  0.12699999809E+01 0. -1.
       -4    1    3    3    0  502  0.28660232472E+03 -0.15009425329E+04  0.11334232405E+04  0.19025296934E+04  0.12699999809E+01 0.  1.
</event>
<event>
 5   0  0.1628250E-08  0.3804109E+04  0.7818609E-02  0.8045274E-01
       -1   -1    0    0    0  501  0.00000000000E+00  0.00000000000E+00  0.14410300746E+04  0.14410300746E+04  0.50400001928E-02 0. -1.
        1   -1    0    0  501    0  0.00000000000E+00  0.00000000000E+00 -0.25105728233E+04  0.25105728233E+04  0.50400001928E-02 0.  1.
    10030    2    1    2    0    0  0.00000000000E+00  0.00000000000E+00 -0.10695427487E+04  0.39516028979E+04  0.38041088012E+04 0.  0.
        1    1    3    3  502    0 -0.94985789935E+03  0.10509617823E+04 -0.18532596012E+04  0.23326641092E+04  0.50400001928E-02 0.  1.
       -1    1    3    3    0  502  0.94985789935E+03 -0.10509617823E+04  0.78371685248E+03  0.16189387888E+04  0.50400001928E-02 0. -1.
</event>
<event>
 5   0  0.5140842E-08  0.3797955E+04  0.7818609E-02  0.8046594E-01
        2   -1    0    0  501    0  0.00000000000E+00  0.00000000000E+00  0.11076054662E+04  0.11076054662E+04  0.25500000920E-02 0. -1.
       -2   -1    0    0    0  501  0.00000000000E+00  0.00000000000E+00 -0.32557768385E+04  0.32557768385E+04  0.25500000920E-02 0.  1.
    10030    2    1    2    0    0  0.00000000000E+00  0.00000000000E+00 -0.21481713723E+04  0.43633823047E+04  0.37979553568E+04 0.  0.
        2    1    3    3  502    0 -0.70687717617E+03  0.15126899864E+04 -0.34869812584E+02  0.16700665379E+04  0.25500000920E-02 0. -1.
       -2    1    3    3    0  502  0.70687717617E+03 -0.15126899864E+04 -0.21133015598E+04  0.26933157668E+04  0.25500000920E-02 0.  1.
</event>
<event>
 5   0  0.1628250E-08  0.3815590E+04  0.7818609E-02  0.8042817E-01
        1   -1    0    0  501    0  0.00000000000E+00  0.00000000000E+00  0.22806941513E+04  0.22806941513E+04  0.50400001928E-02 0. -1.
       -1   -1    0    0    0  501  0.00000000000E+00  0.00000000000E+00 -0.15958661935E+04  0.15958661935E+04  0.50400001928E-02 0.  1.
    10030    2    1    2    0    0  0.00000000000E+00  0.00000000000E+00  0.68482795785E+03  0.38765603448E+04  0.38155904884E+04 0.  0.
        4    1    3    3  502    0 -0.48244829193E+03  0.17698966958E+04  0.87460710124E+03  0.20322966965E+04  0.12699999809E+01 0. -1.
       -4    1    3    3    0  502  0.48244829193E+03 -0.17698966958E+04 -0.18977914339E+03  0.18442636483E+04  0.12699999809E+01 0.  1.
</event>
<event>
 5   0  0.5140842E-08  0.3804211E+04  0.7818609E-02  0.8045252E-01
       -2   -1    0    0    0  501  0.00000000000E+00  0.00000000000E+00  0.15417996965E+04  0.15417996965E+04  0.25500000920E-02 0.  1.
        2   -1    0    0  501    0  0.00000000000E+00  0.00000000000E+00 -0.23466121820E+04  0.23466121820E+04  0.25500000920E-02 0. -1.
    10030    2    1    2    0    0  0.00000000000E+00  0.00000000000E+00 -0.80481248543E+03  0.38884118785E+04  0.38042113243E+04 0.  0.
        2    1    3    3  502    0  0.16700166289E+03  0.65745610920E+02 -0.23379379479E+04  0.23448168135E+04  0.25500000920E-02 0. -1.
       -2    1    3    3    0  502 -0.16700166289E+03 -0.65745610920E+02  0.15331254625E+04  0.15435950649E+04  0.25500000920E-02 0.  1.
</event>
<event>
 5   0  0.1628250E-08  0.3755240E+04  0.7818609E-02  0.8055829E-01
        1   -1    0    0  501    0  0.00000000000E+00  0.00000000000E+00  0.17074665804E+04  0.17074665804E+04  0.50400001928E-02 0.  1.
       -1   -1    0    0    0  501  0.00000000000E+00  0.00000000000E+00 -0.20647296432E+04  0.20647296432E+04  0.50400001928E-02 0. -1.
    10030    2    1    2    0    0  0.00000000000E+00  0.00000000000E+00 -0.35726306278E+03  0.37721962236E+04  0.37552399994E+04 0.  0.
        1    1    3    3  502    0  0.48610796952E+03  0.37107483827E+03  0.16046192948E+04  0.17172072021E+04  0.50400001928E-02 0.  1.
       -1    1    3    3    0  502 -0.48610796952E+03 -0.37107483827E+03 -0.19618823576E+04  0.20549890215E+04  0.50400001928E-02 0. -1.
</event>
<event>
 5   0  0.1628250E-08  0.3801933E+04  0.7818609E-02  0.8045740E-01
       -1   -1    0    0    0  501  0.00000000000E+00  0.00000000000E+00  0.25664785872E+04  0.25664785872E+04  0.50400001928E-02 0. -1.
        1   -1    0    0  501    0  0.00000000000E+00  0.00000000000E+00 -0.14080276494E+04  0.14080276494E+04  0.50400001928E-02 0.  1.
    10030    2    1    2    0    0  0.00000000000E+00  0.00000000000E+00  0.11584509379E+04  0.39745062366E+04  0.38019325677E+04 0.  0.
        5    1    3    3  502    0 -0.54184721357E+03  0.14850194741E+04  0.16829769727E+04  0.23089640149E+04  0.46999998093E+01 0.  1.
       -5    1    3    3    0  502  0.54184721357E+03 -0.14850194741E+04 -0.52452603482E+03  0.16655422218E+04  0.46999998093E+01 0. -1.
</event>
<event>
 5   0  0.5140842E-08  0.3796600E+04  0.7818609E-02  0.8046885E-01
        2   -1    0    0  501    0  0.00000000000E+00  0.00000000000E+00  0.13615202303E+04  0.13615202303E+04  0.25500000920E-02 0.  1.
       -2   -1    0    0    0  501  0.00000000000E+00  0.00000000000E+00 -0.26467047265E+04  0.26467047265E+04  0.25500000920E-02 0. -1.
    10030    2    1    2    0    0  0.00000000000E+00  0.00000000000E+00 -0.12851844962E+04  0.40082249568E+04  0.37965995463E+04 0.  0.
        2    1    3    3  502    0  0.13932154966E+03  0.13872729405E+04  0.71747288109E+03  0.15680255230E+04  0.25500000920E-02 0.  1.
       -2    1    3    3    0  502 -0.13932154966E+03 -0.13872729405E+04 -0.20026573773E+04  0.24401994338E+04  0.25500000920E-02 0. -1.
</event>
<event>
 5   0  0.5147582E-08  0.3798042E+04  0.7818609E-02  0.8046575E-01
       -2   -1    0    0    0  501  0.00000000000E+00  0.00000000000E+00  0.14579604537E+04  0.14579604537E+04  0.25500000920E-02 0. -1.
        2   -1    0    0  501    0  0.00000000000E+00  0.00000000000E+00 -0.24735106859E+04  0.24735106859E+04  0.25500000920E-02 0.  1.
    10030    2    1    2    0    0  0.00000000000E+00  0.00000000000E+00 -0.10155502321E+04  0.39314711396E+04  0.37980420018E+04 0.  0.
        1    1    3    3  502    0 -0.12358613194E+04  0.37610788173E+03 -0.19486055368E+04  0.23379208451E+04  0.50400001928E-02 0.  1.
       -1    1    3    3    0  502  0.12358613194E+04 -0.37610788173E+03  0.93305530470E+03  0.15935502945E+04  0.50400001928E-02 0. -1.
</event>
<event>
 5   0  0.5159761E-08  0.3794351E+04  0.7818609E-02  0.8047368E-01
       -2   -1    0    0    0  501  0.00000000000E+00  0.00000000000E+00  0.16111232681E+04  0.16111232681E+04  0.25500000920E-02 0. -1.
        2   -1    0    0  501    0  0.00000000000E+00  0.00000000000E+00 -0.22340154519E+04  0.22340154519E+04  0.25500000920E-02 0.  1.
    10030    2    1    2    0    0  0.00000000000E+00  0.00000000000E+00 -0.62289218387E+03  0.38451387200E+04  0.37943506827E+04 0.  0.
        5    1    3    3  502    0 -0.96570984534E+03 -0.16318389171E+04 -0.37357271261E+03  0.19326335447E+04  0.46999998093E+01 0. -1.
       -5    1    3    3    0  502  0.96570984534E+03  0.16318389171E+04 -0.24931947126E+03  0.19125051752E+04  0.46999998093E+01 0.  1.
</event>
<event>
 5   0  0.1628250E-08  0.3799635E+04  0.7818609E-02  0.8046233E-01
        1   -1    0    0  501    0  0.00000000000E+00  0.00000000000E+00  0.13330229912E+04  0.13330229912E+04  0.50400001928E-02 0. -1.
       -1   -1    0    0    0  501  0.00000000000E+00  0.00000000000E+00 -0.27076107215E+04  0.27076107215E+04  0.50400001928E-02 0.  1.
    10030    2    1    2    0    0  0.00000000000E+00  0.00000000000E+00 -0.13745877303E+04  0.40406337127E+04  0.37996354262E+04 0.  0.
        4    1    3    3  502    0 -0.13754177025E+04  0.83848287499E+03  0.38380348455E+03  0.16559390435E+04  0.12699999809E+01 0. -1.
       -4    1    3    3    0  502  0.13754177025E+04 -0.83848287499E+03 -0.17583912148E+04  0.23846946692E+04  0.12699999809E+01 0.  1.
</event>
<event>
 5   0  0.1628250E-08  0.3837519E+04  0.7818609E-02  0.8038151E-01
       -1   -1    0    0    0  501  0.00000000000E+00  0.00000000000E+00  0.19968939078E+04  0.19968939078E+04  0.50400001928E-02 0. -1.
        1   -1    0    0  501    0  0.00000000000E+00  0.00000000000E+00 -0.18436826695E+04  0.18436826695E+04  0.50400001928E-02 0.  1.
    10030    2    1    2    0    0  0.00000000000E+00  0.00000000000E+00  0.15321123830E+03  0.38405765774E+04  0.38375193502E+04 0.  0.
        1    1    3    3  502    0  0.11767271770E+04 -0.14912914540E+04 -0.19379778944E+03  0.19095011477E+04  0.50400001928E-02 0. -1.
       -1    1    3    3    0  502 -0.11767271770E+04  0.14912914540E+04  0.34700902774E+03  0.19310754297E+04  0.50400001928E-02 0.  1.
</event>
<event>
 5   0  0.1628250E-08  0.3794929E+04  0.7818609E-02  0.8047244E-01
       -1   -1    0    0    0  501  0.00000000000E+00  0.00000000000E+00  0.21465540186E+04  0.21465540187E+04  0.50400001928E-02 0.  1.
        1   -1    0    0  501    0  0.00000000000E+00  0.00000000000E+00 -0.16772798533E+04  0.16772798533E+04  0.50400001928E-02 0. -1.
    10030    2    1    2    0    0  0.00000000000E+00  0.00000000000E+00  0.46927416536E+03  0.38238338719E+04  0.37949291479E+04 0.  0.
        5    1    3    3  502    0 -0.54110471482E+03 -0.17368913715E+04  0.77796934048E+03  0.19785965566E+04  0.46999998093E+01 0.  1.
       -5    1    3    3    0  502  0.54110471482E+03  0.17368913715E+04 -0.30869517512E+03  0.18452373154E+04  0.46999998093E+01 0. -1.
</event>
<event>
 5   0  0.5086209E-08  0.3808639E+04  0.7818609E-02  0.8044303E-01
       -2   -1    0    0    0  501  0.00000000000E+00  0.00000000000E+00  0.22482664299E+04  0.22482664299E+04  0.25500000920E-02 0.  1.
        2   -1    0    0  501    0  0.00000000000E+00  0.00000000000E+00 -0.16129907613E+04  0.16129907613E+04  0.25500000920E-02 0. -1.
    10030    2    1    2    0    0  0.00000000000E+00  0.00000000000E+00  0.63527566862E+03  0.38612571911E+04  0.38086391167E+04 0.  0.
        3    1    3    3  502    0  0.10901717213E+04 -0.15037594623E+04 -0.10848565826E+03  0.18605203709E+04  0.10100000352E+00 0. -1.
       -3    1    3    3    0  502 -0.10901717213E+04  0.15037594623E+04  0.74376132688E+03  0.20007368202E+04  0.10100000352E+00 0.  1.
</event>
<event>
 5   0  0.5140842E-08  0.3799793E+04  0.7818609E-02  0.8046199E-01
        2   -1    0    0  501    0  0.00000000000E+00  0.00000000000E+00  0.22105594913E+04  0.22105594914E+04  0.25500000920E-02 0. -1.
       -2   -1    0    0    0  501  0.00000000000E+00  0.00000000000E+00 -0.16328925223E+04  0.16328925223E+04  0.25500000920E-02 0.  1.
    10030    2    1    2    0    0  0.00000000000E+00  0.00000000000E+00  0.57766696907E+03  0.38434520136E+04  0.37997926593E+04 0.  0.
        2    1    3    3  502    0  0.14603893288E+04  0.71696100555E+03  0.12813499519E+04  0.20709002329E+04  0.25500000920E-02 0. -1.
       -2    1    3    3    0  502 -0.14603893288E+04 -0.71696100555E+03 -0.70368298283E+03  0.17725517808E+04  0.25500000920E-02 0.  1.
</event>
<event>
 5   0  0.1666051E-08  0.3798598E+04  0.7818609E-02  0.8046456E-01
        1   -1    0    0  501    0  0.00000000000E+00  0.00000000000E+00  0.23227823936E+04  0.23227823936E+04  0.50400001928E-02 0. -1.
       -1   -1    0    0    0  501  0.00000000000E+00  0.00000000000E+00 -0.15530241804E+04  0.15530241804E+04  0.50400001928E-02 0.  1.
    10030    2    1    2    0    0  0.00000000000E+00  0.00000000000E+00  0.76975821323E+03  0.38758065740E+04  0.37985982799E+04 0.  0.
        2    1    3    3  502    0  0.69207815315E+03 -0.38112841811E+03 -0.13773934731E+04  0.15879054824E+04  0.25500000920E-02 0.  1.
       -2    1    3    3    0  502 -0.69207815315E+03  0.38112841811E+03  0.21471516863E+04  0.22879010917E+04  0.25500000920E-02 0. -1.
</event>
<event>
 5   0  0.1666051E-08  0.3799811E+04  0.7818609E-02  0.8046196E-01
       -1   -1    0    0    0  501  0.00000000000E+00  0.00000000000E+00  0.22527637444E+04  0.22527637444E+04  0.50400001928E-02 0.  1.
        1   -1    0    0  501    0  0.00000000000E+00  0.00000000000E+00 -0.16023162832E+04  0.16023162832E+04  0.50400001928E-02 0. -1.
    10030    2    1    2    0    0  0.00000000000E+00  0.00000000000E+00  0.65044746120E+03  0.38550800277E+04  0.37998105374E+04 0.  0.
        2    1    3    3  502    0 -0.96921556725E+03 -0.98695921474E+03 -0.99609165679E+03  0.17046013892E+04  0.25500000920E-02 0. -1.
       -2    1    3    3    0  502  0.96921556725E+03  0.98695921474E+03  0.16465391180E+04  0.21504786385E+04  0.25500000920E-02 0.  1.
</event>
<event>
 5   0  0.5207474E-08  0.3824173E+04  0.7818609E-02  0.8040987E-01
       -2   -1    0    0    0  501  0.00000000000E+00  0.00000000000E+00  0.27295424663E+04  0.27295424663E+04  0.25500000920E-02 0.  1.
        2   -1    0    0  501    0  0.00000000000E+00  0.00000000000E+00 -0.13394460833E+04  0.13394460833E+04  0.25500000920E-02 0. -1.
    10030    2    1    2    0    0  0.00000000000E+00  0.00000000000E+00  0.13900963830E+04  0.40689885496E+04  0.38241730953E+04 0.  0.
        4    1    3    3  502    0 -0.13895324830E+04  0.11819580537E+03 -0.69686557109E+03  0.15589720994E+04  0.12699999809E+01 0. -1.
       -4    1    3    3    0  502  0.13895324830E+04 -0.11819580537E+03  0.20869619541E+04  0.25100164502E+04  0.12699999809E+01 0.  1.
</event>
<event>
 5   0  0.1628473E-08  0.3795076E+04  0.7818609E-02  0.8047212E-01
       -1   -1    0    0    0  501  0.00000000000E+00  0.00000000000E+00  0.19681469438E+04  0.19681469438E+04  0.50400001928E-02 0. -1.
        1   -1    0    0  501    0  0.00000000000E+00  0.00000000000E+00 -0.18294617441E+04  0.18294617441E+04  0.50400001928E-02 0.  1.
    10030    2    1    2    0    0  0.00000000000E+00  0.00000000000E+00  0.13868519969E+03  0.37976086879E+04  0.37950755147E+04 0.  0.
        3    1    3    3  502    0  0.16479691551E+04  0.75944590826E+03 -0.48608564621E+03  0.18785206119E+04  0.10100000352E+00 0.  1.
       -3    1    3    3    0  502 -0.16479691551E+04 -0.75944590826E+03  0.62477084590E+03  0.19190880761E+04  0.10100000352E+00 0. -1.
</event>
<event>
 5   0  0.5147582E-08  0.3802620E+04  0.7818609E-02  0.8045593E-01
        2   -1    0    0  501    0  0.00000000000E+00  0.00000000000E+00  0.27558478719E+04  0.27558478719E+04  0.25500000920E-02 0. -1.
       -2   -1    0    0    0  501  0.00000000000E+00  0.00000000000E+00 -0.13117488538E+04  0.13117488538E+04  0.25500000920E-02 0.  1.
    10030    2    1    2    0    0  0.00000000000E+00  0.00000000000E+00  0.14440990181E+04  0.40675967257E+04  0.38026203004E+04 0.  0.
        1    1    3    3  502    0  0.97450269075E+03 -0.56221040762E+03 -0.91747915179E+03  0.14517245023E+04  0.50400001928E-02 0.  1.
       -1    1    3    3    0  502 -0.97450269075E+03  0.56221040762E+03  0.23615781699E+04  0.26158722234E+04  0.50400001928E-02 0. -1.
</event>
<event>
 5   0  0.1666051E-08  0.3793587E+04  0.7818609E-02  0.8047532E-01
       -1   -1    0    0    0  501  0.00000000000E+00  0.00000000000E+00  0.20449845090E+04  0.20449845090E+04  0.50400001928E-02 0.  1.
        1   -1    0    0  501    0  0.00000000000E+00  0.00000000000E+00 -0.17593412370E+04  0.17593412370E+04  0.50400001928E-02 0. -1.
    10030    2    1    2    0    0  0.00000000000E+00  0.00000000000E+00  0.28564327199E+03  0.38043257460E+04  0.37935869969E+04 0.  0.
        2    1    3    3  502    0  0.53710240135E+03 -0.98911819594E+02  0.19644335722E+04  0.20389364378E+04  0.25500000920E-02 0.  1.
       -2    1    3    3    0  502 -0.53710240135E+03  0.98911819594E+02 -0.16787903002E+04  0.17653893082E+04  0.25500000920E-02 0. -1.
</event>
<event>
 5   0  0.1628250E-08  0.3793395E+04  0.7818609E-02  0.8047574E-01
        1   -1    0    0  501    0  0.00000000000E+00  0.00000000000E+00  0.20446850153E+04  0.20446850153E+04  0.50400001928E-02 0.  1.
       -1   -1    0    0    0  501  0.00000000000E+00  0.00000000000E+00 -0.17594205700E+04  0.17594205700E+04  0.50400001928E-02 0. -1.
    10030    2    1    2    0    0  0.00000000000E+00  0.00000000000E+00  0.28526444535E+03  0.38041055853E+04  0.37933947199E+04 0.  0.
        4    1    3    3  502    0 -0.21261908120E+03 -0.91931939068E+03  0.17926059055E+04  0.20257819629E+04  0.12699999809E+01 0.  1.
       -4    1    3    3    0  502  0.21261908120E+03  0.91931939068E+03 -0.15073414602E+04  0.17783236225E+04  0.12699999809E+01 0. -1.
</event>
<event>
 5   0  0.5207474E-08  0.3794651E+04  0.7818609E-02  0.8047304E-01
        2   -1    0    0  501    0  0.00000000000E+00  0.00000000000E+00  0.17958586884E+04  0.17958586884E+04  0.25500000920E-02 0. -1.
       -2   -1    0    0    0  501  0.00000000000E+00  0.00000000000E+00 -0.20045255140E+04  0.20045255140E+04  0.25500000920E-02 0.  1.
    10030    2    1    2    0    0  0.00000000000E+00  0.00000000000E+00 -0.20866682561E+03  0.38003842024E+04  0.37946512675E+04 0.  0.
        4    1    3    3  502    0 -0.16341161584E+04  0.82451511962E+03 -0.60477037425E+03  0.19276694789E+04  0.12699999809E+01 0. -1.
       -4    1    3    3    0  502  0.16341161584E+04 -0.82451511962E+03  0.39610354864E+03  0.18727147235E+04  0.12699999809E+01 0.  1.
</event>
<event>
 5   0  0.5140842E-08  0.3803612E+04  0.7818609E-02  0.8045380E-01
        2   -1    0    0  501    0  0.00000000000E+00  0.00000000000E+00  0.22966211555E+04  0.22966211555E+04  0.25500000920E-02 0.  1.
       -2   -1    0    0    0  501  0.00000000000E+00  0.00000000000E+00 -0.15748637533E+04  0.15748637533E+04  0.25500000920E-02 0. -1.
    10030    2    1    2    0    0  0.00000000000E+00  0.00000000000E+00  0.72175740223E+03  0.38714849088E+04  0.38036116589E+04 0.  0.
        2    1    3    3  502    0 -0.16819654654E+04 -0.61873659418E+03  0.10086490079E+04  0.20565056822E+04  0.25500000920E-02 0.  1.
       -2    1    3    3    0  502  0.16819654654E+04  0.61873659418E+03 -0.28689160562E+03  0.18149792266E+04  0.25500000920E-02 0. -1.
</event>
<event>
 5   0  0.1628250E-08  0.3802938E+04  0.7818609E-02  0.8045525E-01
       -1   -1    0    0    0  501  0.00000000000E+00  0.00000000000E+00  0.19970577460E+04  0.19970577460E+04  0.50400001928E-02 0. -1.
        1   -1    0    0  501    0  0.00000000000E+00  0.00000000000E+00 -0.18104557627E+04  0.18104557627E+04  0.50400001928E-02 0.  1.
    10030    2    1    2    0    0  0.00000000000E+00  0.00000000000E+00  0.18660198324E+03  0.38075135087E+04  0.38029381824E+04 0.  0.
        5    1    3    3  502    0 -0.23892121089E+03  0.57737863994E+03  0.18913216063E+04  0.19918757359E+04  0.46999998093E+01 0. -1.
       -5    1    3    3    0  502  0.23892121089E+03 -0.57737863994E+03 -0.17047196230E+04  0.18156377728E+04  0.46999998093E+01 0.  1.
</event>
<event>
 5   0  0.5159761E-08  0.3798914E+04  0.7818609E-02  0.8046388E-01
       -2   -1    0    0    0  501  0.00000000000E+00  0.00000000000E+00  0.25263469720E+04  0.25263469720E+04  0.25500000920E-02 0.  1.
        2   -1    0    0  501    0  0.00000000000E+00  0.00000000000E+00 -0.14281243229E+04  0.14281243229E+04  0.25500000920E-02 0. -1.
    10030    2    1    2    0    0  0.00000000000E+00  0.00000000000E+00  0.10982226491E+04  0.39544712948E+04  0.37989143495E+04 0.  0.
        5    1    3    3  502    0 -0.56893994502E+03  0.95800231963E+03 -0.10522081749E+04  0.15325225084E+04  0.46999998093E+01 0. -1.
       -5    1    3    3    0  502  0.56893994502E+03 -0.95800231963E+03  0.21504308240E+04  0.24219487865E+04  0.46999998093E+01 0.  1.
</event>
<event>
 5   0  0.5140842E-08  0.3802191E+04  0.7818609E-02  0.8045685E-01
        2   -1    0    0  501    0  0.00000000000E+00  0.00000000000E+00  0.27689752428E+04  0.27689752428E+04  0.25500000920E-02 0. -1.
       -2   -1    0    0    0  501  0.00000000000E+00  0.00000000000E+00 -0.13052352175E+04  0.13052352175E+04  0.25500000920E-02 0.  1.
    10030    2    1    2    0    0  0.00000000000E+00  0.00000000000E+00  0.14637400252E+04  0.40742104603E+04  0.38021909491E+04 0.  0.
        2    1    3    3  502    0  0.53488302550E+03 -0.17915333253E+04  0.11006932758E+04  0.21696122221E+04  0.25500000920E-02 0.  1.
       -2    1    3    3    0  502 -0.53488302550E+03  0.17915333253E+04  0.36304674945E+03  0.19045982382E+04  0.25500000920E-02 0. -1.
</event>
<event>
 5   0  0.5159761E-08  0.3802244E+04  0.7818609E-02  0.8045674E-01
        2   -1    0    0  501    0  0.00000000000E+00  0.00000000000E+00  0.21516993441E+04  0.21516993441E+04  0.25500000920E-02 0.  1.
       -2   -1    0    0    0  501  0.00000000000E+00  0.00000000000E+00 -0.16797257239E+04  0.16797257239E+04  0.25500000920E-02 0. -1.
    10030    2    1    2    0    0  0.00000000000E+00  0.00000000000E+00  0.47197362013E+03  0.38314250680E+04  0.38022439366E+04 0.  0.
        5    1    3    3  502    0 -0.32674543375E+02 -0.14734198224E+04  0.14461236118E+04  0.20647830853E+04  0.46999998093E+01 0.  1.
       -5    1    3    3    0  502  0.32674543375E+02  0.14734198224E+04 -0.97414999163E+03  0.17666419827E+04  0.46999998093E+01 0. -1.
</event>
<event>
 5   0  0.1628473E-08  0.3803622E+04  0.7818609E-02  0.8045378E-01
        1   -1    0    0  501    0  0.00000000000E+00  0.00000000000E+00  0.17925379214E+04  0.17925379214E+04  0.50400001928E-02 0. -1.
       -1   -1    0    0    0  501  0.00000000000E+00  0.00000000000E+00 -0.20177454147E+04  0.20177454148E+04  0.50400001928E-02 0.  1.
    10030    2    1    2    0    0  0.00000000000E+00  0.00000000000E+00 -0.22520749332E+03  0.38102833362E+04  0.38036220484E+04 0.  0.
        3    1    3    3  502    0  0.38895734196E+03 -0.69741217778E+03  0.16164589301E+04  0.18029451024E+04  0.10100000352E+00 0. -1.
       -3    1    3    3    0  502 -0.38895734196E+03  0.69741217778E+03 -0.18416664234E+04  0.20073382338E+04  0.10100000352E+00 0.  1.
</event>
<event>
 5   0  0.5147582E-08  0.3801181E+04  0.7818609E-02  0.8045902E-01
       -2   -1    0    0    0  501  0.00000000000E+00  0.00000000000E+00  0.13216877582E+04  0.13216877582E+04  0.25500000920E-02 0.  1.
        2   -1    0    0  501    0  0.00000000000E+00  0.00000000000E+00 -0.27330537198E+04  0.27330537198E+04  0.25500000920E-02 0. -1.
    10030    2    1    2    0    0  0.00000000000E+00  0.00000000000E+00 -0.14113659616E+04  0.40547414780E+04  0.38011806819E+04 0.  0.
        1    1    3    3  502    0 -0.16447916334E+04 -0.51938016631E+03  0.14577837951E+03  0.17309958436E+04  0.50400001928E-02 0.  1.
       -1    1    3    3    0  502  0.16447916334E+04  0.51938016631E+03 -0.15571443411E+04  0.23237456345E+04  0.50400001928E-02 0. -1.
</event>
<event>
 5   0  0.1628473E-08  0.3799775E+04  0.7818609E-02  0.8046203E-01
        1   -1    0    0  501    0  0.00000000000E+00  0.00000000000E+00  0.12593685914E+04  0.12593685914E+04  0.50400001928E-02 0.  1.
       -1   -1    0    0    0  501  0.00000000000E+00  0.00000000000E+00 -0.28661762939E+04  0.28661762939E+04  0.50400001928E-02 0. -1.
    10030    2    1    2    0    0  0.00000000000E+00  0.00000000000E+00 -0.16068077025E+04  0.41255448853E+04  0.37997749418E+04 0.  0.
        3    1    3    3  502    0 -0.22672139931E+03  0.15130813848E+04 -0.20263638263E+04  0.25390880718E+04  0.10100000352E+00 0. -1.
       -3    1    3    3    0  502  0.22672139931E+03 -0.15130813848E+04  0.41955612383E+03  0.15864568135E+04  0.10100000352E+00 0.  1.
</event>
<event>
 5   0  0.5140842E-08  0.3797494E+04  0.7818609E-02  0.8046693E-01
        2   -1    0    0  501    0  0.00000000000E+00  0.00000000000E+00  0.25556606011E+04  0.25556606011E+04  0.25500000920E-02 0.  1.
       -2   -1    0    0    0  501  0.00000000000E+00  0.00000000000E+00 -0.14106880994E+04  0.14106880994E+04  0.25500000920E-02 0. -1.
    10030    2    1    2    0    0  0.00000000000E+00  0.00000000000E+00  0.11449725017E+04  0.39663487005E+04  0.37974939084E+04 0.  0.
        2    1    3    3  502    0  0.11452066563E+04 -0.14175240178E+04  0.11294586662E+04  0.21439565073E+04  0.25500000920E-02 0.  1.
       -2    1    3    3    0  502 -0.11452066563E+04  0.14175240178E+04  0.15513835474E+02  0.18223921932E+04  0.25500000920E-02 0. -1.
</event>
<event>
 5   0  0.5086209E-08  0.3800553E+04  0.7818609E-02  0.8046036E-01
        2   -1    0    0  501    0  0.00000000000E+00  0.00000000000E+00  0.12470106740E+04  0.12470106740E+04  0.25500000920E-02 0.  1.
       -2   -1    0    0    0  501  0.00000000000E+00  0.00000000000E+00 -0.28957658662E+04  0.28957658662E+04  0.25500000920E-02 0. -1.
    10030    2    1    2    0    0  0.00000000000E+00  0.00000000000E+00 -0.16487551922E+04  0.41427765402E+04  0.38005530885E+04 0.  0.
        3    1    3    3  502    0 -0.18770912939E+04  0.16408640943E+03 -0.55591888322E+03  0.19645462301E+04  0.10100000352E+00 0. -1.
       -3    1    3    3    0  502  0.18770912939E+04 -0.16408640943E+03 -0.10928363090E+04  0.21782303101E+04  0.10100000352E+00 0.  1.
</event>
<event>
 5   0  0.5147582E-08  0.3803099E+04  0.7818609E-02  0.8045490E-01
        2   -1    0    0  501    0  0.00000000000E+00  0.00000000000E+00  0.23093770527E+04  0.23093770527E+04  0.25500000920E-02 0. -1.
       -2   -1    0    0    0  501  0.00000000000E+00  0.00000000000E+00 -0.15657430357E+04  0.15657430357E+04  0.25500000920E-02 0.  1.
    10030    2    1    2    0    0  0.00000000000E+00  0.00000000000E+00  0.74363401703E+03  0.38751200884E+04  0.38030992820E+04 0.  0.
        1    1    3    3  502    0 -0.15064604799E+04 -0.11602577247E+04  0.35507812460E+03  0.19343478590E+04  0.50400001928E-02 0.  1.
       -1    1    3    3    0  502  0.15064604799E+04  0.11602577247E+04  0.38855589243E+03  0.19407722294E+04  0.50400001928E-02 0. -1.
</event>
<event>
 5   0  0.5159761E-08  0.3783318E+04  0.7818609E-02  0.8049744E-01
        2   -1    0    0  501    0  0.00000000000E+00  0.00000000000E+00  0.20211676578E+04  0.20211676578E+04  0.25500000920E-02 0.  1.
       -2   -1    0    0    0  501  0.00000000000E+00  0.00000000000E+00 -0.17704487856E+04  0.17704487856E+04  0.25500000920E-02 0. -1.
    10030    2    1    2    0    0  0.00000000000E+00  0.00000000000E+00  0.25071887226E+03  0.37916164434E+04  0.37833180280E+04 0.  0.
        5    1    3    3  502    0  0.96855872502E+03 -0.57385097145E+03  0.16488717110E+04  0.19965497616E+04  0.46999998093E+01 0.  1.
       -5    1    3    3    0  502 -0.96855872502E+03  0.57385097145E+03 -0.13981528388E+04  0.17950666817E+04  0.46999998093E+01 0. -1.
</event>
<event>
 5   0  0.1628250E-08  0.3799182E+04  0.7818609E-02  0.8046330E-01
       -1   -1    0    0    0  501  0.00000000000E+00  0.00000000000E+00  0.24756169740E+04  0.24756169740E+04  0.50400001928E-02 0.  1.
        1   -1    0    0  501    0  0.00000000000E+00  0.00000000000E+00 -0.14575949268E+04  0.14575949268E+04  0.50400001928E-02 0. -1.
    10030    2    1    2    0    0  0.00000000000E+00  0.00000000000E+00  0.10180220472E+04  0.39332119009E+04  0.37991824079E+04 0.  0.
        4    1    3    3  502    0 -0.15308053919E+04 -0.11339721630E+03  0.16675154553E+04  0.22664583568E+04  0.12699999809E+01 0. -1.
       -4    1    3    3    0  502  0.15308053919E+04  0.11339721630E+03 -0.64949340817E+03  0.16667535441E+04  0.12699999809E+01 0.  1.
</event>
<event>
 5   0  0.1628250E-08  0.3801257E+04  0.7818609E-02  0.8045885E-01
        1   -1    0    0  501    0  0.00000000000E+00  0.00000000000E+00  0.12347070598E+04  0.12347070598E+04  0.50400001928E-02 0.  1.
       -1   -1    0    0    0  501  0.00000000000E+00  0.00000000000E+00 -0.29257056107E+04  0.29257056108E+04  0.50400001928E-02 0. -1.
    10030    2    1    2    0    0  0.00000000000E+00  0.00000000000E+00 -0.16909985509E+04  0.41604126706E+04  0.38012573565E+04 0.  0.
        5    1    3    3  502    0  0.21775955134E+03 -0.57506688225E+03 -0.28138191201E+04  0.28802293783E+04  0.46999998093E+01 0. -1.
       -5    1    3    3    0  502 -0.21775955134E+03  0.57506688225E+03  0.11228205691E+04  0.12801832922E+04  0.46999998093E+01 0.  1.
</event>
<event>
 5   0  0.5207474E-08  0.3819384E+04  0.7818609E-02  0.8042008E-01
       -2   -1    0    0    0  501  0.00000000000E+00  0.00000000000E+00  0.18415225054E+04  0.18415225054E+04  0.25500000920E-02 0.  1.
        2   -1    0    0  501    0  0.00000000000E+00  0.00000000000E+00 -0.19803854852E+04  0.19803854852E+04  0.25500000920E-02 0. -1.
    10030    2    1    2    0    0  0.00000000000E+00  0.00000000000E+00 -0.13886297971E+03  0.38219079906E+04  0.38193844742E+04 0.  0.
        4    1    3    3  502    0  0.58679889148E+03 -0.18106526198E+04 -0.22486273292E+03  0.19166013436E+04  0.12699999809E+01 0.  1.
       -4    1    3    3    0  502 -0.58679889148E+03  0.18106526198E+04  0.85999753204E+02  0.19053066470E+04  0.12699999809E+01 0. -1.
</event>
<event>
 5   0  0.1628250E-08  0.3801607E+04  0.7818609E-02  0.8045810E-01
       -1   -1    0    0    0  501  0.00000000000E+00  0.00000000000E+00  0.14178481866E+04  0.14178481866E+04  0.50400001928E-02 0. -1.
        1   -1    0    0  501    0  0.00000000000E+00  0.00000000000E+00 -0.25482663519E+04  0.25482663519E+04  0.50400001928E-02 0.  1.
    10030    2    1    2    0    0  0.00000000000E+00  0.00000000000E+00 -0.11304181652E+04  0.39661145385E+04  0.38016074632E+04 0.  0.
        4    1    3    3  502    0  0.15835084182E+04 -0.82345684592E+02 -0.16587928801E+04  0.22947494753E+04  0.12699999809E+01 0.  1.
       -4    1    3    3    0  502 -0.15835084182E+04  0.82345684592E+02  0.52837471490E+03  0.16713650632E+04  0.12699999809E+01 0. -1.
</event>
<event>
 5   0  0.1628473E-08  0.3871164E+04  0.7818609E-02  0.8031053E-01
       -1   -1    0    0    0  501  0.00000000000E+00  0.00000000000E+00  0.19726268236E+04  0.19726268237E+04  0.50400001928E-02 0.  1.
        1   -1    0    0  501    0  0.00000000000E+00  0.00000000000E+00 -0.18992325017E+04  0.18992325017E+04  0.50400001928E-02 0. -1.
    10030    2    1    2    0    0  0.00000000000E+00  0.00000000000E+00  0.73394321977E+02  0.38718593253E+04  0.38711636375E+04 0.  0.
        3    1    3    3  502    0 -0.12129956244E+04  0.82471322424E+03  0.12998440231E+04  0.19598736647E+04  0.10100000352E+00 0.  1.
       -3    1    3    3    0  502  0.12129956244E+04 -0.82471322424E+03 -0.12264497011E+04  0.19119856606E+04  0.10100000352E+00 0. -1.
</event>
<event>
 5   0  0.5147582E-08  0.3797599E+04  0.7818609E-02  0.8046670E-01
        2   -1    0    0  501    0  0.00000000000E+00  0.00000000000E+00  0.17832222652E+04  0.17832222652E+04  0.25500000920E-02 0.  1.
       -2   -1    0    0    0  501  0.00000000000E+00  0.00000000000E+00 -0.20218674496E+04  0.20218674496E+04  0.25500000920E-02 0. -1.
    10030    2    1    2    0    0  0.00000000000E+00  0.00000000000E+00 -0.23864518445E+03  0.38050897148E+04  0.37975987431E+04 0.  0.
        1    1    3    3  502    0  0.89175421683E+03 -0.16759970766E+04 -0.83936227508E+02  0.19003255180E+04  0.50400001928E-02 0.  1.
       -1    1    3    3    0  502 -0.89175421683E+03  0.16759970766E+04 -0.15470895694E+03  0.19047641968E+04  0.50400001928E-02 0. -1.
</event>
<event>
 5   0  0.1628250E-08  0.3803713E+04  0.7818609E-02  0.8045358E-01
        1   -1    0    0  501    0  0.00000000000E+00  0.00000000000E+00  0.19426100288E+04  0.19426100288E+04  0.50400001928E-02 0.  1.
       -1   -1    0    0    0  501  0.00000000000E+00  0.00000000000E+00 -0.18619582670E+04  0.18619582670E+04  0.50400001928E-02 0. -1.
    10030    2    1    2    0    0  0.00000000000E+00  0.00000000000E+00  0.80651761778E+02  0.38045682958E+04  0.38037133450E+04 0.  0.
        5    1    3    3  502    0 -0.12534670991E+03 -0.15376259306E+04 -0.10721432484E+04  0.18787012895E+04  0.46999998093E+01 0. -1.
       -5    1    3    3    0  502  0.12534670991E+03  0.15376259306E+04  0.11527950102E+04  0.19258670062E+04  0.46999998093E+01 0.  1.
</event>
<event>
 5   0  0.5207474E-08  0.3787419E+04  0.7818609E-02  0.8048860E-01
        2   -1    0    0  501    0  0.00000000000E+00  0.00000000000E+00  0.19737633253E+04  0.19737633253E+04  0.25500000920E-02 0.  1.
       -2   -1    0    0    0  501  0.00000000000E+00  0.00000000000E+00 -0.18169026819E+04  0.18169026819E+04  0.25500000920E-02 0. -1.
    10030    2    1    2    0    0  0.00000000000E+00  0.00000000000E+00  0.15686064339E+03  0.37906660072E+04  0.37874191103E+04 0.  0.
        4    1    3    3  502    0 -0.30732498484E+03  0.30219284467E+03  0.19240190534E+04  0.19717048695E+04  0.12699999809E+01 0.  1.
       -4    1    3    3    0  502  0.30732498484E+03 -0.30219284467E+03 -0.17671584100E+04  0.18189611377E+04  0.12699999809E+01 0. -1.
</event>
<event>
 5   0  0.5147582E-08  0.3787596E+04  0.7818609E-02  0.8048822E-01
        2   -1    0    0  501    0  0.00000000000E+00  0.00000000000E+00  0.17087737088E+04  0.17087737088E+04  0.25500000920E-02 0. -1.
       -2   -1    0    0    0  501  0.00000000000E+00  0.00000000000E+00 -0.20988568935E+04  0.20988568935E+04  0.25500000920E-02 0.  1.
    10030    2    1    2    0    0  0.00000000000E+00  0.00000000000E+00 -0.39008318473E+03  0.38076306023E+04  0.37875963239E+04 0.  0.
        1    1    3    3  502    0 -0.91756677011E+03 -0.60405614433E+03  0.13557322783E+04  0.17449420087E+04  0.50400001928E-02 0. -1.
       -1    1    3    3    0  502  0.91756677011E+03  0.60405614433E+03 -0.17458154631E+04  0.20626885936E+04  0.50400001928E-02 0.  1.
</event>
<event>
 5   0  0.5086209E-08  0.3802343E+04  0.7818609E-02  0.8045652E-01
        2   -1    0    0  501    0  0.00000000000E+00  0.00000000000E+00  0.14007145437E+04  0.14007145437E+04  0.25500000920E-02 0. -1.
       -2   -1    0    0    0  501  0.00000000000E+00  0.00000000000E+00 -0.25804355698E+04  0.25804355698E+04  0.25500000920E-02 0.  1.
    10030    2    1    2    0    0  0.00000000000E+00  0.00000000000E+00 -0.11797210261E+04  0.39811501135E+04  0.38023432942E+04 0.  0.
        3    1    3    3  502    0  0.13958415358E+03  0.14146676421E+04  0.73191748607E+03  0.15988969605E+04  0.10100000352E+00 0. -1.
       -3    1    3    3    0  502 -0.13958415358E+03 -0.14146676421E+04 -0.19116385122E+04  0.23822531530E+04  0.10100000352E+00 0.  1.
</event>
<event>
 5   0  0.5140842E-08  0.3800968E+04  0.7818609E-02  0.8045947E-01
        2   -1    0    0  501    0  0.00000000000E+00  0.00000000000E+00  0.21521677403E+04  0.21521677403E+04  0.25500000920E-02 0.  1.
       -2   -1    0    0    0  501  0.00000000000E+00  0.00000000000E+00 -0.16782328841E+04  0.16782328841E+04  0.25500000920E-02 0. -1.
    10030    2    1    2    0    0  0.00000000000E+00  0.00000000000E+00  0.47393485621E+03  0.38304006244E+04  0.38009675999E+04 0.  0.
        2    1    3    3  502    0 -0.16635835857E+04  0.91392050168E+03  0.14095297706E+03  0.19033204595E+04  0.25500000920E-02 0. -1.
       -2    1    3    3    0  502  0.16635835857E+04 -0.91392050168E+03  0.33298187915E+03  0.19270801649E+04  0.25500000920E-02 0.  1.
</event>
<event>
 5   0  0.5147582E-08  0.3800678E+04  0.7818609E-02  0.8046009E-01
        2   -1    0    0  501    0  0.00000000000E+00  0.00000000000E+00  0.20917609347E+04  0.20917609347E+04  0.25500000920E-02 0. -1.
       -2   -1    0    0    0  501  0.00000000000E+00  0.00000000000E+00 -0.17264348835E+04  0.17264348835E+04  0.25500000920E-02 0.  1.
    10030    2    1    2    0    0  0.00000000000E+00  0.00000000000E+00  0.36532605120E+03  0.38181958183E+04  0.38006783846E+04 0.  0.
        1    1    3    3  502    0 -0.96512822197E+02  0.47546998302E+03 -0.16631683836E+04  0.17324882401E+04  0.50400001928E-02 0.  1.
       -1    1    3    3    0  502  0.96512822197E+02 -0.47546998302E+03  0.20284944348E+04  0.20857075782E+04  0.50400001928E-02 0. -1.
</event>
<event>
 5   0  0.5159761E-08  0.3794635E+04  0.7818609E-02  0.8047307E-01
       -2   -1    0    0    0  501  0.00000000000E+00  0.00000000000E+00  0.14736930534E+04  0.14736930534E+04  0.25500000920E-02 0. -1.
        2   -1    0    0  501    0  0.00000000000E+00  0.00000000000E+00 -0.24427158808E+04  0.24427158808E+04  0.25500000920E-02 0.  1.
    10030    2    1    2    0    0  0.00000000000E+00  0.00000000000E+00 -0.96902282739E+03  0.39164089341E+04  0.37946348572E+04 0.  0.
        5    1    3    3  502    0 -0.56826404306E+03 -0.25895942653E+03 -0.23335991699E+04  0.24157175296E+04  0.46999998093E+01 0.  1.
       -5    1    3    3    0  502  0.56826404306E+03  0.25895942653E+03  0.13645763425E+04  0.15006914045E+04  0.46999998093E+01 0. -1.
</event>
<event>
 5   0  0.5140842E-08  0.3804602E+04  0.7818609E-02  0.8045168E-01
       -2   -1    0    0    0  501  0.00000000000E+00  0.00000000000E+00  0.23645568193E+04  0.23645568193E+04  0.25500000920E-02 0.  1.
        2   -1    0    0  501    0  0.00000000000E+00  0.00000000000E+00 -0.15304134214E+04  0.15304134214E+04  0.25500000920E-02 0. -1.
    10030    2    1    2    0    0  0.00000000000E+00  0.00000000000E+00  0.83414339794E+03  0.38949702407E+04  0.38046022089E+04 0.  0.
        2    1    3    3  502    0  0.75505148845E+03 -0.67286169969E+03 -0.12323784385E+04  0.15942403310E+04  0.25500000920E-02 0. -1.
       -2    1    3    3    0  502 -0.75505148845E+03  0.67286169969E+03  0.20665218365E+04  0.23007299098E+04  0.25500000920E-02 0.  1.
</event>
<event>
 5   0  0.1628473E-08  0.3810108E+04  0.7818609E-02  0.8043989E-01
       -1   -1    0    0    0  501  0.00000000000E+00  0.00000000000E+00  0.14160330070E+04  0.14160330070E+04  0.50400001928E-02 0.  1.
        1   -1    0    0  501    0  0.00000000000E+00  0.00000000000E+00 -0.25629561040E+04  0.25629561040E+04  0.50400001928E-02 0. -1.
    10030    2    1    2    0    0  0.00000000000E+00  0.00000000000E+00 -0.11469230970E+04  0.39789891110E+04  0.38101078403E+04 0.  0.
        3    1    3    3  502    0  0.38025781807E+03 -0.32215332160E+03  0.13467476262E+04  0.14360041608E+04  0.10100000352E+00 0.  1.
       -3    1    3    3    0  502 -0.38025781807E+03  0.32215332160E+03 -0.24936707233E+04  0.25429849502E+04  0.10100000352E+00 0. -1.
</event>
<event>
 5   0  0.1628250E-08  0.3794208E+04  0.7818609E-02  0.8047399E-01
       -1   -1    0    0    0  501  0.00000000000E+00  0.00000000000E+00  0.28328419485E+04  0.28328419485E+04  0.50400001928E-02 0. -1.
        1   -1    0    0  501    0  0.00000000000E+00  0.00000000000E+00 -0.12704565831E+04  0.12704565831E+04  0.50400001928E-02 0.  1.
    10030    2    1    2    0    0  0.00000000000E+00  0.00000000000E+00  0.15623853654E+04  0.41032985316E+04  0.37942075338E+04 0.  0.
        1    1    3    3  502    0  0.48067769670E+03  0.79735427725E+02 -0.12016335560E+04  0.12966618639E+04  0.50400001928E-02 0.  1.
       -1    1    3    3    0  502 -0.48067769670E+03 -0.79735427725E+02  0.27640189214E+04  0.28066366677E+04  0.50400001928E-02 0. -1.
</event>
<event>
 5   0  0.5140842E-08  0.3793968E+04  0.7818609E-02  0.8047451E-01
        2   -1    0    0  501    0  0.00000000000E+00  0.00000000000E+00  0.32515657817E+04  0.32515657817E+04  0.25500000920E-02 0. -1.
       -2   -1    0    0    0  501  0.00000000000E+00  0.00000000000E+00 -0.11067125696E+04  0.11067125696E+04  0.25500000920E-02 0.  1.
    10030    2    1    2    0    0  0.00000000000E+00  0.00000000000E+00  0.21448532121E+04  0.43582783513E+04  0.37939682242E+04 0.  0.
        2    1    3    3  502    0 -0.23668222302E+03 -0.12442150558E+04  0.26947366117E+04  0.29775316936E+04  0.25500000920E-02 0. -1.
       -2    1    3    3    0  502  0.23668222302E+03  0.12442150558E+04 -0.54988339963E+03  0.13807466578E+04  0.25500000920E-02 0.  1.
</event>
<event>
 5   0  0.5159761E-08  0.3805406E+04  0.7818609E-02  0.8044996E-01
       -2   -1    0    0    0  501  0.00000000000E+00  0.00000000000E+00  0.15222192259E+04  0.15222192259E+04  0.25500000920E-02 0.  1.
        2   -1    0    0  501    0  0.00000000000E+00  0.00000000000E+00 -0.23782901414E+04  0.23782901414E+04  0.25500000920E-02 0. -1.
    10030    2    1    2    0    0  0.00000000000E+00  0.00000000000E+00 -0.85607091550E+03  0.39005093673E+04  0.38054061428E+04 0.  0.
        5    1    3    3  502    0 -0.30738401007E+03  0.17983312363E+04 -0.98169862316E+03  0.20717708468E+04  0.46999998093E+01 0. -1.
       -5    1    3    3    0  502  0.30738401007E+03 -0.17983312363E+04  0.12562770767E+03  0.18287385204E+04  0.46999998093E+01 0.  1.
</event>
<event>
 5   0  0.5159761E-08  0.3795278E+04  0.7818609E-02  0.8047169E-01
       -2   -1    0    0    0  501  0.00000000000E+00  0.00000000000E+00  0.12904184841E+04  0.12904184841E+04  0.25500000920E-02 0. -1.
        2   -1    0    0  501    0  0.00000000000E+00  0.00000000000E+00 -0.27905938888E+04  0.27905938888E+04  0.25500000920E-02 0.  1.
    10030    2    1    2    0    0  0.00000000000E+00  0.00000000000E+00 -0.15001754047E+04  0.40810123728E+04  0.37952780850E+04 0.  0.
        5    1    3    3  502    0  0.29924763057E+03 -0.10271360627E+04  0.93521782531E+03  0.14209898333E+04  0.46999998093E+01 0. -1.
       -5    1    3    3    0  502 -0.29924763057E+03  0.10271360627E+04 -0.24353932300E+04  0.26600225395E+04  0.46999998093E+01 0.  1.
</event>
<event>
 5   0  0.1628250E-08  0.3809044E+04  0.7818609E-02  0.8044217E-01
        1   -1    0    0  501    0  0.00000000000E+00  0.00000000000E+00  0.17714379982E+04  0.17714379982E+04  0.50400001928E-02 0.  1.
       -1   -1    0    0    0  501  0.00000000000E+00  0.00000000000E+00 -0.20476046264E+04  0.20476046264E+04  0.50400001928E-02 0. -1.
    10030    2    1    2    0    0  0.00000000000E+00  0.00000000000E+00 -0.27616662819E+03  0.38190426246E+04  0.38090443109E+04 0.  0.
        4    1    3    3  502    0 -0.13096330286E+04  0.20852911628E+03  0.12324649214E+04  0.18104127864E+04  0.12699999809E+01 0.  1.
       -4    1    3    3    0  502  0.13096330286E+04 -0.20852911628E+03 -0.15086315496E+04  0.20086298382E+04  0.12699999809E+01 0. -1.
</event>
<event>
 5   0  0.1628250E-08  0.3793449E+04  0.7818609E-02  0.8047562E-01
       -3   -1    0    0    0  501  0.00000000000E+00  0.00000000000E+00  0.14921398595E+04  0.14921398629E+04  0.10100000352E+00 0. -1.
        3   -1    0    0  501    0  0.00000000000E+00  0.00000000000E+00 -0.24110093509E+04  0.24110093531E+04  0.10100000352E+00 0.  1.
    10030    2    1    2    0    0  0.00000000000E+00  0.00000000000E+00 -0.91886949149E+03  0.39031492159E+04  0.37934486499E+04 0.  0.
        4    1    3    3  502    0  0.17106254557E+04 -0.35486424702E+03 -0.12192988188E+04  0.21304598813E+04  0.12699999809E+01 0.  1.
       -4    1    3    3    0  502 -0.17106254557E+04  0.35486424702E+03  0.30042932727E+03  0.17726893346E+04  0.12699999809E+01 0. -1.
</event>
<event>
 5   0  0.5147582E-08  0.3804635E+04  0.7818609E-02  0.8045161E-01
        2   -1    0    0  501    0  0.00000000000E+00  0.00000000000E+00  0.21451519808E+04  0.21451519808E+04  0.25500000920E-02 0.  1.
       -2   -1    0    0    0  501  0.00000000000E+00  0.00000000000E+00 -0.16869718827E+04  0.16869718828E+04  0.25500000920E-02 0. -1.
    10030    2    1    2    0    0  0.00000000000E+00  0.00000000000E+00  0.45818009803E+03  0.38321238635E+04  0.38046345821E+04 0.  0.
        1    1    3    3  502    0 -0.10859239327E+04  0.15609842158E+04  0.28341083615E+03  0.19225566862E+04  0.50400001928E-02 0.  1.
       -1    1    3    3    0  502  0.10859239327E+04 -0.15609842158E+04  0.17476926189E+03  0.19095671773E+04  0.50400001928E-02 0. -1.
</event>
<event>
 5   0  0.5207474E-08  0.3801240E+04  0.7818609E-02  0.8045889E-01
        2   -1    0    0  501    0  0.00000000000E+00  0.00000000000E+00  0.15763473641E+04  0.15763473641E+04  0.25500000920E-02 0.  1.
       -2   -1    0    0    0  501  0.00000000000E+00  0.00000000000E+00 -0.22915994727E+04  0.22915994727E+04  0.25500000920E-02 0. -1.
    10030    2    1    2    0    0  0.00000000000E+00  0.00000000000E+00 -0.71525210868E+03  0.38679468368E+04  0.38012402125E+04 0.  0.
        4    1    3    3  502    0  0.14339349369E+03 -0.15696767325E+04  0.72304147870E+03  0.17341387866E+04  0.12699999809E+01 0.  1.
       -4    1    3    3    0  502 -0.14339349369E+03  0.15696767325E+04 -0.14382935874E+04  0.21338080502E+04  0.12699999809E+01 0. -1.
</event>
<event>
 5   0  0.5140842E-08  0.3804258E+04  0.7818609E-02  0.8045242E-01
       -2   -1    0    0    0  501  0.00000000000E+00  0.00000000000E+00  0.22041128963E+04  0.22041128963E+04  0.25500000920E-02 0.  1.
        2   -1    0    0  501    0  0.00000000000E+00  0.00000000000E+00 -0.16415200906E+04  0.16415200906E+04  0.25500000920E-02 0. -1.
    10030    2    1    2    0    0  0.00000000000E+00  0.00000000000E+00  0.56259280569E+03  0.38456329868E+04  0.38042584566E+04 0.  0.
        2    1    3    3  502    0 -0.17153336490E+04 -0.63908603984E+03  0.80392518619E+03  0.19992739179E+04  0.25500000920E-02 0.  1.
       -2    1    3    3    0  502  0.17153336490E+04  0.63908603984E+03 -0.24133238050E+03  0.18463590690E+04  0.25500000920E-02 0. -1.
</event>
<event>
 5   0  0.5140842E-08  0.3804899E+04  0.7818609E-02  0.8045104E-01
       -2   -1    0    0    0  501  0.00000000000E+00  0.00000000000E+00  0.34948598792E+04  0.34948598792E+04  0.25500000920E-02 0.  1.
        2   -1    0    0  501    0  0.00000000000E+00  0.00000000000E+00 -0.10356109021E+04  0.10356109021E+04  0.25500000920E-02 0. -1.
    10030    2    1    2    0    0  0.00000000000E+00  0.00000000000E+00  0.24592489771E+04  0.45304707812E+04  0.38048994689E+04 0.  0.
        2    1    3    3  502    0 -0.44755344297E+03 -0.17960786215E+04  0.70637919287E+03  0.19812052047E+04  0.25500000920E-02 0. -1.
       -2    1    3    3    0  502  0.44755344297E+03  0.17960786215E+04  0.17528697842E+04  0.25492655765E+04  0.25500000920E-02 0.  1.
</event>
<event>
 5   0  0.1666051E-08  0.3804896E+04  0.7818609E-02  0.8045105E-01
        1   -1    0    0  501    0  0.00000000000E+00  0.00000000000E+00  0.18246668328E+04  0.18246668328E+04  0.50400001928E-02 0. -1.
       -1   -1    0    0    0  501  0.00000000000E+00  0.00000000000E+00 -0.19835445996E+04  0.19835445996E+04  0.50400001928E-02 0.  1.
    10030    2    1    2    0    0  0.00000000000E+00  0.00000000000E+00 -0.15887776673E+03  0.38082114324E+04  0.38048958158E+04 0.  0.
        2    1    3    3  502    0  0.80319453114E+03 -0.16192153088E+04  0.51465090974E+03  0.18793204171E+04  0.25500000920E-02 0. -1.
       -2    1    3    3    0  502 -0.80319453114E+03  0.16192153088E+04 -0.67352867647E+03  0.19288910154E+04  0.25500000920E-02 0.  1.
</event>
<event>
 5   0  0.1628473E-08  0.3801408E+04  0.7818609E-02  0.8045853E-01
        1   -1    0    0  501    0  0.00000000000E+00  0.00000000000E+00  0.22536638437E+04  0.22536638437E+04  0.50400001928E-02 0. -1.
       -1   -1    0    0    0  501  0.00000000000E+00  0.00000000000E+00 -0.16030235233E+04  0.16030235233E+04  0.50400001928E-02 0.  1.
    10030    2    1    2    0    0  0.00000000000E+00  0.00000000000E+00  0.65064032040E+03  0.38566873671E+04  0.38014082418E+04 0.  0.
        3    1    3    3  502    0 -0.11014038593E+03  0.91927998602E+03 -0.13587792787E+04  0.16442286142E+04  0.10100000352E+00 0.  1.
       -3    1    3    3    0  502  0.11014038593E+03 -0.91927998602E+03  0.20094195991E+04  0.22124587528E+04  0.10100000352E+00 0. -1.
</event>
<event>
 5   0  0.5159761E-08  0.3799661E+04  0.7818609E-02  0.8046228E-01
        2   -1    0    0  501    0  0.00000000000E+00  0.00000000000E+00  0.13355354019E+04  0.13355354019E+04  0.25500000920E-02 0.  1.
       -2   -1    0    0    0  501  0.00000000000E+00  0.00000000000E+00 -0.27025531706E+04  0.27025531706E+04  0.25500000920E-02 0. -1.
    10030    2    1    2    0    0  0.00000000000E+00  0.00000000000E+00 -0.13670177687E+04  0.40380885725E+04  0.37996607401E+04 0.  0.
        5    1    3    3  502    0 -0.82972203012E+03  0.15082153723E+04 -0.15378044278E+04  0.23082497276E+04  0.46999998093E+01 0. -1.
       -5    1    3    3    0  502  0.82972203012E+03 -0.15082153723E+04  0.17078665913E+03  0.17298388450E+04  0.46999998093E+01 0.  1.
</event>
<event>
 5   0  0.5147582E-08  0.3798955E+04  0.7818609E-02  0.8046379E-01
       -2   -1    0    0    0  501  0.00000000000E+00  0.00000000000E+00  0.18079614923E+04  0.18079614923E+04  0.25500000920E-02 0.  1.
        2   -1    0    0  501    0  0.00000000000E+00  0.00000000000E+00 -0.19956255790E+04  0.19956255790E+04  0.25500000920E-02 0. -1.
    10030    2    1    2    0    0  0.00000000000E+00  0.00000000000E+00 -0.18766408670E+03  0.38035870712E+04  0.37989546982E+04 0.  0.
        1    1    3    3  502    0  0.14948949591E+03  0.69916434519E+03 -0.18557609182E+04  0.19887248368E+04  0.50400001928E-02 0. -1.
       -1    1    3    3    0  502 -0.14948949591E+03 -0.69916434519E+03  0.16680968314E+04  0.18148622345E+04  0.50400001928E-02 0.  1.
</event>
<event>
 5   0  0.1628250E-08  0.3801502E+04  0.7818609E-02  0.8045833E-01
       -1   -1    0    0    0  501  0.00000000000E+00  0.00000000000E+00  0.24147066365E+04  0.24147066365E+04  0.50400001928E-02 0.  1.
        1   -1    0    0  501    0  0.00000000000E+00  0.00000000000E+00 -0.14961876126E+04  0.14961876126E+04  0.50400001928E-02 0. -1.
    10030    2    1    2    0    0  0.00000000000E+00  0.00000000000E+00  0.91851902389E+03  0.39108942490E+04  0.38015018913E+04 0.  0.
        4    1    3    3  502    0  0.28203645003E+03 -0.12811110336E+04 -0.95584527979E+03  0.16230932972E+04  0.12699999809E+01 0. -1.
       -4    1    3    3    0  502 -0.28203645003E+03  0.12811110336E+04  0.18743643037E+04  0.22878009519E+04  0.12699999809E+01 0.  1.
</event>
<event>
 5   0  0.1628473E-08  0.3798434E+04  0.7818609E-02  0.8046491E-01
        1   -1    0    0  501    0  0.00000000000E+00  0.00000000000E+00  0.18893412799E+04  0.18893412799E+04  0.50400001928E-02 0. -1.
       -1   -1    0    0    0  501  0.00000000000E+00  0.00000000000E+00 -0.19091441805E+04  0.19091441805E+04  0.50400001928E-02 0.  1.
    10030    2    1    2    0    0  0.00000000000E+00  0.00000000000E+00 -0.19802900661E+02  0.37984854604E+04  0.37984338401E+04 0.  0.
        3    1    3    3  502    0 -0.82018683172E+03 -0.49818069169E+03  0.16290639147E+04  0.18906982014E+04  0.10100000352E+00 0. -1.
       -3    1    3    3    0  502  0.82018683172E+03  0.49818069169E+03 -0.16488668154E+04  0.19077872590E+04  0.10100000352E+00 0.  1.
</event>
<event>
 5   0  0.5159761E-08  0.3797754E+04  0.7818609E-02  0.8046637E-01
        2   -1    0    0  501    0  0.00000000000E+00  0.00000000000E+00  0.22305481228E+04  0.22305481228E+04  0.25500000920E-02 0.  1.
       -2   -1    0    0    0  501  0.00000000000E+00  0.00000000000E+00 -0.16165234795E+04  0.16165234795E+04  0.25500000920E-02 0. -1.
    10030    2    1    2    0    0  0.00000000000E+00  0.00000000000E+00  0.61402464334E+03  0.38470716023E+04  0.37977537638E+04 0.  0.
        5    1    3    3  502    0  0.12634331776E+04 -0.13932563768E+04  0.42305677737E+02  0.18812864179E+04  0.46999998093E+01 0. -1.
       -5    1    3    3    0  502 -0.12634331776E+04  0.13932563768E+04  0.57171896560E+03  0.19657851844E+04  0.46999998093E+01 0.  1.
</event>
<event>
 5   0  0.5159761E-08  0.3797316E+04  0.7818609E-02  0.8046731E-01
       -2   -1    0    0    0  501  0.00000000000E+00  0.00000000000E+00  0.23132492375E+04  0.23132492375E+04  0.25500000920E-02 0.  1.
        2   -1    0    0  501    0  0.00000000000E+00  0.00000000000E+00 -0.15583714196E+04  0.15583714196E+04  0.25500000920E-02 0. -1.
    10030    2    1    2    0    0  0.00000000000E+00  0.00000000000E+00  0.75487781791E+03  0.38716206572E+04  0.37973156299E+04 0.  0.
        5    1    3    3  502    0 -0.18842721972E+04  0.23322998509E+03  0.37620313131E+03  0.19355693801E+04  0.46999998093E+01 0.  1.
       -5    1    3    3    0  502  0.18842721972E+04 -0.23322998509E+03  0.37867468660E+03  0.19360512771E+04  0.46999998093E+01 0. -1.
</event>
<event>
 5   0  0.5140842E-08  0.3800802E+04  0.7818609E-02  0.8045983E-01
        2   -1    0    0  501    0  0.00000000000E+00  0.00000000000E+00  0.20371982964E+04  0.20371982964E+04  0.25500000920E-02 0.  1.
       -2   -1    0    0    0  501  0.00000000000E+00  0.00000000000E+00 -0.17727893670E+04  0.17727893670E+04  0.25500000920E-02 0. -1.
    10030    2    1    2    0    0  0.00000000000E+00  0.00000000000E+00  0.26440892937E+03  0.38099876634E+04  0.38008017461E+04 0.  0.
        2    1    3    3  502    0 -0.29475174148E+03 -0.18357844318E+04 -0.26186191254E+03  0.18776460610E+04  0.25500000920E-02 0. -1.
       -2    1    3    3    0  502  0.29475174148E+03  0.18357844318E+04  0.52627084191E+03  0.19323416024E+04  0.25500000920E-02 0.  1.
</event>
<event>
 5   0  0.5207474E-08  0.3804237E+04  0.7818609E-02  0.8045246E-01
       -2   -1    0    0    0  501  0.00000000000E+00  0.00000000000E+00  0.14824203748E+04  0.14824203748E+04  0.25500000920E-02 0.  1.
        2   -1    0    0  501    0  0.00000000000E+00  0.00000000000E+00 -0.24406400791E+04  0.24406400791E+04  0.25500000920E-02 0. -1.
    10030    2    1    2    0    0  0.00000000000E+00  0.00000000000E+00 -0.95821970430E+03  0.39230604539E+04  0.38042368910E+04 0.  0.
        4    1    3    3  502    0 -0.30952328396E+03 -0.68630921553E+02 -0.24132006250E+04  0.24339379072E+04  0.12699999809E+01 0. -1.
       -4    1    3    3    0  502  0.30952328396E+03  0.68630921553E+02  0.14549809207E+04  0.14891225467E+04  0.12699999809E+01 0.  1.
</event>
<event>
 5   0  0.1628250E-08  0.3792997E+04  0.7818609E-02  0.8047659E-01
       -1   -1    0    0    0  501  0.00000000000E+00  0.00000000000E+00  0.16908088585E+04  0.16908088585E+04  0.50400001928E-02 0.  1.
        1   -1    0    0  501    0  0.00000000000E+00  0.00000000000E+00 -0.21272103944E+04  0.21272103944E+04  0.50400001928E-02 0. -1.
    10030    2    1    2    0    0  0.00000000000E+00  0.00000000000E+00 -0.43640153596E+03  0.38180192529E+04  0.37929967987E+04 0.  0.
        1    1    3    3  502    0 -0.42860488159E+03  0.17650711313E+04 -0.76726039702E+03  0.19717674204E+04  0.50400001928E-02 0.  1.
       -1    1    3    3    0  502  0.42860488159E+03 -0.17650711313E+04  0.33085886106E+03  0.18462518325E+04  0.50400001928E-02 0. -1.
</event>
<event>
 5   0  0.1628250E-08  0.3801183E+04  0.7818609E-02  0.8045901E-01
        1   -1    0    0  501    0  0.00000000000E+00  0.00000000000E+00  0.18616103535E+04  0.18616103535E+04  0.50400001928E-02 0.  1.
       -1   -1    0    0    0  501  0.00000000000E+00  0.00000000000E+00 -0.19403888738E+04  0.19403888738E+04  0.50400001928E-02 0. -1.
    10030    2    1    2    0    0  0.00000000000E+00  0.00000000000E+00 -0.78778520300E+02  0.38019992273E+04  0.38011829828E+04 0.  0.
        1    1    3    3  502    0 -0.14891336650E+04  0.55111966531E+03 -0.10841211197E+04  0.19226467590E+04  0.50400001928E-02 0.  1.
       -1    1    3    3    0  502  0.14891336650E+04 -0.55111966531E+03  0.10053425994E+04  0.18793524683E+04  0.50400001928E-02 0. -1.
</event>
<event>
 5   0  0.1628250E-08  0.3799789E+04  0.7818609E-02  0.8046200E-01
       -1   -1    0    0    0  501  0.00000000000E+00  0.00000000000E+00  0.21408360597E+04  0.21408360597E+04  0.50400001928E-02 0.  1.
        1   -1    0    0  501    0  0.00000000000E+00  0.00000000000E+00 -0.16860698970E+04  0.16860698970E+04  0.50400001928E-02 0. -1.
    10030    2    1    2    0    0  0.00000000000E+00  0.00000000000E+00  0.45476616272E+03  0.38269059567E+04  0.37997890650E+04 0.  0.
        5    1    3    3  502    0  0.63711995867E+03  0.21633174412E+03  0.20168170572E+04  0.21260983979E+04  0.46999998093E+01 0.  1.
       -5    1    3    3    0  502 -0.63711995867E+03 -0.21633174412E+03 -0.15620508945E+04  0.17008075588E+04  0.46999998093E+01 0. -1.
</event>
<event>
 5   0  0.5147582E-08  0.3797391E+04  0.7818609E-02  0.8046715E-01
       -2   -1    0    0    0  501  0.00000000000E+00  0.00000000000E+00  0.13805296218E+04  0.13805296218E+04  0.25500000920E-02 0.  1.
        2   -1    0    0  501    0  0.00000000000E+00  0.00000000000E+00 -0.26113493143E+04  0.26113493143E+04  0.25500000920E-02 0. -1.
    10030    2    1    2    0    0  0.00000000000E+00  0.00000000000E+00 -0.12308196925E+04  0.39918789362E+04  0.37973912526E+04 0.  0.
        1    1    3    3  502    0  0.73992506979E+03 -0.15708865014E+04  0.19195669858E+03  0.17470034011E+04  0.50400001928E-02 0. -1.
       -1    1    3    3    0  502 -0.73992506979E+03  0.15708865014E+04 -0.14227763911E+04  0.22448755351E+04  0.50400001928E-02 0.  1.
</event>
<event>
 5   0  0.5207474E-08  0.3799062E+04  0.7818609E-02  0.8046356E-01
       -2   -1    0    0    0  501  0.00000000000E+00  0.00000000000E+00  0.14299292408E+04  0.14299292408E+04  0.25500000920E-02 0.  1.
        2   -1    0    0  501    0  0.00000000000E+00  0.00000000000E+00 -0.25233540686E+04  0.25233540686E+04  0.25500000920E-02 0. -1.
    10030    2    1    2    0    0  0.00000000000E+00  0.00000000000E+00 -0.10934248278E+04  0.39532833094E+04  0.37990618671E+04 0.  0.
        4    1    3    3  502    0  0.10977068647E+04  0.36908039115E+03 -0.21135021914E+04  0.24099945689E+04  0.12699999809E+01 0. -1.
       -4    1    3    3    0  502 -0.10977068647E+04 -0.36908039115E+03  0.10200773637E+04  0.15432887405E+04  0.12699999809E+01 0.  1.
</event>
<event>
 5   0  0.1628250E-08  0.3796903E+04  0.7818609E-02  0.8046820E-01
       -1   -1    0    0    0  501  0.00000000000E+00  0.00000000000E+00  0.16553165863E+04  0.16553165863E+04  0.50400001928E-02 0. -1.
        1   -1    0    0  501    0  0.00000000000E+00  0.00000000000E+00 -0.21772978412E+04  0.21772978412E+04  0.50400001928E-02 0.  1.
    10030    2    1    2    0    0  0.00000000000E+00  0.00000000000E+00 -0.52198125495E+03  0.38326144275E+04  0.37969025427E+04 0.  0.
        4    1    3    3  502    0 -0.10554204218E+04 -0.12859465163E+04 -0.11842214814E+04  0.20420462383E+04  0.12699999809E+01 0.  1.
       -4    1    3    3    0  502  0.10554204218E+04  0.12859465163E+04  0.66224022645E+03  0.17905681891E+04  0.12699999809E+01 0. -1.
</event>
<event>
 5   0  0.1628250E-08  0.3798792E+04  0.7818609E-02  0.8046414E-01
       -3   -1    0    0    0  501  0.00000000000E+00  0.00000000000E+00  0.14267533218E+04  0.14267533253E+04  0.10100000352E+00 0. -1.
        3   -1    0    0  501    0  0.00000000000E+00  0.00000000000E+00 -0.25286113867E+04  0.25286113887E+04  0.10100000352E+00 0.  1.
    10030    2    1    2    0    0  0.00000000000E+00  0.00000000000E+00 -0.11018580649E+04  0.39553647141E+04  0.37987917587E+04 0.  0.
        2    1    3    3  502    0 -0.16317255216E+04 -0.97180048426E+03 -0.58001510404E+03  0.19857849531E+04  0.25500000920E-02 0.  1.
       -2    1    3    3    0  502  0.16317255216E+04  0.97180048426E+03 -0.52184296088E+03  0.19695797610E+04  0.25500000920E-02 0. -1.
</event>
<event>
 5   0  0.5147582E-08  0.3789297E+04  0.7818609E-02  0.8048456E-01
        2   -1    0    0  501    0  0.00000000000E+00  0.00000000000E+00  0.18748463653E+04  0.18748463653E+04  0.25500000920E-02 0. -1.
       -2   -1    0    0    0  501  0.00000000000E+00  0.00000000000E+00 -0.19146597435E+04  0.19146597435E+04  0.25500000920E-02 0.  1.
    10030    2    1    2    0    0  0.00000000000E+00  0.00000000000E+00 -0.39813378173E+02  0.37895061089E+04  0.37892969591E+04 0.  0.
        1    1    3    3  502    0 -0.17912282218E+04  0.16856279095E+03  0.57407971514E+03  0.18885125036E+04  0.50400001928E-02 0. -1.
       -1    1    3    3    0  502  0.17912282218E+04 -0.16856279095E+03 -0.61389309331E+03  0.19009936052E+04  0.50400001928E-02 0.  1.
</event>
<event>
 5   0  0.1628473E-08  0.3800291E+04  0.7818609E-02  0.8046093E-01
        1   -1    0    0  501    0  0.00000000000E+00  0.00000000000E+00  0.21006146362E+04  0.21006146362E+04  0.50400001928E-02 0.  1.
       -1   -1    0    0    0  501  0.00000000000E+00  0.00000000000E+00 -0.17188075312E+04  0.17188075312E+04  0.50400001928E-02 0. -1.
    10030    2    1    2    0    0  0.00000000000E+00  0.00000000000E+00  0.38180710497E+03  0.38194221674E+04  0.38002906504E+04 0.  0.
        3    1    3    3  502    0  0.12911617419E+04  0.11198059870E+04  0.10254379765E+04  0.19931350045E+04  0.10100000352E+00 0.  1.
       -3    1    3    3    0  502 -0.12911617419E+04 -0.11198059870E+04 -0.64363087153E+03  0.18262871629E+04  0.10100000352E+00 0. -1.
</event>
<event>
 5   0  0.5140842E-08  0.3792844E+04  0.7818609E-02  0.8047692E-01
        2   -1    0    0  501    0  0.00000000000E+00  0.00000000000E+00  0.23894748038E+04  0.23894748038E+04  0.25500000920E-02 0.  1.
       -2   -1    0    0    0  501  0.00000000000E+00  0.00000000000E+00 -0.15051076500E+04  0.15051076500E+04  0.25500000920E-02 0. -1.
    10030    2    1    2    0    0  0.00000000000E+00  0.00000000000E+00  0.88436715382E+03  0.38945824539E+04  0.37928442134E+04 0.  0.
        2    1    3    3  502    0  0.53238647144E+03  0.15705790297E+04  0.13867849340E+04  0.21617877547E+04  0.25500000920E-02 0.  1.
       -2    1    3    3    0  502 -0.53238647144E+03 -0.15705790297E+04 -0.50241778017E+03  0.17327946991E+04  0.25500000920E-02 0. -1.
</event>
<event>
 5   0  0.5140842E-08  0.3800358E+04  0.7818609E-02  0.8046078E-01
       -2   -1    0    0    0  501  0.00000000000E+00  0.00000000000E+00  0.30080782676E+04  0.30080782676E+04  0.25500000920E-02 0.  1.
        2   -1    0    0  501    0  0.00000000000E+00  0.00000000000E+00 -0.12003278326E+04  0.12003278326E+04  0.25500000920E-02 0. -1.
    10030    2    1    2    0    0  0.00000000000E+00  0.00000000000E+00  0.18077504350E+04  0.42084061002E+04  0.38003579132E+04 0.  0.
        2    1    3    3  502    0  0.15693498661E+04 -0.10695953747E+04  0.97201947852E+03  0.21334748966E+04  0.25500000920E-02 0.  1.
       -2    1    3    3    0  502 -0.15693498661E+04  0.10695953747E+04  0.83573095652E+03  0.20749312036E+04  0.25500000920E-02 0. -1.
</event>
<event>
 5   0  0.5207474E-08  0.3800526E+04  0.7818609E-02  0.8046042E-01
        2   -1    0    0  501    0  0.00000000000E+00  0.00000000000E+00  0.21795647261E+04  0.21795647261E+04  0.25500000920E-02 0. -1.
       -2   -1    0    0    0  501  0.00000000000E+00  0.00000000000E+00 -0.16567528538E+04  0.16567528538E+04  0.25500000920E-02 0.  1.
    10030    2    1    2    0    0  0.00000000000E+00  0.00000000000E+00  0.52281187228E+03  0.38363175799E+04  0.38005263215E+04 0.  0.
        4    1    3    3  502    0 -0.79976133549E+03  0.14056833447E+04  0.12685165548E+04  0.20554074346E+04  0.12699999809E+01 0. -1.
       -4    1    3    3    0  502  0.79976133549E+03 -0.14056833447E+04 -0.74570468255E+03  0.17809101454E+04  0.12699999809E+01 0.  1.
</event>
<event>
 5   0  0.5086209E-08  0.3799725E+04  0.7818609E-02  0.8046214E-01
        2   -1    0    0  501    0  0.00000000000E+00  0.00000000000E+00  0.20052016496E+04  0.20052016496E+04  0.25500000920E-02 0. -1.
       -2   -1    0    0    0  501  0.00000000000E+00  0.00000000000E+00 -0.18000571444E+04  0.18000571444E+04  0.25500000920E-02 0.  1.
    10030    2    1    2    0    0  0.00000000000E+00  0.00000000000E+00  0.20514450521E+03  0.38052587940E+04  0.37997250192E+04 0.  0.
        3    1    3    3  502    0 -0.69403430362E+03  0.59435802915E+03  0.17706908921E+04  0.19925589896E+04  0.10100000352E+00 0. -1.
       -3    1    3    3    0  502  0.69403430362E+03 -0.59435802915E+03 -0.15655463869E+04  0.18126998044E+04  0.10100000352E+00 0.  1.
</event>
<event>
 5   0  0.5147582E-08  0.3803319E+04  0.7818609E-02  0.8045443E-01
       -2   -1    0    0    0  501  0.00000000000E+00  0.00000000000E+00  0.14707830400E+04  0.14707830400E+04  0.25500000920E-02 0. -1.
        2   -1    0    0  501    0  0.00000000000E+00  0.00000000000E+00 -0.24587645668E+04  0.24587645668E+04  0.25500000920E-02 0.  1.
    10030    2    1    2    0    0  0.00000000000E+00  0.00000000000E+00 -0.98798152680E+03  0.39295476068E+04  0.38033191947E+04 0.  0.
        1    1    3    3  502    0  0.13600516069E+04 -0.91405342754E+03  0.50295642935E+03  0.17141176190E+04  0.50400001928E-02 0. -1.
       -1    1    3    3    0  502 -0.13600516069E+04  0.91405342754E+03 -0.14909379561E+04  0.22154299878E+04  0.50400001928E-02 0.  1.
</event>
<event>
 5   0  0.5159761E-08  0.3799334E+04  0.7818609E-02  0.8046298E-01
       -2   -1    0    0    0  501  0.00000000000E+00  0.00000000000E+00  0.19899678189E+04  0.19899678189E+04  0.25500000920E-02 0.  1.
        2   -1    0    0  501    0  0.00000000000E+00  0.00000000000E+00 -0.18134638540E+04  0.18134638540E+04  0.25500000920E-02 0. -1.
    10030    2    1    2    0    0  0.00000000000E+00  0.00000000000E+00  0.17650396489E+03  0.38034316730E+04  0.37993339997E+04 0.  0.
        5    1    3    3  502    0 -0.18996390873E+03  0.97757147673E+03 -0.15312011161E+04  0.18265626807E+04  0.46999998093E+01 0. -1.
       -5    1    3    3    0  502  0.18996390873E+03 -0.97757147673E+03  0.17077050810E+04  0.19768689922E+04  0.46999998093E+01 0.  1.
</event>
<event>
 5   0  0.1628250E-08  0.3809175E+04  0.7818609E-02  0.8044189E-01
       -1   -1    0    0    0  501  0.00000000000E+00  0.00000000000E+00  0.20689524056E+04  0.20689524056E+04  0.50400001928E-02 0. -1.
        1   -1    0    0  501    0  0.00000000000E+00  0.00000000000E+00 -0.17532804039E+04  0.17532804039E+04  0.50400001928E-02 0.  1.
    10030    2    1    2    0    0  0.00000000000E+00  0.00000000000E+00  0.31567200169E+03  0.38222328095E+04  0.38091750862E+04 0.  0.
        4    1    3    3  502    0  0.11639046424E+03  0.16027113376E+04 -0.86802947585E+03  0.18263918407E+04  0.12699999809E+01 0.  1.
       -4    1    3    3    0  502 -0.11639046424E+03 -0.16027113376E+04  0.11837014775E+04  0.19958409688E+04  0.12699999809E+01 0. -1.
</event>
<event>
 5   0  0.1628250E-08  0.3799681E+04  0.7818609E-02  0.8046223E-01
        1   -1    0    0  501    0  0.00000000000E+00  0.00000000000E+00  0.16755197765E+04  0.16755197765E+04  0.50400001928E-02 0.  1.
       -1   -1    0    0    0  501  0.00000000000E+00  0.00000000000E+00 -0.21541933008E+04  0.21541933008E+04  0.50400001928E-02 0. -1.
    10030    2    1    2    0    0  0.00000000000E+00  0.00000000000E+00 -0.47867352434E+03  0.38297130773E+04  0.37996807644E+04 0.  0.
        5    1    3    3  502    0  0.17465216225E+04  0.73802850594E+03 -0.11860882861E+03  0.18997668272E+04  0.46999998093E+01 0. -1.
       -5    1    3    3    0  502 -0.17465216225E+04 -0.73802850594E+03 -0.36006469573E+03  0.19299462501E+04  0.46999998093E+01 0.  1.
</event>
<event>
 5   0  0.5207474E-08  0.3799372E+04  0.7818609E-02  0.8046290E-01
        2   -1    0    0  501    0  0.00000000000E+00  0.00000000000E+00  0.21989358978E+04  0.21989358978E+04  0.25500000920E-02 0.  1.
       -2   -1    0    0    0  501  0.00000000000E+00  0.00000000000E+00 -0.16411608092E+04  0.16411608092E+04  0.25500000920E-02 0. -1.
    10030    2    1    2    0    0  0.00000000000E+00  0.00000000000E+00  0.55777508859E+03  0.38400967069E+04  0.37993722730E+04 0.  0.
        4    1    3    3  502    0  0.58696377731E+03 -0.12767017053E+04  0.15709925486E+04  0.21077269559E+04  0.12699999809E+01 0.  1.
       -4    1    3    3    0  502 -0.58696377731E+03  0.12767017053E+04 -0.10132174600E+04  0.17323697510E+04  0.12699999809E+01 0. -1.
</event>
<event>
 5   0  0.5140842E-08  0.3736670E+04  0.7818609E-02  0.8059884E-01
       -2   -1    0    0    0  501  0.00000000000E+00  0.00000000000E+00  0.14740940542E+04  0.14740940542E+04  0.25500000920E-02 0. -1.
        2   -1    0    0  501    0  0.00000000000E+00  0.00000000000E+00 -0.23680136634E+04  0.23680136634E+04  0.25500000920E-02 0.  1.
    10030    2    1    2    0    0  0.00000000000E+00  0.00000000000E+00 -0.89391960917E+03  0.38421077176E+04  0.37366695660E+04 0.  0.
        2    1    3    3  502    0 -0.17604123441E+04 -0.61468128706E+03 -0.56770487814E+03  0.19491468736E+04  0.25500000920E-02 0. -1.
       -2    1    3    3    0  502  0.17604123441E+04  0.61468128706E+03 -0.32621473103E+03  0.18929608440E+04  0.25500000920E-02 0.  1.
</event>
<event>
 5   0  0.1628250E-08  0.3793958E+04  0.7818609E-02  0.8047453E-01
       -1   -1    0    0    0  501  0.00000000000E+00  0.00000000000E+00  0.17130192099E+04  0.17130192099E+04  0.50400001928E-02 0.  1.
        1   -1    0    0  501    0  0.00000000000E+00  0.00000000000E+00 -0.21006943768E+04  0.21006943768E+04  0.50400001928E-02 0. -1.
    10030    2    1    2    0    0  0.00000000000E+00  0.00000000000E+00 -0.38767516691E+03  0.38137135868E+04  0.37939582611E+04 0.  0.
        5    1    3    3  502    0 -0.14458749100E+04  0.92654285777E+03 -0.10039320724E+04  0.19892052732E+04  0.46999998093E+01 0. -1.
       -5    1    3    3    0  502  0.14458749100E+04 -0.92654285777E+03  0.61625690553E+03  0.18245083136E+04  0.46999998093E+01 0.  1.
</event>
<event>
 5   0  0.1628250E-08  0.3792772E+04  0.7818609E-02  0.8047708E-01
       -1   -1    0    0    0  501  0.00000000000E+00  0.00000000000E+00  0.17572025376E+04  0.17572025376E+04  0.50400001928E-02 0. -1.
        1   -1    0    0  501    0  0.00000000000E+00  0.00000000000E+00 -0.20465934397E+04  0.20465934397E+04  0.50400001928E-02 0.  1.
    10030    2    1    2    0    0  0.00000000000E+00  0.00000000000E+00 -0.28939090211E+03  0.38037959773E+04  0.37927716439E+04 0.  0.
        4    1    3    3  502    0  0.14455503977E+04  0.52555919036E+03 -0.12571758201E+04  0.19865349406E+04  0.12699999809E+01 0.  1.
       -4    1    3    3    0  502 -0.14455503977E+04 -0.52555919036E+03  0.96778491802E+03  0.18172610366E+04  0.12699999809E+01 0. -1.
</event>
<event>
 5   0  0.5159761E-08  0.3802735E+04  0.7818609E-02  0.8045568E-01
       -2   -1    0    0    0  501  0.00000000000E+00  0.00000000000E+00  0.26630568872E+04  0.26630568872E+04  0.25500000920E-02 0. -1.
        2   -1    0    0  501    0  0.00000000000E+00  0.00000000000E+00 -0.13575370584E+04  0.13575370584E+04  0.25500000920E-02 0.  1.
    10030    2    1    2    0    0  0.00000000000E+00  0.00000000000E+00  0.13055198288E+04  0.40205939456E+04  0.38027350226E+04 0.  0.
        5    1    3    3  502    0 -0.12513802023E+04  0.68337099585E+03  0.19826896057E+04  0.24421360509E+04  0.46999998093E+01 0. -1.
       -5    1    3    3    0  502  0.12513802023E+04 -0.68337099585E+03 -0.67716977685E+03  0.15784578947E+04  0.46999998093E+01 0.  1.
</event>
<event>
 5   0  0.1666051E-08  0.3797900E+04  0.7818609E-02  0.8046606E-01
        1   -1    0    0  501    0  0.00000000000E+00  0.00000000000E+00  0.28670452897E+04  0.28670452897E+04  0.50400001928E-02 0. -1.
       -1   -1    0    0    0  501  0.00000000000E+00  0.00000000000E+00 -0.12577447423E+04  0.12577447423E+04  0.50400001928E-02 0.  1.
    10030    2    1    2    0    0  0.00000000000E+00  0.00000000000E+00  0.16093005473E+04  0.41247900320E+04  0.37979000193E+04 0.  0.
        2    1    3    3  502    0 -0.56747029577E+03  0.17832086587E+04  0.11551594442E+04  0.21991473345E+04  0.25500000920E-02 0.  1.
       -2    1    3    3    0  502  0.56747029577E+03 -0.17832086587E+04  0.45414110310E+03  0.19256426976E+04  0.25500000920E-02 0. -1.
</event>
<event>
 5   0  0.1628473E-08  0.3798500E+04  0.7818609E-02  0.8046477E-01
       -1   -1    0    0    0  501  0.00000000000E+00  0.00000000000E+00  0.17668905696E+04  0.17668905696E+04  0.50400001928E-02 0.  1.
        1   -1    0    0  501    0  0.00000000000E+00  0.00000000000E+00 -0.20415242727E+04  0.20415242727E+04  0.50400001928E-02 0. -1.
    10030    2    1    2    0    0  0.00000000000E+00  0.00000000000E+00 -0.27463370310E+03  0.38084148422E+04  0.37984996959E+04 0.  0.
        3    1    3    3  502    0  0.18504573733E+04 -0.22869778059E+03 -0.49972241267E+03  0.19303413339E+04  0.10100000352E+00 0. -1.
       -3    1    3    3    0  502 -0.18504573733E+04  0.22869778059E+03  0.22508870957E+03  0.18780735083E+04  0.10100000352E+00 0.  1.
</event>
<event>
 5   0  0.1628250E-08  0.3798862E+04  0.7818609E-02  0.8046399E-01
        1   -1    0    0  501    0  0.00000000000E+00  0.00000000000E+00  0.19582916642E+04  0.19582916642E+04  0.50400001928E-02 0. -1.
       -1   -1    0    0    0  501  0.00000000000E+00  0.00000000000E+00 -0.18423394019E+04  0.18423394019E+04  0.50400001928E-02 0.  1.
    10030    2    1    2    0    0  0.00000000000E+00  0.00000000000E+00  0.11595226225E+03  0.38006310661E+04  0.37988618787E+04 0.  0.
        1    1    3    3  502    0  0.10751891261E+04  0.15381840905E+04 -0.23506972151E+03  0.18913750890E+04  0.50400001928E-02 0.  1.
       -1    1    3    3    0  502 -0.10751891261E+04 -0.15381840905E+04  0.35102198376E+03  0.19092559772E+04  0.50400001928E-02 0. -1.
</event>
<event>
 5   0  0.5147582E-08  0.3798667E+04  0.7818609E-02  0.8046441E-01
        2   -1    0    0  501    0  0.00000000000E+00  0.00000000000E+00  0.23885019046E+04  0.23885019046E+04  0.25500000920E-02 0.  1.
       -2   -1    0    0    0  501  0.00000000000E+00  0.00000000000E+00 -0.15103477446E+04  0.15103477446E+04  0.25500000920E-02 0. -1.
    10030    2    1    2    0    0  0.00000000000E+00  0.00000000000E+00  0.87815416003E+03  0.38988496493E+04  0.37986673793E+04 0.  0.
        1    1    3    3  502    0  0.14198759273E+04 -0.62094586951E+03 -0.68799406675E+03  0.16955698917E+04  0.50400001928E-02 0. -1.
       -1    1    3    3    0  502 -0.14198759273E+04  0.62094586951E+03  0.15661482268E+04  0.22032797576E+04  0.50400001928E-02 0.  1.
</event>
<event>
 5   0  0.5086209E-08  0.3799764E+04  0.7818609E-02  0.8046206E-01
       -2   -1    0    0    0  501  0.00000000000E+00  0.00000000000E+00  0.19684924213E+04  0.19684924213E+04  0.25500000920E-02 0.  1.
        2   -1    0    0  501    0  0.00000000000E+00  0.00000000000E+00 -0.18336627006E+04  0.18336627006E+04  0.25500000920E-02 0. -1.
    10030    2    1    2    0    0  0.00000000000E+00  0.00000000000E+00  0.13482972066E+03  0.38021551219E+04  0.37997637450E+04 0.  0.
        3    1    3    3  502    0  0.66665025216E+03 -0.10036799646E+04 -0.14024395220E+04  0.18489544757E+04  0.10100000352E+00 0. -1.
       -3    1    3    3    0  502 -0.66665025216E+03  0.10036799646E+04  0.15372692426E+04  0.19532006463E+04  0.10100000352E+00 0.  1.
</event>
<event>
 5   0  0.5159761E-08  0.3803110E+04  0.7818609E-02  0.8045488E-01
       -2   -1    0    0    0  501  0.00000000000E+00  0.00000000000E+00  0.14373552197E+04  0.14373552197E+04  0.25500000920E-02 0.  1.
        2   -1    0    0  501    0  0.00000000000E+00  0.00000000000E+00 -0.25156693679E+04  0.25156693679E+04  0.25500000920E-02 0. -1.
    10030    2    1    2    0    0  0.00000000000E+00  0.00000000000E+00 -0.10783141483E+04  0.39530245876E+04  0.38031095156E+04 0.  0.
        5    1    3    3  502    0 -0.14555765419E+04 -0.10365203991E+04 -0.12150279304E+04  0.21608777311E+04  0.46999998093E+01 0. -1.
       -5    1    3    3    0  502  0.14555765419E+04  0.10365203991E+04  0.13671378213E+03  0.17921468565E+04  0.46999998093E+01 0.  1.
</event>
<event>
 5   0  0.5207474E-08  0.3799054E+04  0.7818609E-02  0.8046358E-01
       -2   -1    0    0    0  501  0.00000000000E+00  0.00000000000E+00  0.28096279077E+04  0.28096279077E+04  0.25500000920E-02 0. -1.
        2   -1    0    0  501    0  0.00000000000E+00  0.00000000000E+00 -0.12842280485E+04  0.12842280485E+04  0.25500000920E-02 0.  1.
    10030    2    1    2    0    0  0.00000000000E+00  0.00000000000E+00  0.15253998592E+04  0.40938559562E+04  0.37990540743E+04 0.  0.
        4    1    3    3  502    0 -0.17068866403E+04  0.36852634752E+03 -0.42928700634E+02  0.17467450180E+04  0.12699999809E+01 0.  1.
       -4    1    3    3    0  502  0.17068866403E+04 -0.36852634752E+03  0.15683285598E+04  0.23471109382E+04  0.12699999809E+01 0. -1.
</event>
<event>
 5   0  0.5147582E-08  0.3805945E+04  0.7818609E-02  0.8044880E-01
        2   -1    0    0  501    0  0.00000000000E+00  0.00000000000E+00  0.20493092588E+04  0.20493092588E+04  0.25500000920E-02 0.  1.
       -2   -1    0    0    0  501  0.00000000000E+00  0.00000000000E+00 -0.17670857883E+04  0.17670857883E+04  0.25500000920E-02 0. -1.
    10030    2    1    2    0    0  0.00000000000E+00  0.00000000000E+00  0.28222347049E+03  0.38163950470E+04  0.38059454893E+04 0.  0.
        1    1    3    3  502    0  0.16087687630E+04 -0.82919129794E+03  0.73061197859E+03  0.19517912297E+04  0.50400001928E-02 0. -1.
       -1    1    3    3    0  502 -0.16087687630E+04  0.82919129794E+03 -0.44838850810E+03  0.18646038173E+04  0.50400001928E-02 0.  1.
</event>
<event>
 5   0  0.1666051E-08  0.3802032E+04  0.7818609E-02  0.8045719E-01
        1   -1    0    0  501    0  0.00000000000E+00  0.00000000000E+00  0.12763775852E+04  0.12763775852E+04  0.50400001928E-02 0. -1.
       -1   -1    0    0    0  501  0.00000000000E+00  0.00000000000E+00 -0.28313428954E+04  0.28313428955E+04  0.50400001928E-02 0.  1.
    10030    2    1    2    0    0  0.00000000000E+00  0.00000000000E+00 -0.15549653103E+04  0.41077204806E+04  0.38020324079E+04 0.  0.
        2    1    3    3  502    0 -0.13087733601E+04  0.53994630940E+03 -0.21481166657E+04  0.25727096483E+04  0.25500000920E-02 0.  1.
       -2    1    3    3    0  502  0.13087733601E+04 -0.53994630940E+03  0.59315135542E+03  0.15350108324E+04  0.25500000920E-02 0. -1.
</event>
<event>
 5   0  0.1628473E-08  0.3815027E+04  0.7818609E-02  0.8042938E-01
        1   -1    0    0  501    0  0.00000000000E+00  0.00000000000E+00  0.27975347964E+04  0.27975347964E+04  0.50400001928E-02 0. -1.
       -1   -1    0    0    0  501  0.00000000000E+00  0.00000000000E+00 -0.13006481255E+04  0.13006481255E+04  0.50400001928E-02 0.  1.
    10030    2    1    2    0    0  0.00000000000E+00  0.00000000000E+00  0.14968866709E+04  0.40981829219E+04  0.38150273335E+04 0.  0.
        3    1    3    3  502    0 -0.12391840752E+04 -0.14381932409E+04  0.94835068499E+03  0.21221088573E+04  0.10100000352E+00 0.  1.
       -3    1    3    3    0  502  0.12391840752E+04  0.14381932409E+04  0.54853598593E+03  0.19760740645E+04  0.10100000352E+00 0. -1.
</event>
<event>
 5   0  0.5086209E-08  0.3787682E+04  0.7818609E-02  0.8048804E-01
       -2   -1    0    0    0  501  0.00000000000E+00  0.00000000000E+00  0.12901483544E+04  0.12901483544E+04  0.25500000920E-02 0. -1.
        2   -1    0    0  501    0  0.00000000000E+00  0.00000000000E+00 -0.27800162383E+04  0.27800162383E+04  0.25500000920E-02 0.  1.
    10030    2    1    2    0    0  0.00000000000E+00  0.00000000000E+00 -0.14898678840E+04  0.40701645927E+04  0.37876818108E+04 0.  0.
        3    1    3    3  502    0 -0.84733264146E+02 -0.17602041978E+04 -0.14903038886E+04  0.23079220599E+04  0.10100000352E+00 0.  1.
       -3    1    3    3    0  502  0.84733264146E+02  0.17602041978E+04  0.43600466229E+00  0.17622425328E+04  0.10100000352E+00 0. -1.
</event>
<event>
 5   0  0.5086209E-08  0.3807887E+04  0.7818609E-02  0.8044464E-01
       -2   -1    0    0    0  501  0.00000000000E+00  0.00000000000E+00  0.19292408396E+04  0.19292408396E+04  0.25500000920E-02 0.  1.
        2   -1    0    0  501    0  0.00000000000E+00  0.00000000000E+00 -0.18789783482E+04  0.18789783482E+04  0.25500000920E-02 0. -1.
    10030    2    1    2    0    0  0.00000000000E+00  0.00000000000E+00  0.50262491464E+02  0.38082191878E+04  0.38078874805E+04 0.  0.
        3    1    3    3  502    0  0.16923924765E+04 -0.67270547070E+03  0.58040642226E+03  0.19114383511E+04  0.10100000352E+00 0. -1.
       -3    1    3    3    0  502 -0.16923924765E+04  0.67270547070E+03 -0.53014393079E+03  0.18967808367E+04  0.10100000352E+00 0.  1.
</event>
<event>
 5   0  0.1628250E-08  0.3803038E+04  0.7818609E-02  0.8045503E-01
       -1   -1    0    0    0  501  0.00000000000E+00  0.00000000000E+00  0.15291257592E+04  0.15291257592E+04  0.50400001928E-02 0.  1.
        1   -1    0    0  501    0  0.00000000000E+00  0.00000000000E+00 -0.23646022512E+04  0.23646022512E+04  0.50400001928E-02 0. -1.
    10030    2    1    2    0    0  0.00000000000E+00  0.00000000000E+00 -0.83547649199E+03  0.38937280105E+04  0.38030378451E+04 0.  0.
        4    1    3    3  502    0 -0.13787130130E+04 -0.56759176587E+03 -0.16260347378E+04  0.22061279578E+04  0.12699999809E+01 0. -1.
       -4    1    3    3    0  502  0.13787130130E+04  0.56759176587E+03  0.79055824579E+03  0.16876000527E+04  0.12699999809E+01 0.  1.
</event>
<event>
 5   0  0.1628250E-08  0.3785897E+04  0.7818609E-02  0.8049188E-01
       -1   -1    0    0    0  501  0.00000000000E+00  0.00000000000E+00  0.20922184453E+04  0.20922184453E+04  0.50400001928E-02 0.  1.
        1   -1    0    0  501    0  0.00000000000E+00  0.00000000000E+00 -0.17126574946E+04  0.17126574946E+04  0.50400001928E-02 0. -1.
    10030    2    1    2    0    0  0.00000000000E+00  0.00000000000E+00  0.37956095069E+03  0.38048759399E+04  0.37858967766E+04 0.  0.
        1    1    3    3  502    0  0.91363168329E+03 -0.14899552935E+04 -0.54088823651E+03  0.18295490466E+04  0.50400001928E-02 0. -1.
       -1    1    3    3    0  502 -0.91363168329E+03  0.14899552935E+04  0.92044918720E+03  0.19753268934E+04  0.50400001928E-02 0.  1.
</event>
<event>
 5   0  0.5159761E-08  0.3834171E+04  0.7818609E-02  0.8038861E-01
       -2   -1    0    0    0  501  0.00000000000E+00  0.00000000000E+00  0.13668681113E+04  0.13668681113E+04  0.25500000920E-02 0.  1.
        2   -1    0    0  501    0  0.00000000000E+00  0.00000000000E+00 -0.26887872679E+04  0.26887872679E+04  0.25500000920E-02 0. -1.
    10030    2    1    2    0    0  0.00000000000E+00  0.00000000000E+00 -0.13219191566E+04  0.40556553792E+04  0.38341713965E+04 0.  0.
        5    1    3    3  502    0  0.30256220026E+03 -0.73679676483E+03  0.11835553463E+04  0.14266179255E+04  0.46999998093E+01 0.  1.
       -5    1    3    3    0  502 -0.30256220026E+03  0.73679676483E+03 -0.25054745029E+04  0.26290374536E+04  0.46999998093E+01 0. -1.
</event>
<event>
 5   0  0.1628250E-08  0.3790936E+04  0.7818609E-02  0.8048103E-01
        1   -1    0    0  501    0  0.00000000000E+00  0.00000000000E+00  0.19401944400E+04  0.19401944401E+04  0.50400001928E-02 0.  1.
       -1   -1    0    0    0  501  0.00000000000E+00  0.00000000000E+00 -0.18517726030E+04  0.18517726030E+04  0.50400001928E-02 0. -1.
    10030    2    1    2    0    0  0.00000000000E+00  0.00000000000E+00  0.88421837086E+02  0.37919670430E+04  0.37909359839E+04 0.  0.
        1    1    3    3  502    0  0.11366458953E+04  0.79948318219E+03 -0.12451942386E+04  0.18659169172E+04  0.50400001928E-02 0. -1.
       -1    1    3    3    0  502 -0.11366458953E+04 -0.79948318219E+03  0.13336160757E+04  0.19260501258E+04  0.50400001928E-02 0.  1.
</event>
<event>
 5   0  0.1628250E-08  0.3802903E+04  0.7818609E-02  0.8045532E-01
        1   -1    0    0  501    0  0.00000000000E+00  0.00000000000E+00  0.22260541585E+04  0.22260541585E+04  0.50400001928E-02 0.  1.
       -1   -1    0    0    0  501  0.00000000000E+00  0.00000000000E+00 -0.16241826056E+04  0.16241826056E+04  0.50400001928E-02 0. -1.
    10030    2    1    2    0    0  0.00000000000E+00  0.00000000000E+00  0.60187155291E+03  0.38502367641E+04  0.38029033347E+04 0.  0.
        1    1    3    3  502    0 -0.11888247576E+04 -0.52860890241E+03  0.17048407499E+04  0.21445777344E+04  0.50400001928E-02 0.  1.
       -1    1    3    3    0  502  0.11888247576E+04  0.52860890241E+03 -0.11029691970E+04  0.17056590297E+04  0.50400001928E-02 0. -1.
</event>
<event>
 5   0  0.5207474E-08  0.3792074E+04  0.7818609E-02  0.8047858E-01
        2   -1    0    0  501    0  0.00000000000E+00  0.00000000000E+00  0.11209513035E+04  0.11209513035E+04  0.25500000920E-02 0. -1.
       -2   -1    0    0    0  501  0.00000000000E+00  0.00000000000E+00 -0.32070576632E+04  0.32070576632E+04  0.25500000920E-02 0.  1.
    10030    2    1    2    0    0  0.00000000000E+00  0.00000000000E+00 -0.20861063598E+04  0.43280089667E+04  0.37920735583E+04 0.  0.
        4    1    3    3  502    0 -0.52783739224E+03  0.12785290687E+04  0.43703060808E+03  0.14506020327E+04  0.12699999809E+01 0. -1.
       -4    1    3    3    0  502  0.52783739224E+03 -0.12785290687E+04 -0.25231369678E+04  0.28774069339E+04  0.12699999809E+01 0.  1.
</event>
<event>
 5   0  0.1628473E-08  0.3802199E+04  0.7818609E-02  0.8045683E-01
       -1   -1    0    0    0  501  0.00000000000E+00  0.00000000000E+00  0.11396658700E+04  0.11396658700E+04  0.50400001928E-02 0. -1.
        1   -1    0    0  501    0  0.00000000000E+00  0.00000000000E+00 -0.31712618078E+04  0.31712618078E+04  0.50400001928E-02 0.  1.
    10030    2    1    2    0    0  0.00000000000E+00  0.00000000000E+00 -0.20315959378E+04  0.43109276778E+04  0.38021987572E+04 0.  0.
        3    1    3    3  502    0 -0.13783536266E+03  0.15766656569E+04 -0.22099552615E+04  0.27182302052E+04  0.10100000352E+00 0.  1.
       -3    1    3    3    0  502  0.13783536266E+03 -0.15766656569E+04  0.17835932368E+03  0.15926974726E+04  0.10100000352E+00 0. -1.
</event>
<event>
 5   0  0.1628473E-08  0.3811989E+04  0.7818609E-02  0.8043587E-01
       -1   -1    0    0    0  501  0.00000000000E+00  0.00000000000E+00  0.16717170309E+04  0.16717170310E+04  0.50400001928E-02 0. -1.
        1   -1    0    0  501    0  0.00000000000E+00  0.00000000000E+00 -0.21731044277E+04  0.21731044277E+04  0.50400001928E-02 0.  1.
    10030    2    1    2    0    0  0.00000000000E+00  0.00000000000E+00 -0.50138739674E+03  0.38448214587E+04  0.38119893399E+04 0.  0.
        3    1    3    3  502    0 -0.13601882645E+04  0.59971036879E+03 -0.14538851478E+04  0.20793139913E+04  0.10100000352E+00 0.  1.
       -3    1    3    3    0  502  0.13601882645E+04 -0.59971036879E+03  0.95249775105E+03  0.17655074673E+04  0.10100000352E+00 0. -1.
</event>
<event>
 5   0  0.1628250E-08  0.3803036E+04  0.7818609E-02  0.8045504E-01
        1   -1    0    0  501    0  0.00000000000E+00  0.00000000000E+00  0.24927392942E+04  0.24927392942E+04  0.50400001928E-02 0. -1.
       -1   -1    0    0    0  501  0.00000000000E+00  0.00000000000E+00 -0.14505210092E+04  0.14505210092E+04  0.50400001928E-02 0.  1.
    10030    2    1    2    0    0  0.00000000000E+00  0.00000000000E+00  0.10422182850E+04  0.39432603034E+04  0.38030360065E+04 0.  0.
        1    1    3    3  502    0 -0.94212773964E+03 -0.16140245954E+04  0.15733022024E+03  0.18754820368E+04  0.50400001928E-02 0.  1.
       -1    1    3    3    0  502  0.94212773964E+03  0.16140245954E+04  0.88488806479E+03  0.20677782665E+04  0.50400001928E-02 0. -1.
</event>
<event>
 5   0  0.1628250E-08  0.3799914E+04  0.7818609E-02  0.8046173E-01
       -1   -1    0    0    0  501  0.00000000000E+00  0.00000000000E+00  0.18061547934E+04  0.18061547934E+04  0.50400001928E-02 0.  1.
        1   -1    0    0  501    0  0.00000000000E+00  0.00000000000E+00 -0.19986305739E+04  0.19986305739E+04  0.50400001928E-02 0. -1.
    10030    2    1    2    0    0  0.00000000000E+00  0.00000000000E+00 -0.19247578046E+03  0.38047853673E+04  0.37999137839E+04 0.  0.
        5    1    3    3  502    0 -0.88272721128E+02  0.18386664838E+04  0.37481990667E+03  0.18785628987E+04  0.46999998093E+01 0.  1.
       -5    1    3    3    0  502  0.88272721128E+02 -0.18386664838E+04 -0.56729568713E+03  0.19262224686E+04  0.46999998093E+01 0. -1.
</event>
<event>
 5   0  0.1628250E-08  0.3804322E+04  0.7818609E-02  0.8045228E-01
       -1   -1    0    0    0  501  0.00000000000E+00  0.00000000000E+00  0.15366914927E+04  0.15366914927E+04  0.50400001928E-02 0. -1.
        1   -1    0    0  501    0  0.00000000000E+00  0.00000000000E+00 -0.23545497046E+04  0.23545497046E+04  0.50400001928E-02 0.  1.
    10030    2    1    2    0    0  0.00000000000E+00  0.00000000000E+00 -0.81785821183E+03  0.38912411973E+04  0.38043220159E+04 0.  0.
        5    1    3    3  502    0 -0.11553448636E+04 -0.60454535942E+03  0.10075937440E+04  0.16478968683E+04  0.46999998093E+01 0. -1.
       -5    1    3    3    0  502  0.11553448636E+04  0.60454535942E+03 -0.18254519559E+04  0.22433443290E+04  0.46999998093E+01 0.  1.
</event>
<event>
 5   0  0.1666051E-08  0.3799926E+04  0.7818609E-02  0.8046171E-01
       -1   -1    0    0    0  501  0.00000000000E+00  0.00000000000E+00  0.21151664842E+04  0.21151664842E+04  0.50400001928E-02 0. -1.
        1   -1    0    0  501    0  0.00000000000E+00  0.00000000000E+00 -0.17066553780E+04  0.17066553780E+04  0.50400001928E-02 0.  1.
    10030    2    1    2    0    0  0.00000000000E+00  0.00000000000E+00  0.40851110615E+03  0.38218218622E+04  0.37999264496E+04 0.  0.
        2    1    3    3  502    0  0.77953757625E+03  0.13450192118E+04 -0.89433165002E+03  0.17934839317E+04  0.25500000920E-02 0.  1.
       -2    1    3    3    0  502 -0.77953757625E+03 -0.13450192118E+04  0.13028427562E+04  0.20283379305E+04  0.25500000920E-02 0. -1.
</event>
<event>
 5   0  0.1666051E-08  0.3818249E+04  0.7818609E-02  0.8042250E-01
       -1   -1    0    0    0  501  0.00000000000E+00  0.00000000000E+00  0.29888961107E+04  0.29888961107E+04  0.50400001928E-02 0.  1.
        1   -1    0    0  501    0  0.00000000000E+00  0.00000000000E+00 -0.12194321872E+04  0.12194321872E+04  0.50400001928E-02 0. -1.
    10030    2    1    2    0    0  0.00000000000E+00  0.00000000000E+00  0.17694639235E+04  0.42083282979E+04  0.38182488769E+04 0.  0.
        2    1    3    3  502    0  0.56450693142E+03 -0.14980903794E+04 -0.26162937477E+03  0.16221568328E+04  0.25500000920E-02 0. -1.
       -2    1    3    3    0  502 -0.56450693142E+03  0.14980903794E+04  0.20310932983E+04  0.25861714651E+04  0.25500000920E-02 0.  1.
</event>
<event>
 5   0  0.1666051E-08  0.3794805E+04  0.7818609E-02  0.8047271E-01
       -1   -1    0    0    0  501  0.00000000000E+00  0.00000000000E+00  0.17268057495E+04  0.17268057495E+04  0.50400001928E-02 0. -1.
        1   -1    0    0  501    0  0.00000000000E+00  0.00000000000E+00 -0.20848531374E+04  0.20848531374E+04  0.50400001928E-02 0.  1.
    10030    2    1    2    0    0  0.00000000000E+00  0.00000000000E+00 -0.35804738792E+03  0.38116588869E+04  0.37948050725E+04 0.  0.
        2    1    3    3  502    0  0.15329844077E+04 -0.11141050260E+04 -0.84450431240E+02  0.18969457236E+04  0.25500000920E-02 0.  1.
       -2    1    3    3    0  502 -0.15329844077E+04  0.11141050260E+04 -0.27359695668E+03  0.19147131633E+04  0.25500000920E-02 0. -1.
</event>
<event>
 5   0  0.5159761E-08  0.3802851E+04  0.7818609E-02  0.8045543E-01
        2   -1    0    0  501    0  0.00000000000E+00  0.00000000000E+00  0.14809799918E+04  0.14809799918E+04  0.25500000920E-02 0.  1.
       -2   -1    0    0    0  501  0.00000000000E+00  0.00000000000E+00 -0.24412335801E+04  0.24412335801E+04  0.25500000920E-02 0. -1.
    10030    2    1    2    0    0  0.00000000000E+00  0.00000000000E+00 -0.96025358828E+03  0.39222135718E+04  0.38028505557E+04 0.  0.
        5    1    3    3  502    0 -0.83640795462E+02 -0.44529438319E+03  0.14244845754E+04  0.14948114483E+04  0.46999998093E+01 0.  1.
       -5    1    3    3    0  502  0.83640795462E+02  0.44529438319E+03 -0.23847381637E+04  0.24274021236E+04  0.46999998093E+01 0. -1.
</event>
<event>
 5   0  0.1628250E-08  0.3791662E+04  0.7818609E-02  0.8047947E-01
       -1   -1    0    0    0  501  0.00000000000E+00  0.00000000000E+00  0.20093848012E+04  0.20093848013E+04  0.50400001928E-02 0. -1.
        1   -1    0    0  501    0  0.00000000000E+00  0.00000000000E+00 -0.17886943971E+04  0.17886943971E+04  0.50400001928E-02 0.  1.
    10030    2    1    2    0    0  0.00000000000E+00  0.00000000000E+00  0.22069040414E+03  0.37980791984E+04  0.37916620818E+04 0.  0.
        1    1    3    3  502    0  0.11726846350E+04 -0.11859289245E+04 -0.79260074902E+03  0.18465732086E+04  0.50400001928E-02 0.  1.
       -1    1    3    3    0  502 -0.11726846350E+04  0.11859289245E+04  0.10132911532E+04  0.19515059898E+04  0.50400001928E-02 0. -1.
</event>
<event>
 5   0  0.5086209E-08  0.3799552E+04  0.7818609E-02  0.8046251E-01
       -2   -1    0    0    0  501  0.00000000000E+00  0.00000000000E+00  0.14529838962E+04  0.14529838962E+04  0.25500000920E-02 0.  1.
        2   -1    0    0  501    0  0.00000000000E+00  0.00000000000E+00 -0.24839562547E+04  0.24839562547E+04  0.25500000920E-02 0. -1.
    10030    2    1    2    0    0  0.00000000000E+00  0.00000000000E+00 -0.10309723585E+04  0.39369401510E+04  0.37995517826E+04 0.  0.
        3    1    3    3  502    0  0.44458445521E+03  0.18468342699E+04 -0.54282720812E+03  0.19756299113E+04  0.10100000352E+00 0. -1.
       -3    1    3    3    0  502 -0.44458445521E+03 -0.18468342699E+04 -0.48814515037E+03  0.19613102397E+04  0.10100000352E+00 0.  1.
</event>
<event>
 5   0  0.1628250E-08  0.3799127E+04  0.7818609E-02  0.8046342E-01
       -1   -1    0    0    0  501  0.00000000000E+00  0.00000000000E+00  0.18811519338E+04  0.18811519338E+04  0.50400001928E-02 0. -1.
        1   -1    0    0  501    0  0.00000000000E+00  0.00000000000E+00 -0.19181550385E+04  0.19181550385E+04  0.50400001928E-02 0.  1.
    10030    2    1    2    0    0  0.00000000000E+00  0.00000000000E+00 -0.37003104714E+02  0.37993069722E+04  0.37991267733E+04 0.  0.
        4    1    3    3  502    0  0.10848849929E+04 -0.15024653540E+04  0.39860558291E+03  0.18955910981E+04  0.12699999809E+01 0. -1.
       -4    1    3    3    0  502 -0.10848849929E+04  0.15024653540E+04 -0.43560868763E+03  0.19037158741E+04  0.12699999809E+01 0.  1.
</event>
<event>
 5   0  0.5207474E-08  0.3805524E+04  0.7818609E-02  0.8044970E-01
        2   -1    0    0  501    0  0.00000000000E+00  0.00000000000E+00  0.19097348376E+04  0.19097348376E+04  0.25500000920E-02 0.  1.
       -2   -1    0    0    0  501  0.00000000000E+00  0.00000000000E+00 -0.18958146974E+04  0.18958146974E+04  0.25500000920E-02 0. -1.
    10030    2    1    2    0    0  0.00000000000E+00  0.00000000000E+00  0.13920140235E+02  0.38055495350E+04  0.38055240760E+04 0.  0.
        4    1    3    3  502    0  0.66103589174E+03 -0.72294242903E+03  0.16381937006E+04  0.19087415801E+04  0.12699999809E+01 0.  1.
       -4    1    3    3    0  502 -0.66103589174E+03  0.72294242903E+03 -0.16242735604E+04  0.18968079549E+04  0.12699999809E+01 0. -1.
</event>
<event>
 5   0  0.5147582E-08  0.3802674E+04  0.7818609E-02  0.8045581E-01
        2   -1    0    0  501    0  0.00000000000E+00  0.00000000000E+00  0.22916097947E+04  0.22916097947E+04  0.25500000920E-02 0. -1.
       -2   -1    0    0    0  501  0.00000000000E+00  0.00000000000E+00 -0.15775296425E+04  0.15775296425E+04  0.25500000920E-02 0.  1.
    10030    2    1    2    0    0  0.00000000000E+00  0.00000000000E+00  0.71408015220E+03  0.38691394373E+04  0.38026739962E+04 0.  0.
        1    1    3    3  502    0  0.45854611344E+03  0.18095372891E+04 -0.10370647642E+02  0.18667611763E+04  0.50400001928E-02 0.  1.
       -1    1    3    3    0  502 -0.45854611344E+03 -0.18095372891E+04  0.72445079984E+03  0.20023782610E+04  0.50400001928E-02 0. -1.
</event>
<event>
 5   0  0.1628473E-08  0.3795178E+04  0.7818609E-02  0.8047190E-01
       -1   -1    0    0    0  501  0.00000000000E+00  0.00000000000E+00  0.19576164588E+04  0.19576164588E+04  0.50400001928E-02 0.  1.
        1   -1    0    0  501    0  0.00000000000E+00  0.00000000000E+00 -0.18394024844E+04  0.18394024845E+04  0.50400001928E-02 0. -1.
    10030    2    1    2    0    0  0.00000000000E+00  0.00000000000E+00  0.11821397431E+03  0.37970189432E+04  0.37951782977E+04 0.  0.
        3    1    3    3  502    0  0.10865661581E+04 -0.31145823994E+02  0.16152547016E+04  0.19469575854E+04  0.10100000352E+00 0.  1.
       -3    1    3    3    0  502 -0.10865661581E+04  0.31145823994E+02 -0.14970407273E+04  0.18500613578E+04  0.10100000352E+00 0. -1.
</event>
<event>
 5   0  0.5086209E-08  0.3798037E+04  0.7818609E-02  0.8046576E-01
       -2   -1    0    0    0  501  0.00000000000E+00  0.00000000000E+00  0.19303628711E+04  0.19303628712E+04  0.25500000920E-02 0.  1.
        2   -1    0    0  501    0  0.00000000000E+00  0.00000000000E+00 -0.18681834298E+04  0.18681834299E+04  0.25500000920E-02 0. -1.
    10030    2    1    2    0    0  0.00000000000E+00  0.00000000000E+00  0.62179441300E+02  0.37985463010E+04  0.37980373508E+04 0.  0.
        3    1    3    3  502    0 -0.28555367291E+03  0.17876127452E+04  0.60490146554E+03  0.19086660316E+04  0.10100000352E+00 0.  1.
       -3    1    3    3    0  502  0.28555367291E+03 -0.17876127452E+04 -0.54272202424E+03  0.18898802694E+04  0.10100000352E+00 0. -1.
</event>
<event>
 5   0  0.1628250E-08  0.3782890E+04  0.7818609E-02  0.8049837E-01
        1   -1    0    0  501    0  0.00000000000E+00  0.00000000000E+00  0.19751230161E+04  0.19751230161E+04  0.50400001928E-02 0.  1.
       -1   -1    0    0    0  501  0.00000000000E+00  0.00000000000E+00 -0.18113123117E+04  0.18113123117E+04  0.50400001928E-02 0. -1.
    10030    2    1    2    0    0  0.00000000000E+00  0.00000000000E+00  0.16381070434E+03  0.37864353278E+04  0.37828902369E+04 0.  0.
        4    1    3    3  502    0 -0.52474087622E+03  0.15336872992E+04 -0.89369432303E+03  0.18510107711E+04  0.12699999809E+01 0.  1.
       -4    1    3    3    0  502  0.52474087622E+03 -0.15336872992E+04  0.10575050274E+04  0.19354245567E+04  0.12699999809E+01 0. -1.
</event>
<event>
 5   0  0.5140842E-08  0.3800900E+04  0.7818609E-02  0.8045962E-01
        2   -1    0    0  501    0  0.00000000000E+00  0.00000000000E+00  0.19874256885E+04  0.19874256885E+04  0.25500000920E-02 0.  1.
       -2   -1    0    0    0  501  0.00000000000E+00  0.00000000000E+00 -0.18172806745E+04  0.18172806745E+04  0.25500000920E-02 0. -1.
    10030    2    1    2    0    0  0.00000000000E+00  0.00000000000E+00  0.17014501399E+03  0.38047063630E+04  0.38009000490E+04 0.  0.
        2    1    3    3  502    0  0.84649498940E+03  0.73722608551E+03 -0.14499736140E+04  0.18337065058E+04  0.25500000920E-02 0. -1.
       -2    1    3    3    0  502 -0.84649498940E+03 -0.73722608551E+03  0.16201186280E+04  0.19709998572E+04  0.25500000920E-02 0.  1.
</event>
<event>
 5   0  0.1628250E-08  0.3802513E+04  0.7818609E-02  0.8045616E-01
       -1   -1    0    0    0  501  0.00000000000E+00  0.00000000000E+00  0.11256563481E+04  0.11256563481E+04  0.50400001928E-02 0.  1.
        1   -1    0    0  501    0  0.00000000000E+00  0.00000000000E+00 -0.32112614763E+04  0.32112614763E+04  0.50400001928E-02 0. -1.
    10030    2    1    2    0    0  0.00000000000E+00  0.00000000000E+00 -0.20856051282E+04  0.43369178244E+04  0.38025133089E+04 0.  0.
        4    1    3    3  502    0 -0.89743313994E+03  0.86413778365E+03 -0.26808396768E+04  0.29561839143E+04  0.12699999809E+01 0. -1.
       -4    1    3    3    0  502  0.89743313994E+03 -0.86413778365E+03  0.59523454852E+03  0.13807339101E+04  0.12699999809E+01 0.  1.
</event>
<event>
 5   0  0.1628250E-08  0.3799080E+04  0.7818609E-02  0.8046352E-01
        1   -1    0    0  501    0  0.00000000000E+00  0.00000000000E+00  0.21102855375E+04  0.21102855375E+04  0.50400001928E-02 0.  1.
       -1   -1    0    0    0  501  0.00000000000E+00  0.00000000000E+00 -0.17098410655E+04  0.17098410655E+04  0.50400001928E-02 0. -1.
    10030    2    1    2    0    0  0.00000000000E+00  0.00000000000E+00  0.40044447199E+03  0.38201266031E+04  0.37990803477E+04 0.  0.
        4    1    3    3  502    0  0.13671557652E+04  0.60407168801E+03  0.13789936233E+04  0.20336279199E+04  0.12699999809E+01 0.  1.
       -4    1    3    3    0  502 -0.13671557652E+04 -0.60407168801E+03 -0.97854915132E+03  0.17864986832E+04  0.12699999809E+01 0. -1.
</event>
<event>
 5   0  0.1666051E-08  0.3801843E+04  0.7818609E-02  0.8045759E-01
        1   -1    0    0  501    0  0.00000000000E+00  0.00000000000E+00  0.22598166626E+04  0.22598166626E+04  0.50400001928E-02 0.  1.
       -1   -1    0    0    0  501  0.00000000000E+00  0.00000000000E+00 -0.15990247297E+04  0.15990247297E+04  0.50400001928E-02 0. -1.
    10030    2    1    2    0    0  0.00000000000E+00  0.00000000000E+00  0.66079193283E+03  0.38588413923E+04  0.38018430941E+04 0.  0.
        2    1    3    3  502    0 -0.47178985226E+03 -0.15455458319E+04 -0.68571480044E+03  0.17554208529E+04  0.25500000920E-02 0. -1.
       -2    1    3    3    0  502  0.47178985226E+03  0.15455458319E+04  0.13465067333E+04  0.21034205395E+04  0.25500000920E-02 0.  1.
</event>
<event>
 5   0  0.5140842E-08  0.3796932E+04  0.7818609E-02  0.8046814E-01
        2   -1    0    0  501    0  0.00000000000E+00  0.00000000000E+00  0.13736595098E+04  0.13736595098E+04  0.25500000920E-02 0.  1.
       -2   -1    0    0    0  501  0.00000000000E+00  0.00000000000E+00 -0.26237746533E+04  0.26237746533E+04  0.25500000920E-02 0. -1.
    10030    2    1    2    0    0  0.00000000000E+00  0.00000000000E+00 -0.12501151435E+04  0.39974341631E+04  0.37969319214E+04 0.  0.
        2    1    3    3  502    0 -0.18528427431E+04 -0.26982391553E+03 -0.29490274778E+03  0.18954679651E+04  0.25500000920E-02 0. -1.
       -2    1    3    3    0  502  0.18528427431E+04  0.26982391553E+03 -0.95521239571E+03  0.21019661979E+04  0.25500000920E-02 0.  1.
</event>
<event>
 5   0  0.5147582E-08  0.3799944E+04  0.7818609E-02  0.8046167E-01
        2   -1    0    0  501    0  0.00000000000E+00  0.00000000000E+00  0.11606294304E+04  0.11606294304E+04  0.25500000920E-02 0. -1.
       -2   -1    0    0    0  501  0.00000000000E+00  0.00000000000E+00 -0.31102894325E+04  0.31102894325E+04  0.25500000920E-02 0.  1.
    10030    2    1    2    0    0  0.00000000000E+00  0.00000000000E+00 -0.19496600022E+04  0.42709188629E+04  0.37999439219E+04 0.  0.
        1    1    3    3  502    0 -0.40381986690E+03 -0.43313536819E+03 -0.30039173975E+04  0.30617309587E+04  0.50400001928E-02 0.  1.
       -1    1    3    3    0  502  0.40381986690E+03  0.43313536819E+03  0.10542573954E+04  0.12091879043E+04  0.50400001928E-02 0. -1.
</event>
<event>
 5   0  0.5159761E-08  0.3800807E+04  0.7818609E-02  0.8045982E-01
       -2   -1    0    0    0  501  0.00000000000E+00  0.00000000000E+00  0.14562261532E+04  0.14562261532E+04  0.25500000920E-02 0. -1.
        2   -1    0    0  501    0  0.00000000000E+00  0.00000000000E+00 -0.24800640841E+04  0.24800640841E+04  0.25500000920E-02 0.  1.
    10030    2    1    2    0    0  0.00000000000E+00  0.00000000000E+00 -0.10238379309E+04  0.39362902373E+04  0.38008073778E+04 0.  0.
        5    1    3    3  502    0 -0.14126157297E+04  0.12313130659E+04 -0.83925026117E+03  0.20532847238E+04  0.46999998093E+01 0. -1.
       -5    1    3    3    0  502  0.14126157297E+04 -0.12313130659E+04 -0.18458766973E+03  0.18830055135E+04  0.46999998093E+01 0.  1.
</event>
<event>
 5   0  0.5147582E-08  0.3788831E+04  0.7818609E-02  0.8048556E-01
       -2   -1    0    0    0  501  0.00000000000E+00  0.00000000000E+00  0.11879938616E+04  0.11879938616E+04  0.25500000920E-02 0.  1.
        2   -1    0    0  501    0  0.00000000000E+00  0.00000000000E+00 -0.30209002327E+04  0.30209002327E+04  0.25500000920E-02 0. -1.
    10030    2    1    2    0    0  0.00000000000E+00  0.00000000000E+00 -0.18329063711E+04  0.42088940943E+04  0.37888314468E+04 0.  0.
        1    1    3    3  502    0 -0.11194481673E+04  0.61619885848E+03  0.63715360125E+03  0.14278760255E+04  0.50400001928E-02 0.  1.
       -1    1    3    3    0  502  0.11194481673E+04 -0.61619885848E+03 -0.24700599723E+04  0.27810180689E+04  0.50400001928E-02 0. -1.
</event>
<event>
 5   0  0.1628250E-08  0.3796699E+04  0.7818609E-02  0.8046864E-01
        1   -1    0    0  501    0  0.00000000000E+00  0.00000000000E+00  0.12805841718E+04  0.12805841718E+04  0.50400001928E-02 0.  1.
       -1   -1    0    0    0  501  0.00000000000E+00  0.00000000000E+00 -0.28141298363E+04  0.28141298363E+04  0.50400001928E-02 0. -1.
    10030    2    1    2    0    0  0.00000000000E+00  0.00000000000E+00 -0.15335456645E+04  0.40947140081E+04  0.37966986321E+04 0.  0.
        1    1    3    3  502    0 -0.92181442248E+03 -0.53802871147E+03  0.92632884709E+03  0.14132593028E+04  0.50400001928E-02 0.  1.
       -1    1    3    3    0  502  0.92181442248E+03  0.53802871147E+03 -0.24598745116E+04  0.26814547053E+04  0.50400001928E-02 0. -1.
</event>
<event>
 5   0  0.5159761E-08  0.3801228E+04  0.7818609E-02  0.8045891E-01
       -2   -1    0    0    0  501  0.00000000000E+00  0.00000000000E+00  0.18756859495E+04  0.18756859495E+04  0.25500000920E-02 0.  1.
        2   -1    0    0  501    0  0.00000000000E+00  0.00000000000E+00 -0.19258732975E+04  0.19258732975E+04  0.25500000920E-02 0. -1.
    10030    2    1    2    0    0  0.00000000000E+00  0.00000000000E+00 -0.50187347997E+02  0.38015592470E+04  0.38012279514E+04 0.  0.
        5    1    3    3  502    0 -0.29040688464E+03 -0.50080884307E+03 -0.18355458290E+04  0.19246808141E+04  0.46999998093E+01 0. -1.
       -5    1    3    3    0  502  0.29040688464E+03  0.50080884307E+03  0.17853584810E+04  0.18768784328E+04  0.46999998093E+01 0.  1.
</event>
<event>
 5   0  0.5207474E-08  0.3797511E+04  0.7818609E-02  0.8046689E-01
        2   -1    0    0  501    0  0.00000000000E+00  0.00000000000E+00  0.12263842907E+04  0.12263842907E+04  0.25500000920E-02 0. -1.
       -2   -1    0    0    0  501  0.00000000000E+00  0.00000000000E+00 -0.29397576866E+04  0.29397576866E+04  0.25500000920E-02 0.  1.
    10030    2    1    2    0    0  0.00000000000E+00  0.00000000000E+00 -0.17133733958E+04  0.41661419773E+04  0.37975111035E+04 0.  0.
        4    1    3    3  502    0  0.17410046817E+03  0.42744411658E+03 -0.28772806134E+04  0.29140632778E+04  0.12699999809E+01 0.  1.
       -4    1    3    3    0  502 -0.17410046817E+03 -0.42744411658E+03  0.11639072176E+04  0.12520786995E+04  0.12699999809E+01 0. -1.
</event>
<event>
 5   0  0.5207474E-08  0.3798027E+04  0.7818609E-02  0.8046578E-01
       -2   -1    0    0    0  501  0.00000000000E+00  0.00000000000E+00  0.21222790161E+04  0.21222790161E+04  0.25500000920E-02 0.  1.
        2   -1    0    0  501    0  0.00000000000E+00  0.00000000000E+00 -0.16992356603E+04  0.16992356603E+04  0.25500000920E-02 0. -1.
    10030    2    1    2    0    0  0.00000000000E+00  0.00000000000E+00  0.42304335585E+03  0.38215146764E+04  0.37980269537E+04 0.  0.
        4    1    3    3  502    0  0.78849804222E+03  0.11192241379E+04 -0.11126177640E+04  0.17641745194E+04  0.12699999809E+01 0. -1.
       -4    1    3    3    0  502 -0.78849804222E+03 -0.11192241379E+04  0.15356611198E+04  0.20573401569E+04  0.12699999809E+01 0.  1.
</event>
<event>
 5   0  0.1666051E-08  0.3800503E+04  0.7818609E-02  0.8046047E-01
       -1   -1    0    0    0  501  0.00000000000E+00  0.00000000000E+00  0.18903569917E+04  0.18903569917E+04  0.50400001928E-02 0. -1.
        1   -1    0    0  501    0  0.00000000000E+00  0.00000000000E+00 -0.19101973793E+04  0.19101973793E+04  0.50400001928E-02 0.  1.
    10030    2    1    2    0    0  0.00000000000E+00  0.00000000000E+00 -0.19840387544E+02  0.38005543710E+04  0.38005025834E+04 0.  0.
        2    1    3    3  502    0  0.16429416617E+04  0.85460045125E+03 -0.43578481909E+03  0.19025003662E+04  0.25500000920E-02 0.  1.
       -2    1    3    3    0  502 -0.16429416617E+04 -0.85460045125E+03  0.41594443155E+03  0.18980540048E+04  0.25500000920E-02 0. -1.
</event>
<event>
 5   0  0.1628473E-08  0.3805214E+04  0.7818609E-02  0.8045037E-01
       -1   -1    0    0    0  501  0.00000000000E+00  0.00000000000E+00  0.19176971484E+04  0.19176971484E+04  0.50400001928E-02 0. -1.
        1   -1    0    0  501    0  0.00000000000E+00  0.00000000000E+00 -0.18876356274E+04  0.18876356274E+04  0.50400001928E-02 0.  1.
    10030    2    1    2    0    0  0.00000000000E+00  0.00000000000E+00  0.30061520967E+02  0.38053327758E+04  0.38052140333E+04 0.  0.
        3    1    3    3  502    0  0.72111105530E+03  0.61655448244E+03  0.16642556119E+04  0.19156950007E+04  0.10100000352E+00 0. -1.
       -3    1    3    3    0  502 -0.72111105530E+03 -0.61655448244E+03 -0.16341940909E+04  0.18896377750E+04  0.10100000352E+00 0.  1.
</event>
<event>
 5   0  0.1628250E-08  0.3808607E+04  0.7818609E-02  0.8044310E-01
       -1   -1    0    0    0  501  0.00000000000E+00  0.00000000000E+00  0.13262946985E+04  0.13262946985E+04  0.50400001928E-02 0.  1.
        1   -1    0    0  501    0  0.00000000000E+00  0.00000000000E+00 -0.27342126424E+04  0.27342126424E+04  0.50400001928E-02 0. -1.
    10030    2    1    2    0    0  0.00000000000E+00  0.00000000000E+00 -0.14079179439E+04  0.40605073409E+04  0.38086069538E+04 0.  0.
        5    1    3    3  502    0  0.16727672500E+04 -0.10754345201E+03  0.25948799312E+03  0.16961933779E+04  0.46999998093E+01 0.  1.
       -5    1    3    3    0  502 -0.16727672500E+04  0.10754345201E+03 -0.16674059371E+04  0.23643139630E+04  0.46999998093E+01 0. -1.
</event>
<event>
 5   0  0.5207474E-08  0.3806265E+04  0.7818609E-02  0.8044812E-01
       -2   -1    0    0    0  501  0.00000000000E+00  0.00000000000E+00  0.14743534003E+04  0.14743534004E+04  0.25500000920E-02 0.  1.
        2   -1    0    0  501    0  0.00000000000E+00  0.00000000000E+00 -0.24566114825E+04  0.24566114825E+04  0.25500000920E-02 0. -1.
    10030    2    1    2    0    0  0.00000000000E+00  0.00000000000E+00 -0.98225808219E+03  0.39309648829E+04  0.38062650946E+04 0.  0.
        4    1    3    3  502    0 -0.11683154399E+04  0.10455989290E+04  0.62294937027E+03  0.16870997653E+04  0.12699999809E+01 0.  1.
       -4    1    3    3    0  502  0.11683154399E+04 -0.10455989290E+04 -0.16052074525E+04  0.22438651175E+04  0.12699999809E+01 0. -1.
</event>
<event>
 5   0  0.5159761E-08  0.3807211E+04  0.7818609E-02  0.8044609E-01
       -2   -1    0    0    0  501  0.00000000000E+00  0.00000000000E+00  0.14908842837E+04  0.14908842838E+04  0.25500000920E-02 0.  1.
        2   -1    0    0  501    0  0.00000000000E+00  0.00000000000E+00 -0.24305807034E+04  0.24305807034E+04  0.25500000920E-02 0. -1.
    10030    2    1    2    0    0  0.00000000000E+00  0.00000000000E+00 -0.93969641967E+03  0.39214649872E+04  0.38072113527E+04 0.  0.
        5    1    3    3  502    0 -0.96892402214E+03  0.90148659903E+03 -0.18791939551E+04  0.22984524924E+04  0.46999998093E+01 0. -1.
       -5    1    3    3    0  502  0.96892402214E+03 -0.90148659903E+03  0.93949753548E+03  0.16230124947E+04  0.46999998093E+01 0.  1.
</event>
<event>
 5   0  0.5147582E-08  0.3767031E+04  0.7818609E-02  0.8053267E-01
       -2   -1    0    0    0  501  0.00000000000E+00  0.00000000000E+00  0.28529782860E+04  0.28529782860E+04  0.25500000920E-02 0. -1.
        2   -1    0    0  501    0  0.00000000000E+00  0.00000000000E+00 -0.12434834963E+04  0.12434834963E+04  0.25500000920E-02 0.  1.
    10030    2    1    2    0    0  0.00000000000E+00  0.00000000000E+00  0.16094947897E+04  0.40964617823E+04  0.37670314116E+04 0.  0.
        1    1    3    3  502    0 -0.48211495537E+03  0.20869201089E+03 -0.11621998014E+04  0.12754197599E+04  0.50400001928E-02 0.  1.
       -1    1    3    3    0  502  0.48211495537E+03 -0.20869201089E+03  0.27716945911E+04  0.28210420224E+04  0.50400001928E-02 0. -1.
</event>
<event>
 5   0  0.5147582E-08  0.3797536E+04  0.7818609E-02  0.8046684E-01
       -2   -1    0    0    0  501  0.00000000000E+00  0.00000000000E+00  0.26479261367E+04  0.26479261367E+04  0.25500000920E-02 0.  1.
        2   -1    0    0  501    0  0.00000000000E+00  0.00000000000E+00 -0.13615638012E+04  0.13615638012E+04  0.25500000920E-02 0. -1.
    10030    2    1    2    0    0  0.00000000000E+00  0.00000000000E+00  0.12863623355E+04  0.40094899379E+04  0.37975362413E+04 0.  0.
        1    1    3    3  502    0  0.14934228290E+04  0.57844146333E+03  0.17201182122E+04  0.23502580574E+04  0.50400001928E-02 0.  1.
       -1    1    3    3    0  502 -0.14934228290E+04 -0.57844146333E+03 -0.43375587667E+03  0.16592318805E+04  0.50400001928E-02 0. -1.
</event>
<event>
 5   0  0.1628250E-08  0.3799312E+04  0.7818609E-02  0.8046303E-01
        3   -1    0    0  501    0  0.00000000000E+00  0.00000000000E+00  0.13920030008E+04  0.13920030045E+04  0.10100000352E+00 0. -1.
       -3   -1    0    0    0  501  0.00000000000E+00  0.00000000000E+00 -0.25924462978E+04  0.25924462997E+04  0.10100000352E+00 0.  1.
    10030    2    1    2    0    0  0.00000000000E+00  0.00000000000E+00 -0.12004432970E+04  0.39844493042E+04  0.37993120625E+04 0.  0.
        5    1    3    3  502    0 -0.13223147575E+04  0.51531087909E+03 -0.19245341811E+04  0.23912163274E+04  0.46999998093E+01 0.  1.
       -5    1    3    3    0  502  0.13223147575E+04 -0.51531087909E+03  0.72409088413E+03  0.15932329768E+04  0.46999998093E+01 0. -1.
</event>
<event>
 5   0  0.5207474E-08  0.3803160E+04  0.7818609E-02  0.8045477E-01
        2   -1    0    0  501    0  0.00000000000E+00  0.00000000000E+00  0.26209359368E+04  0.26209359368E+04  0.25500000920E-02 0.  1.
       -2   -1    0    0    0  501  0.00000000000E+00  0.00000000000E+00 -0.13796624925E+04  0.13796624925E+04  0.25500000920E-02 0. -1.
    10030    2    1    2    0    0  0.00000000000E+00  0.00000000000E+00  0.12412734443E+04  0.40005984293E+04  0.38031602686E+04 0.  0.
        4    1    3    3  502    0 -0.17626030041E+04  0.71135302096E+03  0.56101142637E+03  0.19817991583E+04  0.12699999809E+01 0.  1.
       -4    1    3    3    0  502  0.17626030041E+04 -0.71135302096E+03  0.68026201790E+03  0.20187992710E+04  0.12699999809E+01 0. -1.
</event>
<event>
 5   0  0.1628250E-08  0.3887094E+04  0.7818609E-02  0.8027719E-01
       -1   -1    0    0    0  501  0.00000000000E+00  0.00000000000E+00  0.24712076588E+04  0.24712076588E+04  0.50400001928E-02 0. -1.
        1   -1    0    0  501    0  0.00000000000E+00  0.00000000000E+00 -0.15285545636E+04  0.15285545636E+04  0.50400001928E-02 0.  1.
    10030    2    1    2    0    0  0.00000000000E+00  0.00000000000E+00  0.94265309523E+03  0.39997622225E+04  0.38870944133E+04 0.  0.
        4    1    3    3  502    0 -0.11381280487E+03  0.38506187785E+03 -0.14854092528E+04  0.15387229333E+04  0.12699999809E+01 0.  1.
       -4    1    3    3    0  502  0.11381280487E+03 -0.38506187785E+03  0.24280623480E+04  0.24610392892E+04  0.12699999809E+01 0. -1.
</event>
<event>
 5   0  0.5207474E-08  0.3803764E+04  0.7818609E-02  0.8045348E-01
       -2   -1    0    0    0  501  0.00000000000E+00  0.00000000000E+00  0.17787991272E+04  0.17787991272E+04  0.25500000920E-02 0.  1.
        2   -1    0    0  501    0  0.00000000000E+00  0.00000000000E+00 -0.20334815946E+04  0.20334815946E+04  0.25500000920E-02 0. -1.
    10030    2    1    2    0    0  0.00000000000E+00  0.00000000000E+00 -0.25468246741E+03  0.38122807219E+04  0.38037640756E+04 0.  0.
        4    1    3    3  502    0  0.16899880466E+04 -0.74169118218E+03  0.33302180874E+03  0.18753854391E+04  0.12699999809E+01 0.  1.
       -4    1    3    3    0  502 -0.16899880466E+04  0.74169118218E+03 -0.58770427615E+03  0.19368952828E+04  0.12699999809E+01 0. -1.
</event>
<event>
 5   0  0.1628473E-08  0.3796240E+04  0.7818609E-02  0.8046962E-01
        1   -1    0    0  501    0  0.00000000000E+00  0.00000000000E+00  0.19057292216E+04  0.19057292216E+04  0.50400001928E-02 0.  1.
       -1   -1    0    0    0  501  0.00000000000E+00  0.00000000000E+00 -0.18905407744E+04  0.18905407744E+04  0.50400001928E-02 0. -1.
    10030    2    1    2    0    0  0.00000000000E+00  0.00000000000E+00  0.15188447266E+02  0.37962699960E+04  0.37962396123E+04 0.  0.
        3    1    3    3  502    0  0.13820203302E+04 -0.11982372962E+04 -0.49946602201E+03  0.18961063073E+04  0.10100000352E+00 0. -1.
       -3    1    3    3    0  502 -0.13820203302E+04  0.11982372962E+04  0.51465446928E+03  0.19001636888E+04  0.10100000352E+00 0.  1.
</event>
<event>
 5   0  0.1628250E-08  0.3793020E+04  0.7818609E-02  0.8047654E-01
        1   -1    0    0  501    0  0.00000000000E+00  0.00000000000E+00  0.22585637357E+04  0.22585637357E+04  0.50400001928E-02 0. -1.
       -1   -1    0    0    0  501  0.00000000000E+00  0.00000000000E+00 -0.15924944856E+04  0.15924944856E+04  0.50400001928E-02 0.  1.
    10030    2    1    2    0    0  0.00000000000E+00  0.00000000000E+00  0.66606925014E+03  0.38510582213E+04  0.37930200603E+04 0.  0.
        4    1    3    3  502    0  0.10819893427E+04 -0.99372535605E+03 -0.88471661895E+03  0.17149099480E+04  0.12699999809E+01 0.  1.
       -4    1    3    3    0  502 -0.10819893427E+04  0.99372535605E+03  0.15507858691E+04  0.21361482733E+04  0.12699999809E+01 0. -1.
</event>
<event>
 5   0  0.1666051E-08  0.3805762E+04  0.7818609E-02  0.8044919E-01
        1   -1    0    0  501    0  0.00000000000E+00  0.00000000000E+00  0.22918455354E+04  0.22918455355E+04  0.50400001928E-02 0. -1.
       -1   -1    0    0    0  501  0.00000000000E+00  0.00000000000E+00 -0.15799303422E+04  0.15799303422E+04  0.50400001928E-02 0.  1.
    10030    2    1    2    0    0  0.00000000000E+00  0.00000000000E+00  0.71191519326E+03  0.38717758776E+04  0.38057621056E+04 0.  0.
        2    1    3    3  502    0 -0.18074036762E+04 -0.51757788917E+03  0.65492811277E+03  0.19908605559E+04  0.25500000920E-02 0. -1.
       -2    1    3    3    0  502  0.18074036762E+04  0.51757788917E+03  0.56987080495E+02  0.18809153217E+04  0.25500000920E-02 0.  1.
</event>
<event>
 5   0  0.5147582E-08  0.3802151E+04  0.7818609E-02  0.8045693E-01
        2   -1    0    0  501    0  0.00000000000E+00  0.00000000000E+00  0.11824386736E+04  0.11824386736E+04  0.25500000920E-02 0. -1.
       -2   -1    0    0    0  501  0.00000000000E+00  0.00000000000E+00 -0.30564695532E+04  0.30564695532E+04  0.25500000920E-02 0.  1.
    10030    2    1    2    0    0  0.00000000000E+00  0.00000000000E+00 -0.18740308796E+04  0.42389082267E+04  0.38021508672E+04 0.  0.
        1    1    3    3  502    0 -0.12727727956E+04  0.43964007500E+03  0.55909584706E+03  0.14580199419E+04  0.50400001928E-02 0. -1.
       -1    1    3    3    0  502  0.12727727956E+04 -0.43964007500E+03 -0.24331267266E+04  0.27808882848E+04  0.50400001928E-02 0.  1.
</event>
<event>
 5   0  0.1628473E-08  0.3791148E+04  0.7818609E-02  0.8048057E-01
       -1   -1    0    0    0  501  0.00000000000E+00  0.00000000000E+00  0.15919078836E+04  0.15919078836E+04  0.50400001928E-02 0.  1.
        1   -1    0    0  501    0  0.00000000000E+00  0.00000000000E+00 -0.22571659411E+04  0.22571659411E+04  0.50400001928E-02 0. -1.
    10030    2    1    2    0    0  0.00000000000E+00  0.00000000000E+00 -0.66525805744E+03  0.38490738247E+04  0.37911477187E+04 0.  0.
        3    1    3    3  502    0  0.38460193490E+03 -0.84485086702E+03  0.13453511298E+04  0.16345217369E+04  0.10100000352E+00 0.  1.
       -3    1    3    3    0  502 -0.38460193490E+03  0.84485086702E+03 -0.20106091872E+04  0.22145520878E+04  0.10100000352E+00 0. -1.
</event>
<event>
 5   0  0.5147582E-08  0.3800682E+04  0.7818609E-02  0.8046009E-01
        2   -1    0    0  501    0  0.00000000000E+00  0.00000000000E+00  0.25491994036E+04  0.25491994036E+04  0.25500000920E-02 0.  1.
       -2   -1    0    0    0  501  0.00000000000E+00  0.00000000000E+00 -0.14166392571E+04  0.14166392571E+04  0.25500000920E-02 0. -1.
    10030    2    1    2    0    0  0.00000000000E+00  0.00000000000E+00  0.11325601465E+04  0.39658386608E+04  0.38006820175E+04 0.  0.
        1    1    3    3  502    0 -0.12903378187E+04 -0.29066395919E+03 -0.85750532856E+03  0.15763161523E+04  0.50400001928E-02 0. -1.
       -1    1    3    3    0  502  0.12903378187E+04  0.29066395919E+03  0.19900654751E+04  0.23895225085E+04  0.50400001928E-02 0.  1.
</event>
<event>
 5   0  0.5140842E-08  0.3802977E+04  0.7818609E-02  0.8045516E-01
       -2   -1    0    0    0  501  0.00000000000E+00  0.00000000000E+00  0.17128078417E+04  0.17128078418E+04  0.25500000920E-02 0. -1.
        2   -1    0    0  501    0  0.00000000000E+00  0.00000000000E+00 -0.21109538265E+04  0.21109538265E+04  0.25500000920E-02 0.  1.
    10030    2    1    2    0    0  0.00000000000E+00  0.00000000000E+00 -0.39814598476E+03  0.38237616683E+04  0.38029768696E+04 0.  0.
        2    1    3    3  502    0 -0.15851092787E+04 -0.36752749712E+03 -0.11883254518E+04  0.20148859189E+04  0.25500000920E-02 0.  1.
       -2    1    3    3    0  502  0.15851092787E+04  0.36752749712E+03  0.79017946707E+03  0.18088757494E+04  0.25500000920E-02 0. -1.
</event>
<event>
 5   0  0.5207474E-08  0.3793658E+04  0.7818609E-02  0.8047517E-01
        2   -1    0    0  501    0  0.00000000000E+00  0.00000000000E+00  0.20687403333E+04  0.20687403333E+04  0.25500000920E-02 0.  1.
       -2   -1    0    0    0  501  0.00000000000E+00  0.00000000000E+00 -0.17392035474E+04  0.17392035474E+04  0.25500000920E-02 0. -1.
    10030    2    1    2    0    0  0.00000000000E+00  0.00000000000E+00  0.32953678598E+03  0.38079438807E+04  0.37936581429E+04 0.  0.
        4    1    3    3  502    0 -0.11295477304E+04  0.87575148199E+03 -0.10869802167E+04  0.17956464958E+04  0.12699999809E+01 0. -1.
       -4    1    3    3    0  502  0.11295477304E+04 -0.87575148199E+03  0.14165170027E+04  0.20122973849E+04  0.12699999809E+01 0.  1.
</event>
<event>
 5   0  0.1628250E-08  0.3797852E+04  0.7818609E-02  0.8046616E-01
       -1   -1    0    0    0  501  0.00000000000E+00  0.00000000000E+00  0.13774917873E+04  0.13774917873E+04  0.50400001928E-02 0.  1.
        1   -1    0    0  501    0  0.00000000000E+00  0.00000000000E+00 -0.26177437992E+04  0.26177437992E+04  0.50400001928E-02 0. -1.
    10030    2    1    2    0    0  0.00000000000E+00  0.00000000000E+00 -0.12402520119E+04  0.39952355865E+04  0.37978523324E+04 0.  0.
        4    1    3    3  502    0 -0.56927252824E+03  0.93529481273E+03  0.10119816532E+04  0.14909581072E+04  0.12699999809E+01 0.  1.
       -4    1    3    3    0  502  0.56927252824E+03 -0.93529481273E+03 -0.22522336651E+04  0.25042774793E+04  0.12699999809E+01 0. -1.
</event>
<event>
 5   0  0.1628250E-08  0.3797598E+04  0.7818609E-02  0.8046670E-01
        1   -1    0    0  501    0  0.00000000000E+00  0.00000000000E+00  0.13370795406E+04  0.13370795406E+04  0.50400001928E-02 0.  1.
       -1   -1    0    0    0  501  0.00000000000E+00  0.00000000000E+00 -0.26965025672E+04  0.26965025672E+04  0.50400001928E-02 0. -1.
    10030    2    1    2    0    0  0.00000000000E+00  0.00000000000E+00 -0.13594230266E+04  0.40335821078E+04  0.37975984062E+04 0.  0.
        1    1    3    3  502    0 -0.70487191009E+03 -0.92983816752E+03 -0.22707944072E+04  0.25530277451E+04  0.50400001928E-02 0. -1.
       -1    1    3    3    0  502  0.70487191009E+03  0.92983816752E+03  0.91137138062E+03  0.14805543627E+04  0.50400001928E-02 0.  1.
</event>
<event>
 5   0  0.5207474E-08  0.3805560E+04  0.7818609E-02  0.8044963E-01
       -2   -1    0    0    0  501  0.00000000000E+00  0.00000000000E+00  0.12257433564E+04  0.12257433564E+04  0.25500000920E-02 0.  1.
        2   -1    0    0  501    0  0.00000000000E+00  0.00000000000E+00 -0.29537764327E+04  0.29537764327E+04  0.25500000920E-02 0. -1.
    10030    2    1    2    0    0  0.00000000000E+00  0.00000000000E+00 -0.17280330763E+04  0.41795197891E+04  0.38055600579E+04 0.  0.
        4    1    3    3  502    0 -0.16137510508E+04 -0.63984012316E+03 -0.17196659395E+04  0.24435303136E+04  0.12699999809E+01 0. -1.
       -4    1    3    3    0  502  0.16137510508E+04  0.63984012316E+03 -0.83671368368E+01  0.17359894755E+04  0.12699999809E+01 0.  1.
</event>
<event>
 5   0  0.5086209E-08  0.3802022E+04  0.7818609E-02  0.8045721E-01
       -2   -1    0    0    0  501  0.00000000000E+00  0.00000000000E+00  0.18497851885E+04  0.18497851885E+04  0.25500000920E-02 0.  1.
        2   -1    0    0  501    0  0.00000000000E+00  0.00000000000E+00 -0.19536550520E+04  0.19536550520E+04  0.25500000920E-02 0. -1.
    10030    2    1    2    0    0  0.00000000000E+00  0.00000000000E+00 -0.10386986359E+03  0.38034402405E+04  0.38020216615E+04 0.  0.
        3    1    3    3  502    0  0.18815771821E+04 -0.26959762678E+03 -0.23173623997E+02  0.19009346647E+04  0.10100000352E+00 0.  1.
       -3    1    3    3    0  502 -0.18815771821E+04  0.26959762678E+03 -0.80696239590E+02  0.19025055758E+04  0.10100000352E+00 0. -1.
</event>
<event>
 5   0  0.1666051E-08  0.3778329E+04  0.7818609E-02  0.8050822E-01
       -1   -1    0    0    0  501  0.00000000000E+00  0.00000000000E+00  0.12923227537E+04  0.12923227537E+04  0.50400001928E-02 0.  1.
        1   -1    0    0  501    0  0.00000000000E+00  0.00000000000E+00 -0.27616491896E+04  0.27616491896E+04  0.50400001928E-02 0. -1.
    10030    2    1    2    0    0  0.00000000000E+00  0.00000000000E+00 -0.14693264359E+04  0.40539719433E+04  0.37783287763E+04 0.  0.
        2    1    3    3  502    0 -0.98473813932E+03 -0.15743467482E+04 -0.11073740455E+04  0.21620717294E+04  0.25500000920E-02 0. -1.
       -2    1    3    3    0  502  0.98473813932E+03  0.15743467482E+04 -0.36195239043E+03  0.18919002139E+04  0.25500000920E-02 0.  1.
</event>
<event>
 5   0  0.1628473E-08  0.3804752E+04  0.7818609E-02  0.8045136E-01
        1   -1    0    0  501    0  0.00000000000E+00  0.00000000000E+00  0.18733415004E+04  0.18733415004E+04  0.50400001928E-02 0. -1.
       -1   -1    0    0    0  501  0.00000000000E+00  0.00000000000E+00 -0.19318604799E+04  0.19318604800E+04  0.50400001928E-02 0.  1.
    10030    2    1    2    0    0  0.00000000000E+00  0.00000000000E+00 -0.58518979530E+02  0.38052019804E+04  0.38047519815E+04 0.  0.
        3    1    3    3  502    0 -0.49314276087E+03  0.15972812810E+04 -0.93740715344E+03  0.19165671015E+04  0.10100000352E+00 0.  1.
       -3    1    3    3    0  502  0.49314276087E+03 -0.15972812810E+04  0.87888817391E+03  0.18886348788E+04  0.10100000352E+00 0. -1.
</event>
<event>
 5   0  0.5140842E-08  0.3801448E+04  0.7818609E-02  0.8045844E-01
       -2   -1    0    0    0  501  0.00000000000E+00  0.00000000000E+00  0.16493232831E+04  0.16493232832E+04  0.25500000920E-02 0.  1.
        2   -1    0    0  501    0  0.00000000000E+00  0.00000000000E+00 -0.21904445114E+04  0.21904445114E+04  0.25500000920E-02 0. -1.
    10030    2    1    2    0    0  0.00000000000E+00  0.00000000000E+00 -0.54112122825E+03  0.38397677945E+04  0.38014476890E+04 0.  0.
        2    1    3    3  502    0 -0.16401953065E+04 -0.28246982525E+03 -0.11978129272E+04  0.20505574008E+04  0.25500000920E-02 0.  1.
       -2    1    3    3    0  502  0.16401953065E+04  0.28246982525E+03  0.65669169895E+03  0.17892103937E+04  0.25500000920E-02 0. -1.
</event>
<event>
 5   0  0.5207474E-08  0.3803379E+04  0.7818609E-02  0.8045430E-01
       -2   -1    0    0    0  501  0.00000000000E+00  0.00000000000E+00  0.13473888763E+04  0.13473888763E+04  0.25500000920E-02 0. -1.
        2   -1    0    0  501    0  0.00000000000E+00  0.00000000000E+00 -0.26840237100E+04  0.26840237100E+04  0.25500000920E-02 0.  1.
    10030    2    1    2    0    0  0.00000000000E+00  0.00000000000E+00 -0.13366348337E+04  0.40314125864E+04  0.38033793872E+04 0.  0.
        4    1    3    3  502    0  0.22584972761E+03  0.93783133780E+03 -0.24054437978E+04  0.25916591587E+04  0.12699999809E+01 0.  1.
       -4    1    3    3    0  502 -0.22584972761E+03 -0.93783133780E+03  0.10688089641E+04  0.14397534276E+04  0.12699999809E+01 0. -1.
</event>
<event>
 5   0  0.1628250E-08  0.3804348E+04  0.7818609E-02  0.8045222E-01
       -1   -1    0    0    0  501  0.00000000000E+00  0.00000000000E+00  0.16655584048E+04  0.16655584048E+04  0.50400001928E-02 0. -1.
        1   -1    0    0  501    0  0.00000000000E+00  0.00000000000E+00 -0.21724039069E+04  0.21724039069E+04  0.50400001928E-02 0.  1.
    10030    2    1    2    0    0  0.00000000000E+00  0.00000000000E+00 -0.50684550214E+03  0.38379623117E+04  0.38043478210E+04 0.  0.
        1    1    3    3  502    0 -0.57270535301E+02 -0.16828827747E+04 -0.11460521896E+04  0.20368627762E+04  0.50400001928E-02 0. -1.
       -1    1    3    3    0  502  0.57270535301E+02  0.16828827747E+04  0.63920668748E+03  0.18010995355E+04  0.50400001928E-02 0.  1.
</event>
<event>
 5   0  0.1628250E-08  0.3798059E+04  0.7818609E-02  0.8046572E-01
       -1   -1    0    0    0  501  0.00000000000E+00  0.00000000000E+00  0.23957278545E+04  0.23957278545E+04  0.50400001928E-02 0.  1.
        1   -1    0    0  501    0  0.00000000000E+00  0.00000000000E+00 -0.15053100459E+04  0.15053100459E+04  0.50400001928E-02 0. -1.
    10030    2    1    2    0    0  0.00000000000E+00  0.00000000000E+00  0.89041780857E+03  0.39010379004E+04  0.37980590868E+04 0.  0.
        1    1    3    3  502    0 -0.23853497867E+02 -0.14145419986E+04 -0.85595186585E+03  0.16535270339E+04  0.50400001928E-02 0. -1.
       -1    1    3    3    0  502  0.23853497867E+02  0.14145419986E+04  0.17463696744E+04  0.22475108665E+04  0.50400001928E-02 0.  1.
</event>
<event>
 5   0  0.5086209E-08  0.3790673E+04  0.7818609E-02  0.8048159E-01
        2   -1    0    0  501    0  0.00000000000E+00  0.00000000000E+00  0.18498886358E+04  0.18498886358E+04  0.25500000920E-02 0.  1.
       -2   -1    0    0    0  501  0.00000000000E+00  0.00000000000E+00 -0.19419007140E+04  0.19419007140E+04  0.25500000920E-02 0. -1.
    10030    2    1    2    0    0  0.00000000000E+00  0.00000000000E+00 -0.92012078171E+02  0.37917893498E+04  0.37906727966E+04 0.  0.
        3    1    3    3  502    0  0.81854057209E+03 -0.16964190996E+04  0.16489634294E+03  0.18907768889E+04  0.10100000352E+00 0.  1.
       -3    1    3    3    0  502 -0.81854057209E+03  0.16964190996E+04 -0.25690842111E+03  0.19010124609E+04  0.10100000352E+00 0. -1.
</event>
<event>
 5   0  0.1628250E-08  0.3798745E+04  0.7818609E-02  0.8046424E-01
        1   -1    0    0  501    0  0.00000000000E+00  0.00000000000E+00  0.15825243097E+04  0.15825243097E+04  0.50400001928E-02 0. -1.
       -1   -1    0    0    0  501  0.00000000000E+00  0.00000000000E+00 -0.22796591668E+04  0.22796591668E+04  0.50400001928E-02 0.  1.
    10030    2    1    2    0    0  0.00000000000E+00  0.00000000000E+00 -0.69713485707E+03  0.38621834765E+04  0.37987450819E+04 0.  0.
        4    1    3    3  502    0 -0.19331633915E+03 -0.13125509618E+04 -0.17304765190E+04  0.21805301718E+04  0.12699999809E+01 0.  1.
       -4    1    3    3    0  502  0.19331633915E+03  0.13125509618E+04  0.10333416619E+04  0.16816533048E+04  0.12699999809E+01 0. -1.
</event>
<event>
 5   0  0.1628473E-08  0.3910312E+04  0.7818609E-02  0.8022888E-01
        1   -1    0    0  501    0  0.00000000000E+00  0.00000000000E+00  0.23043740237E+04  0.23043740237E+04  0.50400001928E-02 0. -1.
       -1   -1    0    0    0  501  0.00000000000E+00  0.00000000000E+00 -0.16588608288E+04  0.16588608288E+04  0.50400001928E-02 0.  1.
    10030    2    1    2    0    0  0.00000000000E+00  0.00000000000E+00  0.64551319490E+03  0.39632348525E+04  0.39103124187E+04 0.  0.
        3    1    3    3  502    0  0.61292888820E+03 -0.14141210236E+04 -0.89652770926E+03  0.17830260892E+04  0.10100000352E+00 0.  1.
       -3    1    3    3    0  502 -0.61292888820E+03  0.14141210236E+04  0.15420409042E+04  0.21802087633E+04  0.10100000352E+00 0. -1.
</event>
<event>
 5   0  0.1628250E-08  0.3786297E+04  0.7818609E-02  0.8049102E-01
        1   -1    0    0  501    0  0.00000000000E+00  0.00000000000E+00  0.16460955902E+04  0.16460955902E+04  0.50400001928E-02 0.  1.
       -1   -1    0    0    0  501  0.00000000000E+00  0.00000000000E+00 -0.21772803995E+04  0.21772803995E+04  0.50400001928E-02 0. -1.
    10030    2    1    2    0    0  0.00000000000E+00  0.00000000000E+00 -0.53118480924E+03  0.38233759897E+04  0.37862972225E+04 0.  0.
        1    1    3    3  502    0 -0.49302918870E+03 -0.12529283511E+04 -0.16094535279E+04  0.20983917395E+04  0.50400001928E-02 0. -1.
       -1    1    3    3    0  502  0.49302918870E+03  0.12529283511E+04  0.10782687186E+04  0.17249842502E+04  0.50400001928E-02 0.  1.
</event>
<event>
 5   0  0.1628473E-08  0.3795083E+04  0.7818609E-02  0.8047211E-01
        1   -1    0    0  501    0  0.00000000000E+00  0.00000000000E+00  0.18078867687E+04  0.18078867687E+04  0.50400001928E-02 0. -1.
       -1   -1    0    0    0  501  0.00000000000E+00  0.00000000000E+00 -0.19916423834E+04  0.19916423834E+04  0.50400001928E-02 0.  1.
    10030    2    1    2    0    0  0.00000000000E+00  0.00000000000E+00 -0.18375561472E+03  0.37995291521E+04  0.37950830889E+04 0.  0.
        3    1    3    3  502    0  0.84220954815E+03  0.12960269038E+04 -0.11939222295E+04  0.19530624564E+04  0.10100000352E+00 0.  1.
       -3    1    3    3    0  502 -0.84220954815E+03 -0.12960269038E+04  0.10101666148E+04  0.18464666957E+04  0.10100000352E+00 0. -1.
</event>
<event>
 5   0  0.5159761E-08  0.3796480E+04  0.7818609E-02  0.8046911E-01
       -2   -1    0    0    0  501  0.00000000000E+00  0.00000000000E+00  0.23240385857E+04  0.23240385857E+04  0.25500000920E-02 0. -1.
        2   -1    0    0  501    0  0.00000000000E+00  0.00000000000E+00 -0.15504541234E+04  0.15504541234E+04  0.25500000920E-02 0.  1.
    10030    2    1    2    0    0  0.00000000000E+00  0.00000000000E+00  0.77358446229E+03  0.38744927091E+04  0.37964800582E+04 0.  0.
        5    1    3    3  502    0 -0.24939003364E+03 -0.74045690824E+03  0.21523182319E+04  0.22897527559E+04  0.46999998093E+01 0. -1.
       -5    1    3    3    0  502  0.24939003364E+03  0.74045690824E+03 -0.13787337696E+04  0.15847399532E+04  0.46999998093E+01 0.  1.
</event>
<event>
 5   0  0.1628250E-08  0.3780075E+04  0.7818609E-02  0.8050444E-01
        1   -1    0    0  501    0  0.00000000000E+00  0.00000000000E+00  0.28638400066E+04  0.28638400066E+04  0.50400001928E-02 0.  1.
       -1   -1    0    0    0  501  0.00000000000E+00  0.00000000000E+00 -0.12473606234E+04  0.12473606234E+04  0.50400001928E-02 0. -1.
    10030    2    1    2    0    0  0.00000000000E+00  0.00000000000E+00  0.16164793832E+04  0.41112006300E+04  0.37800747378E+04 0.  0.
        4    1    3    3  502    0  0.11291050753E+04 -0.12290523166E+04  0.17729528233E+04  0.24349150282E+04  0.12699999809E+01 0.  1.
       -4    1    3    3    0  502 -0.11291050753E+04  0.12290523166E+04 -0.15647344008E+03  0.16762856017E+04  0.12699999809E+01 0. -1.
</event>
<event>
 5   0  0.1628250E-08  0.3808270E+04  0.7818609E-02  0.8044382E-01
        1   -1    0    0  501    0  0.00000000000E+00  0.00000000000E+00  0.29073922457E+04  0.29073922457E+04  0.50400001928E-02 0. -1.
       -1   -1    0    0    0  501  0.00000000000E+00  0.00000000000E+00 -0.12470730072E+04  0.12470730072E+04  0.50400001928E-02 0.  1.
    10030    2    1    2    0    0  0.00000000000E+00  0.00000000000E+00  0.16603192385E+04  0.41544652528E+04  0.38082701537E+04 0.  0.
        1    1    3    3  502    0 -0.18692245349E+04 -0.14128228195E+03  0.11948705134E+04  0.22229882116E+04  0.50400001928E-02 0. -1.
       -1    1    3    3    0  502  0.18692245349E+04  0.14128228195E+03  0.46544872507E+03  0.19314770412E+04  0.50400001928E-02 0.  1.
</event>
<event>
 5   0  0.1628473E-08  0.3797818E+04  0.7818609E-02  0.8046623E-01
       -1   -1    0    0    0  501  0.00000000000E+00  0.00000000000E+00  0.14122919780E+04  0.14122919780E+04  0.50400001928E-02 0.  1.
        1   -1    0    0  501    0  0.00000000000E+00  0.00000000000E+00 -0.25531935053E+04  0.25531935054E+04  0.50400001928E-02 0. -1.
    10030    2    1    2    0    0  0.00000000000E+00  0.00000000000E+00 -0.11409015273E+04  0.39654854834E+04  0.37978176397E+04 0.  0.
        3    1    3    3  502    0 -0.73519667069E+03 -0.96486640844E+03 -0.20958989237E+04  0.24216262385E+04  0.10100000352E+00 0. -1.
       -3    1    3    3    0  502  0.73519667069E+03  0.96486640844E+03  0.95499739635E+03  0.15438592449E+04  0.10100000352E+00 0.  1.
</event>
<event>
 5   0  0.5159761E-08  0.3790186E+04  0.7818609E-02  0.8048264E-01
        2   -1    0    0  501    0  0.00000000000E+00  0.00000000000E+00  0.21476594614E+04  0.21476594614E+04  0.25500000920E-02 0.  1.
       -2   -1    0    0    0  501  0.00000000000E+00  0.00000000000E+00 -0.16722283742E+04  0.16722283742E+04  0.25500000920E-02 0. -1.
    10030    2    1    2    0    0  0.00000000000E+00  0.00000000000E+00  0.47543108725E+03  0.38198878357E+04  0.37901857947E+04 0.  0.
        5    1    3    3  502    0 -0.16446310222E+04 -0.69252573427E+02 -0.70865741782E+03  0.17921563949E+04  0.46999998093E+01 0. -1.
       -5    1    3    3    0  502  0.16446310222E+04  0.69252573427E+02  0.11840885051E+04  0.20277314407E+04  0.46999998093E+01 0.  1.
</event>
<event>
 5   0  0.5207474E-08  0.3802715E+04  0.7818609E-02  0.8045573E-01
       -2   -1    0    0    0  501  0.00000000000E+00  0.00000000000E+00  0.22919113954E+04  0.22919113954E+04  0.25500000920E-02 0.  1.
        2   -1    0    0  501    0  0.00000000000E+00  0.00000000000E+00 -0.15773557202E+04  0.15773557202E+04  0.25500000920E-02 0. -1.
    10030    2    1    2    0    0  0.00000000000E+00  0.00000000000E+00  0.71455567524E+03  0.38692671156E+04  0.38027145829E+04 0.  0.
        4    1    3    3  502    0 -0.12810018259E+04  0.36317206226E+02  0.17864501106E+04  0.21985654932E+04  0.12699999809E+01 0.  1.
       -4    1    3    3    0  502  0.12810018259E+04 -0.36317206226E+02 -0.10718944354E+04  0.16707016223E+04  0.12699999809E+01 0. -1.
</event>
<event>
 5   0  0.1628250E-08  0.3791592E+04  0.7818609E-02  0.8047962E-01
       -3   -1    0    0    0  501  0.00000000000E+00  0.00000000000E+00  0.23627871120E+04  0.23627871142E+04  0.10100000352E+00 0.  1.
        3   -1    0    0  501    0  0.00000000000E+00  0.00000000000E+00 -0.15211025615E+04  0.15211025648E+04  0.10100000352E+00 0. -1.
    10030    2    1    2    0    0  0.00000000000E+00  0.00000000000E+00  0.84168455054E+03  0.38838896790E+04  0.37915915071E+04 0.  0.
        2    1    3    3  502    0 -0.16691327771E+04  0.89452763682E+03  0.51164331261E+03  0.19616224917E+04  0.25500000920E-02 0.  1.
       -2    1    3    3    0  502  0.16691327771E+04 -0.89452763682E+03  0.33004123793E+03  0.19222671873E+04  0.25500000920E-02 0. -1.
</event>
<event>
 5   0  0.5207474E-08  0.3797854E+04  0.7818609E-02  0.8046616E-01
        2   -1    0    0  501    0  0.00000000000E+00  0.00000000000E+00  0.26175488883E+04  0.26175488883E+04  0.25500000920E-02 0.  1.
       -2   -1    0    0    0  501  0.00000000000E+00  0.00000000000E+00 -0.13775953840E+04  0.13775953840E+04  0.25500000920E-02 0. -1.
    10030    2    1    2    0    0  0.00000000000E+00  0.00000000000E+00  0.12399535043E+04  0.39951442724E+04  0.37978537445E+04 0.  0.
        4    1    3    3  502    0  0.17334644176E+04  0.62715335813E+03  0.14055914945E+03  0.18487776257E+04  0.12699999809E+01 0.  1.
       -4    1    3    3    0  502 -0.17334644176E+04 -0.62715335813E+03  0.10993943548E+04  0.21463666467E+04  0.12699999809E+01 0. -1.
</event>
<event>
 5   0  0.1628250E-08  0.3798164E+04  0.7818609E-02  0.8046549E-01
        1   -1    0    0  501    0  0.00000000000E+00  0.00000000000E+00  0.21719900143E+04  0.21719900143E+04  0.50400001928E-02 0.  1.
       -1   -1    0    0    0  501  0.00000000000E+00  0.00000000000E+00 -0.16604646029E+04  0.16604646029E+04  0.50400001928E-02 0. -1.
    10030    2    1    2    0    0  0.00000000000E+00  0.00000000000E+00  0.51152541138E+03  0.38324546172E+04  0.37981640494E+04 0.  0.
        5    1    3    3  502    0  0.12396325181E+04  0.11768789935E+04  0.10907343005E+04  0.20276726435E+04  0.46999998093E+01 0.  1.
       -5    1    3    3    0  502 -0.12396325181E+04 -0.11768789935E+04 -0.57920888908E+03  0.18047819736E+04  0.46999998093E+01 0. -1.
</event>
<event>
 5   0  0.5140842E-08  0.3779085E+04  0.7818609E-02  0.8050658E-01
       -2   -1    0    0    0  501  0.00000000000E+00  0.00000000000E+00  0.13529043726E+04  0.13529043726E+04  0.25500000920E-02 0. -1.
        2   -1    0    0  501    0  0.00000000000E+00  0.00000000000E+00 -0.26390409559E+04  0.26390409559E+04  0.25500000920E-02 0.  1.
    10030    2    1    2    0    0  0.00000000000E+00  0.00000000000E+00 -0.12861365833E+04  0.39919453285E+04  0.37790845710E+04 0.  0.
        2    1    3    3  502    0 -0.44867531598E+03  0.18302081692E+04 -0.79019204586E+03  0.20433734243E+04  0.25500000920E-02 0.  1.
       -2    1    3    3    0  502  0.44867531598E+03 -0.18302081692E+04 -0.49594453748E+03  0.19485719042E+04  0.25500000920E-02 0. -1.
</event>
<event>
 5   0  0.5147582E-08  0.3795635E+04  0.7818609E-02  0.8047092E-01
        2   -1    0    0  501    0  0.00000000000E+00  0.00000000000E+00  0.15167296805E+04  0.15167296805E+04  0.25500000920E-02 0. -1.
       -2   -1    0    0    0  501  0.00000000000E+00  0.00000000000E+00 -0.23746562418E+04  0.23746562418E+04  0.25500000920E-02 0.  1.
    10030    2    1    2    0    0  0.00000000000E+00  0.00000000000E+00 -0.85792656128E+03  0.38913859224E+04  0.37956351790E+04 0.  0.
        1    1    3    3  502    0 -0.21455935784E+03  0.12736484442E+04 -0.18545427296E+04  0.22599877905E+04  0.50400001928E-02 0.  1.
       -1    1    3    3    0  502  0.21455935784E+03 -0.12736484442E+04  0.99661616829E+03  0.16313981318E+04  0.50400001928E-02 0. -1.
</event>
<event>
 5   0  0.1628250E-08  0.3795917E+04  0.7818609E-02  0.8047032E-01
       -1   -1    0    0    0  501  0.00000000000E+00  0.00000000000E+00  0.26515628936E+04  0.26515628936E+04  0.50400001928E-02 0.  1.
        1   -1    0    0  501    0  0.00000000000E+00  0.00000000000E+00 -0.13585370443E+04  0.13585370443E+04  0.50400001928E-02 0. -1.
    10030    2    1    2    0    0  0.00000000000E+00  0.00000000000E+00  0.12930258493E+04  0.40100999379E+04  0.37959169728E+04 0.  0.
        4    1    3    3  502    0  0.13630779958E+04  0.13201638204E+04  0.60655454344E+03  0.19921656966E+04  0.12699999809E+01 0. -1.
       -4    1    3    3    0  502 -0.13630779958E+04 -0.13201638204E+04  0.68647130584E+03  0.20179342413E+04  0.12699999809E+01 0.  1.
</event>
<event>
 5   0  0.5147582E-08  0.3792915E+04  0.7818609E-02  0.8047677E-01
        2   -1    0    0  501    0  0.00000000000E+00  0.00000000000E+00  0.16135386226E+04  0.16135386226E+04  0.25500000920E-02 0. -1.
       -2   -1    0    0    0  501  0.00000000000E+00  0.00000000000E+00 -0.22289841085E+04  0.22289841085E+04  0.25500000920E-02 0.  1.
    10030    2    1    2    0    0  0.00000000000E+00  0.00000000000E+00 -0.61544548588E+03  0.38425227310E+04  0.37929154739E+04 0.  0.
        1    1    3    3  502    0 -0.18226313251E+04 -0.32959255281E+03  0.10495710541E+03  0.18551636564E+04  0.50400001928E-02 0. -1.
       -1    1    3    3    0  502  0.18226313251E+04  0.32959255281E+03 -0.72040259129E+03  0.19873590746E+04  0.50400001928E-02 0.  1.
</event>
<event>
 5   0  0.1666051E-08  0.3803528E+04  0.7818609E-02  0.8045398E-01
       -1   -1    0    0    0  501  0.00000000000E+00  0.00000000000E+00  0.15242890153E+04  0.15242890153E+04  0.50400001928E-02 0.  1.
        1   -1    0    0  501    0  0.00000000000E+00  0.00000000000E+00 -0.23727173713E+04  0.23727173713E+04  0.50400001928E-02 0. -1.
    10030    2    1    2    0    0  0.00000000000E+00  0.00000000000E+00 -0.84842835604E+03  0.38970063866E+04  0.38035283753E+04 0.  0.
        2    1    3    3  502    0 -0.15310204457E+04  0.10813302030E+04 -0.94739234266E+02  0.18767722652E+04  0.25500000920E-02 0.  1.
       -2    1    3    3    0  502  0.15310204457E+04 -0.10813302030E+04 -0.75368912177E+03  0.20202341214E+04  0.25500000920E-02 0. -1.
</event>
<event>
 5   0  0.5207474E-08  0.3798933E+04  0.7818609E-02  0.8046384E-01
        2   -1    0    0  501    0  0.00000000000E+00  0.00000000000E+00  0.32703743272E+04  0.32703743272E+04  0.25500000920E-02 0. -1.
       -2   -1    0    0    0  501  0.00000000000E+00  0.00000000000E+00 -0.11032293213E+04  0.11032293213E+04  0.25500000920E-02 0.  1.
    10030    2    1    2    0    0  0.00000000000E+00  0.00000000000E+00  0.21671450059E+04  0.43736036484E+04  0.37989329287E+04 0.  0.
        4    1    3    3  502    0 -0.17828654302E+04 -0.57097976052E+03  0.71347098543E+03  0.20034144577E+04  0.12699999809E+01 0. -1.
       -4    1    3    3    0  502  0.17828654302E+04  0.57097976052E+03  0.14536740205E+04  0.23701891908E+04  0.12699999809E+01 0.  1.
</event>
<event>
 5   0  0.5086209E-08  0.3802148E+04  0.7818609E-02  0.8045694E-01
        2   -1    0    0  501    0  0.00000000000E+00  0.00000000000E+00  0.20082590033E+04  0.20082590033E+04  0.25500000920E-02 0. -1.
       -2   -1    0    0    0  501  0.00000000000E+00  0.00000000000E+00 -0.17996100755E+04  0.17996100755E+04  0.25500000920E-02 0.  1.
    10030    2    1    2    0    0  0.00000000000E+00  0.00000000000E+00  0.20864892779E+03  0.38078690787E+04  0.38021484119E+04 0.  0.
        3    1    3    3  502    0  0.14658675797E+04 -0.11476632121E+03  0.13111869668E+04  0.19700635375E+04  0.10100000352E+00 0. -1.
       -3    1    3    3    0  502 -0.14658675797E+04  0.11476632121E+03 -0.11025380390E+04  0.18378055412E+04  0.10100000352E+00 0.  1.
</event>
<event>
 5   0  0.1666051E-08  0.3798542E+04  0.7818609E-02  0.8046468E-01
        1   -1    0    0  501    0  0.00000000000E+00  0.00000000000E+00  0.16321221368E+04  0.16321221368E+04  0.50400001928E-02 0. -1.
       -1   -1    0    0    0  501  0.00000000000E+00  0.00000000000E+00 -0.22101472735E+04  0.22101472735E+04  0.50400001928E-02 0.  1.
    10030    2    1    2    0    0  0.00000000000E+00  0.00000000000E+00 -0.57802513664E+03  0.38422694103E+04  0.37985419786E+04 0.  0.
        2    1    3    3  502    0  0.85228225669E+03  0.13418755753E+04 -0.13403110137E+04  0.20792904362E+04  0.25500000920E-02 0.  1.
       -2    1    3    3    0  502 -0.85228225669E+03 -0.13418755753E+04  0.76228587711E+03  0.17629789741E+04  0.25500000920E-02 0. -1.
</event>
<event>
 5   0  0.1628250E-08  0.3798271E+04  0.7818609E-02  0.8046526E-01
       -1   -1    0    0    0  501  0.00000000000E+00  0.00000000000E+00  0.32841113044E+04  0.32841113044E+04  0.50400001928E-02 0.  1.
        1   -1    0    0  501    0  0.00000000000E+00  0.00000000000E+00 -0.10982316366E+04  0.10982316366E+04  0.50400001928E-02 0. -1.
    10030    2    1    2    0    0  0.00000000000E+00  0.00000000000E+00  0.21858796678E+04  0.43823429410E+04  0.37982706236E+04 0.  0.
        4    1    3    3  502    0  0.17101046227E+04  0.52971176166E+03  0.36171613128E+03  0.18264425924E+04  0.12699999809E+01 0. -1.
       -4    1    3    3    0  502 -0.17101046227E+04 -0.52971176166E+03  0.18241635365E+04  0.25559003486E+04  0.12699999809E+01 0.  1.
</event>
<event>
 5   0  0.1628250E-08  0.3799905E+04  0.7818609E-02  0.8046175E-01
       -1   -1    0    0    0  501  0.00000000000E+00  0.00000000000E+00  0.18505598249E+04  0.18505598249E+04  0.50400001928E-02 0.  1.
        1   -1    0    0  501    0  0.00000000000E+00  0.00000000000E+00 -0.19506633060E+04  0.19506633061E+04  0.50400001928E-02 0. -1.
    10030    2    1    2    0    0  0.00000000000E+00  0.00000000000E+00 -0.10010348113E+03  0.38012231310E+04  0.37999048126E+04 0.  0.
        5    1    3    3  502    0  0.13750637672E+03 -0.16335011543E+04 -0.10108864197E+04  0.19259147095E+04  0.46999998093E+01 0. -1.
       -5    1    3    3    0  502 -0.13750637672E+03  0.16335011543E+04  0.91078293853E+03  0.18753084215E+04  0.46999998093E+01 0.  1.
</event>
<event>
 5   0  0.1628473E-08  0.3792947E+04  0.7818609E-02  0.8047670E-01
       -1   -1    0    0    0  501  0.00000000000E+00  0.00000000000E+00  0.14363766680E+04  0.14363766680E+04  0.50400001928E-02 0. -1.
        1   -1    0    0  501    0  0.00000000000E+00  0.00000000000E+00 -0.25039473533E+04  0.25039473533E+04  0.50400001928E-02 0.  1.
    10030    2    1    2    0    0  0.00000000000E+00  0.00000000000E+00 -0.10675706853E+04  0.39403240214E+04  0.37929469052E+04 0.  0.
        3    1    3    3  502    0 -0.79461752608E+03 -0.92688105186E+03  0.97383930364E+03  0.15616941111E+04  0.10100000352E+00 0. -1.
       -3    1    3    3    0  502  0.79461752608E+03  0.92688105186E+03 -0.20414099889E+04  0.23786299103E+04  0.10100000352E+00 0.  1.
</event>
<event>
 5   0  0.5147582E-08  0.3783648E+04  0.7818609E-02  0.8049673E-01
       -2   -1    0    0    0  501  0.00000000000E+00  0.00000000000E+00  0.15184608396E+04  0.15184608396E+04  0.25500000920E-02 0.  1.
        2   -1    0    0  501    0  0.00000000000E+00  0.00000000000E+00 -0.23569909444E+04  0.23569909444E+04  0.25500000920E-02 0. -1.
    10030    2    1    2    0    0  0.00000000000E+00  0.00000000000E+00 -0.83853010475E+03  0.38754517840E+04  0.37836482122E+04 0.  0.
        1    1    3    3  502    0  0.11737321948E+04  0.14281301794E+04 -0.83126260619E+03  0.20268696541E+04  0.50400001928E-02 0.  1.
       -1    1    3    3    0  502 -0.11737321948E+04 -0.14281301794E+04 -0.72674985645E+01  0.18485821299E+04  0.50400001928E-02 0. -1.
</event>
<event>
 5   0  0.5159761E-08  0.3857733E+04  0.7818609E-02  0.8033878E-01
        2   -1    0    0  501    0  0.00000000000E+00  0.00000000000E+00  0.25113547385E+04  0.25113547385E+04  0.25500000920E-02 0. -1.
       -2   -1    0    0    0  501  0.00000000000E+00  0.00000000000E+00 -0.14814812869E+04  0.14814812869E+04  0.25500000920E-02 0.  1.
    10030    2    1    2    0    0  0.00000000000E+00  0.00000000000E+00  0.10298734516E+04  0.39928360254E+04  0.38577325204E+04 0.  0.
        5    1    3    3  502    0 -0.22710465695E+03 -0.70546312611E+03 -0.13282294027E+04  0.15210095936E+04  0.46999998093E+01 0.  1.
       -5    1    3    3    0  502  0.22710465695E+03  0.70546312611E+03  0.23581028543E+04  0.24718264318E+04  0.46999998093E+01 0. -1.
</event>
<event>
 5   0  0.5140842E-08  0.3800181E+04  0.7818609E-02  0.8046116E-01
        2   -1    0    0  501    0  0.00000000000E+00  0.00000000000E+00  0.30040346441E+04  0.30040346441E+04  0.25500000920E-02 0.  1.
       -2   -1    0    0    0  501  0.00000000000E+00  0.00000000000E+00 -0.12018319567E+04  0.12018319567E+04  0.25500000920E-02 0. -1.
    10030    2    1    2    0    0  0.00000000000E+00  0.00000000000E+00  0.18022026874E+04  0.42058666008E+04  0.38001814874E+04 0.  0.
        2    1    3    3  502    0 -0.13888273782E+04  0.12263895610E+04  0.43485432395E+03  0.19031476886E+04  0.25500000920E-02 0. -1.
       -2    1    3    3    0  502  0.13888273782E+04 -0.12263895610E+04  0.13673483635E+04  0.23027189122E+04  0.25500000920E-02 0.  1.
</event>
<event>
 5   0  0.1628473E-08  0.3800718E+04  0.7818609E-02  0.8046001E-01
        1   -1    0    0  501    0  0.00000000000E+00  0.00000000000E+00  0.14800652222E+04  0.14800652222E+04  0.50400001928E-02 0. -1.
       -1   -1    0    0    0  501  0.00000000000E+00  0.00000000000E+00 -0.24400039065E+04  0.24400039065E+04  0.50400001928E-02 0.  1.
    10030    2    1    2    0    0  0.00000000000E+00  0.00000000000E+00 -0.95993868432E+03  0.39200691287E+04  0.38007183132E+04 0.  0.
        3    1    3    3  502    0  0.15018738688E+04  0.11624056292E+04 -0.54956376730E+03  0.19770767079E+04  0.10100000352E+00 0. -1.
       -3    1    3    3    0  502 -0.15018738688E+04 -0.11624056292E+04 -0.41037491702E+03  0.19429924208E+04  0.10100000352E+00 0.  1.
</event>
<event>
 5   0  0.5140842E-08  0.3801554E+04  0.7818609E-02  0.8045822E-01
       -2   -1    0    0    0  501  0.00000000000E+00  0.00000000000E+00  0.14840400946E+04  0.14840400946E+04  0.25500000920E-02 0.  1.
        2   -1    0    0  501    0  0.00000000000E+00  0.00000000000E+00 -0.24345384111E+04  0.24345384111E+04  0.25500000920E-02 0. -1.
    10030    2    1    2    0    0  0.00000000000E+00  0.00000000000E+00 -0.95049831648E+03  0.39185785057E+04  0.38015536897E+04 0.  0.
        2    1    3    3  502    0  0.16598312081E+04  0.29239119440E+03 -0.13811784058E+04  0.21790332808E+04  0.25500000920E-02 0. -1.
       -2    1    3    3    0  502 -0.16598312081E+04 -0.29239119440E+03  0.43068008933E+03  0.17395452249E+04  0.25500000920E-02 0.  1.
</event>
<event>
 5   0  0.1628250E-08  0.3793896E+04  0.7818609E-02  0.8047466E-01
       -1   -1    0    0    0  501  0.00000000000E+00  0.00000000000E+00  0.18644874255E+04  0.18644874255E+04  0.50400001928E-02 0. -1.
        1   -1    0    0  501    0  0.00000000000E+00  0.00000000000E+00 -0.19299736459E+04  0.19299736459E+04  0.50400001928E-02 0.  1.
    10030    2    1    2    0    0  0.00000000000E+00  0.00000000000E+00 -0.65486220394E+02  0.37944610713E+04  0.37938959365E+04 0.  0.
        1    1    3    3  502    0 -0.23628099747E+03 -0.12873471965E+04 -0.14060172244E+04  0.19209310111E+04  0.50400001928E-02 0.  1.
       -1    1    3    3    0  502  0.23628099747E+03  0.12873471965E+04  0.13405310040E+04  0.18735300603E+04  0.50400001928E-02 0. -1.
</event>
<event>
 5   0  0.1628250E-08  0.3790388E+04  0.7818609E-02  0.8048221E-01
       -3   -1    0    0    0  501  0.00000000000E+00  0.00000000000E+00  0.29745223893E+04  0.29745223910E+04  0.10100000352E+00 0.  1.
        3   -1    0    0  501    0  0.00000000000E+00  0.00000000000E+00 -0.12075083493E+04  0.12075083535E+04  0.10100000352E+00 0. -1.
    10030    2    1    2    0    0  0.00000000000E+00  0.00000000000E+00  0.17670140401E+04  0.41820307446E+04  0.37903881768E+04 0.  0.
        4    1    3    3  502    0  0.43120438952E+03 -0.49399026065E+03  0.28453778743E+04  0.29199555585E+04  0.12699999809E+01 0.  1.
       -4    1    3    3    0  502 -0.43120438952E+03  0.49399026065E+03 -0.10783638343E+04  0.12620751860E+04  0.12699999809E+01 0. -1.
</event>
<event>
 5   0  0.5207474E-08  0.3811241E+04  0.7818609E-02  0.8043747E-01
        2   -1    0    0  501    0  0.00000000000E+00  0.00000000000E+00  0.24265558605E+04  0.24265558605E+04  0.25500000920E-02 0.  1.
       -2   -1    0    0    0  501  0.00000000000E+00  0.00000000000E+00 -0.14965202376E+04  0.14965202376E+04  0.25500000920E-02 0. -1.
    10030    2    1    2    0    0  0.00000000000E+00  0.00000000000E+00  0.93003562297E+03  0.39230760981E+04  0.38112412429E+04 0.  0.
        4    1    3    3  502    0  0.26391444339E+03 -0.58563410601E+03 -0.13817201599E+04  0.15237356571E+04  0.12699999809E+01 0. -1.
       -4    1    3    3    0  502 -0.26391444339E+03  0.58563410601E+03  0.23117557828E+04  0.23993404410E+04  0.12699999809E+01 0.  1.
</event>
<event>
 5   0  0.1628473E-08  0.3797902E+04  0.7818609E-02  0.8046605E-01
       -1   -1    0    0    0  501  0.00000000000E+00  0.00000000000E+00  0.17415385188E+04  0.17415385188E+04  0.50400001928E-02 0.  1.
        1   -1    0    0  501    0  0.00000000000E+00  0.00000000000E+00 -0.20705912284E+04  0.20705912284E+04  0.50400001928E-02 0. -1.
    10030    2    1    2    0    0  0.00000000000E+00  0.00000000000E+00 -0.32905270966E+03  0.38121297472E+04  0.37979017264E+04 0.  0.
        3    1    3    3  502    0 -0.41749350189E+03 -0.13296449412E+04 -0.14592259525E+04  0.20178198345E+04  0.10100000352E+00 0. -1.
       -3    1    3    3    0  502  0.41749350189E+03  0.13296449412E+04  0.11301732428E+04  0.17943099127E+04  0.10100000352E+00 0.  1.
</event>
<event>
 5   0  0.1628250E-08  0.3800944E+04  0.7818609E-02  0.8045952E-01
        1   -1    0    0  501    0  0.00000000000E+00  0.00000000000E+00  0.14438672280E+04  0.14438672280E+04  0.50400001928E-02 0.  1.
       -1   -1    0    0    0  501  0.00000000000E+00  0.00000000000E+00 -0.25014724514E+04  0.25014724514E+04  0.50400001928E-02 0. -1.
    10030    2    1    2    0    0  0.00000000000E+00  0.00000000000E+00 -0.10576052234E+04  0.39453396794E+04  0.38009441429E+04 0.  0.
        1    1    3    3  502    0  0.15319268642E+04  0.10786403017E+04 -0.85954401030E+03  0.20613298434E+04  0.50400001928E-02 0.  1.
       -1    1    3    3    0  502 -0.15319268642E+04 -0.10786403017E+04 -0.19806121307E+03  0.18840098360E+04  0.50400001928E-02 0. -1.
</event>
<event>
 5   0  0.1666051E-08  0.3807379E+04  0.7818609E-02  0.8044573E-01
       -1   -1    0    0    0  501  0.00000000000E+00  0.00000000000E+00  0.15085126750E+04  0.15085126750E+04  0.50400001928E-02 0. -1.
        1   -1    0    0  501    0  0.00000000000E+00  0.00000000000E+00 -0.24023887563E+04  0.24023887563E+04  0.50400001928E-02 0.  1.
    10030    2    1    2    0    0  0.00000000000E+00  0.00000000000E+00 -0.89387608127E+03  0.39109014313E+04  0.38073790929E+04 0.  0.
        2    1    3    3  502    0 -0.27272571321E+03  0.17786654948E+04 -0.10851228247E+04  0.21013143034E+04  0.25500000920E-02 0.  1.
       -2    1    3    3    0  502  0.27272571321E+03 -0.17786654948E+04  0.19124674340E+03  0.18095871280E+04  0.25500000920E-02 0. -1.
</event>
<event>
 5   0  0.1628250E-08  0.3796913E+04  0.7818609E-02  0.8046818E-01
       -1   -1    0    0    0  501  0.00000000000E+00  0.00000000000E+00  0.17806693606E+04  0.17806693606E+04  0.50400001928E-02 0.  1.
        1   -1    0    0  501    0  0.00000000000E+00  0.00000000000E+00 -0.20240345070E+04  0.20240345070E+04  0.50400001928E-02 0. -1.
    10030    2    1    2    0    0  0.00000000000E+00  0.00000000000E+00 -0.24336514639E+03  0.38047038677E+04  0.37969125518E+04 0.  0.
        4    1    3    3  502    0 -0.15782055169E+04 -0.15607171240E+03 -0.11673965090E+04  0.19692402736E+04  0.12699999809E+01 0. -1.
       -4    1    3    3    0  502  0.15782055169E+04  0.15607171240E+03  0.92403136259E+03  0.18354635940E+04  0.12699999809E+01 0.  1.
</event>
<event>
 5   0  0.1628250E-08  0.3796399E+04  0.7818609E-02  0.8046928E-01
        3   -1    0    0  501    0  0.00000000000E+00  0.00000000000E+00  0.16702381460E+04  0.16702381490E+04  0.10100000352E+00 0.  1.
       -3   -1    0    0    0  501  0.00000000000E+00  0.00000000000E+00 -0.21572744685E+04  0.21572744709E+04  0.10100000352E+00 0. -1.
    10030    2    1    2    0    0  0.00000000000E+00  0.00000000000E+00 -0.48703632258E+03  0.38275126199E+04  0.37963994095E+04 0.  0.
        5    1    3    3  502    0 -0.17437277106E+04  0.58052716957E+03 -0.72232280847E+03  0.19746823676E+04  0.46999998093E+01 0. -1.
       -5    1    3    3    0  502  0.17437277106E+04 -0.58052716957E+03  0.23528648588E+03  0.18528302523E+04  0.46999998093E+01 0.  1.
</event>
<event>
 5   0  0.5147582E-08  0.3797648E+04  0.7818609E-02  0.8046660E-01
        2   -1    0    0  501    0  0.00000000000E+00  0.00000000000E+00  0.19920822805E+04  0.19920822805E+04  0.25500000920E-02 0. -1.
       -2   -1    0    0    0  501  0.00000000000E+00  0.00000000000E+00 -0.18099313989E+04  0.18099313989E+04  0.25500000920E-02 0.  1.
    10030    2    1    2    0    0  0.00000000000E+00  0.00000000000E+00  0.18215088156E+03  0.38020136794E+04  0.37976478345E+04 0.  0.
        1    1    3    3  502    0  0.11723398977E+04 -0.14534954587E+04  0.43571294037E+03  0.19175180965E+04  0.50400001928E-02 0.  1.
       -1    1    3    3    0  502 -0.11723398977E+04  0.14534954587E+04 -0.25356205881E+03  0.18844955829E+04  0.50400001928E-02 0. -1.
</event>
<event>
 5   0  0.1666051E-08  0.3756674E+04  0.7818609E-02  0.8055517E-01
        1   -1    0    0  501    0  0.00000000000E+00  0.00000000000E+00  0.29090032487E+04  0.29090032488E+04  0.50400001928E-02 0. -1.
       -1   -1    0    0    0  501  0.00000000000E+00  0.00000000000E+00 -0.12128379205E+04  0.12128379205E+04  0.50400001928E-02 0.  1.
    10030    2    1    2    0    0  0.00000000000E+00  0.00000000000E+00  0.16961653283E+04  0.41218411692E+04  0.37566737686E+04 0.  0.
        2    1    3    3  502    0  0.65091099981E+03 -0.58481934873E+03 -0.97554022469E+03  0.13104875163E+04  0.25500000920E-02 0.  1.
       -2    1    3    3    0  502 -0.65091099981E+03  0.58481934873E+03  0.26717055530E+04  0.28113536530E+04  0.25500000920E-02 0. -1.
</event>
<event>
 5   0  0.5086209E-08  0.3825009E+04  0.7818609E-02  0.8040809E-01
       -2   -1    0    0    0  501  0.00000000000E+00  0.00000000000E+00  0.18651977742E+04  0.18651977742E+04  0.25500000920E-02 0.  1.
        2   -1    0    0  501    0  0.00000000000E+00  0.00000000000E+00 -0.19610106828E+04  0.19610106828E+04  0.25500000920E-02 0. -1.
    10030    2    1    2    0    0  0.00000000000E+00  0.00000000000E+00 -0.95812908630E+02  0.38262084570E+04  0.38250086331E+04 0.  0.
        3    1    3    3  502    0 -0.42683785604E+03 -0.40699577799E+03 -0.18677727704E+04  0.19586758922E+04  0.10100000352E+00 0. -1.
       -3    1    3    3    0  502  0.42683785604E+03  0.40699577799E+03  0.17719598618E+04  0.18675325648E+04  0.10100000352E+00 0.  1.
</event>
<event>
 5   0  0.1628250E-08  0.3799928E+04  0.7818609E-02  0.8046170E-01
       -1   -1    0    0    0  501  0.00000000000E+00  0.00000000000E+00  0.19069844554E+04  0.19069844554E+04  0.50400001928E-02 0.  1.
        1   -1    0    0  501    0  0.00000000000E+00  0.00000000000E+00 -0.18929690438E+04  0.18929690438E+04  0.50400001928E-02 0. -1.
    10030    2    1    2    0    0  0.00000000000E+00  0.00000000000E+00  0.14015411604E+02  0.37999534993E+04  0.37999276526E+04 0.  0.
        4    1    3    3  502    0  0.11318453200E+03 -0.16195127937E+04  0.99404456133E+03  0.19036172489E+04  0.12699999809E+01 0.  1.
       -4    1    3    3    0  502 -0.11318453200E+03  0.16195127937E+04 -0.98002914973E+03  0.18963362504E+04  0.12699999809E+01 0. -1.
</event>
<event>
 5   0  0.5147582E-08  0.3799522E+04  0.7818609E-02  0.8046257E-01
       -2   -1    0    0    0  501  0.00000000000E+00  0.00000000000E+00  0.19683424131E+04  0.19683424131E+04  0.25500000920E-02 0. -1.
        2   -1    0    0  501    0  0.00000000000E+00  0.00000000000E+00 -0.18335694355E+04  0.18335694355E+04  0.25500000920E-02 0.  1.
    10030    2    1    2    0    0  0.00000000000E+00  0.00000000000E+00  0.13477297759E+03  0.38019118485E+04  0.37995223316E+04 0.  0.
        1    1    3    3  502    0 -0.17338638965E+04 -0.64935392132E+03  0.49326896046E+03  0.19160529205E+04  0.50400001928E-02 0.  1.
       -1    1    3    3    0  502  0.17338638965E+04  0.64935392132E+03 -0.35849598287E+03  0.18858589280E+04  0.50400001928E-02 0. -1.
</event>
<event>
 5   0  0.1628473E-08  0.3793930E+04  0.7818609E-02  0.8047459E-01
       -1   -1    0    0    0  501  0.00000000000E+00  0.00000000000E+00  0.17886618991E+04  0.17886618991E+04  0.50400001928E-02 0.  1.
        1   -1    0    0  501    0  0.00000000000E+00  0.00000000000E+00 -0.20118255467E+04  0.20118255467E+04  0.50400001928E-02 0. -1.
    10030    2    1    2    0    0  0.00000000000E+00  0.00000000000E+00 -0.22316364763E+03  0.38004874458E+04  0.37939297321E+04 0.  0.
        3    1    3    3  502    0  0.17049161502E+04 -0.81014213726E+03  0.76909117086E+02  0.18891755832E+04  0.10100000352E+00 0. -1.
       -3    1    3    3    0  502 -0.17049161502E+04  0.81014213726E+03 -0.30007276472E+03  0.19113118626E+04  0.10100000352E+00 0.  1.
</event>
<event>
 5   0  0.5207474E-08  0.3783288E+04  0.7818609E-02  0.8049751E-01
        2   -1    0    0  501    0  0.00000000000E+00  0.00000000000E+00  0.18785982252E+04  0.18785982252E+04  0.25500000920E-02 0.  1.
       -2   -1    0    0    0  501  0.00000000000E+00  0.00000000000E+00 -0.19047802823E+04  0.19047802823E+04  0.25500000920E-02 0. -1.
    10030    2    1    2    0    0  0.00000000000E+00  0.00000000000E+00 -0.26182057173E+02  0.37833785075E+04  0.37832879128E+04 0.  0.
        4    1    3    3  502    0  0.17302042698E+04 -0.40024255957E+03  0.63847221024E+03  0.18871802505E+04  0.12699999809E+01 0.  1.
       -4    1    3    3    0  502 -0.17302042698E+04  0.40024255957E+03 -0.66465426741E+03  0.18961982570E+04  0.12699999809E+01 0. -1.
</event>
<event>
 5   0  0.5207474E-08  0.3783618E+04  0.7818609E-02  0.8049680E-01
        2   -1    0    0  501    0  0.00000000000E+00  0.00000000000E+00  0.16636335549E+04  0.16636335549E+04  0.25500000920E-02 0.  1.
       -2   -1    0    0    0  501  0.00000000000E+00  0.00000000000E+00 -0.21512799465E+04  0.21512799465E+04  0.25500000920E-02 0. -1.
    10030    2    1    2    0    0  0.00000000000E+00  0.00000000000E+00 -0.48764639165E+03  0.38149135014E+04  0.37836181123E+04 0.  0.
        4    1    3    3  502    0  0.12506507725E+04  0.13880787895E+04 -0.54300943482E+03  0.19457006296E+04  0.12699999809E+01 0. -1.
       -4    1    3    3    0  502 -0.12506507725E+04 -0.13880787895E+04  0.55363043172E+02  0.18692128718E+04  0.12699999809E+01 0.  1.
</event>
<event>
 5   0  0.5159761E-08  0.3793441E+04  0.7818609E-02  0.8047564E-01
        2   -1    0    0  501    0  0.00000000000E+00  0.00000000000E+00  0.25943650271E+04  0.25943650271E+04  0.25500000920E-02 0. -1.
       -2   -1    0    0    0  501  0.00000000000E+00  0.00000000000E+00 -0.13866776193E+04  0.13866776193E+04  0.25500000920E-02 0.  1.
    10030    2    1    2    0    0  0.00000000000E+00  0.00000000000E+00  0.12076874078E+04  0.39810426464E+04  0.37934406121E+04 0.  0.
        5    1    3    3  502    0 -0.63618664262E+02  0.75547244915E+02  0.25916584350E+04  0.25935439565E+04  0.46999998093E+01 0. -1.
       -5    1    3    3    0  502  0.63618664262E+02 -0.75547244915E+02 -0.13839710271E+04  0.13874986899E+04  0.46999998093E+01 0.  1.
</event>
<event>
 5   0  0.5140842E-08  0.3799046E+04  0.7818609E-02  0.8046360E-01
        2   -1    0    0  501    0  0.00000000000E+00  0.00000000000E+00  0.23072936532E+04  0.23072936532E+04  0.25500000920E-02 0. -1.
       -2   -1    0    0    0  501  0.00000000000E+00  0.00000000000E+00 -0.15638182424E+04  0.15638182424E+04  0.25500000920E-02 0.  1.
    10030    2    1    2    0    0  0.00000000000E+00  0.00000000000E+00  0.74347541087E+03  0.38711118956E+04  0.37990461463E+04 0.  0.
        2    1    3    3  502    0 -0.15261232753E+03  0.77912322567E+03 -0.13866458504E+04  0.15978454987E+04  0.25500000920E-02 0.  1.
       -2    1    3    3    0  502  0.15261232753E+03 -0.77912322567E+03  0.21301212613E+04  0.22732663969E+04  0.25500000920E-02 0. -1.
</event>
<event>
 5   0  0.5086209E-08  0.3811036E+04  0.7818609E-02  0.8043791E-01
       -2   -1    0    0    0  501  0.00000000000E+00  0.00000000000E+00  0.15724537498E+04  0.15724537498E+04  0.25500000920E-02 0.  1.
        2   -1    0    0  501    0  0.00000000000E+00  0.00000000000E+00 -0.23091287956E+04  0.23091287956E+04  0.25500000920E-02 0. -1.
    10030    2    1    2    0    0  0.00000000000E+00  0.00000000000E+00 -0.73667504577E+03  0.38815825454E+04  0.38110356773E+04 0.  0.
        3    1    3    3  502    0  0.25539624664E+03 -0.17100856365E+04 -0.11840232702E+04  0.20955980630E+04  0.10100000352E+00 0. -1.
       -3    1    3    3    0  502 -0.25539624664E+03  0.17100856365E+04  0.44734822448E+03  0.17859844823E+04  0.10100000352E+00 0.  1.
</event>
<event>
 5   0  0.5086209E-08  0.3797648E+04  0.7818609E-02  0.8046660E-01
        2   -1    0    0  501    0  0.00000000000E+00  0.00000000000E+00  0.20652293533E+04  0.20652293533E+04  0.25500000920E-02 0. -1.
       -2   -1    0    0    0  501  0.00000000000E+00  0.00000000000E+00 -0.17458268523E+04  0.17458268523E+04  0.25500000920E-02 0.  1.
    10030    2    1    2    0    0  0.00000000000E+00  0.00000000000E+00  0.31940250096E+03  0.38110562056E+04  0.37976481465E+04 0.  0.
        3    1    3    3  502    0  0.10180178586E+04 -0.97589431785E+03 -0.11163236563E+04  0.17985851651E+04  0.10100000352E+00 0.  1.
       -3    1    3    3    0  502 -0.10180178586E+04  0.97589431785E+03  0.14357261573E+04  0.20124710405E+04  0.10100000352E+00 0. -1.
</event>
<event>
 5   0  0.5140842E-08  0.3809584E+04  0.7818609E-02  0.8044101E-01
       -2   -1    0    0    0  501  0.00000000000E+00  0.00000000000E+00  0.14685467806E+04  0.14685467806E+04  0.25500000920E-02 0.  1.
        2   -1    0    0  501    0  0.00000000000E+00  0.00000000000E+00 -0.24706278564E+04  0.24706278564E+04  0.25500000920E-02 0. -1.
    10030    2    1    2    0    0  0.00000000000E+00  0.00000000000E+00 -0.10020810758E+04  0.39391746370E+04  0.38095840112E+04 0.  0.
        2    1    3    3  502    0  0.75663044523E+03 -0.10082616235E+04  0.97552395664E+03  0.15939661609E+04  0.25500000920E-02 0.  1.
       -2    1    3    3    0  502 -0.75663044523E+03  0.10082616235E+04 -0.19776050325E+04  0.23452084761E+04  0.25500000920E-02 0. -1.
</event>
<event>
 5   0  0.5159761E-08  0.3800018E+04  0.7818609E-02  0.8046151E-01
       -2   -1    0    0    0  501  0.00000000000E+00  0.00000000000E+00  0.15383446030E+04  0.15383446030E+04  0.25500000920E-02 0.  1.
        2   -1    0    0  501    0  0.00000000000E+00  0.00000000000E+00 -0.23467001731E+04  0.23467001731E+04  0.25500000920E-02 0. -1.
    10030    2    1    2    0    0  0.00000000000E+00  0.00000000000E+00 -0.80835557011E+03  0.38850447761E+04  0.38000176558E+04 0.  0.
        5    1    3    3  502    0 -0.55441501505E+03  0.65430788191E+03 -0.21375539793E+04  0.23031834312E+04  0.46999998093E+01 0. -1.
       -5    1    3    3    0  502  0.55441501505E+03 -0.65430788191E+03  0.13291984092E+04  0.15818613448E+04  0.46999998093E+01 0.  1.
</event>
<event>
 5   0  0.5086209E-08  0.3798646E+04  0.7818609E-02  0.8046445E-01
       -2   -1    0    0    0  501  0.00000000000E+00  0.00000000000E+00  0.16206028698E+04  0.16206028698E+04  0.25500000920E-02 0.  1.
        2   -1    0    0  501    0  0.00000000000E+00  0.00000000000E+00 -0.22259791896E+04  0.22259791896E+04  0.25500000920E-02 0. -1.
    10030    2    1    2    0    0  0.00000000000E+00  0.00000000000E+00 -0.60537631975E+03  0.38465820594E+04  0.37986462130E+04 0.  0.
        3    1    3    3  502    0  0.75790425215E+03  0.43392304786E+03 -0.20106018965E+04  0.21920830420E+04  0.10100000352E+00 0. -1.
       -3    1    3    3    0  502 -0.75790425215E+03 -0.43392304786E+03  0.14052255767E+04  0.16544990174E+04  0.10100000352E+00 0.  1.
</event>
<event>
 5   0  0.1628250E-08  0.3801590E+04  0.7818609E-02  0.8045814E-01
        1   -1    0    0  501    0  0.00000000000E+00  0.00000000000E+00  0.23518737495E+04  0.23518737495E+04  0.50400001928E-02 0.  1.
       -1   -1    0    0    0  501  0.00000000000E+00  0.00000000000E+00 -0.15362308110E+04  0.15362308110E+04  0.50400001928E-02 0. -1.
    10030    2    1    2    0    0  0.00000000000E+00  0.00000000000E+00  0.81564293852E+03  0.38881045606E+04  0.38015896242E+04 0.  0.
        1    1    3    3  502    0  0.16253965589E+04 -0.65104181867E+03  0.11644211960E+04  0.21027710634E+04  0.50400001928E-02 0.  1.
       -1    1    3    3    0  502 -0.16253965589E+04  0.65104181867E+03 -0.34877825749E+03  0.17853334972E+04  0.50400001928E-02 0. -1.
</event>
<event>
 5   0  0.5147582E-08  0.3801505E+04  0.7818609E-02  0.8045832E-01
        2   -1    0    0  501    0  0.00000000000E+00  0.00000000000E+00  0.17391809011E+04  0.17391809011E+04  0.25500000920E-02 0.  1.
       -2   -1    0    0    0  501  0.00000000000E+00  0.00000000000E+00 -0.20773344982E+04  0.20773344982E+04  0.25500000920E-02 0. -1.
    10030    2    1    2    0    0  0.00000000000E+00  0.00000000000E+00 -0.33815359708E+03  0.38165153993E+04  0.38015052200E+04 0.  0.
        1    1    3    3  502    0 -0.41168233996E+03 -0.18533809948E+04 -0.26085451435E+03  0.19163894538E+04  0.50400001928E-02 0.  1.
       -1    1    3    3    0  502  0.41168233996E+03  0.18533809948E+04 -0.77299082735E+02  0.19001259456E+04  0.50400001928E-02 0. -1.
</event>
<event>
 5   0  0.5140842E-08  0.3802709E+04  0.7818609E-02  0.8045574E-01
       -2   -1    0    0    0  501  0.00000000000E+00  0.00000000000E+00  0.24326222204E+04  0.24326222204E+04  0.25500000920E-02 0. -1.
        2   -1    0    0  501    0  0.00000000000E+00  0.00000000000E+00 -0.14861119544E+04  0.14861119544E+04  0.25500000920E-02 0.  1.
    10030    2    1    2    0    0  0.00000000000E+00  0.00000000000E+00  0.94651026602E+03  0.39187341748E+04  0.38027090145E+04 0.  0.
        2    1    3    3  502    0 -0.13217751374E+04  0.28395157057E+03  0.18509953866E+04  0.22921391601E+04  0.25500000920E-02 0. -1.
       -2    1    3    3    0  502  0.13217751374E+04 -0.28395157057E+03 -0.90448512056E+03  0.16265950146E+04  0.25500000920E-02 0.  1.
</event>
<event>
 5   0  0.1666051E-08  0.3791120E+04  0.7818609E-02  0.8048063E-01
       -1   -1    0    0    0  501  0.00000000000E+00  0.00000000000E+00  0.13867466764E+04  0.13867466765E+04  0.50400001928E-02 0. -1.
        1   -1    0    0  501    0  0.00000000000E+00  0.00000000000E+00 -0.25910629236E+04  0.25910629236E+04  0.50400001928E-02 0.  1.
    10030    2    1    2    0    0  0.00000000000E+00  0.00000000000E+00 -0.12043162471E+04  0.39778096001E+04  0.37911200972E+04 0.  0.
        2    1    3    3  502    0  0.95746186394E+03 -0.45572386024E+02  0.11137126751E+04  0.14694100809E+04  0.25500000920E-02 0. -1.
       -2    1    3    3    0  502 -0.95746186394E+03  0.45572386024E+02 -0.23180289222E+04  0.25083995191E+04  0.25500000920E-02 0.  1.
</event>
<event>
 5   0  0.5159761E-08  0.3799823E+04  0.7818609E-02  0.8046193E-01
        2   -1    0    0  501    0  0.00000000000E+00  0.00000000000E+00  0.11994200969E+04  0.11994200969E+04  0.25500000920E-02 0. -1.
       -2   -1    0    0    0  501  0.00000000000E+00  0.00000000000E+00 -0.30095078859E+04  0.30095078859E+04  0.25500000920E-02 0.  1.
    10030    2    1    2    0    0  0.00000000000E+00  0.00000000000E+00 -0.18100877890E+04  0.42089279828E+04  0.37998232802E+04 0.  0.
        5    1    3    3  502    0 -0.78353114443E+03 -0.13526471674E+04  0.29106246359E+03  0.15900675651E+04  0.46999998093E+01 0. -1.
       -5    1    3    3    0  502  0.78353114443E+03  0.13526471674E+04 -0.21011502526E+04  0.26188604178E+04  0.46999998093E+01 0.  1.
</event>
<event>
 5   0  0.1628473E-08  0.3746460E+04  0.7818609E-02  0.8057743E-01
       -1   -1    0    0    0  501  0.00000000000E+00  0.00000000000E+00  0.11304763463E+04  0.11304763463E+04  0.50400001928E-02 0. -1.
        1   -1    0    0  501    0  0.00000000000E+00  0.00000000000E+00 -0.31039927626E+04  0.31039927626E+04  0.50400001928E-02 0.  1.
    10030    2    1    2    0    0  0.00000000000E+00  0.00000000000E+00 -0.19735164163E+04  0.42344691089E+04  0.37464598741E+04 0.  0.
        3    1    3    3  502    0 -0.15014077229E+04  0.58529604845E+03  0.92738779881E+02  0.16141242536E+04  0.10100000352E+00 0. -1.
       -3    1    3    3    0  502  0.15014077229E+04 -0.58529604845E+03 -0.20662551962E+04  0.26203448553E+04  0.10100000352E+00 0.  1.
</event>
<event>
 5   0  0.1628250E-08  0.3808500E+04  0.7818609E-02  0.8044333E-01
       -1   -1    0    0    0  501  0.00000000000E+00  0.00000000000E+00  0.16493075459E+04  0.16493075459E+04  0.50400001928E-02 0. -1.
        1   -1    0    0  501    0  0.00000000000E+00  0.00000000000E+00 -0.21986005397E+04  0.21986005397E+04  0.50400001928E-02 0.  1.
    10030    2    1    2    0    0  0.00000000000E+00  0.00000000000E+00 -0.54929299382E+03  0.38479080856E+04  0.38085002091E+04 0.  0.
        5    1    3    3  502    0  0.10185332069E+04 -0.76626606844E+03  0.11547621336E+04  0.17199044323E+04  0.46999998093E+01 0. -1.
       -5    1    3    3    0  502 -0.10185332069E+04  0.76626606844E+03 -0.17040551274E+04  0.21280036533E+04  0.46999998093E+01 0.  1.
</event>
<event>
 5   0  0.1628250E-08  0.3835324E+04  0.7818609E-02  0.8038617E-01
        1   -1    0    0  501    0  0.00000000000E+00  0.00000000000E+00  0.18548988522E+04  0.18548988522E+04  0.50400001928E-02 0. -1.
       -1   -1    0    0    0  501  0.00000000000E+00  0.00000000000E+00 -0.19825487044E+04  0.19825487044E+04  0.50400001928E-02 0.  1.
    10030    2    1    2    0    0  0.00000000000E+00  0.00000000000E+00 -0.12764985220E+03  0.38374475567E+04  0.38353238801E+04 0.  0.
        4    1    3    3  502    0 -0.27724197557E+03 -0.93368461444E+03 -0.17166462771E+04  0.19737036570E+04  0.12699999809E+01 0.  1.
       -4    1    3    3    0  502  0.27724197557E+03  0.93368461444E+03  0.15889964249E+04  0.18637438997E+04  0.12699999809E+01 0. -1.
</event>
<event>
 5   0  0.5207474E-08  0.3805901E+04  0.7818609E-02  0.8044890E-01
        2   -1    0    0  501    0  0.00000000000E+00  0.00000000000E+00  0.25566772129E+04  0.25566772129E+04  0.25500000920E-02 0.  1.
       -2   -1    0    0    0  501  0.00000000000E+00  0.00000000000E+00 -0.14163780468E+04  0.14163780468E+04  0.25500000920E-02 0. -1.
    10030    2    1    2    0    0  0.00000000000E+00  0.00000000000E+00  0.11402991661E+04  0.39730552598E+04  0.38059014581E+04 0.  0.
        4    1    3    3  502    0  0.17433830036E+04  0.24355222241E+03 -0.18445188367E+03  0.17699508730E+04  0.12699999809E+01 0. -1.
       -4    1    3    3    0  502 -0.17433830036E+04 -0.24355222241E+03  0.13247510497E+04  0.22031043868E+04  0.12699999809E+01 0.  1.
</event>
<event>
 5   0  0.5140842E-08  0.3781178E+04  0.7818609E-02  0.8050206E-01
       -2   -1    0    0    0  501  0.00000000000E+00  0.00000000000E+00  0.11666808813E+04  0.11666808813E+04  0.25500000920E-02 0. -1.
        2   -1    0    0  501    0  0.00000000000E+00  0.00000000000E+00 -0.30636712135E+04  0.30636712135E+04  0.25500000920E-02 0.  1.
    10030    2    1    2    0    0  0.00000000000E+00  0.00000000000E+00 -0.18969903322E+04  0.42303520948E+04  0.37811779283E+04 0.  0.
        2    1    3    3  502    0  0.79940591964E+03  0.40138341788E+03  0.91494646013E+03  0.12795645734E+04  0.25500000920E-02 0. -1.
       -2    1    3    3    0  502 -0.79940591964E+03 -0.40138341788E+03 -0.28119367923E+04  0.29507875214E+04  0.25500000920E-02 0.  1.
</event>
<event>
 5   0  0.5207474E-08  0.3808330E+04  0.7818609E-02  0.8044370E-01
        2   -1    0    0  501    0  0.00000000000E+00  0.00000000000E+00  0.21226363309E+04  0.21226363309E+04  0.25500000920E-02 0. -1.
       -2   -1    0    0    0  501  0.00000000000E+00  0.00000000000E+00 -0.17081797139E+04  0.17081797139E+04  0.25500000920E-02 0.  1.
    10030    2    1    2    0    0  0.00000000000E+00  0.00000000000E+00  0.41445661698E+03  0.38308160448E+04  0.38083299859E+04 0.  0.
        4    1    3    3  502    0  0.21939654988E+03 -0.56581233297E+03  0.20227574386E+04  0.21118304171E+04  0.12699999809E+01 0. -1.
       -4    1    3    3    0  502 -0.21939654988E+03  0.56581233297E+03 -0.16083008217E+04  0.17189856276E+04  0.12699999809E+01 0.  1.
</event>
<event>
 5   0  0.5147582E-08  0.3825828E+04  0.7818609E-02  0.8040635E-01
       -2   -1    0    0    0  501  0.00000000000E+00  0.00000000000E+00  0.18351274229E+04  0.18351274229E+04  0.25500000920E-02 0. -1.
        2   -1    0    0  501    0  0.00000000000E+00  0.00000000000E+00 -0.19939977373E+04  0.19939977373E+04  0.25500000920E-02 0.  1.
    10030    2    1    2    0    0  0.00000000000E+00  0.00000000000E+00 -0.15887031437E+03  0.38291251602E+04  0.38258279778E+04 0.  0.
        1    1    3    3  502    0 -0.14935626506E+04  0.69389156876E+03 -0.10534259506E+04  0.19549734356E+04  0.50400001928E-02 0. -1.
       -1    1    3    3    0  502  0.14935626506E+04 -0.69389156876E+03  0.89455563623E+03  0.18741517246E+04  0.50400001928E-02 0.  1.
</event>
<event>
 5   0  0.5086209E-08  0.3803749E+04  0.7818609E-02  0.8045351E-01
        2   -1    0    0  501    0  0.00000000000E+00  0.00000000000E+00  0.24343182064E+04  0.24343182064E+04  0.25500000920E-02 0.  1.
       -2   -1    0    0    0  501  0.00000000000E+00  0.00000000000E+00 -0.14858887063E+04  0.14858887063E+04  0.25500000920E-02 0. -1.
    10030    2    1    2    0    0  0.00000000000E+00  0.00000000000E+00  0.94842950007E+03  0.39202069126E+04  0.38037486407E+04 0.  0.
        3    1    3    3  502    0  0.41522911766E+03 -0.14340215340E+04  0.16885475829E+04  0.22538912862E+04  0.10100000352E+00 0.  1.
       -3    1    3    3    0  502 -0.41522911766E+03  0.14340215340E+04 -0.74011808284E+03  0.16663156264E+04  0.10100000352E+00 0. -1.
</event>
<event>
 5   0  0.1628250E-08  0.3802004E+04  0.7818609E-02  0.8045725E-01
       -1   -1    0    0    0  501  0.00000000000E+00  0.00000000000E+00  0.21983718686E+04  0.21983718686E+04  0.50400001928E-02 0. -1.
        1   -1    0    0  501    0  0.00000000000E+00  0.00000000000E+00 -0.16438566003E+04  0.16438566003E+04  0.50400001928E-02 0.  1.
    10030    2    1    2    0    0  0.00000000000E+00  0.00000000000E+00  0.55451526836E+03  0.38422284689E+04  0.38020037381E+04 0.  0.
        1    1    3    3  502    0  0.10061867324E+04  0.15399615981E+04  0.76182477552E+03  0.19910475767E+04  0.50400001928E-02 0. -1.
       -1    1    3    3    0  502 -0.10061867324E+04 -0.15399615981E+04 -0.20730950716E+03  0.18511808922E+04  0.50400001928E-02 0.  1.
</event>
<event>
 5   0  0.5140842E-08  0.3799078E+04  0.7818609E-02  0.8046353E-01
       -2   -1    0    0    0  501  0.00000000000E+00  0.00000000000E+00  0.12762700264E+04  0.12762700264E+04  0.25500000920E-02 0.  1.
        2   -1    0    0  501    0  0.00000000000E+00  0.00000000000E+00 -0.28271830529E+04  0.28271830529E+04  0.25500000920E-02 0. -1.
    10030    2    1    2    0    0  0.00000000000E+00  0.00000000000E+00 -0.15509130265E+04  0.41034530793E+04  0.37990783037E+04 0.  0.
        2    1    3    3  502    0 -0.18139021685E+04 -0.54993560608E+03 -0.91027126482E+03  0.21026802000E+04  0.25500000920E-02 0. -1.
       -2    1    3    3    0  502  0.18139021685E+04  0.54993560608E+03 -0.64064176170E+03  0.20007728793E+04  0.25500000920E-02 0.  1.
</event>
<event>
 5   0  0.1628250E-08  0.3801383E+04  0.7818609E-02  0.8045858E-01
       -1   -1    0    0    0  501  0.00000000000E+00  0.00000000000E+00  0.15435906164E+04  0.15435906164E+04  0.50400001928E-02 0. -1.
        1   -1    0    0  501    0  0.00000000000E+00  0.00000000000E+00 -0.23404051018E+04  0.23404051018E+04  0.50400001928E-02 0.  1.
    10030    2    1    2    0    0  0.00000000000E+00  0.00000000000E+00 -0.79681448544E+03  0.38839957182E+04  0.38013825663E+04 0.  0.
        4    1    3    3  502    0  0.16695652857E+04 -0.37584354864E+03  0.44655934855E+03  0.17686501861E+04  0.12699999809E+01 0. -1.
       -4    1    3    3    0  502 -0.16695652857E+04  0.37584354864E+03 -0.12433738340E+04  0.21153455321E+04  0.12699999809E+01 0.  1.
</event>
<event>
 5   0  0.5140842E-08  0.3799372E+04  0.7818609E-02  0.8046290E-01
       -2   -1    0    0    0  501  0.00000000000E+00  0.00000000000E+00  0.12730167936E+04  0.12730167936E+04  0.25500000920E-02 0. -1.
        2   -1    0    0  501    0  0.00000000000E+00  0.00000000000E+00 -0.28348456508E+04  0.28348456508E+04  0.25500000920E-02 0.  1.
    10030    2    1    2    0    0  0.00000000000E+00  0.00000000000E+00 -0.15618288572E+04  0.41078624444E+04  0.37993715905E+04 0.  0.
        2    1    3    3  502    0 -0.97651081985E+03 -0.10356107521E+04 -0.21411349954E+04  0.25710935572E+04  0.25500000920E-02 0.  1.
       -2    1    3    3    0  502  0.97651081985E+03  0.10356107521E+04  0.57930613821E+03  0.15367688873E+04  0.25500000920E-02 0. -1.
</event>
<event>
 5   0  0.5207474E-08  0.3797889E+04  0.7818609E-02  0.8046608E-01
        2   -1    0    0  501    0  0.00000000000E+00  0.00000000000E+00  0.24951586504E+04  0.24951586504E+04  0.25500000920E-02 0.  1.
       -2   -1    0    0    0  501  0.00000000000E+00  0.00000000000E+00 -0.14451949233E+04  0.14451949233E+04  0.25500000920E-02 0. -1.
    10030    2    1    2    0    0  0.00000000000E+00  0.00000000000E+00  0.10499637272E+04  0.39403535737E+04  0.37978892108E+04 0.  0.
        4    1    3    3  502    0 -0.86264055950E+03  0.60701365078E+03 -0.11132926517E+04  0.15336350441E+04  0.12699999809E+01 0. -1.
       -4    1    3    3    0  502  0.86264055950E+03 -0.60701365078E+03  0.21632563789E+04  0.24067185296E+04  0.12699999809E+01 0.  1.
</event>
<event>
 5   0  0.1628250E-08  0.3814203E+04  0.7818609E-02  0.8043114E-01
        1   -1    0    0  501    0  0.00000000000E+00  0.00000000000E+00  0.13429111642E+04  0.13429111642E+04  0.50400001928E-02 0. -1.
       -1   -1    0    0    0  501  0.00000000000E+00  0.00000000000E+00 -0.27083220495E+04  0.27083220495E+04  0.50400001928E-02 0.  1.
    10030    2    1    2    0    0  0.00000000000E+00  0.00000000000E+00 -0.13654108853E+04  0.40512332137E+04  0.38142028874E+04 0.  0.
        1    1    3    3  502    0  0.48925804219E+03  0.10823525677E+04  0.90205325504E+03  0.14914960904E+04  0.50400001928E-02 0. -1.
       -1    1    3    3    0  502 -0.48925804219E+03 -0.10823525677E+04 -0.22674641404E+04  0.25597371233E+04  0.50400001928E-02 0.  1.
</event>
<event>
 5   0  0.1628250E-08  0.3798282E+04  0.7818609E-02  0.8046524E-01
       -1   -1    0    0    0  501  0.00000000000E+00  0.00000000000E+00  0.22793066563E+04  0.22793066563E+04  0.50400001928E-02 0.  1.
        1   -1    0    0  501    0  0.00000000000E+00  0.00000000000E+00 -0.15823831763E+04  0.15823831763E+04  0.50400001928E-02 0. -1.
    10030    2    1    2    0    0  0.00000000000E+00  0.00000000000E+00  0.69692347999E+03  0.38616898325E+04  0.37982819835E+04 0.  0.
        5    1    3    3  502    0 -0.17421757887E+04 -0.67103422544E+03 -0.55623868260E+01  0.18669537864E+04  0.46999998093E+01 0.  1.
       -5    1    3    3    0  502  0.17421757887E+04  0.67103422544E+03  0.70248586681E+03  0.19947360461E+04  0.46999998093E+01 0. -1.
</event>
<event>
 5   0  0.5086209E-08  0.3791170E+04  0.7818609E-02  0.8048052E-01
       -2   -1    0    0    0  501  0.00000000000E+00  0.00000000000E+00  0.15079378660E+04  0.15079378660E+04  0.25500000920E-02 0.  1.
        2   -1    0    0  501    0  0.00000000000E+00  0.00000000000E+00 -0.23828851123E+04  0.23828851123E+04  0.25500000920E-02 0. -1.
    10030    2    1    2    0    0  0.00000000000E+00  0.00000000000E+00 -0.87494724626E+03  0.38908229783E+04  0.37911701050E+04 0.  0.
        3    1    3    3  502    0 -0.25167677212E+03  0.16645515446E+04  0.45673245287E+03  0.17443272589E+04  0.10100000352E+00 0.  1.
       -3    1    3    3    0  502  0.25167677212E+03 -0.16645515446E+04 -0.13316796991E+04  0.21464957194E+04  0.10100000352E+00 0. -1.
</event>
<event>
 5   0  0.1628250E-08  0.3821977E+04  0.7818609E-02  0.8041455E-01
       -1   -1    0    0    0  501  0.00000000000E+00  0.00000000000E+00  0.16152049675E+04  0.16152049675E+04  0.50400001928E-02 0.  1.
        1   -1    0    0  501    0  0.00000000000E+00  0.00000000000E+00 -0.22609374903E+04  0.22609374903E+04  0.50400001928E-02 0. -1.
    10030    2    1    2    0    0  0.00000000000E+00  0.00000000000E+00 -0.64573252276E+03  0.38761424578E+04  0.38219772189E+04 0.  0.
        5    1    3    3  502    0 -0.36124294887E+03 -0.16442555301E+03  0.15729365736E+04  0.16222465241E+04  0.46999998093E+01 0.  1.
       -5    1    3    3    0  502  0.36124294887E+03  0.16442555301E+03 -0.22186690963E+04  0.22538959336E+04  0.46999998093E+01 0. -1.
</event>
<event>
 5   0  0.1628250E-08  0.3799905E+04  0.7818609E-02  0.8046175E-01
       -1   -1    0    0    0  501  0.00000000000E+00  0.00000000000E+00  0.20418590087E+04  0.20418590087E+04  0.50400001928E-02 0. -1.
        1   -1    0    0  501    0  0.00000000000E+00  0.00000000000E+00 -0.17679086411E+04  0.17679086411E+04  0.50400001928E-02 0.  1.
    10030    2    1    2    0    0  0.00000000000E+00  0.00000000000E+00  0.27395036760E+03  0.38097676497E+04  0.37999053595E+04 0.  0.
        4    1    3    3  502    0  0.11586774131E+04 -0.14431981610E+04  0.56758295680E+03  0.19358476968E+04  0.12699999809E+01 0. -1.
       -4    1    3    3    0  502 -0.11586774131E+04  0.14431981610E+04 -0.29363258920E+03  0.18739199529E+04  0.12699999809E+01 0.  1.
</event>
<event>
 5   0  0.5207474E-08  0.3799749E+04  0.7818609E-02  0.8046209E-01
        2   -1    0    0  501    0  0.00000000000E+00  0.00000000000E+00  0.21263435910E+04  0.21263435910E+04  0.25500000920E-02 0. -1.
       -2   -1    0    0    0  501  0.00000000000E+00  0.00000000000E+00 -0.16975255323E+04  0.16975255323E+04  0.25500000920E-02 0.  1.
    10030    2    1    2    0    0  0.00000000000E+00  0.00000000000E+00  0.42881805870E+03  0.38238691232E+04  0.37997486948E+04 0.  0.
        4    1    3    3  502    0 -0.81804101076E+03 -0.91607958978E+03 -0.12443192472E+04  0.17483491962E+04  0.12699999809E+01 0.  1.
       -4    1    3    3    0  502  0.81804101076E+03  0.91607958978E+03  0.16731373059E+04  0.20755199270E+04  0.12699999809E+01 0. -1.
</event>
<event>
 5   0  0.5147582E-08  0.3787784E+04  0.7818609E-02  0.8048782E-01
       -2   -1    0    0    0  501  0.00000000000E+00  0.00000000000E+00  0.17981279815E+04  0.17981279815E+04  0.25500000920E-02 0.  1.
        2   -1    0    0  501    0  0.00000000000E+00  0.00000000000E+00 -0.19947560878E+04  0.19947560878E+04  0.25500000920E-02 0. -1.
    10030    2    1    2    0    0  0.00000000000E+00  0.00000000000E+00 -0.19662810625E+03  0.37928840694E+04  0.37877839103E+04 0.  0.
        1    1    3    3  502    0  0.21768080721E+03 -0.11276349213E+04  0.14096623041E+04  0.18182665540E+04  0.50400001928E-02 0.  1.
       -1    1    3    3    0  502 -0.21768080721E+03  0.11276349213E+04 -0.16062904104E+04  0.19746175154E+04  0.50400001928E-02 0. -1.
</event>
<event>
 5   0  0.1666051E-08  0.3801046E+04  0.7818609E-02  0.8045930E-01
        1   -1    0    0  501    0  0.00000000000E+00  0.00000000000E+00  0.17076235229E+04  0.17076235229E+04  0.50400001928E-02 0. -1.
       -1   -1    0    0    0  501  0.00000000000E+00  0.00000000000E+00 -0.21152134754E+04  0.21152134754E+04  0.50400001928E-02 0.  1.
    10030    2    1    2    0    0  0.00000000000E+00  0.00000000000E+00 -0.40758995246E+03  0.38228369983E+04  0.38010463226E+04 0.  0.
        2    1    3    3  502    0 -0.54954033029E+03  0.15088351968E+04 -0.12261905507E+04  0.20204260671E+04  0.25500000920E-02 0.  1.
       -2    1    3    3    0  502  0.54954033029E+03 -0.15088351968E+04  0.81860059826E+03  0.18024109313E+04  0.25500000920E-02 0. -1.
</event>
<event>
 5   0  0.5140842E-08  0.3799003E+04  0.7818609E-02  0.8046369E-01
        2   -1    0    0  501    0  0.00000000000E+00  0.00000000000E+00  0.30084348315E+04  0.30084348315E+04  0.25500000920E-02 0.  1.
       -2   -1    0    0    0  501  0.00000000000E+00  0.00000000000E+00 -0.11993296408E+04  0.11993296408E+04  0.25500000920E-02 0. -1.
    10030    2    1    2    0    0  0.00000000000E+00  0.00000000000E+00  0.18091051907E+04  0.42077644723E+04  0.37990025353E+04 0.  0.
        2    1    3    3  502    0  0.10390326376E+04 -0.86296344778E+03 -0.57474712953E+03  0.14678654561E+04  0.25500000920E-02 0. -1.
       -2    1    3    3    0  502 -0.10390326376E+04  0.86296344778E+03  0.23838523203E+04  0.27398990162E+04  0.25500000920E-02 0.  1.
</event>
<event>
 5   0  0.5147582E-08  0.3799971E+04  0.7818609E-02  0.8046161E-01
        2   -1    0    0  501    0  0.00000000000E+00  0.00000000000E+00  0.12084895106E+04  0.12084895106E+04  0.25500000920E-02 0. -1.
       -2   -1    0    0    0  501  0.00000000000E+00  0.00000000000E+00 -0.29871551046E+04  0.29871551046E+04  0.25500000920E-02 0.  1.
    10030    2    1    2    0    0  0.00000000000E+00  0.00000000000E+00 -0.17786655941E+04  0.41956446152E+04  0.37999713738E+04 0.  0.
        1    1    3    3  502    0 -0.15561321605E+04 -0.77025133354E+03 -0.37572428254E+02  0.17367343220E+04  0.50400001928E-02 0. -1.
       -1    1    3    3    0  502  0.15561321605E+04  0.77025133354E+03 -0.17410931658E+04  0.24589102932E+04  0.50400001928E-02 0.  1.
</event>
<event>
 5   0  0.5086209E-08  0.3803277E+04  0.7818609E-02  0.8045452E-01
        2   -1    0    0  501    0  0.00000000000E+00  0.00000000000E+00  0.15270563048E+04  0.15270563048E+04  0.25500000920E-02 0. -1.
       -2   -1    0    0    0  501  0.00000000000E+00  0.00000000000E+00 -0.23681046604E+04  0.23681046604E+04  0.25500000920E-02 0.  1.
    10030    2    1    2    0    0  0.00000000000E+00  0.00000000000E+00 -0.84104835560E+03  0.38951609651E+04  0.38032770879E+04 0.  0.
        3    1    3    3  502    0  0.74703867715E+03  0.99574295974E+03 -0.18928427216E+04  0.22654854681E+04  0.10100000352E+00 0.  1.
       -3    1    3    3    0  502 -0.74703867715E+03 -0.99574295974E+03  0.10517943660E+04  0.16296754970E+04  0.10100000352E+00 0. -1.
</event>
<event>
 5   0  0.5140842E-08  0.3804885E+04  0.7818609E-02  0.8045107E-01
        2   -1    0    0  501    0  0.00000000000E+00  0.00000000000E+00  0.14352539751E+04  0.14352539751E+04  0.25500000920E-02 0. -1.
       -2   -1    0    0    0  501  0.00000000000E+00  0.00000000000E+00 -0.25217054791E+04  0.25217054791E+04  0.25500000920E-02 0.  1.
    10030    2    1    2    0    0  0.00000000000E+00  0.00000000000E+00 -0.10864515040E+04  0.39569594541E+04  0.38048851824E+04 0.  0.
        2    1    3    3  502    0  0.16766050937E+04 -0.80432247161E+03 -0.96096237973E+03  0.20931765272E+04  0.25500000920E-02 0.  1.
       -2    1    3    3    0  502 -0.16766050937E+04  0.80432247161E+03 -0.12548912427E+03  0.18637829270E+04  0.25500000920E-02 0. -1.
</event>
<event>
 5   0  0.1628250E-08  0.3791131E+04  0.7818609E-02  0.8048061E-01
       -1   -1    0    0    0  501  0.00000000000E+00  0.00000000000E+00  0.28844589426E+04  0.28844589426E+04  0.50400001928E-02 0.  1.
        1   -1    0    0  501    0  0.00000000000E+00  0.00000000000E+00 -0.12456996512E+04  0.12456996512E+04  0.50400001928E-02 0. -1.
    10030    2    1    2    0    0  0.00000000000E+00  0.00000000000E+00  0.16387592914E+04  0.41301585938E+04  0.37911314927E+04 0.  0.
        5    1    3    3  502    0  0.65301615990E+03  0.17741517388E+04  0.66880645214E+03  0.20053350487E+04  0.46999998093E+01 0.  1.
       -5    1    3    3    0  502 -0.65301615990E+03 -0.17741517388E+04  0.96995283930E+03  0.21248235451E+04  0.46999998093E+01 0. -1.
</event>
<event>
 5   0  0.5207474E-08  0.3835934E+04  0.7818609E-02  0.8038487E-01
       -2   -1    0    0    0  501  0.00000000000E+00  0.00000000000E+00  0.10760679724E+04  0.10760679724E+04  0.25500000920E-02 0.  1.
        2   -1    0    0  501    0  0.00000000000E+00  0.00000000000E+00 -0.34185545443E+04  0.34185545443E+04  0.25500000920E-02 0. -1.
    10030    2    1    2    0    0  0.00000000000E+00  0.00000000000E+00 -0.23424865719E+04  0.44946225167E+04  0.38359338144E+04 0.  0.
        4    1    3    3  502    0 -0.51493043561E+03 -0.16396529864E+04 -0.17357725978E+03  0.17273522939E+04  0.12699999809E+01 0.  1.
       -4    1    3    3    0  502  0.51493043561E+03  0.16396529864E+04 -0.21689093121E+04  0.27672702228E+04  0.12699999809E+01 0. -1.
</event>
<event>
 5   0  0.1628473E-08  0.3796365E+04  0.7818609E-02  0.8046935E-01
        1   -1    0    0  501    0  0.00000000000E+00  0.00000000000E+00  0.20989276750E+04  0.20989276750E+04  0.50400001928E-02 0. -1.
       -1   -1    0    0    0  501  0.00000000000E+00  0.00000000000E+00 -0.17166368754E+04  0.17166368754E+04  0.50400001928E-02 0.  1.
    10030    2    1    2    0    0  0.00000000000E+00  0.00000000000E+00  0.38229079963E+03  0.38155645504E+04  0.37963649169E+04 0.  0.
        3    1    3    3  502    0 -0.11323815820E+03 -0.17460947715E+04 -0.54839300119E+03  0.18336861033E+04  0.10100000352E+00 0.  1.
       -3    1    3    3    0  502  0.11323815820E+03  0.17460947715E+04  0.93068380082E+03  0.19818784470E+04  0.10100000352E+00 0. -1.
</event>
<event>
 5   0  0.1628473E-08  0.3806799E+04  0.7818609E-02  0.8044697E-01
        1   -1    0    0  501    0  0.00000000000E+00  0.00000000000E+00  0.20714213836E+04  0.20714213836E+04  0.50400001928E-02 0.  1.
       -1   -1    0    0    0  501  0.00000000000E+00  0.00000000000E+00 -0.17490064493E+04  0.17490064494E+04  0.50400001928E-02 0. -1.
    10030    2    1    2    0    0  0.00000000000E+00  0.00000000000E+00  0.32241493425E+03  0.38204278330E+04  0.38067988438E+04 0.  0.
        3    1    3    3  502    0  0.11402018166E+04  0.70210617443E+03 -0.11963794969E+04  0.17956439440E+04  0.10100000352E+00 0. -1.
       -3    1    3    3    0  502 -0.11402018166E+04 -0.70210617443E+03  0.15187944312E+04  0.20247838890E+04  0.10100000352E+00 0.  1.
</event>
<event>
 5   0  0.5086209E-08  0.3798344E+04  0.7818609E-02  0.8046510E-01
       -2   -1    0    0    0  501  0.00000000000E+00  0.00000000000E+00  0.19346397910E+04  0.19346397910E+04  0.25500000920E-02 0.  1.
        2   -1    0    0  501    0  0.00000000000E+00  0.00000000000E+00 -0.18643547752E+04  0.18643547752E+04  0.25500000920E-02 0. -1.
    10030    2    1    2    0    0  0.00000000000E+00  0.00000000000E+00  0.70285015841E+02  0.37989945662E+04  0.37983443407E+04 0.  0.
        3    1    3    3  502    0 -0.15788161436E+04  0.10508344282E+04  0.13486670599E+03  0.19013422757E+04  0.10100000352E+00 0.  1.
       -3    1    3    3    0  502  0.15788161436E+04 -0.10508344282E+04 -0.64581690145E+02  0.18976522905E+04  0.10100000352E+00 0. -1.
</event>
<event>
 5   0  0.1628473E-08  0.3803110E+04  0.7818609E-02  0.8045488E-01
        1   -1    0    0  501    0  0.00000000000E+00  0.00000000000E+00  0.25981200315E+04  0.25981200315E+04  0.50400001928E-02 0.  1.
       -1   -1    0    0    0  501  0.00000000000E+00  0.00000000000E+00 -0.13917411751E+04  0.13917411751E+04  0.50400001928E-02 0. -1.
    10030    2    1    2    0    0  0.00000000000E+00  0.00000000000E+00  0.12063788564E+04  0.39898612066E+04  0.38031095833E+04 0.  0.
        3    1    3    3  502    0 -0.32616193834E+03  0.16617973343E+04  0.15105036875E+04  0.22692671483E+04  0.10100000352E+00 0.  1.
       -3    1    3    3    0  502  0.32616193834E+03 -0.16617973343E+04 -0.30412483109E+03  0.17205940583E+04  0.10100000352E+00 0. -1.
</event>
<event>
 5   0  0.1628250E-08  0.3795350E+04  0.7818609E-02  0.8047153E-01
        1   -1    0    0  501    0  0.00000000000E+00  0.00000000000E+00  0.28208576511E+04  0.28208576511E+04  0.50400001928E-02 0. -1.
       -1   -1    0    0    0  501  0.00000000000E+00  0.00000000000E+00 -0.12766226168E+04  0.12766226168E+04  0.50400001928E-02 0.  1.
    10030    2    1    2    0    0  0.00000000000E+00  0.00000000000E+00  0.15442350343E+04  0.40974802680E+04  0.37953501426E+04 0.  0.
        4    1    3    3  502    0  0.53467537447E+03  0.10060858603E+04 -0.86628186270E+03  0.14312695040E+04  0.12699999809E+01 0.  1.
       -4    1    3    3    0  502 -0.53467537447E+03 -0.10060858603E+04  0.24105168970E+04  0.26662107640E+04  0.12699999809E+01 0. -1.
</event>
<event>
 5   0  0.1628250E-08  0.3797192E+04  0.7818609E-02  0.8046758E-01
        1   -1    0    0  501    0  0.00000000000E+00  0.00000000000E+00  0.16608292329E+04  0.16608292329E+04  0.50400001928E-02 0. -1.
       -1   -1    0    0    0  501  0.00000000000E+00  0.00000000000E+00 -0.21704015753E+04  0.21704015753E+04  0.50400001928E-02 0.  1.
    10030    2    1    2    0    0  0.00000000000E+00  0.00000000000E+00 -0.50957234238E+03  0.38312308082E+04  0.37971917957E+04 0.  0.
        5    1    3    3  502    0  0.16977482359E+02  0.10279786057E+04  0.13556472327E+04  0.17014199241E+04  0.46999998093E+01 0. -1.
       -5    1    3    3    0  502 -0.16977482359E+02 -0.10279786057E+04 -0.18652195751E+04  0.21298108841E+04  0.46999998093E+01 0.  1.
</event>
<event>
 5   0  0.1628250E-08  0.3813734E+04  0.7818609E-02  0.8043214E-01
       -1   -1    0    0    0  501  0.00000000000E+00  0.00000000000E+00  0.16744410244E+04  0.16744410245E+04  0.50400001928E-02 0.  1.
        1   -1    0    0  501    0  0.00000000000E+00  0.00000000000E+00 -0.21715560467E+04  0.21715560467E+04  0.50400001928E-02 0. -1.
    10030    2    1    2    0    0  0.00000000000E+00  0.00000000000E+00 -0.49711502223E+03  0.38459970711E+04  0.38137344068E+04 0.  0.
        4    1    3    3  502    0  0.33006272145E+03 -0.57468733184E+03 -0.20516804512E+04  0.21560615057E+04  0.12699999809E+01 0. -1.
       -4    1    3    3    0  502 -0.33006272145E+03  0.57468733184E+03  0.15545654290E+04  0.16899355655E+04  0.12699999809E+01 0.  1.
</event>
<event>
 5   0  0.5086209E-08  0.3819756E+04  0.7818609E-02  0.8041929E-01
       -2   -1    0    0    0  501  0.00000000000E+00  0.00000000000E+00  0.16448582363E+04  0.16448582363E+04  0.25500000920E-02 0.  1.
        2   -1    0    0  501    0  0.00000000000E+00  0.00000000000E+00 -0.22175972524E+04  0.22175972524E+04  0.25500000920E-02 0. -1.
    10030    2    1    2    0    0  0.00000000000E+00  0.00000000000E+00 -0.57273901611E+03  0.38624554887E+04  0.38197555448E+04 0.  0.
        3    1    3    3  502    0  0.13738527482E+04  0.41196204436E+03 -0.15615973636E+04  0.21203231914E+04  0.10100000352E+00 0. -1.
       -3    1    3    3    0  502 -0.13738527482E+04 -0.41196204436E+03  0.98885834747E+03  0.17421322973E+04  0.10100000352E+00 0.  1.
</event>
<event>
 5   0  0.1628250E-08  0.3796209E+04  0.7818609E-02  0.8046969E-01
       -1   -1    0    0    0  501  0.00000000000E+00  0.00000000000E+00  0.13760879269E+04  0.13760879269E+04  0.50400001928E-02 0. -1.
        1   -1    0    0  501    0  0.00000000000E+00  0.00000000000E+00 -0.26181470077E+04  0.26181470077E+04  0.50400001928E-02 0.  1.
    10030    2    1    2    0    0  0.00000000000E+00  0.00000000000E+00 -0.12420590808E+04  0.39942349346E+04  0.37962088921E+04 0.  0.
        1    1    3    3  502    0 -0.23229876971E+03  0.11685712538E+04  0.93364011480E+03  0.15136728040E+04  0.50400001928E-02 0. -1.
       -1    1    3    3    0  502  0.23229876971E+03 -0.11685712538E+04 -0.21756991956E+04  0.24805621305E+04  0.50400001928E-02 0.  1.
</event>
<event>
 5   0  0.5086209E-08  0.3795819E+04  0.7818609E-02  0.8047053E-01
       -2   -1    0    0    0  501  0.00000000000E+00  0.00000000000E+00  0.15236890622E+04  0.15236890622E+04  0.25500000920E-02 0.  1.
        2   -1    0    0  501    0  0.00000000000E+00  0.00000000000E+00 -0.23640387968E+04  0.23640387968E+04  0.25500000920E-02 0. -1.
    10030    2    1    2    0    0  0.00000000000E+00  0.00000000000E+00 -0.84034973453E+03  0.38877278590E+04  0.37958187825E+04 0.  0.
        3    1    3    3  502    0 -0.28249044336E+03 -0.13426008880E+04  0.92294404873E+03  0.16535427791E+04  0.10100000352E+00 0.  1.
       -3    1    3    3    0  502  0.28249044336E+03  0.13426008880E+04 -0.17632937833E+04  0.22341850799E+04  0.10100000352E+00 0. -1.
</event>
<event>
 5   0  0.5207474E-08  0.3801212E+04  0.7818609E-02  0.8045895E-01
       -2   -1    0    0    0  501  0.00000000000E+00  0.00000000000E+00  0.17161080339E+04  0.17161080339E+04  0.25500000920E-02 0.  1.
        2   -1    0    0  501    0  0.00000000000E+00  0.00000000000E+00 -0.21049396045E+04  0.21049396045E+04  0.25500000920E-02 0. -1.
    10030    2    1    2    0    0  0.00000000000E+00  0.00000000000E+00 -0.38883157062E+03  0.38210476384E+04  0.38012123151E+04 0.  0.
        4    1    3    3  502    0 -0.22745825155E+03  0.16785221870E+04  0.67213133897E+03  0.18223435840E+04  0.12699999809E+01 0.  1.
       -4    1    3    3    0  502  0.22745825155E+03 -0.16785221870E+04 -0.10609629096E+04  0.19987040543E+04  0.12699999809E+01 0. -1.
</event>
<event>
 5   0  0.1628250E-08  0.3791306E+04  0.7818609E-02  0.8048023E-01
        1   -1    0    0  501    0  0.00000000000E+00  0.00000000000E+00  0.15362013347E+04  0.15362013347E+04  0.50400001928E-02 0.  1.
       -1   -1    0    0    0  501  0.00000000000E+00  0.00000000000E+00 -0.23392116646E+04  0.23392116646E+04  0.50400001928E-02 0. -1.
    10030    2    1    2    0    0  0.00000000000E+00  0.00000000000E+00 -0.80301032995E+03  0.38754129993E+04  0.37913058866E+04 0.  0.
        1    1    3    3  502    0  0.64483819481E+03  0.14117147353E+04  0.71110151209E+03  0.17071672888E+04  0.50400001928E-02 0.  1.
       -1    1    3    3    0  502 -0.64483819481E+03 -0.14117147353E+04 -0.15141118420E+04  0.21682457106E+04  0.50400001928E-02 0. -1.
</event>
<event>
 5   0  0.1628250E-08  0.3806710E+04  0.7818609E-02  0.8044716E-01
        1   -1    0    0  501    0  0.00000000000E+00  0.00000000000E+00  0.15430143124E+04  0.15430143124E+04  0.50400001928E-02 0. -1.
       -1   -1    0    0    0  501  0.00000000000E+00  0.00000000000E+00 -0.23478461953E+04  0.23478461953E+04  0.50400001928E-02 0.  1.
    10030    2    1    2    0    0  0.00000000000E+00  0.00000000000E+00 -0.80483188284E+03  0.38908605077E+04  0.38067100140E+04 0.  0.
        1    1    3    3  502    0  0.96489960137E+03 -0.94223315142E+02  0.12717331981E+04  0.15991293260E+04  0.50400001928E-02 0. -1.
       -1    1    3    3    0  502 -0.96489960137E+03  0.94223315142E+02 -0.20765650810E+04  0.22917311818E+04  0.50400001928E-02 0.  1.
</event>
<event>
 5   0  0.5140842E-08  0.3791897E+04  0.7818609E-02  0.8047896E-01
       -2   -1    0    0    0  501  0.00000000000E+00  0.00000000000E+00  0.13991880526E+04  0.13991880526E+04  0.25500000920E-02 0. -1.
        2   -1    0    0  501    0  0.00000000000E+00  0.00000000000E+00 -0.25690757853E+04  0.25690757853E+04  0.25500000920E-02 0.  1.
    10030    2    1    2    0    0  0.00000000000E+00  0.00000000000E+00 -0.11698877327E+04  0.39682638379E+04  0.37918966995E+04 0.  0.
        2    1    3    3  502    0  0.14220469819E+04 -0.98387585238E+03  0.22864121474E+03  0.17442781076E+04  0.25500000920E-02 0. -1.
       -2    1    3    3    0  502 -0.14220469819E+04  0.98387585238E+03 -0.13985289474E+04  0.22239857303E+04  0.25500000920E-02 0.  1.
</event>
<event>
 5   0  0.5086209E-08  0.3842366E+04  0.7818609E-02  0.8037124E-01
        2   -1    0    0  501    0  0.00000000000E+00  0.00000000000E+00  0.24326068292E+04  0.24326068292E+04  0.25500000920E-02 0.  1.
       -2   -1    0    0    0  501  0.00000000000E+00  0.00000000000E+00 -0.15172796938E+04  0.15172796938E+04  0.25500000920E-02 0. -1.
    10030    2    1    2    0    0  0.00000000000E+00  0.00000000000E+00  0.91532713541E+03  0.39498865230E+04  0.38423664297E+04 0.  0.
        3    1    3    3  502    0  0.34643745420E+03  0.18873979321E+04  0.36202762135E+03  0.19527810611E+04  0.10100000352E+00 0. -1.
       -3    1    3    3    0  502 -0.34643745420E+03 -0.18873979321E+04  0.55329951406E+03  0.19971054620E+04  0.10100000352E+00 0.  1.
</event>
<event>
 5   0  0.1628250E-08  0.3806961E+04  0.7818609E-02  0.8044663E-01
       -1   -1    0    0    0  501  0.00000000000E+00  0.00000000000E+00  0.20705392120E+04  0.20705392120E+04  0.50400001928E-02 0. -1.
        1   -1    0    0  501    0  0.00000000000E+00  0.00000000000E+00 -0.17499006670E+04  0.17499006670E+04  0.50400001928E-02 0.  1.
    10030    2    1    2    0    0  0.00000000000E+00  0.00000000000E+00  0.32063854503E+03  0.38204398790E+04  0.38069609654E+04 0.  0.
        4    1    3    3  502    0 -0.10007717257E+04  0.15201479051E+04 -0.39918735686E+03  0.18632621552E+04  0.12699999809E+01 0.  1.
       -4    1    3    3    0  502  0.10007717257E+04 -0.15201479051E+04  0.71982590188E+03  0.19571777237E+04  0.12699999809E+01 0. -1.
</event>
<event>
 5   0  0.1666051E-08  0.3790137E+04  0.7818609E-02  0.8048275E-01
       -1   -1    0    0    0  501  0.00000000000E+00  0.00000000000E+00  0.16925209601E+04  0.16925209601E+04  0.50400001928E-02 0. -1.
        1   -1    0    0  501    0  0.00000000000E+00  0.00000000000E+00 -0.21218552398E+04  0.21218552398E+04  0.50400001928E-02 0.  1.
    10030    2    1    2    0    0  0.00000000000E+00  0.00000000000E+00 -0.42933427974E+03  0.38143762000E+04  0.37901369198E+04 0.  0.
        2    1    3    3  502    0 -0.53887174232E+02  0.18789461190E+04 -0.45691827619E+03  0.19344551318E+04  0.25500000920E-02 0. -1.
       -2    1    3    3    0  502  0.53887174232E+02 -0.18789461190E+04  0.27583996450E+02  0.18799210682E+04  0.25500000920E-02 0.  1.
</event>
<event>
 5   0  0.1628250E-08  0.3799409E+04  0.7818609E-02  0.8046282E-01
       -1   -1    0    0    0  501  0.00000000000E+00  0.00000000000E+00  0.28958345055E+04  0.28958345055E+04  0.50400001928E-02 0.  1.
        1   -1    0    0  501    0  0.00000000000E+00  0.00000000000E+00 -0.12462304871E+04  0.12462304872E+04  0.50400001928E-02 0. -1.
    10030    2    1    2    0    0  0.00000000000E+00  0.00000000000E+00  0.16496040184E+04  0.41420649927E+04  0.37994090312E+04 0.  0.
        1    1    3    3  502    0  0.58549489116E+03  0.11962843696E+04 -0.65197911865E+03  0.14828949159E+04  0.50400001928E-02 0. -1.
       -1    1    3    3    0  502 -0.58549489116E+03 -0.11962843696E+04  0.23015831370E+04  0.26591700768E+04  0.50400001928E-02 0.  1.
</event>
<event>
 5   0  0.5140842E-08  0.3795908E+04  0.7818609E-02  0.8047034E-01
        2   -1    0    0  501    0  0.00000000000E+00  0.00000000000E+00  0.12442183188E+04  0.12442183188E+04  0.25500000920E-02 0.  1.
       -2   -1    0    0    0  501  0.00000000000E+00  0.00000000000E+00 -0.28951746821E+04  0.28951746821E+04  0.25500000920E-02 0. -1.
    10030    2    1    2    0    0  0.00000000000E+00  0.00000000000E+00 -0.16509563633E+04  0.41393930010E+04  0.37959079945E+04 0.  0.
        2    1    3    3  502    0  0.13287450903E+04 -0.97046584824E+02 -0.22995536202E+04  0.26576170542E+04  0.25500000920E-02 0. -1.
       -2    1    3    3    0  502 -0.13287450903E+04  0.97046584824E+02  0.64859725692E+03  0.14817759467E+04  0.25500000920E-02 0.  1.
</event>
<event>
 5   0  0.1628250E-08  0.3805603E+04  0.7818609E-02  0.8044953E-01
       -1   -1    0    0    0  501  0.00000000000E+00  0.00000000000E+00  0.16527798316E+04  0.16527798316E+04  0.50400001928E-02 0. -1.
        1   -1    0    0  501    0  0.00000000000E+00  0.00000000000E+00 -0.21906452951E+04  0.21906452951E+04  0.50400001928E-02 0.  1.
    10030    2    1    2    0    0  0.00000000000E+00  0.00000000000E+00 -0.53786546348E+03  0.38434251266E+04  0.38056034275E+04 0.  0.
        5    1    3    3  502    0  0.25889735990E+03  0.18850719517E+04 -0.25842909714E+03  0.19202426395E+04  0.46999998093E+01 0.  1.
       -5    1    3    3    0  502 -0.25889735990E+03 -0.18850719517E+04 -0.27943636635E+03  0.19231824872E+04  0.46999998093E+01 0. -1.
</event>
<event>
 5   0  0.1628473E-08  0.3797113E+04  0.7818609E-02  0.8046775E-01
       -1   -1    0    0    0  501  0.00000000000E+00  0.00000000000E+00  0.12274388980E+04  0.12274388980E+04  0.50400001928E-02 0. -1.
        1   -1    0    0  501    0  0.00000000000E+00  0.00000000000E+00 -0.29366153294E+04  0.29366153294E+04  0.50400001928E-02 0.  1.
    10030    2    1    2    0    0  0.00000000000E+00  0.00000000000E+00 -0.17091764314E+04  0.41640542274E+04  0.37971125260E+04 0.  0.
        3    1    3    3  502    0  0.12952932234E+04  0.56821663604E+03 -0.22434092928E+04  0.26520821905E+04  0.10100000352E+00 0.  1.
       -3    1    3    3    0  502 -0.12952932234E+04 -0.56821663604E+03  0.53423286141E+03  0.15119720369E+04  0.10100000352E+00 0. -1.
</event>
<event>
 5   0  0.5086209E-08  0.3805745E+04  0.7818609E-02  0.8044923E-01
        2   -1    0    0  501    0  0.00000000000E+00  0.00000000000E+00  0.20518973467E+04  0.20518973467E+04  0.25500000920E-02 0.  1.
       -2   -1    0    0    0  501  0.00000000000E+00  0.00000000000E+00 -0.17646713318E+04  0.17646713318E+04  0.25500000920E-02 0. -1.
    10030    2    1    2    0    0  0.00000000000E+00  0.00000000000E+00  0.28722601493E+03  0.38165686785E+04  0.38057453533E+04 0.  0.
        3    1    3    3  502    0 -0.85652301787E+03 -0.16990214915E+04  0.11866849597E+03  0.19064070738E+04  0.10100000352E+00 0. -1.
       -3    1    3    3    0  502  0.85652301787E+03  0.16990214915E+04  0.16855751896E+03  0.19101616048E+04  0.10100000352E+00 0.  1.
</event>
<event>
 5   0  0.5086209E-08  0.3789347E+04  0.7818609E-02  0.8048445E-01
        2   -1    0    0  501    0  0.00000000000E+00  0.00000000000E+00  0.15111959335E+04  0.15111959335E+04  0.25500000920E-02 0.  1.
       -2   -1    0    0    0  501  0.00000000000E+00  0.00000000000E+00 -0.23754609277E+04  0.23754609277E+04  0.25500000920E-02 0. -1.
    10030    2    1    2    0    0  0.00000000000E+00  0.00000000000E+00 -0.86426499423E+03  0.38866568612E+04  0.37893465896E+04 0.  0.
        3    1    3    3  502    0 -0.16274816987E+03 -0.17318887067E+04 -0.12023228291E+04  0.21145934963E+04  0.10100000352E+00 0. -1.
       -3    1    3    3    0  502  0.16274816987E+03  0.17318887067E+04  0.33805783488E+03  0.17720633649E+04  0.10100000352E+00 0.  1.
</event>
<event>
 5   0  0.1628250E-08  0.3806270E+04  0.7818609E-02  0.8044811E-01
        1   -1    0    0  501    0  0.00000000000E+00  0.00000000000E+00  0.24342552605E+04  0.24342552605E+04  0.50400001928E-02 0.  1.
       -1   -1    0    0    0  501  0.00000000000E+00  0.00000000000E+00 -0.14878980161E+04  0.14878980161E+04  0.50400001928E-02 0. -1.
    10030    2    1    2    0    0  0.00000000000E+00  0.00000000000E+00  0.94635724439E+03  0.39221532767E+04  0.38062703913E+04 0.  0.
        1    1    3    3  502    0 -0.14583337346E+04 -0.57496125725E+03  0.15852032554E+04  0.22293916412E+04  0.50400001928E-02 0.  1.
       -1    1    3    3    0  502  0.14583337346E+04  0.57496125725E+03 -0.63884601101E+03  0.16927616355E+04  0.50400001928E-02 0. -1.
</event>
<event>
 5   0  0.5147582E-08  0.3800970E+04  0.7818609E-02  0.8045947E-01
        2   -1    0    0  501    0  0.00000000000E+00  0.00000000000E+00  0.26704426845E+04  0.26704426845E+04  0.25500000920E-02 0.  1.
       -2   -1    0    0    0  501  0.00000000000E+00  0.00000000000E+00 -0.13525260055E+04  0.13525260055E+04  0.25500000920E-02 0. -1.
    10030    2    1    2    0    0  0.00000000000E+00  0.00000000000E+00  0.13179166790E+04  0.40229686901E+04  0.38009699694E+04 0.  0.
        1    1    3    3  502    0 -0.75704008787E+03  0.11024359015E+04 -0.77022993977E+03  0.15432850585E+04  0.50400001928E-02 0. -1.
       -1    1    3    3    0  502  0.75704008787E+03 -0.11024359015E+04  0.20881466188E+04  0.24796836316E+04  0.50400001928E-02 0.  1.
</event>
<event>
 5   0  0.1628250E-08  0.3784467E+04  0.7818609E-02  0.8049496E-01
       -1   -1    0    0    0  501  0.00000000000E+00  0.00000000000E+00  0.26006848564E+04  0.26006848564E+04  0.50400001928E-02 0.  1.
        1   -1    0    0  501    0  0.00000000000E+00  0.00000000000E+00 -0.13767712742E+04  0.13767712742E+04  0.50400001928E-02 0. -1.
    10030    2    1    2    0    0  0.00000000000E+00  0.00000000000E+00  0.12239135823E+04  0.39774561306E+04  0.37844673092E+04 0.  0.
        4    1    3    3  502    0  0.53327139612E+02  0.18882117925E+04  0.49511642829E+03  0.19527748072E+04  0.12699999809E+01 0. -1.
       -4    1    3    3    0  502 -0.53327139612E+02 -0.18882117925E+04  0.72879715396E+03  0.20246813235E+04  0.12699999809E+01 0.  1.
</event>
<event>
 5   0  0.1628250E-08  0.3796602E+04  0.7818609E-02  0.8046884E-01
       -1   -1    0    0    0  501  0.00000000000E+00  0.00000000000E+00  0.18050533902E+04  0.18050533902E+04  0.50400001928E-02 0.  1.
        1   -1    0    0  501    0  0.00000000000E+00  0.00000000000E+00 -0.19963657670E+04  0.19963657670E+04  0.50400001928E-02 0. -1.
    10030    2    1    2    0    0  0.00000000000E+00  0.00000000000E+00 -0.19131237679E+03  0.38014191573E+04  0.37966020576E+04 0.  0.
        1    1    3    3  502    0 -0.92389705454E+03 -0.32284362886E+02 -0.17557461823E+04  0.19842562093E+04  0.50400001928E-02 0. -1.
       -1    1    3    3    0  502  0.92389705454E+03  0.32284362886E+02  0.15644338055E+04  0.18171629479E+04  0.50400001928E-02 0.  1.
</event>
<event>
 5   0  0.1628250E-08  0.3801713E+04  0.7818609E-02  0.8045787E-01
       -4   -1    0    0    0  501  0.00000000000E+00  0.00000000000E+00  0.20561900895E+04  0.20561904817E+04  0.12699999809E+01 0. -1.
        4   -1    0    0  501    0  0.00000000000E+00  0.00000000000E+00 -0.17572570320E+04  0.17572574910E+04  0.12699999809E+01 0.  1.
    10030    2    1    2    0    0  0.00000000000E+00  0.00000000000E+00  0.29893305746E+03  0.38134479727E+04  0.38017133594E+04 0.  0.
        3    1    3    3  502    0  0.12711078892E+04 -0.13773569340E+04 -0.16841655240E+03  0.18818053924E+04  0.10100000352E+00 0.  1.
       -3    1    3    3    0  502 -0.12711078892E+04  0.13773569340E+04  0.46734960986E+03  0.19316425802E+04  0.10100000352E+00 0. -1.
</event>
<event>
 5   0  0.5147582E-08  0.3829081E+04  0.7818609E-02  0.8039943E-01
        2   -1    0    0  501    0  0.00000000000E+00  0.00000000000E+00  0.22477346201E+04  0.22477346201E+04  0.25500000920E-02 0.  1.
       -2   -1    0    0    0  501  0.00000000000E+00  0.00000000000E+00 -0.16307375302E+04  0.16307375302E+04  0.25500000920E-02 0. -1.
    10030    2    1    2    0    0  0.00000000000E+00  0.00000000000E+00  0.61699708986E+03  0.38784721503E+04  0.38290809357E+04 0.  0.
        1    1    3    3  502    0  0.53745045087E+03 -0.85323961615E+02 -0.15507525113E+04  0.16434617479E+04  0.50400001928E-02 0. -1.
       -1    1    3    3    0  502 -0.53745045087E+03  0.85323961615E+02  0.21677496011E+04  0.22350104024E+04  0.50400001928E-02 0.  1.
</event>
<event>
 5   0  0.1628250E-08  0.3801907E+04  0.7818609E-02  0.8045746E-01
       -1   -1    0    0    0  501  0.00000000000E+00  0.00000000000E+00  0.10975609204E+04  0.10975609204E+04  0.50400001928E-02 0. -1.
        1   -1    0    0  501    0  0.00000000000E+00  0.00000000000E+00 -0.32924131583E+04  0.32924131583E+04  0.50400001928E-02 0.  1.
    10030    2    1    2    0    0  0.00000000000E+00  0.00000000000E+00 -0.21948522379E+04  0.43899740787E+04  0.38019068986E+04 0.  0.
        4    1    3    3  502    0  0.14509927286E+04  0.48419530110E+03  0.20577264667E+03  0.15434276734E+04  0.12699999809E+01 0. -1.
       -4    1    3    3    0  502 -0.14509927286E+04 -0.48419530110E+03 -0.24006248846E+04  0.28465464053E+04  0.12699999809E+01 0.  1.
</event>
<event>
 5   0  0.1666051E-08  0.3796818E+04  0.7818609E-02  0.8046838E-01
        1   -1    0    0  501    0  0.00000000000E+00  0.00000000000E+00  0.16196785664E+04  0.16196785664E+04  0.50400001928E-02 0. -1.
       -1   -1    0    0    0  501  0.00000000000E+00  0.00000000000E+00 -0.22251062927E+04  0.22251062927E+04  0.50400001928E-02 0.  1.
    10030    2    1    2    0    0  0.00000000000E+00  0.00000000000E+00 -0.60542772625E+03  0.38447848591E+04  0.37968181259E+04 0.  0.
        2    1    3    3  502    0  0.41663904976E+03  0.12701309037E+03 -0.21738227112E+04  0.22170308078E+04  0.25500000920E-02 0.  1.
       -2    1    3    3    0  502 -0.41663904976E+03 -0.12701309037E+03  0.15683949849E+04  0.16277540514E+04  0.25500000920E-02 0. -1.
</event>
<event>
 5   0  0.5140842E-08  0.3787027E+04  0.7818609E-02  0.8048945E-01
        2   -1    0    0  501    0  0.00000000000E+00  0.00000000000E+00  0.17655143923E+04  0.17655143923E+04  0.25500000920E-02 0. -1.
       -2   -1    0    0    0  501  0.00000000000E+00  0.00000000000E+00 -0.20307926340E+04  0.20307926340E+04  0.25500000920E-02 0.  1.
    10030    2    1    2    0    0  0.00000000000E+00  0.00000000000E+00 -0.26527824170E+03  0.37963070263E+04  0.37870271312E+04 0.  0.
        2    1    3    3  502    0 -0.14357034001E+04  0.10812737133E+04 -0.72991498375E+03  0.19398899401E+04  0.25500000920E-02 0.  1.
       -2    1    3    3    0  502  0.14357034001E+04 -0.10812737133E+04  0.46463674205E+03  0.18564170862E+04  0.25500000920E-02 0. -1.
</event>
<event>
 5   0  0.1628473E-08  0.3802414E+04  0.7818609E-02  0.8045637E-01
        1   -1    0    0  501    0  0.00000000000E+00  0.00000000000E+00  0.29570005804E+04  0.29570005804E+04  0.50400001928E-02 0.  1.
       -1   -1    0    0    0  501  0.00000000000E+00  0.00000000000E+00 -0.12223829961E+04  0.12223829962E+04  0.50400001928E-02 0. -1.
    10030    2    1    2    0    0  0.00000000000E+00  0.00000000000E+00  0.17346175843E+04  0.41793835766E+04  0.38024135647E+04 0.  0.
        3    1    3    3  502    0 -0.14821910906E+04  0.10167726490E+03  0.21712417274E+04  0.26308780558E+04  0.10100000352E+00 0.  1.
       -3    1    3    3    0  502  0.14821910906E+04 -0.10167726490E+03 -0.43662414313E+03  0.15485055208E+04  0.10100000352E+00 0. -1.
</event>
<event>
 5   0  0.5159761E-08  0.3799804E+04  0.7818609E-02  0.8046197E-01
       -2   -1    0    0    0  501  0.00000000000E+00  0.00000000000E+00  0.21208792303E+04  0.21208792303E+04  0.25500000920E-02 0. -1.
        2   -1    0    0  501    0  0.00000000000E+00  0.00000000000E+00 -0.17019490758E+04  0.17019490758E+04  0.25500000920E-02 0.  1.
    10030    2    1    2    0    0  0.00000000000E+00  0.00000000000E+00  0.41893015452E+03  0.38228283061E+04  0.37998044402E+04 0.  0.
        5    1    3    3  502    0  0.70834998864E+03  0.62941941490E+03 -0.14472300466E+04  0.17298628281E+04  0.46999998093E+01 0.  1.
       -5    1    3    3    0  502 -0.70834998864E+03 -0.62941941490E+03  0.18661602011E+04  0.20929654781E+04  0.46999998093E+01 0. -1.
</event>
<event>
 5   0  0.1628473E-08  0.3793911E+04  0.7818609E-02  0.8047463E-01
       -1   -1    0    0    0  501  0.00000000000E+00  0.00000000000E+00  0.16582086000E+04  0.16582086001E+04  0.50400001928E-02 0. -1.
        1   -1    0    0  501    0  0.00000000000E+00  0.00000000000E+00 -0.21700771454E+04  0.21700771454E+04  0.50400001928E-02 0.  1.
    10030    2    1    2    0    0  0.00000000000E+00  0.00000000000E+00 -0.51186854537E+03  0.38282857455E+04  0.37939112195E+04 0.  0.
        3    1    3    3  502    0  0.88544665150E+03 -0.33724191905E+03 -0.19142024515E+04  0.21358649115E+04  0.10100000352E+00 0.  1.
       -3    1    3    3    0  502 -0.88544665150E+03  0.33724191905E+03  0.14023339062E+04  0.16924208340E+04  0.10100000352E+00 0. -1.
</event>
<event>
 5   0  0.5140842E-08  0.3798122E+04  0.7818609E-02  0.8046558E-01
        2   -1    0    0  501    0  0.00000000000E+00  0.00000000000E+00  0.12307004416E+04  0.12307004416E+04  0.25500000920E-02 0.  1.
       -2   -1    0    0    0  501  0.00000000000E+00  0.00000000000E+00 -0.29303905565E+04  0.29303905565E+04  0.25500000920E-02 0. -1.
    10030    2    1    2    0    0  0.00000000000E+00  0.00000000000E+00 -0.16996901149E+04  0.41610909981E+04  0.37981221423E+04 0.  0.
        2    1    3    3  502    0  0.62182955732E+03 -0.16344782884E+04 -0.16610382746E+04  0.24118954006E+04  0.25500000920E-02 0. -1.
       -2    1    3    3    0  502 -0.62182955732E+03  0.16344782884E+04 -0.38651840288E+02  0.17491955975E+04  0.25500000920E-02 0.  1.
</event>
<event>
 5   0  0.5140842E-08  0.3808480E+04  0.7818609E-02  0.8044338E-01
       -2   -1    0    0    0  501  0.00000000000E+00  0.00000000000E+00  0.16844736338E+04  0.16844736338E+04  0.25500000920E-02 0.  1.
        2   -1    0    0  501    0  0.00000000000E+00  0.00000000000E+00 -0.21526783186E+04  0.21526783186E+04  0.25500000920E-02 0. -1.
    10030    2    1    2    0    0  0.00000000000E+00  0.00000000000E+00 -0.46820468478E+03  0.38371519524E+04  0.38084799434E+04 0.  0.
        2    1    3    3  502    0 -0.20142165009E+03 -0.16604317137E+04  0.68298419995E+03  0.18066741749E+04  0.25500000920E-02 0.  1.
       -2    1    3    3    0  502  0.20142165009E+03  0.16604317137E+04 -0.11511888847E+04  0.20304777776E+04  0.25500000920E-02 0. -1.
</event>
<event>
 5   0  0.1628250E-08  0.3900965E+04  0.7818609E-02  0.8024828E-01
       -1   -1    0    0    0  501  0.00000000000E+00  0.00000000000E+00  0.22287595371E+04  0.22287595371E+04  0.50400001928E-02 0.  1.
        1   -1    0    0  501    0  0.00000000000E+00  0.00000000000E+00 -0.17069508231E+04  0.17069508231E+04  0.50400001928E-02 0. -1.
    10030    2    1    2    0    0  0.00000000000E+00  0.00000000000E+00  0.52180871400E+03  0.39357103603E+04  0.39009654838E+04 0.  0.
        1    1    3    3  502    0  0.53645774501E+03  0.15961367944E+04  0.12540208973E+04  0.20995256582E+04  0.50400001928E-02 0.  1.
       -1    1    3    3    0  502 -0.53645774501E+03 -0.15961367944E+04 -0.73221218334E+03  0.18361847020E+04  0.50400001928E-02 0. -1.
</event>
<event>
 5   0  0.5086209E-08  0.3795348E+04  0.7818609E-02  0.8047154E-01
        2   -1    0    0  501    0  0.00000000000E+00  0.00000000000E+00  0.29148164168E+04  0.29148164168E+04  0.25500000920E-02 0.  1.
       -2   -1    0    0    0  501  0.00000000000E+00  0.00000000000E+00 -0.12354695980E+04  0.12354695980E+04  0.25500000920E-02 0. -1.
    10030    2    1    2    0    0  0.00000000000E+00  0.00000000000E+00  0.16793468188E+04  0.41502860148E+04  0.37953482405E+04 0.  0.
        3    1    3    3  502    0  0.87764458982E+03  0.10067069615E+04  0.23138768082E+04  0.26716558210E+04  0.10100000352E+00 0.  1.
       -3    1    3    3    0  502 -0.87764458982E+03 -0.10067069615E+04 -0.63452998934E+03  0.14786301938E+04  0.10100000352E+00 0. -1.
</event>
<event>
 5   0  0.5140842E-08  0.3789912E+04  0.7818609E-02  0.8048323E-01
       -2   -1    0    0    0  501  0.00000000000E+00  0.00000000000E+00  0.13896953077E+04  0.13896953077E+04  0.25500000920E-02 0.  1.
        2   -1    0    0  501    0  0.00000000000E+00  0.00000000000E+00 -0.25839171878E+04  0.25839171878E+04  0.25500000920E-02 0. -1.
    10030    2    1    2    0    0  0.00000000000E+00  0.00000000000E+00 -0.11942218801E+04  0.39736124955E+04  0.37899116567E+04 0.  0.
        2    1    3    3  502    0  0.50695876565E+03  0.65240427484E+03 -0.23851211094E+04  0.25241713956E+04  0.25500000920E-02 0. -1.
       -2    1    3    3    0  502 -0.50695876565E+03 -0.65240427484E+03  0.11908992292E+04  0.14494410999E+04  0.25500000920E-02 0.  1.
</event>
<event>
 5   0  0.1628473E-08  0.3797668E+04  0.7818609E-02  0.8046656E-01
        1   -1    0    0  501    0  0.00000000000E+00  0.00000000000E+00  0.12513191926E+04  0.12513191926E+04  0.50400001928E-02 0. -1.
       -1   -1    0    0    0  501  0.00000000000E+00  0.00000000000E+00 -0.28814151428E+04  0.28814151428E+04  0.50400001928E-02 0.  1.
    10030    2    1    2    0    0  0.00000000000E+00  0.00000000000E+00 -0.16300959502E+04  0.41327343354E+04  0.37976677422E+04 0.  0.
        3    1    3    3  502    0 -0.32504033576E+02  0.14671441361E+04 -0.21263540553E+04  0.25835924615E+04  0.10100000352E+00 0.  1.
       -3    1    3    3    0  502  0.32504033576E+02 -0.14671441361E+04  0.49625810516E+03  0.15491418739E+04  0.10100000352E+00 0. -1.
</event>
<event>
 5   0  0.1628250E-08  0.3800191E+04  0.7818609E-02  0.8046114E-01
       -1   -1    0    0    0  501  0.00000000000E+00  0.00000000000E+00  0.13256962993E+04  0.13256962994E+04  0.50400001928E-02 0. -1.
        1   -1    0    0  501    0  0.00000000000E+00  0.00000000000E+00 -0.27233706268E+04  0.27233706268E+04  0.50400001928E-02 0.  1.
    10030    2    1    2    0    0  0.00000000000E+00  0.00000000000E+00 -0.13976743274E+04  0.40490669261E+04  0.38001907119E+04 0.  0.
        5    1    3    3  502    0  0.51687363878E+03 -0.16836481454E+04  0.60963500343E+02  0.17622622037E+04  0.46999998093E+01 0. -1.
       -5    1    3    3    0  502 -0.51687363878E+03  0.16836481454E+04 -0.14586378278E+04  0.22868047225E+04  0.46999998093E+01 0.  1.
</event>
<event>
 5   0  0.1628250E-08  0.3799115E+04  0.7818609E-02  0.8046345E-01
       -1   -1    0    0    0  501  0.00000000000E+00  0.00000000000E+00  0.15235061216E+04  0.15235061216E+04  0.50400001928E-02 0.  1.
        1   -1    0    0  501    0  0.00000000000E+00  0.00000000000E+00 -0.23684310709E+04  0.23684310709E+04  0.50400001928E-02 0. -1.
    10030    2    1    2    0    0  0.00000000000E+00  0.00000000000E+00 -0.84492494930E+03  0.38919371925E+04  0.37991152839E+04 0.  0.
        4    1    3    3  502    0  0.16468098045E+04  0.34266998237E+03  0.48166080560E+03  0.17496868273E+04  0.12699999809E+01 0. -1.
       -4    1    3    3    0  502 -0.16468098045E+04 -0.34266998237E+03 -0.13265857549E+04  0.21422503652E+04  0.12699999809E+01 0.  1.
</event>
<event>
 5   0  0.5086209E-08  0.3809193E+04  0.7818609E-02  0.8044185E-01
        2   -1    0    0  501    0  0.00000000000E+00  0.00000000000E+00  0.13428106118E+04  0.13428106118E+04  0.25500000920E-02 0.  1.
       -2   -1    0    0    0  501  0.00000000000E+00  0.00000000000E+00 -0.27014138744E+04  0.27014138744E+04  0.25500000920E-02 0. -1.
    10030    2    1    2    0    0  0.00000000000E+00  0.00000000000E+00 -0.13586032626E+04  0.40442244862E+04  0.38091926795E+04 0.  0.
        3    1    3    3  502    0 -0.14400851013E+04  0.12150050606E+04 -0.97468517085E+03  0.21213424025E+04  0.10100000352E+00 0.  1.
       -3    1    3    3    0  502  0.14400851013E+04 -0.12150050606E+04 -0.38391809174E+03  0.19228820837E+04  0.10100000352E+00 0. -1.
</event>
<event>
 5   0  0.5140842E-08  0.3794274E+04  0.7818609E-02  0.8047385E-01
       -2   -1    0    0    0  501  0.00000000000E+00  0.00000000000E+00  0.25424599109E+04  0.25424599109E+04  0.25500000920E-02 0. -1.
        2   -1    0    0  501    0  0.00000000000E+00  0.00000000000E+00 -0.14156091754E+04  0.14156091754E+04  0.25500000920E-02 0.  1.
    10030    2    1    2    0    0  0.00000000000E+00  0.00000000000E+00  0.11268507355E+04  0.39580690863E+04  0.37942744118E+04 0.  0.
        2    1    3    3  502    0 -0.23262802817E+03 -0.14687174031E+04  0.17923664330E+04  0.23289104834E+04  0.25500000920E-02 0. -1.
       -2    1    3    3    0  502  0.23262802817E+03  0.14687174031E+04 -0.66551569750E+03  0.16291586029E+04  0.25500000920E-02 0.  1.
</event>
<event>
 5   0  0.5207474E-08  0.3787405E+04  0.7818609E-02  0.8048863E-01
        2   -1    0    0  501    0  0.00000000000E+00  0.00000000000E+00  0.20597232609E+04  0.20597232609E+04  0.25500000920E-02 0.  1.
       -2   -1    0    0    0  501  0.00000000000E+00  0.00000000000E+00 -0.17410636954E+04  0.17410636954E+04  0.25500000920E-02 0. -1.
    10030    2    1    2    0    0  0.00000000000E+00  0.00000000000E+00  0.31865956548E+03  0.38007869563E+04  0.37874051234E+04 0.  0.
        4    1    3    3  502    0  0.18402735761E+04  0.23520568983E+03  0.54038078863E+03  0.19323409536E+04  0.12699999809E+01 0.  1.
       -4    1    3    3    0  502 -0.18402735761E+04 -0.23520568983E+03 -0.22172122315E+03  0.18684460027E+04  0.12699999809E+01 0. -1.
</event>
<event>
 5   0  0.1666051E-08  0.3797516E+04  0.7818609E-02  0.8046688E-01
        1   -1    0    0  501    0  0.00000000000E+00  0.00000000000E+00  0.13785108486E+04  0.13785108486E+04  0.50400001928E-02 0. -1.
       -1   -1    0    0    0  501  0.00000000000E+00  0.00000000000E+00 -0.26153454227E+04  0.26153454227E+04  0.50400001928E-02 0.  1.
    10030    2    1    2    0    0  0.00000000000E+00  0.00000000000E+00 -0.12368345741E+04  0.39938562713E+04  0.37975160503E+04 0.  0.
        2    1    3    3  502    0  0.91147224113E+03  0.16599782803E+04 -0.47355507834E+03  0.19520665843E+04  0.25500000920E-02 0. -1.
       -2    1    3    3    0  502 -0.91147224113E+03 -0.16599782803E+04 -0.76327949571E+03  0.20417896870E+04  0.25500000920E-02 0.  1.
</event>
<event>
 5   0  0.5147582E-08  0.3798176E+04  0.7818609E-02  0.8046546E-01
       -2   -1    0    0    0  501  0.00000000000E+00  0.00000000000E+00  0.15412591105E+04  0.15412591105E+04  0.25500000920E-02 0. -1.
        2   -1    0    0  501    0  0.00000000000E+00  0.00000000000E+00 -0.23399925700E+04  0.23399925700E+04  0.25500000920E-02 0.  1.
    10030    2    1    2    0    0  0.00000000000E+00  0.00000000000E+00 -0.79873345952E+03  0.38812516805E+04  0.37981758079E+04 0.  0.
        1    1    3    3  502    0  0.28984844422E+03 -0.24003692560E+03  0.15027729682E+04  0.15491792796E+04  0.50400001928E-02 0. -1.
       -1    1    3    3    0  502 -0.28984844422E+03  0.24003692560E+03 -0.23015064277E+04  0.23320724009E+04  0.50400001928E-02 0.  1.
</event>
<event>
 5   0  0.5140842E-08  0.3801494E+04  0.7818609E-02  0.8045834E-01
       -2   -1    0    0    0  501  0.00000000000E+00  0.00000000000E+00  0.20019846065E+04  0.20019846065E+04  0.25500000920E-02 0.  1.
        2   -1    0    0  501    0  0.00000000000E+00  0.00000000000E+00 -0.18046292987E+04  0.18046292987E+04  0.25500000920E-02 0. -1.
    10030    2    1    2    0    0  0.00000000000E+00  0.00000000000E+00  0.19735530788E+03  0.38066139052E+04  0.38014944832E+04 0.  0.
        2    1    3    3  502    0  0.51271282928E+03  0.22697189964E+03  0.19172868273E+04  0.19975934188E+04  0.25500000920E-02 0.  1.
       -2    1    3    3    0  502 -0.51271282928E+03 -0.22697189964E+03 -0.17199315195E+04  0.18090204864E+04  0.25500000920E-02 0. -1.
</event>
<event>
 5   0  0.1628250E-08  0.3802754E+04  0.7818609E-02  0.8045564E-01
       -1   -1    0    0    0  501  0.00000000000E+00  0.00000000000E+00  0.30898063817E+04  0.30898063817E+04  0.50400001928E-02 0.  1.
        1   -1    0    0  501    0  0.00000000000E+00  0.00000000000E+00 -0.11700519080E+04  0.11700519080E+04  0.50400001928E-02 0. -1.
    10030    2    1    2    0    0  0.00000000000E+00  0.00000000000E+00  0.19197544737E+04  0.42598582897E+04  0.38027536614E+04 0.  0.
        1    1    3    3  502    0  0.12071918573E+04  0.78152611882E+03 -0.43347708574E+03  0.15019978823E+04  0.50400001928E-02 0. -1.
       -1    1    3    3    0  502 -0.12071918573E+04 -0.78152611882E+03  0.23532315594E+04  0.27578604074E+04  0.50400001928E-02 0.  1.
</event>
<event>
 5   0  0.1628250E-08  0.3787880E+04  0.7818609E-02  0.8048761E-01
        1   -1    0    0  501    0  0.00000000000E+00  0.00000000000E+00  0.22012584528E+04  0.22012584528E+04  0.50400001928E-02 0. -1.
       -1   -1    0    0    0  501  0.00000000000E+00  0.00000000000E+00 -0.16295260976E+04  0.16295260976E+04  0.50400001928E-02 0.  1.
    10030    2    1    2    0    0  0.00000000000E+00  0.00000000000E+00  0.57173235523E+03  0.38307845504E+04  0.37878796689E+04 0.  0.
        5    1    3    3  502    0 -0.18248462141E+04  0.17770574744E+03  0.76594611703E+03  0.19870426724E+04  0.46999998093E+01 0. -1.
       -5    1    3    3    0  502  0.18248462141E+04 -0.17770574744E+03 -0.19421376180E+03  0.18437418781E+04  0.46999998093E+01 0.  1.
</event>
<event>
 5   0  0.1628250E-08  0.3798720E+04  0.7818609E-02  0.8046430E-01
       -1   -1    0    0    0  501  0.00000000000E+00  0.00000000000E+00  0.12982192388E+04  0.12982192388E+04  0.50400001928E-02 0.  1.
        1   -1    0    0  501    0  0.00000000000E+00  0.00000000000E+00 -0.27788595691E+04  0.27788595691E+04  0.50400001928E-02 0. -1.
    10030    2    1    2    0    0  0.00000000000E+00  0.00000000000E+00 -0.14806403303E+04  0.40770788079E+04  0.37987202869E+04 0.  0.
        4    1    3    3  502    0 -0.75014472444E+03  0.17218704657E+04 -0.43672821064E+03  0.19282863250E+04  0.12699999809E+01 0. -1.
       -4    1    3    3    0  502  0.75014472444E+03 -0.17218704657E+04 -0.10439121197E+04  0.21487924829E+04  0.12699999809E+01 0.  1.
</event>
<event>
 5   0  0.1628473E-08  0.3802189E+04  0.7818609E-02  0.8045685E-01
       -1   -1    0    0    0  501  0.00000000000E+00  0.00000000000E+00  0.15702350683E+04  0.15702350684E+04  0.50400001928E-02 0. -1.
        1   -1    0    0  501    0  0.00000000000E+00  0.00000000000E+00 -0.23016684073E+04  0.23016684073E+04  0.50400001928E-02 0.  1.
    10030    2    1    2    0    0  0.00000000000E+00  0.00000000000E+00 -0.73143333896E+03  0.38719034757E+04  0.38021890794E+04 0.  0.
        3    1    3    3  502    0  0.13480603646E+04  0.88077844073E+03  0.66331762248E+03  0.17415589817E+04  0.10100000352E+00 0. -1.
       -3    1    3    3    0  502 -0.13480603646E+04 -0.88077844073E+03 -0.13947509614E+04  0.21303444940E+04  0.10100000352E+00 0.  1.
</event>
<event>
 5   0  0.5086209E-08  0.3799403E+04  0.7818609E-02  0.8046283E-01
       -2   -1    0    0    0  501  0.00000000000E+00  0.00000000000E+00  0.18894016345E+04  0.18894016345E+04  0.25500000920E-02 0.  1.
        2   -1    0    0  501    0  0.00000000000E+00  0.00000000000E+00 -0.19100571055E+04  0.19100571055E+04  0.25500000920E-02 0. -1.
    10030    2    1    2    0    0  0.00000000000E+00  0.00000000000E+00 -0.20655470990E+02  0.37994587400E+04  0.37994025936E+04 0.  0.
        3    1    3    3  502    0 -0.16847566366E+04  0.15678114957E+03  0.85332832937E+03  0.18950341689E+04  0.10100000352E+00 0. -1.
       -3    1    3    3    0  502  0.16847566366E+04 -0.15678114957E+03 -0.87398380036E+03  0.19044245711E+04  0.10100000352E+00 0.  1.
</event>
<event>
 5   0  0.1628250E-08  0.3803344E+04  0.7818609E-02  0.8045438E-01
        1   -1    0    0  501    0  0.00000000000E+00  0.00000000000E+00  0.16786779348E+04  0.16786779348E+04  0.50400001928E-02 0. -1.
       -1   -1    0    0    0  501  0.00000000000E+00  0.00000000000E+00 -0.21542886349E+04  0.21542886349E+04  0.50400001928E-02 0.  1.
    10030    2    1    2    0    0  0.00000000000E+00  0.00000000000E+00 -0.47561070012E+03  0.38329665698E+04  0.38033442109E+04 0.  0.
        4    1    3    3  502    0 -0.23703207872E+03 -0.12844793456E+04  0.11550895385E+04  0.17436469971E+04  0.12699999809E+01 0. -1.
       -4    1    3    3    0  502  0.23703207872E+03  0.12844793456E+04 -0.16307002386E+04  0.20893195727E+04  0.12699999809E+01 0.  1.
</event>
<event>
 5   0  0.5147582E-08  0.3820166E+04  0.7818609E-02  0.8041841E-01
        2   -1    0    0  501    0  0.00000000000E+00  0.00000000000E+00  0.17648718251E+04  0.17648718251E+04  0.25500000920E-02 0. -1.
       -2   -1    0    0    0  501  0.00000000000E+00  0.00000000000E+00 -0.20672415002E+04  0.20672415002E+04  0.25500000920E-02 0.  1.
    10030    2    1    2    0    0  0.00000000000E+00  0.00000000000E+00 -0.30236967512E+03  0.38321133253E+04  0.38201655877E+04 0.  0.
        1    1    3    3  502    0  0.17781424883E+03  0.10675138593E+04 -0.17300236349E+04  0.20406336085E+04  0.50400001928E-02 0.  1.
       -1    1    3    3    0  502 -0.17781424883E+03 -0.10675138593E+04  0.14276539598E+04  0.17914797168E+04  0.50400001928E-02 0. -1.
</event>
<event>
 5   0  0.1666051E-08  0.3782619E+04  0.7818609E-02  0.8049895E-01
       -1   -1    0    0    0  501  0.00000000000E+00  0.00000000000E+00  0.13668094299E+04  0.13668094299E+04  0.50400001928E-02 0.  1.
        1   -1    0    0  501    0  0.00000000000E+00  0.00000000000E+00 -0.26170811011E+04  0.26170811011E+04  0.50400001928E-02 0. -1.
    10030    2    1    2    0    0  0.00000000000E+00  0.00000000000E+00 -0.12502716712E+04  0.39838905311E+04  0.37826187373E+04 0.  0.
        2    1    3    3  502    0 -0.64611108835E+03  0.11747783974E+03 -0.24931481221E+04  0.25781869871E+04  0.25500000920E-02 0. -1.
       -2    1    3    3    0  502  0.64611108835E+03 -0.11747783974E+03  0.12428764509E+04  0.14057035440E+04  0.25500000920E-02 0.  1.
</event>
<event>
 5   0  0.1628473E-08  0.3809549E+04  0.7818609E-02  0.8044109E-01
        1   -1    0    0  501    0  0.00000000000E+00  0.00000000000E+00  0.13821230540E+04  0.13821230540E+04  0.50400001928E-02 0.  1.
       -1   -1    0    0    0  501  0.00000000000E+00  0.00000000000E+00 -0.26250673468E+04  0.26250673468E+04  0.50400001928E-02 0. -1.
    10030    2    1    2    0    0  0.00000000000E+00  0.00000000000E+00 -0.12429442928E+04  0.40071904008E+04  0.38095491063E+04 0.  0.
        3    1    3    3  502    0 -0.98967795683E+03 -0.51700143894E+03  0.10017717375E+04  0.15000998535E+04  0.10100000352E+00 0.  1.
       -3    1    3    3    0  502  0.98967795683E+03  0.51700143894E+03 -0.22447160302E+04  0.25070905474E+04  0.10100000352E+00 0. -1.
</event>
<event>
 5   0  0.5207474E-08  0.3796760E+04  0.7818609E-02  0.8046851E-01
        2   -1    0    0  501    0  0.00000000000E+00  0.00000000000E+00  0.12753547302E+04  0.12753547302E+04  0.25500000920E-02 0. -1.
       -2   -1    0    0    0  501  0.00000000000E+00  0.00000000000E+00 -0.28257595389E+04  0.28257595389E+04  0.25500000920E-02 0.  1.
    10030    2    1    2    0    0  0.00000000000E+00  0.00000000000E+00 -0.15504048086E+04  0.41011142691E+04  0.37967595628E+04 0.  0.
        4    1    3    3  502    0 -0.41022784670E+03 -0.18524511131E+04 -0.84336539163E+03  0.20763257955E+04  0.12699999809E+01 0.  1.
       -4    1    3    3    0  502  0.41022784670E+03  0.18524511131E+04 -0.70703941698E+03  0.20247884736E+04  0.12699999809E+01 0. -1.
</event>
<event>
 5   0  0.1628250E-08  0.3798014E+04  0.7818609E-02  0.8046581E-01
       -1   -1    0    0    0  501  0.00000000000E+00  0.00000000000E+00  0.22064600233E+04  0.22064600233E+04  0.50400001928E-02 0.  1.
        1   -1    0    0  501    0  0.00000000000E+00  0.00000000000E+00 -0.16343947356E+04  0.16343947356E+04  0.50400001928E-02 0. -1.
    10030    2    1    2    0    0  0.00000000000E+00  0.00000000000E+00  0.57206528773E+03  0.38408547589E+04  0.37980135052E+04 0.  0.
        4    1    3    3  502    0  0.93220432722E+03  0.16055246999E+04  0.68992543829E+03  0.19805840535E+04  0.12699999809E+01 0. -1.
       -4    1    3    3    0  502 -0.93220432722E+03 -0.16055246999E+04 -0.11786015056E+03  0.18602707055E+04  0.12699999809E+01 0.  1.
</event>
<event>
 5   0  0.5140842E-08  0.3802878E+04  0.7818609E-02  0.8045538E-01
        2   -1    0    0  501    0  0.00000000000E+00  0.00000000000E+00  0.17032755839E+04  0.17032755839E+04  0.25500000920E-02 0. -1.
       -2   -1    0    0    0  501  0.00000000000E+00  0.00000000000E+00 -0.21226573193E+04  0.21226573193E+04  0.25500000920E-02 0.  1.
    10030    2    1    2    0    0  0.00000000000E+00  0.00000000000E+00 -0.41938173536E+03  0.38259329033E+04  0.38028780601E+04 0.  0.
        2    1    3    3  502    0 -0.63195512029E+03  0.17705887021E+04 -0.49623109303E+03  0.19443757157E+04  0.25500000920E-02 0.  1.
       -2    1    3    3    0  502  0.63195512029E+03 -0.17705887021E+04  0.76849357667E+02  0.18815571875E+04  0.25500000920E-02 0. -1.
</event>
<event>
 5   0  0.1628250E-08  0.3788873E+04  0.7818609E-02  0.8048547E-01
       -1   -1    0    0    0  501  0.00000000000E+00  0.00000000000E+00  0.20891319070E+04  0.20891319070E+04  0.50400001928E-02 0.  1.
        1   -1    0    0  501    0  0.00000000000E+00  0.00000000000E+00 -0.17178855200E+04  0.17178855201E+04  0.50400001928E-02 0. -1.
    10030    2    1    2    0    0  0.00000000000E+00  0.00000000000E+00  0.37124638697E+03  0.38070174271E+04  0.37888728944E+04 0.  0.
        5    1    3    3  502    0  0.17751017069E+04  0.19992066326E+03  0.81944752085E+03  0.19653169390E+04  0.46999998093E+01 0.  1.
       -5    1    3    3    0  502 -0.17751017069E+04 -0.19992066326E+03 -0.44820113388E+03  0.18417004881E+04  0.46999998093E+01 0. -1.
</event>
<event>
 5   0  0.5086209E-08  0.3799473E+04  0.7818609E-02  0.8046268E-01
       -2   -1    0    0    0  501  0.00000000000E+00  0.00000000000E+00  0.15532947586E+04  0.15532947586E+04  0.25500000920E-02 0. -1.
        2   -1    0    0  501    0  0.00000000000E+00  0.00000000000E+00 -0.23234471021E+04  0.23234471021E+04  0.25500000920E-02 0.  1.
    10030    2    1    2    0    0  0.00000000000E+00  0.00000000000E+00 -0.77015234351E+03  0.38767418607E+04  0.37994727032E+04 0.  0.
        3    1    3    3  502    0 -0.64592540198E+03 -0.85556091881E+03 -0.19853449475E+04  0.22562798323E+04  0.10100000352E+00 0.  1.
       -3    1    3    3    0  502  0.64592540198E+03  0.85556091881E+03  0.12151926040E+04  0.16204620285E+04  0.10100000352E+00 0. -1.
</event>
<event>
 5   0  0.1666051E-08  0.3737163E+04  0.7818609E-02  0.8059776E-01
        1   -1    0    0  501    0  0.00000000000E+00  0.00000000000E+00  0.18253365209E+04  0.18253365209E+04  0.50400001928E-02 0. -1.
       -1   -1    0    0    0  501  0.00000000000E+00  0.00000000000E+00 -0.19128508708E+04  0.19128508708E+04  0.50400001928E-02 0.  1.
    10030    2    1    2    0    0  0.00000000000E+00  0.00000000000E+00 -0.87514349946E+02  0.37381873917E+04  0.37371628562E+04 0.  0.
        2    1    3    3  502    0 -0.74097083962E+03  0.10553854181E+04 -0.13964297905E+04  0.19007609860E+04  0.25500000920E-02 0.  1.
       -2    1    3    3    0  502  0.74097083962E+03 -0.10553854181E+04  0.13089154406E+04  0.18374264057E+04  0.25500000920E-02 0. -1.
</event>
<event>
 5   0  0.5140842E-08  0.3807326E+04  0.7818609E-02  0.8044585E-01
        2   -1    0    0  501    0  0.00000000000E+00  0.00000000000E+00  0.11689273811E+04  0.11689273811E+04  0.25500000920E-02 0.  1.
       -2   -1    0    0    0  501  0.00000000000E+00  0.00000000000E+00 -0.31002198569E+04  0.31002198569E+04  0.25500000920E-02 0. -1.
    10030    2    1    2    0    0  0.00000000000E+00  0.00000000000E+00 -0.19312924758E+04  0.42691472380E+04  0.38073255065E+04 0.  0.
        2    1    3    3  502    0 -0.91037728474E+03  0.27134497912E+03 -0.28154542203E+04  0.29713965344E+04  0.25500000920E-02 0. -1.
       -2    1    3    3    0  502  0.91037728474E+03 -0.27134497912E+03  0.88416174447E+03  0.12977507036E+04  0.25500000920E-02 0.  1.
</event>
<event>
 5   0  0.5147582E-08  0.3797875E+04  0.7818609E-02  0.8046611E-01
        2   -1    0    0  501    0  0.00000000000E+00  0.00000000000E+00  0.17103763116E+04  0.17103763116E+04  0.25500000920E-02 0.  1.
       -2   -1    0    0    0  501  0.00000000000E+00  0.00000000000E+00 -0.21082872189E+04  0.21082872189E+04  0.25500000920E-02 0. -1.
    10030    2    1    2    0    0  0.00000000000E+00  0.00000000000E+00 -0.39791090730E+03  0.38186635306E+04  0.37978754679E+04 0.  0.
        1    1    3    3  502    0  0.72323929687E+03 -0.83074531630E+03  0.13563635777E+04  0.17472650103E+04  0.50400001928E-02 0.  1.
       -1    1    3    3    0  502 -0.72323929687E+03  0.83074531630E+03 -0.17542744850E+04  0.20713985203E+04  0.50400001928E-02 0. -1.
</event>
<event>
 5   0  0.1628473E-08  0.3781371E+04  0.7818609E-02  0.8050164E-01
       -1   -1    0    0    0  501  0.00000000000E+00  0.00000000000E+00  0.24745154574E+04  0.24745154574E+04  0.50400001928E-02 0. -1.
        1   -1    0    0  501    0  0.00000000000E+00  0.00000000000E+00 -0.14446029025E+04  0.14446029025E+04  0.50400001928E-02 0.  1.
    10030    2    1    2    0    0  0.00000000000E+00  0.00000000000E+00  0.10299125549E+04  0.39191183599E+04  0.37813712920E+04 0.  0.
        3    1    3    3  502    0  0.16458352644E+04 -0.79713568512E+03  0.10125422176E+04  0.20903207339E+04  0.10100000352E+00 0.  1.
       -3    1    3    3    0  502 -0.16458352644E+04  0.79713568512E+03  0.17370337266E+02  0.18287976260E+04  0.10100000352E+00 0. -1.
</event>
<event>
 5   0  0.1628250E-08  0.3798213E+04  0.7818609E-02  0.8046538E-01
        1   -1    0    0  501    0  0.00000000000E+00  0.00000000000E+00  0.15690582770E+04  0.15690582770E+04  0.50400001928E-02 0. -1.
       -1   -1    0    0    0  501  0.00000000000E+00  0.00000000000E+00 -0.22985798077E+04  0.22985798077E+04  0.50400001928E-02 0.  1.
    10030    2    1    2    0    0  0.00000000000E+00  0.00000000000E+00 -0.72952153064E+03  0.38676380847E+04  0.37982130918E+04 0.  0.
        4    1    3    3  502    0 -0.70143463181E+03  0.12757362223E+04  0.87699223241E+03  0.16995971406E+04  0.12699999809E+01 0. -1.
       -4    1    3    3    0  502  0.70143463181E+03 -0.12757362223E+04 -0.16065137630E+04  0.21680409441E+04  0.12699999809E+01 0.  1.
</event>
<event>
 5   0  0.5140842E-08  0.3805800E+04  0.7818609E-02  0.8044911E-01
       -2   -1    0    0    0  501  0.00000000000E+00  0.00000000000E+00  0.16868017549E+04  0.16868017549E+04  0.25500000920E-02 0.  1.
        2   -1    0    0  501    0  0.00000000000E+00  0.00000000000E+00 -0.21466826759E+04  0.21466826759E+04  0.25500000920E-02 0. -1.
    10030    2    1    2    0    0  0.00000000000E+00  0.00000000000E+00 -0.45988092100E+03  0.38334844307E+04  0.38057998396E+04 0.  0.
        2    1    3    3  502    0 -0.17651755467E+04 -0.71035524797E+03 -0.25417406038E+03  0.19196493800E+04  0.25500000920E-02 0.  1.
       -2    1    3    3    0  502  0.17651755467E+04  0.71035524797E+03 -0.20570686062E+03  0.19138350508E+04  0.25500000920E-02 0. -1.
</event>
<event>
 5   0  0.5207474E-08  0.3798903E+04  0.7818609E-02  0.8046390E-01
       -2   -1    0    0    0  501  0.00000000000E+00  0.00000000000E+00  0.19060313985E+04  0.19060313985E+04  0.25500000920E-02 0.  1.
        2   -1    0    0  501    0  0.00000000000E+00  0.00000000000E+00 -0.18928947008E+04  0.18928947008E+04  0.25500000920E-02 0. -1.
    10030    2    1    2    0    0  0.00000000000E+00  0.00000000000E+00  0.13136697726E+02  0.37989260994E+04  0.37989033859E+04 0.  0.
        4    1    3    3  502    0 -0.91301349629E+03  0.14545813708E+04  0.81806227164E+03  0.19022691981E+04  0.12699999809E+01 0.  1.
       -4    1    3    3    0  502  0.91301349629E+03 -0.14545813708E+04 -0.80492557391E+03  0.18966569013E+04  0.12699999809E+01 0. -1.
</event>
<event>
 5   0  0.5086209E-08  0.3796811E+04  0.7818609E-02  0.8046840E-01
        2   -1    0    0  501    0  0.00000000000E+00  0.00000000000E+00  0.22183335556E+04  0.22183335556E+04  0.25500000920E-02 0. -1.
       -2   -1    0    0    0  501  0.00000000000E+00  0.00000000000E+00 -0.16246173164E+04  0.16246173164E+04  0.25500000920E-02 0.  1.
    10030    2    1    2    0    0  0.00000000000E+00  0.00000000000E+00  0.59371623914E+03  0.38429508720E+04  0.37968108239E+04 0.  0.
        3    1    3    3  502    0  0.92207814212E+03  0.24955332277E+03 -0.13636388010E+04  0.16649371612E+04  0.10100000352E+00 0.  1.
       -3    1    3    3    0  502 -0.92207814212E+03 -0.24955332277E+03  0.19573550401E+04  0.21780137108E+04  0.10100000352E+00 0. -1.
</event>
<event>
 5   0  0.5159761E-08  0.3687546E+04  0.7818609E-02  0.8070727E-01
        2   -1    0    0  501    0  0.00000000000E+00  0.00000000000E+00  0.12060773209E+04  0.12060773209E+04  0.25500000920E-02 0. -1.
       -2   -1    0    0    0  501  0.00000000000E+00  0.00000000000E+00 -0.28186409996E+04  0.28186409996E+04  0.25500000920E-02 0.  1.
    10030    2    1    2    0    0  0.00000000000E+00  0.00000000000E+00 -0.16125636787E+04  0.40247183205E+04  0.36875460595E+04 0.  0.
        5    1    3    3  502    0  0.33028872635E+03 -0.82375288495E+03  0.95759982411E+03  0.13056335517E+04  0.46999998093E+01 0. -1.
       -5    1    3    3    0  502 -0.33028872635E+03  0.82375288495E+03 -0.25701635029E+04  0.27190847687E+04  0.46999998093E+01 0.  1.
</event>
<event>
 5   0  0.1628250E-08  0.3798335E+04  0.7818609E-02  0.8046512E-01
       -1   -1    0    0    0  501  0.00000000000E+00  0.00000000000E+00  0.21217964973E+04  0.21217964973E+04  0.50400001928E-02 0.  1.
        1   -1    0    0  501    0  0.00000000000E+00  0.00000000000E+00 -0.16998975508E+04  0.16998975508E+04  0.50400001928E-02 0. -1.
    10030    2    1    2    0    0  0.00000000000E+00  0.00000000000E+00  0.42189894654E+03  0.38216940481E+04  0.37983347241E+04 0.  0.
        4    1    3    3  502    0  0.18531291136E+03 -0.12600394562E+04 -0.12065420922E+04  0.17543619181E+04  0.12699999809E+01 0. -1.
       -4    1    3    3    0  502 -0.18531291136E+03  0.12600394562E+04  0.16284410388E+04  0.20673321301E+04  0.12699999809E+01 0.  1.
</event>
<event>
 5   0  0.1628250E-08  0.3801771E+04  0.7818609E-02  0.8045775E-01
       -1   -1    0    0    0  501  0.00000000000E+00  0.00000000000E+00  0.17802675059E+04  0.17802675060E+04  0.50400001928E-02 0.  1.
        1   -1    0    0  501    0  0.00000000000E+00  0.00000000000E+00 -0.20296753372E+04  0.20296753372E+04  0.50400001928E-02 0. -1.
    10030    2    1    2    0    0  0.00000000000E+00  0.00000000000E+00 -0.24940783128E+03  0.38099428432E+04  0.38017706667E+04 0.  0.
        5    1    3    3  502    0  0.11724856308E+03 -0.10104539502E+04 -0.17339509881E+04  0.20103165249E+04  0.46999998093E+01 0. -1.
       -5    1    3    3    0  502 -0.11724856308E+03  0.10104539502E+04  0.14845431569E+04  0.17996263183E+04  0.46999998093E+01 0.  1.
</event>
<event>
 5   0  0.1628250E-08  0.3834756E+04  0.7818609E-02  0.8038737E-01
        1   -1    0    0  501    0  0.00000000000E+00  0.00000000000E+00  0.12969017385E+04  0.12969017385E+04  0.50400001928E-02 0. -1.
       -1   -1    0    0    0  501  0.00000000000E+00  0.00000000000E+00 -0.28347085293E+04  0.28347085293E+04  0.50400001928E-02 0.  1.
    10030    2    1    2    0    0  0.00000000000E+00  0.00000000000E+00 -0.15378067908E+04  0.41316102678E+04  0.38347560129E+04 0.  0.
        1    1    3    3  502    0 -0.87325315687E+03  0.16933431023E+04 -0.53693071362E+03  0.19794636974E+04  0.50400001928E-02 0.  1.
       -1    1    3    3    0  502  0.87325315687E+03 -0.16933431023E+04 -0.10008760772E+04  0.21521465703E+04  0.50400001928E-02 0. -1.
</event>
<event>
 5   0  0.5207474E-08  0.3762162E+04  0.7818609E-02  0.8054324E-01
       -2   -1    0    0    0  501  0.00000000000E+00  0.00000000000E+00  0.19523010992E+04  0.19523010992E+04  0.25500000920E-02 0.  1.
        2   -1    0    0  501    0  0.00000000000E+00  0.00000000000E+00 -0.18124585487E+04  0.18124585487E+04  0.25500000920E-02 0. -1.
    10030    2    1    2    0    0  0.00000000000E+00  0.00000000000E+00  0.13984255051E+03  0.37647596479E+04  0.37621615153E+04 0.  0.
        4    1    3    3  502    0 -0.65713514554E+03 -0.39114384041E+03  0.17897247686E+04  0.19462621775E+04  0.12699999809E+01 0.  1.
       -4    1    3    3    0  502  0.65713514554E+03  0.39114384041E+03 -0.16498822181E+04  0.18184974704E+04  0.12699999809E+01 0. -1.
</event>
<event>
 5   0  0.5207474E-08  0.3801761E+04  0.7818609E-02  0.8045777E-01
        2   -1    0    0  501    0  0.00000000000E+00  0.00000000000E+00  0.13077309536E+04  0.13077309536E+04  0.25500000920E-02 0.  1.
       -2   -1    0    0    0  501  0.00000000000E+00  0.00000000000E+00 -0.27630658534E+04  0.27630658534E+04  0.25500000920E-02 0. -1.
    10030    2    1    2    0    0  0.00000000000E+00  0.00000000000E+00 -0.14553348998E+04  0.40707968070E+04  0.38017610358E+04 0.  0.
        4    1    3    3  502    0  0.51266308125E+03  0.17581566425E+04 -0.18230480741E+03  0.18404279040E+04  0.12699999809E+01 0.  1.
       -4    1    3    3    0  502 -0.51266308125E+03 -0.17581566425E+04 -0.12730300923E+04  0.22303689029E+04  0.12699999809E+01 0. -1.
</event>
<event>
 5   0  0.5140842E-08  0.3801136E+04  0.7818609E-02  0.8045911E-01
       -2   -1    0    0    0  501  0.00000000000E+00  0.00000000000E+00  0.15896783024E+04  0.15896783024E+04  0.25500000920E-02 0. -1.
        2   -1    0    0  501    0  0.00000000000E+00  0.00000000000E+00 -0.22722582555E+04  0.22722582555E+04  0.25500000920E-02 0.  1.
    10030    2    1    2    0    0  0.00000000000E+00  0.00000000000E+00 -0.68257995311E+03  0.38619365580E+04  0.38011364860E+04 0.  0.
        2    1    3    3  502    0  0.24102559624E+03  0.11710143381E+04  0.11597692242E+04  0.16656628025E+04  0.25500000920E-02 0. -1.
       -2    1    3    3    0  502 -0.24102559624E+03 -0.11710143381E+04 -0.18423491773E+04  0.21962737555E+04  0.25500000920E-02 0.  1.
</event>
<event>
 5   0  0.1666051E-08  0.3791375E+04  0.7818609E-02  0.8048008E-01
        1   -1    0    0  501    0  0.00000000000E+00  0.00000000000E+00  0.28145324506E+04  0.28145324506E+04  0.50400001928E-02 0.  1.
       -1   -1    0    0    0  501  0.00000000000E+00  0.00000000000E+00 -0.12768131266E+04  0.12768131266E+04  0.50400001928E-02 0. -1.
    10030    2    1    2    0    0  0.00000000000E+00  0.00000000000E+00  0.15377193240E+04  0.40913455772E+04  0.37913754645E+04 0.  0.
        2    1    3    3  502    0 -0.12015292705E+04 -0.17167956381E+03  0.23402606577E+04  0.26362788939E+04  0.25500000920E-02 0.  1.
       -2    1    3    3    0  502  0.12015292705E+04  0.17167956381E+03 -0.80254133370E+03  0.14550666833E+04  0.25500000920E-02 0. -1.
</event>
<event>
 5   0  0.1628473E-08  0.3792608E+04  0.7818609E-02  0.8047743E-01
        1   -1    0    0  501    0  0.00000000000E+00  0.00000000000E+00  0.23024495385E+04  0.23024495385E+04  0.50400001928E-02 0. -1.
       -1   -1    0    0    0  501  0.00000000000E+00  0.00000000000E+00 -0.15618011658E+04  0.15618011658E+04  0.50400001928E-02 0.  1.
    10030    2    1    2    0    0  0.00000000000E+00  0.00000000000E+00  0.74064837269E+03  0.38642507043E+04  0.37926077432E+04 0.  0.
        3    1    3    3  502    0  0.15620480763E+03 -0.47249415943E+03  0.22347310628E+04  0.22894701584E+04  0.10100000352E+00 0. -1.
       -3    1    3    3    0  502 -0.15620480763E+03  0.47249415943E+03 -0.14940826901E+04  0.15747805459E+04  0.10100000352E+00 0.  1.
</event>
<event>
 5   0  0.5159761E-08  0.3795911E+04  0.7818609E-02  0.8047033E-01
        2   -1    0    0  501    0  0.00000000000E+00  0.00000000000E+00  0.19524971750E+04  0.19524971750E+04  0.25500000920E-02 0.  1.
       -2   -1    0    0    0  501  0.00000000000E+00  0.00000000000E+00 -0.18449373297E+04  0.18449373298E+04  0.25500000920E-02 0. -1.
    10030    2    1    2    0    0  0.00000000000E+00  0.00000000000E+00  0.10755984525E+03  0.37974345048E+04  0.37959109180E+04 0.  0.
        5    1    3    3  502    0 -0.49685963129E+03 -0.78990367727E+03 -0.15995768428E+04  0.18518870048E+04  0.46999998093E+01 0. -1.
       -5    1    3    3    0  502  0.49685963129E+03  0.78990367727E+03  0.17071366881E+04  0.19455474999E+04  0.46999998093E+01 0.  1.
</event>
<event>
 5   0  0.5147582E-08  0.3815375E+04  0.7818609E-02  0.8042863E-01
        2   -1    0    0  501    0  0.00000000000E+00  0.00000000000E+00  0.14974956332E+04  0.14974956332E+04  0.25500000920E-02 0.  1.
       -2   -1    0    0    0  501  0.00000000000E+00  0.00000000000E+00 -0.24302390423E+04  0.24302390423E+04  0.25500000920E-02 0. -1.
    10030    2    1    2    0    0  0.00000000000E+00  0.00000000000E+00 -0.93274340908E+03  0.39277346755E+04  0.38153753962E+04 0.  0.
        1    1    3    3  502    0 -0.27220073251E+03  0.98310724690E+03 -0.21258868025E+04  0.23579626364E+04  0.50400001928E-02 0. -1.
       -1    1    3    3    0  502  0.27220073251E+03 -0.98310724690E+03  0.11931433934E+04  0.15697720391E+04  0.50400001928E-02 0.  1.
</event>
<event>
 5   0  0.1628250E-08  0.3799185E+04  0.7818609E-02  0.8046330E-01
        1   -1    0    0  501    0  0.00000000000E+00  0.00000000000E+00  0.20461933219E+04  0.20461933220E+04  0.50400001928E-02 0. -1.
       -1   -1    0    0    0  501  0.00000000000E+00  0.00000000000E+00 -0.17634949048E+04  0.17634949048E+04  0.50400001928E-02 0.  1.
    10030    2    1    2    0    0  0.00000000000E+00  0.00000000000E+00  0.28269841720E+03  0.38096882267E+04  0.37991849112E+04 0.  0.
        4    1    3    3  502    0 -0.10560064173E+04  0.12351794533E+04 -0.84505320492E+03  0.18316479922E+04  0.12699999809E+01 0.  1.
       -4    1    3    3    0  502  0.10560064173E+04 -0.12351794533E+04  0.11277516221E+04  0.19780402345E+04  0.12699999809E+01 0. -1.
</event>
<event>
 5   0  0.1628250E-08  0.3799490E+04  0.7818609E-02  0.8046264E-01
        1   -1    0    0  501    0  0.00000000000E+00  0.00000000000E+00  0.20020550375E+04  0.20020550375E+04  0.50400001928E-02 0.  1.
       -1   -1    0    0    0  501  0.00000000000E+00  0.00000000000E+00 -0.18026634392E+04  0.18026634392E+04  0.50400001928E-02 0. -1.
    10030    2    1    2    0    0  0.00000000000E+00  0.00000000000E+00  0.19939159826E+03  0.38047184767E+04  0.37994901866E+04 0.  0.
        4    1    3    3  502    0  0.14674676320E+04 -0.51196413871E+03  0.11936556073E+04  0.19596897336E+04  0.12699999809E+01 0.  1.
       -4    1    3    3    0  502 -0.14674676320E+04  0.51196413871E+03 -0.99426400907E+03  0.18450287431E+04  0.12699999809E+01 0. -1.
</event>
<event>
 5   0  0.1628250E-08  0.3798971E+04  0.7818609E-02  0.8046376E-01
       -1   -1    0    0    0  501  0.00000000000E+00  0.00000000000E+00  0.15492751047E+04  0.15492751048E+04  0.50400001928E-02 0.  1.
        1   -1    0    0  501    0  0.00000000000E+00  0.00000000000E+00 -0.23288597976E+04  0.23288597976E+04  0.50400001928E-02 0. -1.
    10030    2    1    2    0    0  0.00000000000E+00  0.00000000000E+00 -0.77958469287E+03  0.38781349024E+04  0.37989706537E+04 0.  0.
        5    1    3    3  502    0 -0.17226158779E+04  0.49625741963E+03 -0.10308475552E+04  0.20679327023E+04  0.46999998093E+01 0. -1.
       -5    1    3    3    0  502  0.17226158779E+04 -0.49625741963E+03  0.25126286234E+03  0.18102022001E+04  0.46999998093E+01 0.  1.
</event>
<event>
 5   0  0.5207474E-08  0.3769392E+04  0.7818609E-02  0.8052755E-01
        2   -1    0    0  501    0  0.00000000000E+00  0.00000000000E+00  0.15361632092E+04  0.15361632092E+04  0.25500000920E-02 0. -1.
       -2   -1    0    0    0  501  0.00000000000E+00  0.00000000000E+00 -0.23123060573E+04  0.23123060573E+04  0.25500000920E-02 0.  1.
    10030    2    1    2    0    0  0.00000000000E+00  0.00000000000E+00 -0.77614284810E+03  0.38484692665E+04  0.37693922553E+04 0.  0.
        4    1    3    3  502    0  0.27289899017E+03 -0.89217253569E+03 -0.20599945068E+04  0.22614209412E+04  0.12699999809E+01 0.  1.
       -4    1    3    3    0  502 -0.27289899017E+03  0.89217253569E+03  0.12838516587E+04  0.15870483253E+04  0.12699999809E+01 0. -1.
</event>
<event>
 5   0  0.1628250E-08  0.3778235E+04  0.7818609E-02  0.8050842E-01
        3   -1    0    0  501    0  0.00000000000E+00  0.00000000000E+00  0.16441411116E+04  0.16441411147E+04  0.10100000352E+00 0.  1.
       -3   -1    0    0    0  501  0.00000000000E+00  0.00000000000E+00 -0.21705951621E+04  0.21705951644E+04  0.10100000352E+00 0. -1.
    10030    2    1    2    0    0  0.00000000000E+00  0.00000000000E+00 -0.52645405047E+03  0.38147362792E+04  0.37782349070E+04 0.  0.
        4    1    3    3  502    0 -0.32956635135E+02 -0.13264032744E+04  0.10945065874E+04  0.17199936247E+04  0.12699999809E+01 0.  1.
       -4    1    3    3    0  502  0.32956635135E+02  0.13264032744E+04 -0.16209606379E+04  0.20947426545E+04  0.12699999809E+01 0. -1.
</event>
<event>
 5   0  0.5086209E-08  0.3798637E+04  0.7818609E-02  0.8046447E-01
        2   -1    0    0  501    0  0.00000000000E+00  0.00000000000E+00  0.25958582316E+04  0.25958582316E+04  0.25500000920E-02 0.  1.
       -2   -1    0    0    0  501  0.00000000000E+00  0.00000000000E+00 -0.13896796665E+04  0.13896796665E+04  0.25500000920E-02 0. -1.
    10030    2    1    2    0    0  0.00000000000E+00  0.00000000000E+00  0.12061785651E+04  0.39855378981E+04  0.37986373354E+04 0.  0.
        3    1    3    3  502    0  0.11850269326E+04  0.36540347435E+03  0.21124832807E+04  0.24495701973E+04  0.10100000352E+00 0.  1.
       -3    1    3    3    0  502 -0.11850269326E+04 -0.36540347435E+03 -0.90630471559E+03  0.15359677007E+04  0.10100000352E+00 0. -1.
</event>
<event>
 5   0  0.5086209E-08  0.3773178E+04  0.7818609E-02  0.8051935E-01
       -2   -1    0    0    0  501  0.00000000000E+00  0.00000000000E+00  0.23726421223E+04  0.23726421223E+04  0.25500000920E-02 0. -1.
        2   -1    0    0  501    0  0.00000000000E+00  0.00000000000E+00 -0.15001076070E+04  0.15001076070E+04  0.25500000920E-02 0.  1.
    10030    2    1    2    0    0  0.00000000000E+00  0.00000000000E+00  0.87253451525E+03  0.38727497293E+04  0.37731782340E+04 0.  0.
        3    1    3    3  502    0 -0.94601384291E+03 -0.58562463678E+03 -0.11275270426E+04  0.15840503932E+04  0.10100000352E+00 0.  1.
       -3    1    3    3    0  502  0.94601384291E+03  0.58562463678E+03  0.20000615578E+04  0.22886993362E+04  0.10100000352E+00 0. -1.
</event>
<event>
 5   0  0.1628250E-08  0.3803953E+04  0.7818609E-02  0.8045307E-01
       -1   -1    0    0    0  501  0.00000000000E+00  0.00000000000E+00  0.14999696326E+04  0.14999696326E+04  0.50400001928E-02 0.  1.
        1   -1    0    0  501    0  0.00000000000E+00  0.00000000000E+00 -0.24117249207E+04  0.24117249207E+04  0.50400001928E-02 0. -1.
    10030    2    1    2    0    0  0.00000000000E+00  0.00000000000E+00 -0.91175528803E+03  0.39116945533E+04  0.38039527564E+04 0.  0.
        5    1    3    3  502    0  0.40485605923E+03  0.18477682378E+04 -0.25192665112E+03  0.19083094657E+04  0.46999998093E+01 0.  1.
       -5    1    3    3    0  502 -0.40485605923E+03 -0.18477682378E+04 -0.65982863691E+03  0.20033850876E+04  0.46999998093E+01 0. -1.
</event>
<event>
 5   0  0.5086209E-08  0.3800284E+04  0.7818609E-02  0.8046094E-01
        2   -1    0    0  501    0  0.00000000000E+00  0.00000000000E+00  0.23974766344E+04  0.23974766344E+04  0.25500000920E-02 0. -1.
       -2   -1    0    0    0  501  0.00000000000E+00  0.00000000000E+00 -0.15059750803E+04  0.15059750803E+04  0.25500000920E-02 0.  1.
    10030    2    1    2    0    0  0.00000000000E+00  0.00000000000E+00  0.89150155408E+03  0.39034517147E+04  0.38002842351E+04 0.  0.
        3    1    3    3  502    0  0.10136979258E+04 -0.14738640431E+04 -0.21249066937E+03  0.18013914058E+04  0.10100000352E+00 0.  1.
       -3    1    3    3    0  502 -0.10136979258E+04  0.14738640431E+04  0.11039922234E+04  0.21020603088E+04  0.10100000352E+00 0. -1.
</event>
<event>
 5   0  0.5140842E-08  0.3802207E+04  0.7818609E-02  0.8045681E-01
       -2   -1    0    0    0  501  0.00000000000E+00  0.00000000000E+00  0.13525123379E+04  0.13525123379E+04  0.25500000920E-02 0. -1.
        2   -1    0    0  501    0  0.00000000000E+00  0.00000000000E+00 -0.26722087220E+04  0.26722087220E+04  0.25500000920E-02 0.  1.
    10030    2    1    2    0    0  0.00000000000E+00  0.00000000000E+00 -0.13196963840E+04  0.40247210599E+04  0.38022073936E+04 0.  0.
        2    1    3    3  502    0  0.36527020251E+03 -0.10150384870E+04  0.99716002796E+03  0.14690315082E+04  0.25500000920E-02 0. -1.
       -2    1    3    3    0  502 -0.36527020251E+03  0.10150384870E+04 -0.23168564120E+04  0.25556895517E+04  0.25500000920E-02 0.  1.
</event>
<event>
 5   0  0.5147582E-08  0.3797952E+04  0.7818609E-02  0.8046594E-01
        2   -1    0    0  501    0  0.00000000000E+00  0.00000000000E+00  0.20175353880E+04  0.20175353880E+04  0.25500000920E-02 0.  1.
       -2   -1    0    0    0  501  0.00000000000E+00  0.00000000000E+00 -0.17873840345E+04  0.17873840345E+04  0.25500000920E-02 0. -1.
    10030    2    1    2    0    0  0.00000000000E+00  0.00000000000E+00  0.23015135347E+03  0.38049194226E+04  0.37979523650E+04 0.  0.
        1    1    3    3  502    0 -0.85515571003E+03 -0.16634311456E+04  0.44403160200E+03  0.19223575443E+04  0.50400001928E-02 0.  1.
       -1    1    3    3    0  502  0.85515571003E+03  0.16634311456E+04 -0.21388024853E+03  0.18825618782E+04  0.50400001928E-02 0. -1.
</event>
<event>
 5   0  0.1628473E-08  0.3798594E+04  0.7818609E-02  0.8046457E-01
        1   -1    0    0  501    0  0.00000000000E+00  0.00000000000E+00  0.15144549010E+04  0.15144549010E+04  0.50400001928E-02 0.  1.
       -1   -1    0    0    0  501  0.00000000000E+00  0.00000000000E+00 -0.23819317291E+04  0.23819317291E+04  0.50400001928E-02 0. -1.
    10030    2    1    2    0    0  0.00000000000E+00  0.00000000000E+00 -0.86747682816E+03  0.38963866301E+04  0.37985935192E+04 0.  0.
        3    1    3    3  502    0 -0.81695421882E+03  0.55568467606E+03 -0.20975734006E+04  0.23186232630E+04  0.10100000352E+00 0. -1.
       -3    1    3    3    0  502  0.81695421882E+03 -0.55568467606E+03  0.12300965724E+04  0.15777633671E+04  0.10100000352E+00 0.  1.
</event>
<event>
 5   0  0.5207474E-08  0.3793581E+04  0.7818609E-02  0.8047534E-01
        2   -1    0    0  501    0  0.00000000000E+00  0.00000000000E+00  0.17508409861E+04  0.17508409861E+04  0.25500000920E-02 0. -1.
       -2   -1    0    0    0  501  0.00000000000E+00  0.00000000000E+00 -0.20549061656E+04  0.20549061656E+04  0.25500000920E-02 0.  1.
    10030    2    1    2    0    0  0.00000000000E+00  0.00000000000E+00 -0.30406517956E+03  0.38057471517E+04  0.37935808610E+04 0.  0.
        4    1    3    3  502    0  0.82059356934E+03  0.17061181140E+04 -0.26902348066E+03  0.19122207171E+04  0.12699999809E+01 0. -1.
       -4    1    3    3    0  502 -0.82059356934E+03 -0.17061181140E+04 -0.35041698903E+02  0.18935264346E+04  0.12699999809E+01 0.  1.
</event>
<event>
 5   0  0.5207474E-08  0.3810818E+04  0.7818609E-02  0.8043837E-01
        2   -1    0    0  501    0  0.00000000000E+00  0.00000000000E+00  0.24881619717E+04  0.24881619717E+04  0.25500000920E-02 0. -1.
       -2   -1    0    0    0  501  0.00000000000E+00  0.00000000000E+00 -0.14591430447E+04  0.14591430447E+04  0.25500000920E-02 0.  1.
    10030    2    1    2    0    0  0.00000000000E+00  0.00000000000E+00  0.10290189270E+04  0.39473050164E+04  0.38108184082E+04 0.  0.
        4    1    3    3  502    0 -0.26536384392E+03 -0.16264411731E+04 -0.47622728343E+03  0.17153783540E+04  0.12699999809E+01 0.  1.
       -4    1    3    3    0  502  0.26536384392E+03  0.16264411731E+04  0.15052462104E+04  0.22319266624E+04  0.12699999809E+01 0. -1.
</event>
<event>
 5   0  0.5086209E-08  0.3806339E+04  0.7818609E-02  0.8044796E-01
        2   -1    0    0  501    0  0.00000000000E+00  0.00000000000E+00  0.13285075474E+04  0.13285075474E+04  0.25500000920E-02 0. -1.
       -2   -1    0    0    0  501  0.00000000000E+00  0.00000000000E+00 -0.27264081723E+04  0.27264081723E+04  0.25500000920E-02 0.  1.
    10030    2    1    2    0    0  0.00000000000E+00  0.00000000000E+00 -0.13979006248E+04  0.40549157197E+04  0.38063388363E+04 0.  0.
        3    1    3    3  502    0 -0.75912445998E+03  0.11286365563E+04  0.71913304354E+03  0.15385846634E+04  0.10100000352E+00 0. -1.
       -3    1    3    3    0  502  0.75912445998E+03 -0.11286365563E+04 -0.21170336684E+04  0.25163310563E+04  0.10100000352E+00 0.  1.
</event>
<event>
 5   0  0.1628250E-08  0.3796946E+04  0.7818609E-02  0.8046811E-01
        1   -1    0    0  501    0  0.00000000000E+00  0.00000000000E+00  0.22405411700E+04  0.22405411700E+04  0.50400001928E-02 0. -1.
       -1   -1    0    0    0  501  0.00000000000E+00  0.00000000000E+00 -0.16086288092E+04  0.16086288092E+04  0.50400001928E-02 0.  1.
    10030    2    1    2    0    0  0.00000000000E+00  0.00000000000E+00  0.63191236088E+03  0.38491699792E+04  0.37969456537E+04 0.  0.
        4    1    3    3  502    0  0.70261679442E+03 -0.12576337483E+04  0.15694437791E+04  0.21303681356E+04  0.12699999809E+01 0. -1.
       -4    1    3    3    0  502 -0.70261679442E+03  0.12576337483E+04 -0.93753141822E+03  0.17188018436E+04  0.12699999809E+01 0.  1.
</event>
<event>
 5   0  0.1666051E-08  0.3795461E+04  0.7818609E-02  0.8047130E-01
       -1   -1    0    0    0  501  0.00000000000E+00  0.00000000000E+00  0.16719052821E+04  0.16719052821E+04  0.50400001928E-02 0. -1.
        1   -1    0    0  501    0  0.00000000000E+00  0.00000000000E+00 -0.21540586238E+04  0.21540586238E+04  0.50400001928E-02 0.  1.
    10030    2    1    2    0    0  0.00000000000E+00  0.00000000000E+00 -0.48215334172E+03  0.38259639059E+04  0.37954614956E+04 0.  0.
        2    1    3    3  502    0 -0.10802349439E+04  0.10367189590E+04  0.93435111312E+03  0.17648528937E+04  0.25500000920E-02 0. -1.
       -2    1    3    3    0  502  0.10802349439E+04 -0.10367189590E+04 -0.14165044548E+04  0.20611110122E+04  0.25500000920E-02 0.  1.
</event>
<event>
 5   0  0.5086209E-08  0.3798076E+04  0.7818609E-02  0.8046568E-01
        2   -1    0    0  501    0  0.00000000000E+00  0.00000000000E+00  0.30400375529E+04  0.30400375529E+04  0.25500000920E-02 0.  1.
       -2   -1    0    0    0  501  0.00000000000E+00  0.00000000000E+00 -0.11862834254E+04  0.11862834254E+04  0.25500000920E-02 0. -1.
    10030    2    1    2    0    0  0.00000000000E+00  0.00000000000E+00  0.18537541275E+04  0.42263209782E+04  0.37980764402E+04 0.  0.
        3    1    3    3  502    0 -0.57153229323E+03  0.14602925876E+04 -0.26498610420E+03  0.15903839943E+04  0.10100000352E+00 0. -1.
       -3    1    3    3    0  502  0.57153229323E+03 -0.14602925876E+04  0.21187402317E+04  0.26359369840E+04  0.10100000352E+00 0.  1.
</event>
<event>
 5   0  0.5207474E-08  0.3802833E+04  0.7818609E-02  0.8045547E-01
       -2   -1    0    0    0  501  0.00000000000E+00  0.00000000000E+00  0.22806300144E+04  0.22806300144E+04  0.25500000920E-02 0.  1.
        2   -1    0    0  501    0  0.00000000000E+00  0.00000000000E+00 -0.15852569800E+04  0.15852569800E+04  0.25500000920E-02 0. -1.
    10030    2    1    2    0    0  0.00000000000E+00  0.00000000000E+00  0.69537303436E+03  0.38658869944E+04  0.38028329699E+04 0.  0.
        4    1    3    3  502    0 -0.17026466979E+04  0.26619711300E+03 -0.46907549344E+03  0.17860291465E+04  0.12699999809E+01 0. -1.
       -4    1    3    3    0  502  0.17026466979E+04 -0.26619711300E+03  0.11644485278E+04  0.20798578479E+04  0.12699999809E+01 0.  1.
</event>
<event>
 5   0  0.5207474E-08  0.3797438E+04  0.7818609E-02  0.8046705E-01
       -2   -1    0    0    0  501  0.00000000000E+00  0.00000000000E+00  0.17891064800E+04  0.17891064800E+04  0.25500000920E-02 0.  1.
        2   -1    0    0  501    0  0.00000000000E+00  0.00000000000E+00 -0.20150473843E+04  0.20150473843E+04  0.25500000920E-02 0. -1.
    10030    2    1    2    0    0  0.00000000000E+00  0.00000000000E+00 -0.22594090425E+03  0.38041538643E+04  0.37974382590E+04 0.  0.
        4    1    3    3  502    0 -0.70174958683E+03 -0.17253052989E+04  0.25646603084E+03  0.18801349140E+04  0.12699999809E+01 0.  1.
       -4    1    3    3    0  502  0.70174958683E+03  0.17253052989E+04 -0.48240693509E+03  0.19240189503E+04  0.12699999809E+01 0. -1.
</event>
<event>
 5   0  0.1628473E-08  0.3809743E+04  0.7818609E-02  0.8044067E-01
        1   -1    0    0  501    0  0.00000000000E+00  0.00000000000E+00  0.25172120168E+04  0.25172120168E+04  0.50400001928E-02 0. -1.
       -1   -1    0    0    0  501  0.00000000000E+00  0.00000000000E+00 -0.14414894167E+04  0.14414894168E+04  0.50400001928E-02 0.  1.
    10030    2    1    2    0    0  0.00000000000E+00  0.00000000000E+00  0.10757226000E+04  0.39587014335E+04  0.38097425015E+04 0.  0.
        3    1    3    3  502    0  0.10601810535E+04  0.14314552181E+04  0.12391468831E+04  0.21699154167E+04  0.10100000352E+00 0. -1.
       -3    1    3    3    0  502 -0.10601810535E+04 -0.14314552181E+04 -0.16342428307E+03  0.17887860168E+04  0.10100000352E+00 0.  1.
</event>
<event>
 5   0  0.1628250E-08  0.3753984E+04  0.7818609E-02  0.8056103E-01
        1   -1    0    0  501    0  0.00000000000E+00  0.00000000000E+00  0.20746359575E+04  0.20746359575E+04  0.50400001928E-02 0.  1.
       -1   -1    0    0    0  501  0.00000000000E+00  0.00000000000E+00 -0.16981766443E+04  0.16981766444E+04  0.50400001928E-02 0. -1.
    10030    2    1    2    0    0  0.00000000000E+00  0.00000000000E+00  0.37645931312E+03  0.37728126018E+04  0.37539836593E+04 0.  0.
        1    1    3    3  502    0  0.17567401277E+04  0.47633437619E+02 -0.47439018031E+03  0.18202886760E+04  0.50400001928E-02 0. -1.
       -1    1    3    3    0  502 -0.17567401277E+04 -0.47633437619E+02  0.85084949344E+03  0.19525239259E+04  0.50400001928E-02 0.  1.
</event>
<event>
 5   0  0.1628250E-08  0.3789497E+04  0.7818609E-02  0.8048413E-01
       -1   -1    0    0    0  501  0.00000000000E+00  0.00000000000E+00  0.21879689215E+04  0.21879689215E+04  0.50400001928E-02 0.  1.
        1   -1    0    0  501    0  0.00000000000E+00  0.00000000000E+00 -0.16408235947E+04  0.16408235947E+04  0.50400001928E-02 0. -1.
    10030    2    1    2    0    0  0.00000000000E+00  0.00000000000E+00  0.54714532678E+03  0.38287925161E+04  0.37894965527E+04 0.  0.
        4    1    3    3  502    0 -0.15779023511E+04 -0.89833025190E+02  0.13295050183E+04  0.20652919911E+04  0.12699999809E+01 0.  1.
       -4    1    3    3    0  502  0.15779023511E+04  0.89833025190E+02 -0.78235969154E+03  0.17635005250E+04  0.12699999809E+01 0. -1.
</event>
<event>
 5   0  0.5147582E-08  0.3780580E+04  0.7818609E-02  0.8050335E-01
        2   -1    0    0  501    0  0.00000000000E+00  0.00000000000E+00  0.14319110772E+04  0.14319110772E+04  0.25500000920E-02 0. -1.
       -2   -1    0    0    0  501  0.00000000000E+00  0.00000000000E+00 -0.24954041319E+04  0.24954041319E+04  0.25500000920E-02 0.  1.
    10030    2    1    2    0    0  0.00000000000E+00  0.00000000000E+00 -0.10634930546E+04  0.39273152091E+04  0.37805802827E+04 0.  0.
        1    1    3    3  502    0  0.10851145876E+04  0.88217399467E+03 -0.18529155769E+04  0.23214221417E+04  0.50400001928E-02 0.  1.
       -1    1    3    3    0  502 -0.10851145876E+04 -0.88217399467E+03  0.78942252228E+03  0.16058930673E+04  0.50400001928E-02 0. -1.
</event>
<event>
 5   0  0.5207474E-08  0.3800815E+04  0.7818609E-02  0.8045980E-01
        2   -1    0    0  501    0  0.00000000000E+00  0.00000000000E+00  0.13588598014E+04  0.13588598014E+04  0.25500000920E-02 0.  1.
       -2   -1    0    0    0  501  0.00000000000E+00  0.00000000000E+00 -0.26577784202E+04  0.26577784202E+04  0.25500000920E-02 0. -1.
    10030    2    1    2    0    0  0.00000000000E+00  0.00000000000E+00 -0.12989186188E+04  0.40166382216E+04  0.38008147844E+04 0.  0.
        4    1    3    3  502    0  0.39737185539E+03 -0.18185056672E+04 -0.10541941191E+04  0.21392040825E+04  0.12699999809E+01 0. -1.
       -4    1    3    3    0  502 -0.39737185539E+03  0.18185056672E+04 -0.24472449977E+03  0.18774341391E+04  0.12699999809E+01 0.  1.
</event>
<event>
 5   0  0.1628250E-08  0.3802250E+04  0.7818609E-02  0.8045672E-01
        1   -1    0    0  501    0  0.00000000000E+00  0.00000000000E+00  0.15726352935E+04  0.15726352935E+04  0.50400001928E-02 0. -1.
       -1   -1    0    0    0  501  0.00000000000E+00  0.00000000000E+00 -0.22982291966E+04  0.22982291966E+04  0.50400001928E-02 0.  1.
    10030    2    1    2    0    0  0.00000000000E+00  0.00000000000E+00 -0.72559390312E+03  0.38708644902E+04  0.38022500429E+04 0.  0.
        5    1    3    3  502    0 -0.69916793291E+03  0.30003490999E+03  0.14108822824E+04  0.16029559103E+04  0.46999998093E+01 0. -1.
       -5    1    3    3    0  502  0.69916793291E+03 -0.30003490999E+03 -0.21364761855E+04  0.22679085799E+04  0.46999998093E+01 0.  1.
</event>
<event>
 5   0  0.5147582E-08  0.3798533E+04  0.7818609E-02  0.8046470E-01
       -2   -1    0    0    0  501  0.00000000000E+00  0.00000000000E+00  0.22218270927E+04  0.22218270927E+04  0.25500000920E-02 0. -1.
        2   -1    0    0  501    0  0.00000000000E+00  0.00000000000E+00 -0.16235342629E+04  0.16235342629E+04  0.25500000920E-02 0.  1.
    10030    2    1    2    0    0  0.00000000000E+00  0.00000000000E+00  0.59829282980E+03  0.38453613557E+04  0.37985325648E+04 0.  0.
        1    1    3    3  502    0  0.79635596054E+02  0.13265645607E+04  0.16727443983E+04  0.21363963078E+04  0.50400001928E-02 0. -1.
       -1    1    3    3    0  502 -0.79635596054E+02 -0.13265645607E+04 -0.10744515685E+04  0.17089650479E+04  0.50400001928E-02 0.  1.
</event>
<event>
 5   0  0.1628473E-08  0.3801027E+04  0.7818609E-02  0.8045934E-01
       -1   -1    0    0    0  501  0.00000000000E+00  0.00000000000E+00  0.24841928702E+04  0.24841928702E+04  0.50400001928E-02 0. -1.
        1   -1    0    0  501    0  0.00000000000E+00  0.00000000000E+00 -0.14539741288E+04  0.14539741288E+04  0.50400001928E-02 0.  1.
    10030    2    1    2    0    0  0.00000000000E+00  0.00000000000E+00  0.10302187413E+04  0.39381669990E+04  0.38010273160E+04 0.  0.
        3    1    3    3  502    0  0.11455582061E+04 -0.70298052772E+02  0.20845927936E+04  0.23796580731E+04  0.10100000352E+00 0. -1.
       -3    1    3    3    0  502 -0.11455582061E+04  0.70298052772E+02 -0.10543740522E+04  0.15585089259E+04  0.10100000352E+00 0.  1.
</event>
<event>
 5   0  0.1628250E-08  0.3797976E+04  0.7818609E-02  0.8046589E-01
        3   -1    0    0  501    0  0.00000000000E+00  0.00000000000E+00  0.21685698477E+04  0.21685698500E+04  0.10100000352E+00 0.  1.
       -3   -1    0    0    0  501  0.00000000000E+00  0.00000000000E+00 -0.16629191368E+04  0.16629191398E+04  0.10100000352E+00 0. -1.
    10030    2    1    2    0    0  0.00000000000E+00  0.00000000000E+00  0.50565071091E+03  0.38314889899E+04  0.37979764662E+04 0.  0.
        5    1    3    3  502    0 -0.94303579259E+03  0.98836542859E+03 -0.10778860618E+04  0.17401273456E+04  0.46999998093E+01 0. -1.
       -5    1    3    3    0  502  0.94303579259E+03 -0.98836542859E+03  0.15835367728E+04  0.20913616443E+04  0.46999998093E+01 0.  1.
</event>
<event>
 5   0  0.1628250E-08  0.3803761E+04  0.7818609E-02  0.8045348E-01
       -1   -1    0    0    0  501  0.00000000000E+00  0.00000000000E+00  0.15750333975E+04  0.15750333976E+04  0.50400001928E-02 0.  1.
        1   -1    0    0  501    0  0.00000000000E+00  0.00000000000E+00 -0.22965540326E+04  0.22965540326E+04  0.50400001928E-02 0. -1.
    10030    2    1    2    0    0  0.00000000000E+00  0.00000000000E+00 -0.72152063504E+03  0.38715874301E+04  0.38037609287E+04 0.  0.
        5    1    3    3  502    0 -0.22898857622E+03 -0.18527017840E+04 -0.73081944597E+03  0.20047590432E+04  0.46999998093E+01 0. -1.
       -5    1    3    3    0  502  0.22898857622E+03  0.18527017840E+04  0.92988109280E+01  0.18668283870E+04  0.46999998093E+01 0.  1.
</event>
<event>
 5   0  0.5159761E-08  0.3793266E+04  0.7818609E-02  0.8047601E-01
        2   -1    0    0  501    0  0.00000000000E+00  0.00000000000E+00  0.15340230914E+04  0.15340230914E+04  0.25500000920E-02 0.  1.
       -2   -1    0    0    0  501  0.00000000000E+00  0.00000000000E+00 -0.23449563895E+04  0.23449563895E+04  0.25500000920E-02 0. -1.
    10030    2    1    2    0    0  0.00000000000E+00  0.00000000000E+00 -0.81093329817E+03  0.38789794809E+04  0.37932662705E+04 0.  0.
        5    1    3    3  502    0 -0.47889745937E+03 -0.12607078941E+04 -0.17691928333E+04  0.22245881736E+04  0.46999998093E+01 0. -1.
       -5    1    3    3    0  502  0.47889745937E+03  0.12607078941E+04  0.95825953516E+03  0.16543913073E+04  0.46999998093E+01 0.  1.
</event>
<event>
 5   0  0.5159761E-08  0.3807469E+04  0.7818609E-02  0.8044554E-01
        2   -1    0    0  501    0  0.00000000000E+00  0.00000000000E+00  0.21769511878E+04  0.21769511878E+04  0.25500000920E-02 0.  1.
       -2   -1    0    0    0  501  0.00000000000E+00  0.00000000000E+00 -0.16648080685E+04  0.16648080685E+04  0.25500000920E-02 0. -1.
    10030    2    1    2    0    0  0.00000000000E+00  0.00000000000E+00  0.51214311925E+03  0.38417592563E+04  0.38074694495E+04 0.  0.
        5    1    3    3  502    0 -0.11205291276E+03 -0.31801254817E+02 -0.16612034365E+04  0.16652886004E+04  0.46999998093E+01 0. -1.
       -5    1    3    3    0  502  0.11205291276E+03  0.31801254817E+02  0.21733465557E+04  0.21764706560E+04  0.46999998093E+01 0.  1.
</event>
<event>
 5   0  0.5207474E-08  0.3801179E+04  0.7818609E-02  0.8045902E-01
        2   -1    0    0  501    0  0.00000000000E+00  0.00000000000E+00  0.23502257355E+04  0.23502257355E+04  0.25500000920E-02 0. -1.
       -2   -1    0    0    0  501  0.00000000000E+00  0.00000000000E+00 -0.15369757707E+04  0.15369757707E+04  0.25500000920E-02 0.  1.
    10030    2    1    2    0    0  0.00000000000E+00  0.00000000000E+00  0.81324996477E+03  0.38872015061E+04  0.38011787704E+04 0.  0.
        4    1    3    3  502    0  0.89179788154E+03  0.13131369829E+04 -0.66230827597E+03  0.17199668783E+04  0.12699999809E+01 0.  1.
       -4    1    3    3    0  502 -0.89179788154E+03 -0.13131369829E+04  0.14755582407E+04  0.21672346278E+04  0.12699999809E+01 0. -1.
</event>
<event>
 5   0  0.1628250E-08  0.3800479E+04  0.7818609E-02  0.8046052E-01
       -1   -1    0    0    0  501  0.00000000000E+00  0.00000000000E+00  0.19593230435E+04  0.19593230435E+04  0.50400001928E-02 0. -1.
        1   -1    0    0  501    0  0.00000000000E+00  0.00000000000E+00 -0.18429375716E+04  0.18429375716E+04  0.50400001928E-02 0.  1.
    10030    2    1    2    0    0  0.00000000000E+00  0.00000000000E+00  0.11638547188E+03  0.38022606151E+04  0.38004789444E+04 0.  0.
        1    1    3    3  502    0 -0.12974356375E+04 -0.13909297524E+03  0.14402251302E+04  0.19434336919E+04  0.50400001928E-02 0. -1.
       -1    1    3    3    0  502  0.12974356375E+04  0.13909297524E+03 -0.13238396583E+04  0.18588269232E+04  0.50400001928E-02 0.  1.
</event>
<event>
 5   0  0.5159761E-08  0.3804301E+04  0.7818609E-02  0.8045233E-01
       -2   -1    0    0    0  501  0.00000000000E+00  0.00000000000E+00  0.17699658687E+04  0.17699658687E+04  0.25500000920E-02 0.  1.
        2   -1    0    0  501    0  0.00000000000E+00  0.00000000000E+00 -0.20442068522E+04  0.20442068522E+04  0.25500000920E-02 0. -1.
    10030    2    1    2    0    0  0.00000000000E+00  0.00000000000E+00 -0.27424098343E+03  0.38141727209E+04  0.38043009119E+04 0.  0.
        5    1    3    3  502    0 -0.68194422260E+03 -0.56585622846E+03  0.15503730471E+04  0.17857547057E+04  0.46999998093E+01 0.  1.
       -5    1    3    3    0  502  0.68194422260E+03  0.56585622846E+03 -0.18246140305E+04  0.20284180152E+04  0.46999998093E+01 0. -1.
</event>
<event>
 5   0  0.1628250E-08  0.3799296E+04  0.7818609E-02  0.8046306E-01
       -1   -1    0    0    0  501  0.00000000000E+00  0.00000000000E+00  0.19375692781E+04  0.19375692781E+04  0.50400001928E-02 0.  1.
        1   -1    0    0  501    0  0.00000000000E+00  0.00000000000E+00 -0.18624685576E+04  0.18624685576E+04  0.50400001928E-02 0. -1.
    10030    2    1    2    0    0  0.00000000000E+00  0.00000000000E+00  0.75100720464E+02  0.38000378357E+04  0.37992956498E+04 0.  0.
        5    1    3    3  502    0 -0.11401259414E+04  0.89969089553E+03 -0.11871515345E+04  0.18758149497E+04  0.46999998093E+01 0. -1.
       -5    1    3    3    0  502  0.11401259414E+04 -0.89969089553E+03  0.12622522550E+04  0.19242228860E+04  0.46999998093E+01 0.  1.
</event>
<event>
 5   0  0.5086209E-08  0.3829796E+04  0.7818609E-02  0.8039791E-01
        2   -1    0    0  501    0  0.00000000000E+00  0.00000000000E+00  0.19247925288E+04  0.19247925288E+04  0.25500000920E-02 0. -1.
       -2   -1    0    0    0  501  0.00000000000E+00  0.00000000000E+00 -0.19050539439E+04  0.19050539439E+04  0.25500000920E-02 0.  1.
    10030    2    1    2    0    0  0.00000000000E+00  0.00000000000E+00  0.19738584840E+02  0.38298464727E+04  0.38297956072E+04 0.  0.
        3    1    3    3  502    0 -0.17625633730E+04  0.60681466716E+03  0.44803022563E+03  0.19171814670E+04  0.10100000352E+00 0. -1.
       -3    1    3    3    0  502  0.17625633730E+04 -0.60681466716E+03 -0.42829164079E+03  0.19126650057E+04  0.10100000352E+00 0.  1.
</event>
<event>
 5   0  0.5159761E-08  0.3799290E+04  0.7818609E-02  0.8046307E-01
       -2   -1    0    0    0  501  0.00000000000E+00  0.00000000000E+00  0.24141819909E+04  0.24141819909E+04  0.25500000920E-02 0. -1.
        2   -1    0    0  501    0  0.00000000000E+00  0.00000000000E+00 -0.14947719342E+04  0.14947719342E+04  0.25500000920E-02 0.  1.
    10030    2    1    2    0    0  0.00000000000E+00  0.00000000000E+00  0.91941005670E+03  0.39089539251E+04  0.37992901884E+04 0.  0.
        5    1    3    3  502    0 -0.70486371358E+03 -0.25169989138E+03  0.22560807422E+04  0.23769956027E+04  0.46999998093E+01 0. -1.
       -5    1    3    3    0  502  0.70486371358E+03  0.25169989138E+03 -0.13366706855E+04  0.15319583224E+04  0.46999998093E+01 0.  1.
</event>
<event>
 5   0  0.1628250E-08  0.3800390E+04  0.7818609E-02  0.8046071E-01
        1   -1    0    0  501    0  0.00000000000E+00  0.00000000000E+00  0.18848486863E+04  0.18848486864E+04  0.50400001928E-02 0. -1.
       -1   -1    0    0    0  501  0.00000000000E+00  0.00000000000E+00 -0.19156658399E+04  0.19156658399E+04  0.50400001928E-02 0.  1.
    10030    2    1    2    0    0  0.00000000000E+00  0.00000000000E+00 -0.30817153507E+02  0.38005145262E+04  0.38003895809E+04 0.  0.
        4    1    3    3  502    0 -0.56505445430E+03  0.85498028527E+03 -0.16156051795E+04  0.19132327442E+04  0.12699999809E+01 0.  1.
       -4    1    3    3    0  502  0.56505445430E+03 -0.85498028527E+03  0.15847880260E+04  0.18872817820E+04  0.12699999809E+01 0. -1.
</event>
<event>
 5   0  0.5086209E-08  0.3781490E+04  0.7818609E-02  0.8050139E-01
       -2   -1    0    0    0  501  0.00000000000E+00  0.00000000000E+00  0.33964856760E+04  0.33964856760E+04  0.25500000920E-02 0.  1.
        2   -1    0    0  501    0  0.00000000000E+00  0.00000000000E+00 -0.10525341686E+04  0.10525341686E+04  0.25500000920E-02 0. -1.
    10030    2    1    2    0    0  0.00000000000E+00  0.00000000000E+00  0.23439515074E+04  0.44490198446E+04  0.37814903026E+04 0.  0.
        3    1    3    3  502    0 -0.17273188721E+04  0.91110861248E+02  0.27365745959E+03  0.17512338765E+04  0.10100000352E+00 0.  1.
       -3    1    3    3    0  502  0.17273188721E+04 -0.91110861248E+02  0.20702940478E+04  0.26977859681E+04  0.10100000352E+00 0. -1.
</event>
<event>
 5   0  0.5140842E-08  0.3809204E+04  0.7818609E-02  0.8044183E-01
        2   -1    0    0  501    0  0.00000000000E+00  0.00000000000E+00  0.16877116923E+04  0.16877116923E+04  0.25500000920E-02 0.  1.
       -2   -1    0    0    0  501  0.00000000000E+00  0.00000000000E+00 -0.21493649802E+04  0.21493649802E+04  0.25500000920E-02 0. -1.
    10030    2    1    2    0    0  0.00000000000E+00  0.00000000000E+00 -0.46165328781E+03  0.38370766725E+04  0.38092038056E+04 0.  0.
        2    1    3    3  502    0  0.40454163649E+03  0.12469965840E+04 -0.16225490623E+04  0.20859817535E+04  0.25500000920E-02 0. -1.
       -2    1    3    3    0  502 -0.40454163649E+03 -0.12469965840E+04  0.11608957745E+04  0.17510949190E+04  0.25500000920E-02 0.  1.
</event>
<event>
 5   0  0.5207474E-08  0.3793590E+04  0.7818609E-02  0.8047532E-01
       -2   -1    0    0    0  501  0.00000000000E+00  0.00000000000E+00  0.16727558300E+04  0.16727558300E+04  0.25500000920E-02 0.  1.
        2   -1    0    0  501    0  0.00000000000E+00  0.00000000000E+00 -0.21508407990E+04  0.21508407990E+04  0.25500000920E-02 0. -1.
    10030    2    1    2    0    0  0.00000000000E+00  0.00000000000E+00 -0.47808496900E+03  0.38235966290E+04  0.37935901128E+04 0.  0.
        4    1    3    3  502    0  0.18171703698E+04  0.16333301827E+03 -0.76183981044E+03  0.19771664921E+04  0.12699999809E+01 0.  1.
       -4    1    3    3    0  502 -0.18171703698E+04 -0.16333301827E+03  0.28375484144E+03  0.18464301370E+04  0.12699999809E+01 0. -1.
</event>
<event>
 5   0  0.5086209E-08  0.3805265E+04  0.7818609E-02  0.8045026E-01
       -2   -1    0    0    0  501  0.00000000000E+00  0.00000000000E+00  0.11748538837E+04  0.11748538837E+04  0.25500000920E-02 0.  1.
        2   -1    0    0  501    0  0.00000000000E+00  0.00000000000E+00 -0.30812435914E+04  0.30812435914E+04  0.25500000920E-02 0. -1.
    10030    2    1    2    0    0  0.00000000000E+00  0.00000000000E+00 -0.19063897077E+04  0.42560974751E+04  0.38052652996E+04 0.  0.
        3    1    3    3  502    0 -0.17563245025E+04  0.28776888099E+03 -0.20079694632E+03  0.17910349273E+04  0.10100000352E+00 0. -1.
       -3    1    3    3    0  502  0.17563245025E+04 -0.28776888099E+03 -0.17055927614E+04  0.24650625478E+04  0.10100000352E+00 0.  1.
</event>
<event>
 5   0  0.5147582E-08  0.3798737E+04  0.7818609E-02  0.8046426E-01
       -2   -1    0    0    0  501  0.00000000000E+00  0.00000000000E+00  0.19847474308E+04  0.19847474308E+04  0.25500000920E-02 0.  1.
        2   -1    0    0  501    0  0.00000000000E+00  0.00000000000E+00 -0.18176621874E+04  0.18176621875E+04  0.25500000920E-02 0. -1.
    10030    2    1    2    0    0  0.00000000000E+00  0.00000000000E+00  0.16708524334E+03  0.38024096182E+04  0.37987368198E+04 0.  0.
        1    1    3    3  502    0  0.13994170457E+03  0.51906602596E+03 -0.17399176528E+04  0.18210784329E+04  0.50400001928E-02 0. -1.
       -1    1    3    3    0  502 -0.13994170457E+03 -0.51906602596E+03  0.19070028962E+04  0.19813311854E+04  0.50400001928E-02 0.  1.
</event>
<event>
 5   0  0.5147582E-08  0.3779154E+04  0.7818609E-02  0.8050643E-01
       -2   -1    0    0    0  501  0.00000000000E+00  0.00000000000E+00  0.33816512931E+04  0.33816512931E+04  0.25500000920E-02 0. -1.
        2   -1    0    0  501    0  0.00000000000E+00  0.00000000000E+00 -0.10558457203E+04  0.10558457203E+04  0.25500000920E-02 0.  1.
    10030    2    1    2    0    0  0.00000000000E+00  0.00000000000E+00  0.23258055728E+04  0.44374970134E+04  0.37791544268E+04 0.  0.
        1    1    3    3  502    0  0.24127598959E+03  0.17338693758E+04  0.32766097595E+03  0.17809769315E+04  0.50400001928E-02 0.  1.
       -1    1    3    3    0  502 -0.24127598959E+03 -0.17338693758E+04  0.19981445969E+04  0.26565200819E+04  0.50400001928E-02 0. -1.
</event>
<event>
 5   0  0.1628250E-08  0.3793731E+04  0.7818609E-02  0.8047501E-01
       -1   -1    0    0    0  501  0.00000000000E+00  0.00000000000E+00  0.14179202887E+04  0.14179202887E+04  0.50400001928E-02 0.  1.
        1   -1    0    0  501    0  0.00000000000E+00  0.00000000000E+00 -0.25375894141E+04  0.25375894141E+04  0.50400001928E-02 0. -1.
    10030    2    1    2    0    0  0.00000000000E+00  0.00000000000E+00 -0.11196691254E+04  0.39555097028E+04  0.37937314162E+04 0.  0.
        1    1    3    3  502    0  0.93346658954E+03  0.16512841574E+04 -0.56037869327E+03  0.19779088761E+04  0.50400001928E-02 0. -1.
       -1    1    3    3    0  502 -0.93346658954E+03 -0.16512841574E+04 -0.55929043213E+03  0.19776008267E+04  0.50400001928E-02 0.  1.
</event>
<event>
 5   0  0.1666051E-08  0.3766461E+04  0.7818609E-02  0.8053391E-01
       -1   -1    0    0    0  501  0.00000000000E+00  0.00000000000E+00  0.23892255980E+04  0.23892255980E+04  0.50400001928E-02 0. -1.
        1   -1    0    0  501    0  0.00000000000E+00  0.00000000000E+00 -0.14843959146E+04  0.14843959146E+04  0.50400001928E-02 0.  1.
    10030    2    1    2    0    0  0.00000000000E+00  0.00000000000E+00  0.90482968336E+03  0.38736215126E+04  0.37664607880E+04 0.  0.
        2    1    3    3  502    0 -0.11869459706E+04  0.14572991270E+04  0.57408212663E+03  0.19652307170E+04  0.25500000920E-02 0. -1.
       -2    1    3    3    0  502  0.11869459706E+04 -0.14572991270E+04  0.33074755673E+03  0.19083907957E+04  0.25500000920E-02 0.  1.
</event>
<event>
 5   0  0.5147582E-08  0.3794295E+04  0.7818609E-02  0.8047380E-01
       -2   -1    0    0    0  501  0.00000000000E+00  0.00000000000E+00  0.14069135012E+04  0.14069135012E+04  0.25500000920E-02 0.  1.
        2   -1    0    0  501    0  0.00000000000E+00  0.00000000000E+00 -0.25582013942E+04  0.25582013942E+04  0.25500000920E-02 0. -1.
    10030    2    1    2    0    0  0.00000000000E+00  0.00000000000E+00 -0.11512878930E+04  0.39651148954E+04  0.37942947066E+04 0.  0.
        1    1    3    3  502    0 -0.56885275609E+03 -0.81122058745E+03 -0.22663484574E+04  0.24734606587E+04  0.50400001928E-02 0. -1.
       -1    1    3    3    0  502  0.56885275609E+03  0.81122058745E+03  0.11150605644E+04  0.14916542367E+04  0.50400001928E-02 0.  1.
</event>
<event>
 5   0  0.1628250E-08  0.3793562E+04  0.7818609E-02  0.8047538E-01
        1   -1    0    0  501    0  0.00000000000E+00  0.00000000000E+00  0.21072080648E+04  0.21072080648E+04  0.50400001928E-02 0. -1.
       -1   -1    0    0    0  501  0.00000000000E+00  0.00000000000E+00 -0.17073673958E+04  0.17073673958E+04  0.50400001928E-02 0.  1.
    10030    2    1    2    0    0  0.00000000000E+00  0.00000000000E+00  0.39984066902E+03  0.38145754606E+04  0.37935620970E+04 0.  0.
        5    1    3    3  502    0 -0.16731015589E+04  0.53480425091E+03  0.91975708841E+03  0.19827404280E+04  0.46999998093E+01 0. -1.
       -5    1    3    3    0  502  0.16731015589E+04 -0.53480425091E+03 -0.51991641939E+03  0.18318350326E+04  0.46999998093E+01 0.  1.
</event>
<event>
 5   0  0.5159761E-08  0.3803739E+04  0.7818609E-02  0.8045353E-01
       -2   -1    0    0    0  501  0.00000000000E+00  0.00000000000E+00  0.12288907930E+04  0.12288907930E+04  0.25500000920E-02 0. -1.
        2   -1    0    0  501    0  0.00000000000E+00  0.00000000000E+00 -0.29433922737E+04  0.29433922737E+04  0.25500000920E-02 0.  1.
    10030    2    1    2    0    0  0.00000000000E+00  0.00000000000E+00 -0.17145014807E+04  0.41722830667E+04  0.38037390370E+04 0.  0.
        5    1    3    3  502    0  0.10553725203E+04 -0.11321153560E+04  0.35509265515E+03  0.15879575622E+04  0.46999998093E+01 0. -1.
       -5    1    3    3    0  502 -0.10553725203E+04  0.11321153560E+04 -0.20695941359E+04  0.25843255044E+04  0.46999998093E+01 0.  1.
</event>
<event>
 5   0  0.1628473E-08  0.3796502E+04  0.7818609E-02  0.8046906E-01
        1   -1    0    0  501    0  0.00000000000E+00  0.00000000000E+00  0.16617442218E+04  0.16617442218E+04  0.50400001928E-02 0. -1.
       -1   -1    0    0    0  501  0.00000000000E+00  0.00000000000E+00 -0.21684182001E+04  0.21684182001E+04  0.50400001928E-02 0.  1.
    10030    2    1    2    0    0  0.00000000000E+00  0.00000000000E+00 -0.50667397830E+03  0.38301624220E+04  0.37965017659E+04 0.  0.
        3    1    3    3  502    0  0.13192384973E+04 -0.77464616458E+03  0.88041030359E+03  0.17651031715E+04  0.10100000352E+00 0. -1.
       -3    1    3    3    0  502 -0.13192384973E+04  0.77464616458E+03 -0.13870842819E+04  0.20650592505E+04  0.10100000352E+00 0.  1.
</event>
<event>
 5   0  0.5140842E-08  0.3801892E+04  0.7818609E-02  0.8045749E-01
        2   -1    0    0  501    0  0.00000000000E+00  0.00000000000E+00  0.17192103097E+04  0.17192103097E+04  0.25500000920E-02 0.  1.
       -2   -1    0    0    0  501  0.00000000000E+00  0.00000000000E+00 -0.21018932690E+04  0.21018932690E+04  0.25500000920E-02 0. -1.
    10030    2    1    2    0    0  0.00000000000E+00  0.00000000000E+00 -0.38268295936E+03  0.38211035787E+04  0.38018924645E+04 0.  0.
        2    1    3    3  502    0 -0.32045364432E+03 -0.15847071540E+04  0.81351519178E+03  0.18099155420E+04  0.25500000920E-02 0.  1.
       -2    1    3    3    0  502  0.32045364432E+03  0.15847071540E+04 -0.11961981511E+04  0.20111880367E+04  0.25500000920E-02 0. -1.
</event>
<event>
 5   0  0.1628250E-08  0.3804606E+04  0.7818609E-02  0.8045167E-01
        1   -1    0    0  501    0  0.00000000000E+00  0.00000000000E+00  0.21639380825E+04  0.21639380825E+04  0.50400001928E-02 0. -1.
       -1   -1    0    0    0  501  0.00000000000E+00  0.00000000000E+00 -0.16723010576E+04  0.16723010576E+04  0.50400001928E-02 0.  1.
    10030    2    1    2    0    0  0.00000000000E+00  0.00000000000E+00  0.49163702484E+03  0.38362391401E+04  0.38046056006E+04 0.  0.
        4    1    3    3  502    0 -0.89537373644E+03 -0.12346355642E+04  0.13922571672E+04  0.20650425508E+04  0.12699999809E+01 0. -1.
       -4    1    3    3    0  502  0.89537373644E+03  0.12346355642E+04 -0.90062014233E+03  0.17711965893E+04  0.12699999809E+01 0.  1.
</event>
<event>
 5   0  0.1628250E-08  0.3800902E+04  0.7818609E-02  0.8045961E-01
       -1   -1    0    0    0  501  0.00000000000E+00  0.00000000000E+00  0.12876027052E+04  0.12876027052E+04  0.50400001928E-02 0.  1.
        1   -1    0    0  501    0  0.00000000000E+00  0.00000000000E+00 -0.28049914190E+04  0.28049914190E+04  0.50400001928E-02 0. -1.
    10030    2    1    2    0    0  0.00000000000E+00  0.00000000000E+00 -0.15173887138E+04  0.40925941242E+04  0.38009022820E+04 0.  0.
        5    1    3    3  502    0 -0.43841617373E+03 -0.10525737734E+04 -0.23957585128E+04  0.26532623752E+04  0.46999998093E+01 0. -1.
       -5    1    3    3    0  502  0.43841617373E+03  0.10525737734E+04  0.87836979903E+03  0.14393317490E+04  0.46999998093E+01 0.  1.
</event>
<event>
 5   0  0.1628473E-08  0.3802789E+04  0.7818609E-02  0.8045557E-01
       -1   -1    0    0    0  501  0.00000000000E+00  0.00000000000E+00  0.15156634790E+04  0.15156634790E+04  0.50400001928E-02 0. -1.
        1   -1    0    0  501    0  0.00000000000E+00  0.00000000000E+00 -0.23852931930E+04  0.23852931930E+04  0.50400001928E-02 0.  1.
    10030    2    1    2    0    0  0.00000000000E+00  0.00000000000E+00 -0.86962971397E+03  0.39009566720E+04  0.38027893864E+04 0.  0.
        3    1    3    3  502    0  0.17317207317E+04 -0.44109893486E+03 -0.11011023764E+04  0.20990120096E+04  0.10100000352E+00 0. -1.
       -3    1    3    3    0  502 -0.17317207317E+04  0.44109893486E+03  0.23147266247E+03  0.18019446624E+04  0.10100000352E+00 0.  1.
</event>
<event>
 5   0  0.1666051E-08  0.3802029E+04  0.7818609E-02  0.8045720E-01
       -1   -1    0    0    0  501  0.00000000000E+00  0.00000000000E+00  0.18646922253E+04  0.18646922253E+04  0.50400001928E-02 0.  1.
        1   -1    0    0  501    0  0.00000000000E+00  0.00000000000E+00 -0.19380441704E+04  0.19380441704E+04  0.50400001928E-02 0. -1.
    10030    2    1    2    0    0  0.00000000000E+00  0.00000000000E+00 -0.73351945049E+02  0.38027363957E+04  0.38020288778E+04 0.  0.
        2    1    3    3  502    0 -0.13234381340E+03  0.30974292324E+03  0.18346078730E+04  0.18652725300E+04  0.25500000920E-02 0.  1.
       -2    1    3    3    0  502  0.13234381340E+03 -0.30974292324E+03 -0.19079598181E+04  0.19374638657E+04  0.25500000920E-02 0. -1.
</event>
<event>
 5   0  0.5086209E-08  0.3792219E+04  0.7818609E-02  0.8047827E-01
        2   -1    0    0  501    0  0.00000000000E+00  0.00000000000E+00  0.14181983130E+04  0.14181983130E+04  0.25500000920E-02 0. -1.
       -2   -1    0    0    0  501  0.00000000000E+00  0.00000000000E+00 -0.25350690042E+04  0.25350690042E+04  0.25500000920E-02 0.  1.
    10030    2    1    2    0    0  0.00000000000E+00  0.00000000000E+00 -0.11168706912E+04  0.39532673172E+04  0.37922186567E+04 0.  0.
        3    1    3    3  502    0  0.18037839256E+04 -0.40744683318E+03 -0.12161604294E+03  0.18532241754E+04  0.10100000352E+00 0. -1.
       -3    1    3    3    0  502 -0.18037839256E+04  0.40744683318E+03 -0.99525464827E+03  0.21000431418E+04  0.10100000352E+00 0.  1.
</event>
<event>
 5   0  0.5147582E-08  0.3827788E+04  0.7818609E-02  0.8040218E-01
        2   -1    0    0  501    0  0.00000000000E+00  0.00000000000E+00  0.24996698519E+04  0.24996698519E+04  0.25500000920E-02 0.  1.
       -2   -1    0    0    0  501  0.00000000000E+00  0.00000000000E+00 -0.14653897295E+04  0.14653897295E+04  0.25500000920E-02 0. -1.
    10030    2    1    2    0    0  0.00000000000E+00  0.00000000000E+00  0.10342801224E+04  0.39650595814E+04  0.38277881489E+04 0.  0.
        1    1    3    3  502    0 -0.10053131311E+04 -0.12098501308E+04 -0.61218625699E+03  0.16879466354E+04  0.50400001928E-02 0. -1.
       -1    1    3    3    0  502  0.10053131311E+04  0.12098501308E+04  0.16464663794E+04  0.22771129460E+04  0.50400001928E-02 0.  1.
</event>
<event>
 5   0  0.1666051E-08  0.3802364E+04  0.7818609E-02  0.8045648E-01
        1   -1    0    0  501    0  0.00000000000E+00  0.00000000000E+00  0.23846812035E+04  0.23846812035E+04  0.50400001928E-02 0.  1.
       -1   -1    0    0    0  501  0.00000000000E+00  0.00000000000E+00 -0.15157131463E+04  0.15157131463E+04  0.50400001928E-02 0. -1.
    10030    2    1    2    0    0  0.00000000000E+00  0.00000000000E+00  0.86896805727E+03  0.39003943498E+04  0.38023638174E+04 0.  0.
        2    1    3    3  502    0 -0.13814653095E+04  0.12168742351E+04  0.92133956600E+03  0.20586636202E+04  0.25500000920E-02 0.  1.
       -2    1    3    3    0  502  0.13814653095E+04 -0.12168742351E+04 -0.52371508729E+02  0.18417307296E+04  0.25500000920E-02 0. -1.
</event>
<event>
 5   0  0.1628250E-08  0.3802347E+04  0.7818609E-02  0.8045651E-01
       -1   -1    0    0    0  501  0.00000000000E+00  0.00000000000E+00  0.12276678788E+04  0.12276678788E+04  0.50400001928E-02 0. -1.
        1   -1    0    0  501    0  0.00000000000E+00  0.00000000000E+00 -0.29441680291E+04  0.29441680291E+04  0.50400001928E-02 0.  1.
    10030    2    1    2    0    0  0.00000000000E+00  0.00000000000E+00 -0.17165001503E+04  0.41718359079E+04  0.38023469169E+04 0.  0.
        4    1    3    3  502    0  0.18555505707E+04  0.26530945126E+03 -0.12069406517E+04  0.22293865467E+04  0.12699999809E+01 0.  1.
       -4    1    3    3    0  502 -0.18555505707E+04 -0.26530945126E+03 -0.50955949863E+03  0.19424493612E+04  0.12699999809E+01 0. -1.
</event>
<event>
 5   0  0.1628473E-08  0.3801673E+04  0.7818609E-02  0.8045796E-01
        1   -1    0    0  501    0  0.00000000000E+00  0.00000000000E+00  0.21943558484E+04  0.21943558484E+04  0.50400001928E-02 0. -1.
       -1   -1    0    0    0  501  0.00000000000E+00  0.00000000000E+00 -0.16465782560E+04  0.16465782560E+04  0.50400001928E-02 0.  1.
    10030    2    1    2    0    0  0.00000000000E+00  0.00000000000E+00  0.54777759240E+03  0.38409341044E+04  0.38016725929E+04 0.  0.
        3    1    3    3  502    0  0.43802436204E+03  0.39324378746E+03  0.20999484007E+04  0.21808918620E+04  0.10100000352E+00 0. -1.
       -3    1    3    3    0  502 -0.43802436204E+03 -0.39324378746E+03 -0.15521708083E+04  0.16600422423E+04  0.10100000352E+00 0.  1.
</event>
<event>
 5   0  0.1628250E-08  0.3783405E+04  0.7818609E-02  0.8049726E-01
       -1   -1    0    0    0  501  0.00000000000E+00  0.00000000000E+00  0.12612878271E+04  0.12612878271E+04  0.50400001928E-02 0. -1.
        1   -1    0    0  501    0  0.00000000000E+00  0.00000000000E+00 -0.28372098835E+04  0.28372098835E+04  0.50400001928E-02 0.  1.
    10030    2    1    2    0    0  0.00000000000E+00  0.00000000000E+00 -0.15759220564E+04  0.40984977107E+04  0.37834049686E+04 0.  0.
        4    1    3    3  502    0 -0.42997843260E+03 -0.80160036948E+03 -0.25847390622E+04  0.27401317920E+04  0.12699999809E+01 0.  1.
       -4    1    3    3    0  502  0.42997843260E+03  0.80160036948E+03  0.10088170058E+04  0.13583659187E+04  0.12699999809E+01 0. -1.
</event>
<event>
 5   0  0.5140842E-08  0.3785507E+04  0.7818609E-02  0.8049272E-01
        2   -1    0    0  501    0  0.00000000000E+00  0.00000000000E+00  0.16139770510E+04  0.16139770510E+04  0.25500000920E-02 0. -1.
       -2   -1    0    0    0  501  0.00000000000E+00  0.00000000000E+00 -0.22196814444E+04  0.22196814444E+04  0.25500000920E-02 0.  1.
    10030    2    1    2    0    0  0.00000000000E+00  0.00000000000E+00 -0.60570439340E+03  0.38336584955E+04  0.37855065246E+04 0.  0.
        2    1    3    3  502    0  0.10683590773E+04  0.88715766485E+03 -0.16053201073E+04  0.21226145405E+04  0.25500000920E-02 0.  1.
       -2    1    3    3    0  502 -0.10683590773E+04 -0.88715766485E+03  0.99961571394E+03  0.17110439550E+04  0.25500000920E-02 0. -1.
</event>
<event>
 5   0  0.5147582E-08  0.3806826E+04  0.7818609E-02  0.8044692E-01
       -2   -1    0    0    0  501  0.00000000000E+00  0.00000000000E+00  0.13027518770E+04  0.13027518770E+04  0.25500000920E-02 0.  1.
        2   -1    0    0  501    0  0.00000000000E+00  0.00000000000E+00 -0.27810218422E+04  0.27810218422E+04  0.25500000920E-02 0. -1.
    10030    2    1    2    0    0  0.00000000000E+00  0.00000000000E+00 -0.14782699652E+04  0.40837737191E+04  0.38068261976E+04 0.  0.
        1    1    3    3  502    0  0.11317317041E+04  0.15116291839E+04 -0.99556938113E+03  0.21347125878E+04  0.50400001928E-02 0. -1.
       -1    1    3    3    0  502 -0.11317317041E+04 -0.15116291839E+04 -0.48270058408E+03  0.19490611313E+04  0.50400001928E-02 0.  1.
</event>
<event>
 5   0  0.1628250E-08  0.3812492E+04  0.7818609E-02  0.8043479E-01
       -1   -1    0    0    0  501  0.00000000000E+00  0.00000000000E+00  0.26825310868E+04  0.26825310868E+04  0.50400001928E-02 0. -1.
        1   -1    0    0  501    0  0.00000000000E+00  0.00000000000E+00 -0.13546063819E+04  0.13546063819E+04  0.50400001928E-02 0.  1.
    10030    2    1    2    0    0  0.00000000000E+00  0.00000000000E+00  0.13279247049E+04  0.40371374687E+04  0.38124919566E+04 0.  0.
        1    1    3    3  502    0 -0.12634618291E+04  0.14159479880E+04  0.85494834008E+03  0.20813892385E+04  0.50400001928E-02 0. -1.
       -1    1    3    3    0  502  0.12634618291E+04 -0.14159479880E+04  0.47297636486E+03  0.19557482302E+04  0.50400001928E-02 0.  1.
</event>
<event>
 5   0  0.5140842E-08  0.3804860E+04  0.7818609E-02  0.8045113E-01
        2   -1    0    0  501    0  0.00000000000E+00  0.00000000000E+00  0.14540377095E+04  0.14540377095E+04  0.25500000920E-02 0.  1.
       -2   -1    0    0    0  501  0.00000000000E+00  0.00000000000E+00 -0.24890967990E+04  0.24890967990E+04  0.25500000920E-02 0. -1.
    10030    2    1    2    0    0  0.00000000000E+00  0.00000000000E+00 -0.10350590895E+04  0.39431345085E+04  0.38048603697E+04 0.  0.
        2    1    3    3  502    0 -0.83273983268E+03 -0.16853629710E+04 -0.82027011605E+03  0.20510356009E+04  0.25500000920E-02 0.  1.
       -2    1    3    3    0  502  0.83273983268E+03  0.16853629710E+04 -0.21478897344E+03  0.18920989076E+04  0.25500000920E-02 0. -1.
</event>
<event>
 5   0  0.1628473E-08  0.3802890E+04  0.7818609E-02  0.8045535E-01
        1   -1    0    0  501    0  0.00000000000E+00  0.00000000000E+00  0.21442052434E+04  0.21442052434E+04  0.50400001928E-02 0.  1.
       -1   -1    0    0    0  501  0.00000000000E+00  0.00000000000E+00 -0.16861693996E+04  0.16861693996E+04  0.50400001928E-02 0. -1.
    10030    2    1    2    0    0  0.00000000000E+00  0.00000000000E+00  0.45803584380E+03  0.38303746429E+04  0.38028900945E+04 0.  0.
        3    1    3    3  502    0  0.37216602950E+03 -0.34700334828E+03  0.20743546138E+04  0.21358525116E+04  0.10100000352E+00 0.  1.
       -3    1    3    3    0  502 -0.37216602950E+03  0.34700334828E+03 -0.16163187700E+04  0.16945221314E+04  0.10100000352E+00 0. -1.
</event>
<event>
 5   0  0.5147582E-08  0.3801290E+04  0.7818609E-02  0.8045878E-01
        2   -1    0    0  501    0  0.00000000000E+00  0.00000000000E+00  0.22856558380E+04  0.22856558380E+04  0.25500000920E-02 0.  1.
       -2   -1    0    0    0  501  0.00000000000E+00  0.00000000000E+00 -0.15804877913E+04  0.15804877913E+04  0.25500000920E-02 0. -1.
    10030    2    1    2    0    0  0.00000000000E+00  0.00000000000E+00  0.70516804664E+03  0.38661436293E+04  0.38012898585E+04 0.  0.
        1    1    3    3  502    0 -0.11348823953E+04 -0.12614340131E+04 -0.51834171527E+03  0.17742186884E+04  0.50400001928E-02 0. -1.
       -1    1    3    3    0  502  0.11348823953E+04  0.12614340131E+04  0.12235097619E+04  0.20919249408E+04  0.50400001928E-02 0.  1.
</event>
<event>
 5   0  0.1628473E-08  0.3803409E+04  0.7818609E-02  0.8045424E-01
        1   -1    0    0  501    0  0.00000000000E+00  0.00000000000E+00  0.15501789970E+04  0.15501789970E+04  0.50400001928E-02 0. -1.
       -1   -1    0    0    0  501  0.00000000000E+00  0.00000000000E+00 -0.23329434001E+04  0.23329434001E+04  0.50400001928E-02 0.  1.
    10030    2    1    2    0    0  0.00000000000E+00  0.00000000000E+00 -0.78276440312E+03  0.38831223971E+04  0.38034089235E+04 0.  0.
        3    1    3    3  502    0 -0.91130810405E+03  0.11674437018E+04 -0.16093101202E+04  0.21870725481E+04  0.10100000352E+00 0.  1.
       -3    1    3    3    0  502  0.91130810405E+03 -0.11674437018E+04  0.82654571712E+03  0.16960498489E+04  0.10100000352E+00 0. -1.
</event>
<event>
 5   0  0.5159761E-08  0.3803384E+04  0.7818609E-02  0.8045429E-01
       -2   -1    0    0    0  501  0.00000000000E+00  0.00000000000E+00  0.15656787986E+04  0.15656787986E+04  0.25500000920E-02 0.  1.
        2   -1    0    0  501    0  0.00000000000E+00  0.00000000000E+00 -0.23098179241E+04  0.23098179241E+04  0.25500000920E-02 0. -1.
    10030    2    1    2    0    0  0.00000000000E+00  0.00000000000E+00 -0.74413912549E+03  0.38754967226E+04  0.38033842573E+04 0.  0.
        5    1    3    3  502    0  0.15999156175E+04 -0.32480293825E+03  0.62170853671E+03  0.17469317464E+04  0.46999998093E+01 0.  1.
       -5    1    3    3    0  502 -0.15999156175E+04  0.32480293825E+03 -0.13658476622E+04  0.21285649763E+04  0.46999998093E+01 0. -1.
</event>
<event>
 5   0  0.5147582E-08  0.3803005E+04  0.7818609E-02  0.8045510E-01
        2   -1    0    0  501    0  0.00000000000E+00  0.00000000000E+00  0.17941118583E+04  0.17941118583E+04  0.25500000920E-02 0.  1.
       -2   -1    0    0    0  501  0.00000000000E+00  0.00000000000E+00 -0.20153208297E+04  0.20153208297E+04  0.25500000920E-02 0. -1.
    10030    2    1    2    0    0  0.00000000000E+00  0.00000000000E+00 -0.22120897147E+03  0.38094326880E+04  0.38030046010E+04 0.  0.
        1    1    3    3  502    0 -0.26227731218E+03 -0.17566705999E+04  0.56953510079E+03  0.18652214925E+04  0.50400001928E-02 0.  1.
       -1    1    3    3    0  502  0.26227731218E+03  0.17566705999E+04 -0.79074407226E+03  0.19442111955E+04  0.50400001928E-02 0. -1.
</event>
<event>
 5   0  0.1666051E-08  0.3829684E+04  0.7818609E-02  0.8039815E-01
       -1   -1    0    0    0  501  0.00000000000E+00  0.00000000000E+00  0.12614039831E+04  0.12614039831E+04  0.50400001928E-02 0. -1.
        1   -1    0    0  501    0  0.00000000000E+00  0.00000000000E+00 -0.29067763501E+04  0.29067763501E+04  0.50400001928E-02 0.  1.
    10030    2    1    2    0    0  0.00000000000E+00  0.00000000000E+00 -0.16453723670E+04  0.41681803332E+04  0.38296836767E+04 0.  0.
        2    1    3    3  502    0 -0.11995301204E+04 -0.34656497382E+03  0.75740357614E+03  0.14603561100E+04  0.25500000920E-02 0. -1.
       -2    1    3    3    0  502  0.11995301204E+04  0.34656497382E+03 -0.24027759432E+04  0.27078242232E+04  0.25500000920E-02 0.  1.
</event>
<event>
 5   0  0.5140842E-08  0.3803091E+04  0.7818609E-02  0.8045492E-01
       -2   -1    0    0    0  501  0.00000000000E+00  0.00000000000E+00  0.30628897733E+04  0.30628897733E+04  0.25500000920E-02 0. -1.
        2   -1    0    0  501    0  0.00000000000E+00  0.00000000000E+00 -0.11805436178E+04  0.11805436178E+04  0.25500000920E-02 0.  1.
    10030    2    1    2    0    0  0.00000000000E+00  0.00000000000E+00  0.18823461555E+04  0.42434333912E+04  0.38030908346E+04 0.  0.
        2    1    3    3  502    0 -0.17910099811E+04 -0.14939604260E+03  0.24809242218E+03  0.18142727965E+04  0.25500000920E-02 0.  1.
       -2    1    3    3    0  502  0.17910099811E+04  0.14939604260E+03  0.16342537333E+04  0.24291605947E+04  0.25500000920E-02 0. -1.
</event>
<event>
 5   0  0.5147582E-08  0.3799779E+04  0.7818609E-02  0.8046202E-01
        2   -1    0    0  501    0  0.00000000000E+00  0.00000000000E+00  0.22803405558E+04  0.22803405558E+04  0.25500000920E-02 0. -1.
       -2   -1    0    0    0  501  0.00000000000E+00  0.00000000000E+00 -0.15829126933E+04  0.15829126933E+04  0.25500000920E-02 0.  1.
    10030    2    1    2    0    0  0.00000000000E+00  0.00000000000E+00  0.69742786251E+03  0.38632532490E+04  0.37997789466E+04 0.  0.
        1    1    3    3  502    0 -0.28385679597E+03 -0.67778756091E+03 -0.14325833337E+04  0.16100514484E+04  0.50400001928E-02 0.  1.
       -1    1    3    3    0  502  0.28385679597E+03  0.67778756091E+03  0.21300111962E+04  0.22532018007E+04  0.50400001928E-02 0. -1.
</event>
<event>
 5   0  0.1666051E-08  0.3791190E+04  0.7818609E-02  0.8048048E-01
       -1   -1    0    0    0  501  0.00000000000E+00  0.00000000000E+00  0.13444261640E+04  0.13444261640E+04  0.50400001928E-02 0. -1.
        1   -1    0    0  501    0  0.00000000000E+00  0.00000000000E+00 -0.26727242207E+04  0.26727242207E+04  0.50400001928E-02 0.  1.
    10030    2    1    2    0    0  0.00000000000E+00  0.00000000000E+00 -0.13282980567E+04  0.40171503847E+04  0.37911899828E+04 0.  0.
        2    1    3    3  502    0  0.10425426723E+04 -0.11665260968E+04 -0.17982701169E+04  0.23835800325E+04  0.25500000920E-02 0.  1.
       -2    1    3    3    0  502 -0.10425426723E+04  0.11665260968E+04  0.46997206013E+03  0.16335703522E+04  0.25500000920E-02 0. -1.
</event>
<event>
 5   0  0.1628250E-08  0.3802756E+04  0.7818609E-02  0.8045564E-01
       -1   -1    0    0    0  501  0.00000000000E+00  0.00000000000E+00  0.15810364189E+04  0.15810364189E+04  0.50400001928E-02 0.  1.
        1   -1    0    0  501    0  0.00000000000E+00  0.00000000000E+00 -0.22866253894E+04  0.22866253895E+04  0.50400001928E-02 0. -1.
    10030    2    1    2    0    0  0.00000000000E+00  0.00000000000E+00 -0.70558897054E+03  0.38676618084E+04  0.38027558518E+04 0.  0.
        4    1    3    3  502    0 -0.13462777130E+04 -0.10679651837E+04  0.47486597540E+03  0.17828383611E+04  0.12699999809E+01 0.  1.
       -4    1    3    3    0  502  0.13462777130E+04  0.10679651837E+04 -0.11804549459E+04  0.20848234473E+04  0.12699999809E+01 0. -1.
</event>
<event>
 5   0  0.5159761E-08  0.3799672E+04  0.7818609E-02  0.8046225E-01
       -2   -1    0    0    0  501  0.00000000000E+00  0.00000000000E+00  0.18602885793E+04  0.18602885793E+04  0.25500000920E-02 0. -1.
        2   -1    0    0  501    0  0.00000000000E+00  0.00000000000E+00 -0.19402237102E+04  0.19402237102E+04  0.25500000920E-02 0.  1.
    10030    2    1    2    0    0  0.00000000000E+00  0.00000000000E+00 -0.79935130911E+02  0.38005122895E+04  0.37996715697E+04 0.  0.
        5    1    3    3  502    0 -0.18517524492E+04 -0.24534489372E+03 -0.38670356656E+03  0.19075489478E+04  0.46999998093E+01 0.  1.
       -5    1    3    3    0  502  0.18517524492E+04  0.24534489372E+03  0.30676843565E+03  0.18929633417E+04  0.46999998093E+01 0. -1.
</event>
<event>
 5   0  0.1628250E-08  0.3805716E+04  0.7818609E-02  0.8044929E-01
        1   -1    0    0  501    0  0.00000000000E+00  0.00000000000E+00  0.26087376082E+04  0.26087376082E+04  0.50400001928E-02 0.  1.
       -1   -1    0    0    0  501  0.00000000000E+00  0.00000000000E+00 -0.13879776389E+04  0.13879776390E+04  0.50400001928E-02 0. -1.
    10030    2    1    2    0    0  0.00000000000E+00  0.00000000000E+00  0.12207599693E+04  0.39967152472E+04  0.38057164719E+04 0.  0.
        5    1    3    3  502    0  0.98443778682E+03 -0.14596206196E+04  0.13685812533E+04  0.22299432383E+04  0.46999998093E+01 0.  1.
       -5    1    3    3    0  502 -0.98443778682E+03  0.14596206196E+04 -0.14782128397E+03  0.17667720089E+04  0.46999998093E+01 0. -1.
</event>
<event>
 5   0  0.1628473E-08  0.3782592E+04  0.7818609E-02  0.8049901E-01
       -1   -1    0    0    0  501  0.00000000000E+00  0.00000000000E+00  0.19235752311E+04  0.19235752311E+04  0.50400001928E-02 0.  1.
        1   -1    0    0  501    0  0.00000000000E+00  0.00000000000E+00 -0.18595588147E+04  0.18595588147E+04  0.50400001928E-02 0. -1.
    10030    2    1    2    0    0  0.00000000000E+00  0.00000000000E+00  0.64016416412E+02  0.37831340458E+04  0.37825923791E+04 0.  0.
        3    1    3    3  502    0 -0.71905673240E+03  0.96167894688E+03  0.14934266391E+04  0.19162964588E+04  0.10100000352E+00 0.  1.
       -3    1    3    3    0  502  0.71905673240E+03 -0.96167894688E+03 -0.14294102227E+04  0.18668375870E+04  0.10100000352E+00 0. -1.
</event>
<event>
 5   0  0.5086209E-08  0.3801087E+04  0.7818609E-02  0.8045922E-01
       -2   -1    0    0    0  501  0.00000000000E+00  0.00000000000E+00  0.27877613724E+04  0.27877613724E+04  0.25500000920E-02 0. -1.
        2   -1    0    0  501    0  0.00000000000E+00  0.00000000000E+00 -0.12956870358E+04  0.12956870358E+04  0.25500000920E-02 0.  1.
    10030    2    1    2    0    0  0.00000000000E+00  0.00000000000E+00  0.14920743366E+04  0.40834484083E+04  0.38010873546E+04 0.  0.
        3    1    3    3  502    0 -0.58227321928E+03  0.25407459159E+03 -0.11782426785E+04  0.13386006946E+04  0.10100000352E+00 0.  1.
       -3    1    3    3    0  502  0.58227321928E+03 -0.25407459159E+03  0.26703170151E+04  0.27448477137E+04  0.10100000352E+00 0. -1.
</event>
<event>
 5   0  0.5159761E-08  0.3801324E+04  0.7818609E-02  0.8045871E-01
        2   -1    0    0  501    0  0.00000000000E+00  0.00000000000E+00  0.27531770047E+04  0.27531770047E+04  0.25500000920E-02 0.  1.
       -2   -1    0    0    0  501  0.00000000000E+00  0.00000000000E+00 -0.13121260572E+04  0.13121260572E+04  0.25500000920E-02 0. -1.
    10030    2    1    2    0    0  0.00000000000E+00  0.00000000000E+00  0.14410509474E+04  0.40653030619E+04  0.38013236053E+04 0.  0.
        5    1    3    3  502    0  0.51833639105E+03  0.17717128953E+04  0.12045644225E+04  0.22042315522E+04  0.46999998093E+01 0.  1.
       -5    1    3    3    0  502 -0.51833639105E+03 -0.17717128953E+04  0.23648652499E+03  0.18610715097E+04  0.46999998093E+01 0. -1.
</event>
<event>
 5   0  0.1628250E-08  0.3798800E+04  0.7818609E-02  0.8046412E-01
        1   -1    0    0  501    0  0.00000000000E+00  0.00000000000E+00  0.15787332839E+04  0.15787332839E+04  0.50400001928E-02 0. -1.
       -1   -1    0    0    0  501  0.00000000000E+00  0.00000000000E+00 -0.22851998608E+04  0.22851998608E+04  0.50400001928E-02 0.  1.
    10030    2    1    2    0    0  0.00000000000E+00  0.00000000000E+00 -0.70646657689E+03  0.38639331447E+04  0.37988003794E+04 0.  0.
        5    1    3    3  502    0 -0.17123014095E+03  0.17481958533E+04 -0.10882506695E+04  0.20663543047E+04  0.46999998093E+01 0.  1.
       -5    1    3    3    0  502  0.17123014095E+03 -0.17481958533E+04  0.38178409262E+03  0.17975788400E+04  0.46999998093E+01 0. -1.
</event>
<event>
 5   0  0.1666051E-08  0.3804420E+04  0.7818609E-02  0.8045207E-01
       -1   -1    0    0    0  501  0.00000000000E+00  0.00000000000E+00  0.10980042501E+04  0.10980042501E+04  0.50400001928E-02 0. -1.
        1   -1    0    0  501    0  0.00000000000E+00  0.00000000000E+00 -0.32954365228E+04  0.32954365228E+04  0.50400001928E-02 0.  1.
    10030    2    1    2    0    0  0.00000000000E+00  0.00000000000E+00 -0.21974322726E+04  0.43934407729E+04  0.38044202229E+04 0.  0.
        2    1    3    3  502    0 -0.65023594258E+03  0.70531165049E+03 -0.29956312254E+04  0.31454852955E+04  0.25500000920E-02 0.  1.
       -2    1    3    3    0  502  0.65023594258E+03 -0.70531165049E+03  0.79819895280E+03  0.12479554774E+04  0.25500000920E-02 0. -1.
</event>
<event>
 5   0  0.5207474E-08  0.3801148E+04  0.7818609E-02  0.8045909E-01
       -2   -1    0    0    0  501  0.00000000000E+00  0.00000000000E+00  0.21682638016E+04  0.21682638016E+04  0.25500000920E-02 0.  1.
        2   -1    0    0  501    0  0.00000000000E+00  0.00000000000E+00 -0.16659325042E+04  0.16659325042E+04  0.25500000920E-02 0. -1.
    10030    2    1    2    0    0  0.00000000000E+00  0.00000000000E+00  0.50233129737E+03  0.38341963058E+04  0.38011477976E+04 0.  0.
        4    1    3    3  502    0 -0.15889834477E+03 -0.54780676383E+03 -0.15775609311E+04  0.16775103692E+04  0.12699999809E+01 0. -1.
       -4    1    3    3    0  502  0.15889834477E+03  0.54780676383E+03  0.20798922284E+04  0.21566859366E+04  0.12699999809E+01 0.  1.
</event>
<event>
 5   0  0.5159761E-08  0.3795034E+04  0.7818609E-02  0.8047221E-01
        2   -1    0    0  501    0  0.00000000000E+00  0.00000000000E+00  0.10418601152E+04  0.10418601152E+04  0.25500000920E-02 0.  1.
       -2   -1    0    0    0  501  0.00000000000E+00  0.00000000000E+00 -0.34559057301E+04  0.34559057301E+04  0.25500000920E-02 0. -1.
    10030    2    1    2    0    0  0.00000000000E+00  0.00000000000E+00 -0.24140456149E+04  0.44977658453E+04  0.37950337770E+04 0.  0.
        5    1    3    3  502    0  0.98152959975E+03  0.14342152539E+04 -0.21097582959E+04  0.27334000635E+04  0.46999998093E+01 0. -1.
       -5    1    3    3    0  502 -0.98152959975E+03 -0.14342152539E+04 -0.30428731903E+03  0.17643657819E+04  0.46999998093E+01 0.  1.
</event>
<event>
 5   0  0.1628250E-08  0.3804192E+04  0.7818609E-02  0.8045256E-01
        1   -1    0    0  501    0  0.00000000000E+00  0.00000000000E+00  0.20686385991E+04  0.20686385991E+04  0.50400001928E-02 0.  1.
       -1   -1    0    0    0  501  0.00000000000E+00  0.00000000000E+00 -0.17489616319E+04  0.17489616320E+04  0.50400001928E-02 0. -1.
    10030    2    1    2    0    0  0.00000000000E+00  0.00000000000E+00  0.31967696715E+03  0.38176002311E+04  0.38041921824E+04 0.  0.
        1    1    3    3  502    0 -0.14725905699E+04  0.74424751047E+03  0.11095047829E+04  0.19883229634E+04  0.50400001928E-02 0.  1.
       -1    1    3    3    0  502  0.14725905699E+04 -0.74424751047E+03 -0.78982781572E+03  0.18292772677E+04  0.50400001928E-02 0. -1.
</event>
<event>
 5   0  0.5140842E-08  0.3808965E+04  0.7818609E-02  0.8044234E-01
        2   -1    0    0  501    0  0.00000000000E+00  0.00000000000E+00  0.21022826543E+04  0.21022826543E+04  0.25500000920E-02 0. -1.
       -2   -1    0    0    0  501  0.00000000000E+00  0.00000000000E+00 -0.17252933278E+04  0.17252933278E+04  0.25500000920E-02 0.  1.
    10030    2    1    2    0    0  0.00000000000E+00  0.00000000000E+00  0.37698932646E+03  0.38275759821E+04  0.38089653381E+04 0.  0.
        2    1    3    3  502    0  0.16885657735E+04  0.36384376439E+03  0.99454703785E+03  0.19931784834E+04  0.25500000920E-02 0. -1.
       -2    1    3    3    0  502 -0.16885657735E+04 -0.36384376439E+03 -0.61755771139E+03  0.18343974987E+04  0.25500000920E-02 0.  1.
</event>
<event>
 5   0  0.1666051E-08  0.3816845E+04  0.7818609E-02  0.8042550E-01
        1   -1    0    0  501    0  0.00000000000E+00  0.00000000000E+00  0.24963977879E+04  0.24963977879E+04  0.50400001928E-02 0. -1.
       -1   -1    0    0    0  501  0.00000000000E+00  0.00000000000E+00 -0.14589326427E+04  0.14589326427E+04  0.50400001928E-02 0.  1.
    10030    2    1    2    0    0  0.00000000000E+00  0.00000000000E+00  0.10374651453E+04  0.39553304306E+04  0.38168448865E+04 0.  0.
        2    1    3    3  502    0  0.10814365360E+04 -0.13405162538E+04  0.13704960904E+04  0.22010789040E+04  0.25500000920E-02 0. -1.
       -2    1    3    3    0  502 -0.10814365360E+04  0.13405162538E+04 -0.33303094510E+03  0.17542515266E+04  0.25500000920E-02 0.  1.
</event>
<event>
 5   0  0.5147582E-08  0.3829960E+04  0.7818609E-02  0.8039756E-01
       -2   -1    0    0    0  501  0.00000000000E+00  0.00000000000E+00  0.14058146544E+04  0.14058146544E+04  0.25500000920E-02 0. -1.
        2   -1    0    0  501    0  0.00000000000E+00  0.00000000000E+00 -0.26085574887E+04  0.26085574887E+04  0.25500000920E-02 0.  1.
    10030    2    1    2    0    0  0.00000000000E+00  0.00000000000E+00 -0.12027428342E+04  0.40143721431E+04  0.38299599708E+04 0.  0.
        1    1    3    3  502    0  0.16163812785E+03 -0.11732037949E+04 -0.21786939938E+04  0.24797664300E+04  0.50400001928E-02 0.  1.
       -1    1    3    3    0  502 -0.16163812785E+03  0.11732037949E+04  0.97595115957E+03  0.15346057131E+04  0.50400001928E-02 0. -1.
</event>
<event>
 5   0  0.1628473E-08  0.3801256E+04  0.7818609E-02  0.8045885E-01
       -1   -1    0    0    0  501  0.00000000000E+00  0.00000000000E+00  0.16152363422E+04  0.16152363422E+04  0.50400001928E-02 0. -1.
        1   -1    0    0  501    0  0.00000000000E+00  0.00000000000E+00 -0.22364443638E+04  0.22364443638E+04  0.50400001928E-02 0.  1.
    10030    2    1    2    0    0  0.00000000000E+00  0.00000000000E+00 -0.62120802163E+03  0.38516807060E+04  0.38012556945E+04 0.  0.
        3    1    3    3  502    0 -0.12440784670E+04 -0.14365956777E+04 -0.28110022846E+03  0.19210819144E+04  0.10100000352E+00 0. -1.
       -3    1    3    3    0  502  0.12440784670E+04  0.14365956777E+04 -0.34010779316E+03  0.19305987916E+04  0.10100000352E+00 0.  1.
</event>
<event>
 5   0  0.1628473E-08  0.3804159E+04  0.7818609E-02  0.8045263E-01
       -1   -1    0    0    0  501  0.00000000000E+00  0.00000000000E+00  0.12978922179E+04  0.12978922179E+04  0.50400001928E-02 0.  1.
        1   -1    0    0  501    0  0.00000000000E+00  0.00000000000E+00 -0.27875251184E+04  0.27875251184E+04  0.50400001928E-02 0. -1.
    10030    2    1    2    0    0  0.00000000000E+00  0.00000000000E+00 -0.14896329005E+04  0.40854173362E+04  0.38041593859E+04 0.  0.
        3    1    3    3  502    0 -0.16219805676E+04  0.40038832857E+03 -0.17213147439E+04  0.23987613956E+04  0.10100000352E+00 0. -1.
       -3    1    3    3    0  502  0.16219805676E+04 -0.40038832857E+03  0.23168184346E+03  0.16866559406E+04  0.10100000352E+00 0.  1.
</event>
<event>
 5   0  0.5207474E-08  0.3813936E+04  0.7818609E-02  0.8043171E-01
       -2   -1    0    0    0  501  0.00000000000E+00  0.00000000000E+00  0.19484380879E+04  0.19484380879E+04  0.25500000920E-02 0.  1.
        2   -1    0    0  501    0  0.00000000000E+00  0.00000000000E+00 -0.18663800784E+04  0.18663800784E+04  0.25500000920E-02 0. -1.
    10030    2    1    2    0    0  0.00000000000E+00  0.00000000000E+00  0.82058009551E+02  0.38148181663E+04  0.38139355166E+04 0.  0.
        4    1    3    3  502    0 -0.13461704903E+03  0.25157354408E+03 -0.18449081928E+04  0.18668419458E+04  0.12699999809E+01 0. -1.
       -4    1    3    3    0  502  0.13461704903E+03 -0.25157354408E+03  0.19269662023E+04  0.19479762205E+04  0.12699999809E+01 0.  1.
</event>
<event>
 5   0  0.5147582E-08  0.3788683E+04  0.7818609E-02  0.8048588E-01
       -2   -1    0    0    0  501  0.00000000000E+00  0.00000000000E+00  0.16732291734E+04  0.16732291734E+04  0.25500000920E-02 0.  1.
        2   -1    0    0  501    0  0.00000000000E+00  0.00000000000E+00 -0.21446736729E+04  0.21446736729E+04  0.25500000920E-02 0. -1.
    10030    2    1    2    0    0  0.00000000000E+00  0.00000000000E+00 -0.47144449945E+03  0.38179028463E+04  0.37886834425E+04 0.  0.
        1    1    3    3  502    0 -0.11886636270E+03 -0.18897614771E+04 -0.29275292908E+03  0.19159937186E+04  0.50400001928E-02 0. -1.
       -1    1    3    3    0  502  0.11886636270E+03  0.18897614771E+04 -0.17869157036E+03  0.19019091276E+04  0.50400001928E-02 0.  1.
</event>
<event>
 5   0  0.1628250E-08  0.3798831E+04  0.7818609E-02  0.8046406E-01
        4   -1    0    0  501    0  0.00000000000E+00  0.00000000000E+00  0.16776075972E+04  0.16776080779E+04  0.12699999809E+01 0. -1.
       -4   -1    0    0    0  501  0.00000000000E+00  0.00000000000E+00 -0.21505493922E+04  0.21505497672E+04  0.12699999809E+01 0.  1.
    10030    2    1    2    0    0  0.00000000000E+00  0.00000000000E+00 -0.47294179494E+03  0.38281578451E+04  0.37988312079E+04 0.  0.
        5    1    3    3  502    0  0.47041572835E+03  0.16699859318E+04 -0.10154935153E+04  0.20103216508E+04  0.46999998093E+01 0.  1.
       -5    1    3    3    0  502 -0.47041572835E+03 -0.16699859318E+04  0.54255172039E+03  0.18178361943E+04  0.46999998093E+01 0. -1.
</event>
<event>
 5   0  0.1628250E-08  0.3800401E+04  0.7818609E-02  0.8046069E-01
       -1   -1    0    0    0  501  0.00000000000E+00  0.00000000000E+00  0.19590168726E+04  0.19590168726E+04  0.50400001928E-02 0.  1.
        1   -1    0    0  501    0  0.00000000000E+00  0.00000000000E+00 -0.18431496024E+04  0.18431496024E+04  0.50400001928E-02 0. -1.
    10030    2    1    2    0    0  0.00000000000E+00  0.00000000000E+00  0.11586727016E+03  0.38021664751E+04  0.38004005946E+04 0.  0.
        4    1    3    3  502    0 -0.37066132651E+03 -0.12589342584E+04  0.14327825881E+04  0.19429804022E+04  0.12699999809E+01 0.  1.
       -4    1    3    3    0  502  0.37066132651E+03  0.12589342584E+04 -0.13169153179E+04  0.18591860728E+04  0.12699999809E+01 0. -1.
</event>
<event>
 5   0  0.1628250E-08  0.3800127E+04  0.7818609E-02  0.8046128E-01
        1   -1    0    0  501    0  0.00000000000E+00  0.00000000000E+00  0.26114952480E+04  0.26114952480E+04  0.50400001928E-02 0.  1.
       -1   -1    0    0    0  501  0.00000000000E+00  0.00000000000E+00 -0.13824423516E+04  0.13824423516E+04  0.50400001928E-02 0. -1.
    10030    2    1    2    0    0  0.00000000000E+00  0.00000000000E+00  0.12290528964E+04  0.39939375996E+04  0.38001271726E+04 0.  0.
        5    1    3    3  502    0  0.14277078077E+04 -0.11652953878E+04  0.11006716523E+04  0.21465700783E+04  0.46999998093E+01 0.  1.
       -5    1    3    3    0  502 -0.14277078077E+04  0.11652953878E+04  0.12838124402E+03  0.18473675213E+04  0.46999998093E+01 0. -1.
</event>
<event>
 5   0  0.5140842E-08  0.3811983E+04  0.7818609E-02  0.8043588E-01
        2   -1    0    0  501    0  0.00000000000E+00  0.00000000000E+00  0.18079119943E+04  0.18079119943E+04  0.25500000920E-02 0. -1.
       -2   -1    0    0    0  501  0.00000000000E+00  0.00000000000E+00 -0.20093914357E+04  0.20093914357E+04  0.25500000920E-02 0.  1.
    10030    2    1    2    0    0  0.00000000000E+00  0.00000000000E+00 -0.20147944140E+03  0.38173034300E+04  0.38119826221E+04 0.  0.
        2    1    3    3  502    0  0.11980669619E+04  0.14613560597E+04  0.14835816549E+03  0.18955041872E+04  0.25500000920E-02 0. -1.
       -2    1    3    3    0  502 -0.11980669619E+04 -0.14613560597E+04 -0.34983760689E+03  0.19217992428E+04  0.25500000920E-02 0.  1.
</event>
<event>
 5   0  0.1628250E-08  0.3832236E+04  0.7818609E-02  0.8039272E-01
       -1   -1    0    0    0  501  0.00000000000E+00  0.00000000000E+00  0.22494328566E+04  0.22494328567E+04  0.50400001928E-02 0. -1.
        1   -1    0    0  501    0  0.00000000000E+00  0.00000000000E+00 -0.16321930530E+04  0.16321930530E+04  0.50400001928E-02 0.  1.
    10030    2    1    2    0    0  0.00000000000E+00  0.00000000000E+00  0.61723980362E+03  0.38816259097E+04  0.38322362568E+04 0.  0.
        4    1    3    3  502    0 -0.99437383913E+03  0.40954743319E+03 -0.12976934886E+04  0.16853837649E+04  0.12699999809E+01 0.  1.
       -4    1    3    3    0  502  0.99437383913E+03 -0.40954743319E+03  0.19149332922E+04  0.21962421447E+04  0.12699999809E+01 0. -1.
</event>
<event>
 5   0  0.5159761E-08  0.3792431E+04  0.7818609E-02  0.8047781E-01
       -2   -1    0    0    0  501  0.00000000000E+00  0.00000000000E+00  0.17992996488E+04  0.17992996488E+04  0.25500000920E-02 0. -1.
        2   -1    0    0  501    0  0.00000000000E+00  0.00000000000E+00 -0.19983512662E+04  0.19983512662E+04  0.25500000920E-02 0.  1.
    10030    2    1    2    0    0  0.00000000000E+00  0.00000000000E+00 -0.19905161731E+03  0.37976509150E+04  0.37924307411E+04 0.  0.
        5    1    3    3  502    0  0.78700198416E+03 -0.16952386593E+04 -0.41997317423E+03  0.19156215159E+04  0.46999998093E+01 0. -1.
       -5    1    3    3    0  502 -0.78700198416E+03  0.16952386593E+04  0.22092155692E+03  0.18820293991E+04  0.46999998093E+01 0.  1.
</event>
<event>
 5   0  0.1628250E-08  0.3799549E+04  0.7818609E-02  0.8046252E-01
       -1   -1    0    0    0  501  0.00000000000E+00  0.00000000000E+00  0.10855438180E+04  0.10855438180E+04  0.50400001928E-02 0.  1.
        1   -1    0    0  501    0  0.00000000000E+00  0.00000000000E+00 -0.33247330605E+04  0.33247330605E+04  0.50400001928E-02 0. -1.
    10030    2    1    2    0    0  0.00000000000E+00  0.00000000000E+00 -0.22391892425E+04  0.44102768784E+04  0.37995491418E+04 0.  0.
        5    1    3    3  502    0 -0.17221983305E+04  0.79654035262E+03 -0.12277221517E+04  0.22600370339E+04  0.46999998093E+01 0. -1.
       -5    1    3    3    0  502  0.17221983305E+04 -0.79654035262E+03 -0.10114670908E+04  0.21502398445E+04  0.46999998093E+01 0.  1.
</event>
<event>
 5   0  0.1628250E-08  0.3777268E+04  0.7818609E-02  0.8051051E-01
       -1   -1    0    0    0  501  0.00000000000E+00  0.00000000000E+00  0.20181336298E+04  0.20181336298E+04  0.50400001928E-02 0. -1.
        1   -1    0    0  501    0  0.00000000000E+00  0.00000000000E+00 -0.17674439371E+04  0.17674439371E+04  0.50400001928E-02 0.  1.
    10030    2    1    2    0    0  0.00000000000E+00  0.00000000000E+00  0.25068969263E+03  0.37855775669E+04  0.37772678212E+04 0.  0.
        1    1    3    3  502    0  0.45888808441E+03 -0.17307655179E+04  0.72734132644E+03  0.19326543812E+04  0.50400001928E-02 0.  1.
       -1    1    3    3    0  502 -0.45888808441E+03  0.17307655179E+04 -0.47665163381E+03  0.18529231857E+04  0.50400001928E-02 0. -1.
</event>
<event>
 5   0  0.5140842E-08  0.3812788E+04  0.7818609E-02  0.8043416E-01
        2   -1    0    0  501    0  0.00000000000E+00  0.00000000000E+00  0.22820837899E+04  0.22820837899E+04  0.25500000920E-02 0. -1.
       -2   -1    0    0    0  501  0.00000000000E+00  0.00000000000E+00 -0.15925527304E+04  0.15925527304E+04  0.25500000920E-02 0.  1.
    10030    2    1    2    0    0  0.00000000000E+00  0.00000000000E+00  0.68953105950E+03  0.38746365202E+04  0.38127883605E+04 0.  0.
        2    1    3    3  502    0 -0.47160151155E+03  0.13710016592E+04  0.16027001705E+04  0.21611805504E+04  0.25500000920E-02 0. -1.
       -2    1    3    3    0  502  0.47160151155E+03 -0.13710016592E+04 -0.91316911098E+03  0.17134559698E+04  0.25500000920E-02 0.  1.
</event>
<event>
 5   0  0.1628250E-08  0.3799197E+04  0.7818609E-02  0.8046327E-01
        1   -1    0    0  501    0  0.00000000000E+00  0.00000000000E+00  0.17764672155E+04  0.17764672155E+04  0.50400001928E-02 0. -1.
       -1   -1    0    0    0  501  0.00000000000E+00  0.00000000000E+00 -0.20312639940E+04  0.20312639940E+04  0.50400001928E-02 0.  1.
    10030    2    1    2    0    0  0.00000000000E+00  0.00000000000E+00 -0.25479677847E+03  0.38077312095E+04  0.37991967000E+04 0.  0.
        5    1    3    3  502    0 -0.81463854566E+03 -0.12303326396E+04 -0.13263705695E+04  0.19840955979E+04  0.46999998093E+01 0.  1.
       -5    1    3    3    0  502  0.81463854566E+03  0.12303326396E+04  0.10715737910E+04  0.18236356116E+04  0.46999998093E+01 0. -1.
</event>
<event>
 5   0  0.5147582E-08  0.3798061E+04  0.7818609E-02  0.8046571E-01
        2   -1    0    0  501    0  0.00000000000E+00  0.00000000000E+00  0.17288896829E+04  0.17288896829E+04  0.25500000920E-02 0.  1.
       -2   -1    0    0    0  501  0.00000000000E+00  0.00000000000E+00 -0.20859149995E+04  0.20859149995E+04  0.25500000920E-02 0. -1.
    10030    2    1    2    0    0  0.00000000000E+00  0.00000000000E+00 -0.35702531663E+03  0.38148046824E+04  0.37980610433E+04 0.  0.
        1    1    3    3  502    0 -0.13465995904E+04 -0.45789081210E+03  0.10853359484E+04  0.17891194967E+04  0.50400001928E-02 0.  1.
       -1    1    3    3    0  502  0.13465995904E+04  0.45789081210E+03 -0.14423612650E+04  0.20256851857E+04  0.50400001928E-02 0. -1.
</event>
<event>
 5   0  0.1628250E-08  0.3788391E+04  0.7818609E-02  0.8048651E-01
        1   -1    0    0  501    0  0.00000000000E+00  0.00000000000E+00  0.25452136413E+04  0.25452136413E+04  0.50400001928E-02 0.  1.
       -1   -1    0    0    0  501  0.00000000000E+00  0.00000000000E+00 -0.14096957255E+04  0.14096957255E+04  0.50400001928E-02 0. -1.
    10030    2    1    2    0    0  0.00000000000E+00  0.00000000000E+00  0.11355179158E+04  0.39549093668E+04  0.37883911048E+04 0.  0.
        1    1    3    3  502    0 -0.15736895710E+04  0.12125897651E+03  0.16610614477E+04  0.22913593648E+04  0.50400001928E-02 0.  1.
       -1    1    3    3    0  502  0.15736895710E+04 -0.12125897651E+03 -0.52554353198E+03  0.16635500020E+04  0.50400001928E-02 0. -1.
</event>
<event>
 5   0  0.1666051E-08  0.3802720E+04  0.7818609E-02  0.8045571E-01
        1   -1    0    0  501    0  0.00000000000E+00  0.00000000000E+00  0.23586238686E+04  0.23586238686E+04  0.50400001928E-02 0.  1.
       -1   -1    0    0    0  501  0.00000000000E+00  0.00000000000E+00 -0.15327455417E+04  0.15327455417E+04  0.50400001928E-02 0. -1.
    10030    2    1    2    0    0  0.00000000000E+00  0.00000000000E+00  0.82587832693E+03  0.38913694104E+04  0.38027201944E+04 0.  0.
        2    1    3    3  502    0  0.10652809402E+03  0.15862831325E+03  0.23487737774E+04  0.23565333509E+04  0.25500000920E-02 0.  1.
       -2    1    3    3    0  502 -0.10652809402E+03 -0.15862831325E+03 -0.15228954504E+04  0.15348360595E+04  0.25500000920E-02 0. -1.
</event>
<event>
 5   0  0.5207474E-08  0.3800629E+04  0.7818609E-02  0.8046020E-01
        2   -1    0    0  501    0  0.00000000000E+00  0.00000000000E+00  0.17804144455E+04  0.17804144455E+04  0.25500000920E-02 0. -1.
       -2   -1    0    0    0  501  0.00000000000E+00  0.00000000000E+00 -0.20282888314E+04  0.20282888314E+04  0.25500000920E-02 0.  1.
    10030    2    1    2    0    0  0.00000000000E+00  0.00000000000E+00 -0.24787438588E+03  0.38087032770E+04  0.38006287560E+04 0.  0.
        4    1    3    3  502    0 -0.13623201823E+04  0.24764896706E+03  0.11803450366E+04  0.18194675892E+04  0.12699999809E+01 0. -1.
       -4    1    3    3    0  502  0.13623201823E+04 -0.24764896706E+03 -0.14282194225E+04  0.19892356878E+04  0.12699999809E+01 0.  1.
</event>
<event>
 5   0  0.5140842E-08  0.3802230E+04  0.7818609E-02  0.8045676E-01
        2   -1    0    0  501    0  0.00000000000E+00  0.00000000000E+00  0.20239263718E+04  0.20239263718E+04  0.25500000920E-02 0.  1.
       -2   -1    0    0    0  501  0.00000000000E+00  0.00000000000E+00 -0.17857559578E+04  0.17857559578E+04  0.25500000920E-02 0. -1.
    10030    2    1    2    0    0  0.00000000000E+00  0.00000000000E+00  0.23817041399E+03  0.38096823297E+04  0.38022301754E+04 0.  0.
        2    1    3    3  502    0 -0.58523843146E+03  0.12654877184E+04  0.14140095657E+04  0.19857961222E+04  0.25500000920E-02 0.  1.
       -2    1    3    3    0  502  0.58523843146E+03 -0.12654877184E+04 -0.11758391517E+04  0.18238862075E+04  0.25500000920E-02 0. -1.
</event>
<event>
 5   0  0.5207474E-08  0.3797983E+04  0.7818609E-02  0.8046588E-01
        2   -1    0    0  501    0  0.00000000000E+00  0.00000000000E+00  0.15857146620E+04  0.15857146620E+04  0.25500000920E-02 0.  1.
       -2   -1    0    0    0  501  0.00000000000E+00  0.00000000000E+00 -0.22741602077E+04  0.22741602077E+04  0.25500000920E-02 0. -1.
    10030    2    1    2    0    0  0.00000000000E+00  0.00000000000E+00 -0.68844554572E+03  0.38598748698E+04  0.37979832465E+04 0.  0.
        4    1    3    3  502    0  0.17222759595E+04 -0.42107441111E+03  0.34702987928E+03  0.18066459228E+04  0.12699999809E+01 0.  1.
       -4    1    3    3    0  502 -0.17222759595E+04  0.42107441111E+03 -0.10354754250E+04  0.20532289470E+04  0.12699999809E+01 0. -1.
</event>
<event>
 5   0  0.1666051E-08  0.3800286E+04  0.7818609E-02  0.8046093E-01
        1   -1    0    0  501    0  0.00000000000E+00  0.00000000000E+00  0.24083441840E+04  0.24083441840E+04  0.50400001928E-02 0.  1.
       -1   -1    0    0    0  501  0.00000000000E+00  0.00000000000E+00 -0.14991809113E+04  0.14991809113E+04  0.50400001928E-02 0. -1.
    10030    2    1    2    0    0  0.00000000000E+00  0.00000000000E+00  0.90916327277E+03  0.39075250953E+04  0.38002861095E+04 0.  0.
        2    1    3    3  502    0  0.16004656480E+04  0.89139630827E+03 -0.64099350822E+02  0.18330811208E+04  0.25500000920E-02 0. -1.
       -2    1    3    3    0  502 -0.16004656480E+04 -0.89139630827E+03  0.97326262359E+03  0.20744439745E+04  0.25500000920E-02 0.  1.
</event>
<event>
 5   0  0.5147582E-08  0.3793141E+04  0.7818609E-02  0.8047628E-01
        2   -1    0    0  501    0  0.00000000000E+00  0.00000000000E+00  0.30908508315E+04  0.30908508315E+04  0.25500000920E-02 0. -1.
       -2   -1    0    0    0  501  0.00000000000E+00  0.00000000000E+00 -0.11637504103E+04  0.11637504103E+04  0.25500000920E-02 0.  1.
    10030    2    1    2    0    0  0.00000000000E+00  0.00000000000E+00  0.19271004213E+04  0.42546012418E+04  0.37931406107E+04 0.  0.
        1    1    3    3  502    0  0.53087573308E+03  0.12427067431E+04  0.24561670430E+04  0.28033739737E+04  0.50400001928E-02 0. -1.
       -1    1    3    3    0  502 -0.53087573308E+03 -0.12427067431E+04 -0.52906662170E+03  0.14512272681E+04  0.50400001928E-02 0.  1.
</event>
<event>
 5   0  0.1628250E-08  0.3806960E+04  0.7818609E-02  0.8044663E-01
        1   -1    0    0  501    0  0.00000000000E+00  0.00000000000E+00  0.18332100698E+04  0.18332100698E+04  0.50400001928E-02 0.  1.
       -1   -1    0    0    0  501  0.00000000000E+00  0.00000000000E+00 -0.19764433200E+04  0.19764433200E+04  0.50400001928E-02 0. -1.
    10030    2    1    2    0    0  0.00000000000E+00  0.00000000000E+00 -0.14323325023E+03  0.38096533898E+04  0.38069598352E+04 0.  0.
        4    1    3    3  502    0 -0.12393183707E+04  0.18369106663E+02  0.13740462021E+04  0.18504734600E+04  0.12699999809E+01 0.  1.
       -4    1    3    3    0  502  0.12393183707E+04 -0.18369106663E+02 -0.15172794523E+04  0.19591799298E+04  0.12699999809E+01 0. -1.
</event>
<event>
 5   0  0.1666051E-08  0.3799816E+04  0.7818609E-02  0.8046194E-01
        1   -1    0    0  501    0  0.00000000000E+00  0.00000000000E+00  0.11040925024E+04  0.11040925024E+04  0.50400001928E-02 0.  1.
       -1   -1    0    0    0  501  0.00000000000E+00  0.00000000000E+00 -0.32693367300E+04  0.32693367300E+04  0.50400001928E-02 0. -1.
    10030    2    1    2    0    0  0.00000000000E+00  0.00000000000E+00 -0.21652442277E+04  0.43734292324E+04  0.37998158752E+04 0.  0.
        2    1    3    3  502    0  0.88284757816E+03 -0.58069371301E+03 -0.28999064337E+04  0.30864352186E+04  0.25500000920E-02 0. -1.
       -2    1    3    3    0  502 -0.88284757816E+03  0.58069371301E+03  0.73466220603E+03  0.12869940138E+04  0.25500000920E-02 0.  1.
</event>
<event>
 5   0  0.1628250E-08  0.3796623E+04  0.7818609E-02  0.8046880E-01
       -1   -1    0    0    0  501  0.00000000000E+00  0.00000000000E+00  0.17180282267E+04  0.17180282267E+04  0.50400001928E-02 0. -1.
        1   -1    0    0  501    0  0.00000000000E+00  0.00000000000E+00 -0.20975130240E+04  0.20975130240E+04  0.50400001928E-02 0.  1.
    10030    2    1    2    0    0  0.00000000000E+00  0.00000000000E+00 -0.37948479729E+03  0.38155412507E+04  0.37966230158E+04 0.  0.
        1    1    3    3  502    0  0.15967626581E+04 -0.10477294953E+03 -0.12160844742E+04  0.20098482046E+04  0.50400001928E-02 0.  1.
       -1    1    3    3    0  502 -0.15967626581E+04  0.10477294953E+03  0.83659967694E+03  0.18056930461E+04  0.50400001928E-02 0. -1.
</event>
<event>
 5   0  0.5147582E-08  0.3800037E+04  0.7818609E-02  0.8046147E-01
       -2   -1    0    0    0  501  0.00000000000E+00  0.00000000000E+00  0.26996784115E+04  0.26996784115E+04  0.25500000920E-02 0.  1.
        2   -1    0    0  501    0  0.00000000000E+00  0.00000000000E+00 -0.13372224870E+04  0.13372224870E+04  0.25500000920E-02 0. -1.
    10030    2    1    2    0    0  0.00000000000E+00  0.00000000000E+00  0.13624559245E+04  0.40369008985E+04  0.38000371995E+04 0.  0.
        1    1    3    3  502    0  0.13987186128E+03  0.62131314391E+03  0.25829138640E+04  0.26602703226E+04  0.50400001928E-02 0.  1.
       -1    1    3    3    0  502 -0.13987186128E+03 -0.62131314391E+03 -0.12204579395E+04  0.13766305759E+04  0.50400001928E-02 0. -1.
</event>
<event>
 5   0  0.1628473E-08  0.3796198E+04  0.7818609E-02  0.8046971E-01
        1   -1    0    0  501    0  0.00000000000E+00  0.00000000000E+00  0.14045265817E+04  0.14045265817E+04  0.50400001928E-02 0.  1.
       -1   -1    0    0    0  501  0.00000000000E+00  0.00000000000E+00 -0.25651210731E+04  0.25651210731E+04  0.50400001928E-02 0. -1.
    10030    2    1    2    0    0  0.00000000000E+00  0.00000000000E+00 -0.11605944915E+04  0.39696476548E+04  0.37961984840E+04 0.  0.
        3    1    3    3  502    0 -0.13598402761E+04  0.71497032483E+03  0.58527571731E+03  0.16440486055E+04  0.10100000352E+00 0.  1.
       -3    1    3    3    0  502  0.13598402761E+04 -0.71497032483E+03 -0.17458702088E+04  0.23255990493E+04  0.10100000352E+00 0. -1.
</event>
<event>
 5   0  0.1628250E-08  0.3790603E+04  0.7818609E-02  0.8048174E-01
        1   -1    0    0  501    0  0.00000000000E+00  0.00000000000E+00  0.18357297757E+04  0.18357297757E+04  0.50400001928E-02 0.  1.
       -1   -1    0    0    0  501  0.00000000000E+00  0.00000000000E+00 -0.19568065931E+04  0.19568065931E+04  0.50400001928E-02 0. -1.
    10030    2    1    2    0    0  0.00000000000E+00  0.00000000000E+00 -0.12107681737E+03  0.37925363688E+04  0.37906031859E+04 0.  0.
        5    1    3    3  502    0  0.15540695154E+04  0.76774071778E+03  0.70639552255E+03  0.18717837997E+04  0.46999998093E+01 0.  1.
       -5    1    3    3    0  502 -0.15540695154E+04 -0.76774071778E+03 -0.82747233991E+03  0.19207525691E+04  0.46999998093E+01 0. -1.
</event>
<event>
 5   0  0.1628473E-08  0.3802076E+04  0.7818609E-02  0.8045709E-01
        1   -1    0    0  501    0  0.00000000000E+00  0.00000000000E+00  0.20856249668E+04  0.20856249668E+04  0.50400001928E-02 0. -1.
       -1   -1    0    0    0  501  0.00000000000E+00  0.00000000000E+00 -0.17327880732E+04  0.17327880732E+04  0.50400001928E-02 0.  1.
    10030    2    1    2    0    0  0.00000000000E+00  0.00000000000E+00  0.35283689360E+03  0.38184130400E+04  0.38020763104E+04 0.  0.
        3    1    3    3  502    0  0.97925666356E+03 -0.16292315305E+04  0.20116299208E+03  0.19114930166E+04  0.10100000352E+00 0.  1.
       -3    1    3    3    0  502 -0.97925666356E+03  0.16292315305E+04  0.15167390152E+03  0.19069200234E+04  0.10100000352E+00 0. -1.
</event>
<event>
 5   0  0.5140842E-08  0.3771395E+04  0.7818609E-02  0.8052322E-01
       -2   -1    0    0    0  501  0.00000000000E+00  0.00000000000E+00  0.14419432869E+04  0.14419432869E+04  0.25500000920E-02 0. -1.
        2   -1    0    0  501    0  0.00000000000E+00  0.00000000000E+00 -0.24660153002E+04  0.24660153002E+04  0.25500000920E-02 0.  1.
    10030    2    1    2    0    0  0.00000000000E+00  0.00000000000E+00 -0.10240720133E+04  0.39079585871E+04  0.37713945471E+04 0.  0.
        2    1    3    3  502    0  0.10192242371E+04 -0.10494962441E+04  0.72083406265E+03  0.16309083843E+04  0.25500000920E-02 0. -1.
       -2    1    3    3    0  502 -0.10192242371E+04  0.10494962441E+04 -0.17449060760E+04  0.22770502028E+04  0.25500000920E-02 0.  1.
</event>
<event>
 5   0  0.5140842E-08  0.3796346E+04  0.7818609E-02  0.8046939E-01
        2   -1    0    0  501    0  0.00000000000E+00  0.00000000000E+00  0.29259569967E+04  0.29259569967E+04  0.25500000920E-02 0. -1.
       -2   -1    0    0    0  501  0.00000000000E+00  0.00000000000E+00 -0.12314126702E+04  0.12314126702E+04  0.25500000920E-02 0.  1.
    10030    2    1    2    0    0  0.00000000000E+00  0.00000000000E+00  0.16945443265E+04  0.41573696669E+04  0.37963458843E+04 0.  0.
        2    1    3    3  502    0 -0.10445760804E+04  0.82171220039E+03  0.23314064911E+04  0.26836181462E+04  0.25500000920E-02 0. -1.
       -2    1    3    3    0  502  0.10445760804E+04 -0.82171220039E+03 -0.63686216456E+03  0.14737515207E+04  0.25500000920E-02 0.  1.
</event>
<event>
 5   0  0.5207474E-08  0.3806705E+04  0.7818609E-02  0.8044718E-01
        2   -1    0    0  501    0  0.00000000000E+00  0.00000000000E+00  0.19196030051E+04  0.19196030051E+04  0.25500000920E-02 0.  1.
       -2   -1    0    0    0  501  0.00000000000E+00  0.00000000000E+00 -0.18872396388E+04  0.18872396388E+04  0.25500000920E-02 0. -1.
    10030    2    1    2    0    0  0.00000000000E+00  0.00000000000E+00  0.32363366262E+02  0.38068426439E+04  0.38067050750E+04 0.  0.
        4    1    3    3  502    0 -0.37257562032E+03 -0.78782147102E+03 -0.16760006236E+04  0.18890354592E+04  0.12699999809E+01 0. -1.
       -4    1    3    3    0  502  0.37257562032E+03  0.78782147102E+03  0.17083639898E+04  0.19178071847E+04  0.12699999809E+01 0.  1.
</event>
<event>
 5   0  0.1628473E-08  0.3804970E+04  0.7818609E-02  0.8045089E-01
        1   -1    0    0  501    0  0.00000000000E+00  0.00000000000E+00  0.12465505881E+04  0.12465505881E+04  0.50400001928E-02 0. -1.
       -1   -1    0    0    0  501  0.00000000000E+00  0.00000000000E+00 -0.29035720494E+04  0.29035720494E+04  0.50400001928E-02 0.  1.
    10030    2    1    2    0    0  0.00000000000E+00  0.00000000000E+00 -0.16570214613E+04  0.41501226374E+04  0.38049701421E+04 0.  0.
        3    1    3    3  502    0 -0.10672119877E+03 -0.12781952280E+04 -0.23610574337E+04  0.26869619778E+04  0.10100000352E+00 0.  1.
       -3    1    3    3    0  502  0.10672119877E+03  0.12781952280E+04  0.70403597234E+03  0.14631606596E+04  0.10100000352E+00 0. -1.
</event>
<event>
 5   0  0.1628250E-08  0.3801345E+04  0.7818609E-02  0.8045866E-01
       -1   -1    0    0    0  501  0.00000000000E+00  0.00000000000E+00  0.30109346371E+04  0.30109346371E+04  0.50400001928E-02 0.  1.
        1   -1    0    0  501    0  0.00000000000E+00  0.00000000000E+00 -0.11998124027E+04  0.11998124027E+04  0.50400001928E-02 0. -1.
    10030    2    1    2    0    0  0.00000000000E+00  0.00000000000E+00  0.18111222344E+04  0.42107470397E+04  0.38013454046E+04 0.  0.
        4    1    3    3  502    0 -0.14775698539E+04  0.13413836920E+03 -0.41038794878E+03  0.15393588459E+04  0.12699999809E+01 0. -1.
       -4    1    3    3    0  502  0.14775698539E+04 -0.13413836920E+03  0.22215101832E+04  0.26713881938E+04  0.12699999809E+01 0.  1.
</event>
<event>
 5   0  0.5159761E-08  0.3814752E+04  0.7818609E-02  0.8042997E-01
        2   -1    0    0  501    0  0.00000000000E+00  0.00000000000E+00  0.27335864269E+04  0.27335864269E+04  0.25500000920E-02 0. -1.
       -2   -1    0    0    0  501  0.00000000000E+00  0.00000000000E+00 -0.13308827609E+04  0.13308827609E+04  0.25500000920E-02 0.  1.
    10030    2    1    2    0    0  0.00000000000E+00  0.00000000000E+00  0.14027036660E+04  0.40644691878E+04  0.38147519190E+04 0.  0.
        5    1    3    3  502    0  0.43176473889E+03  0.44717546531E+03  0.26226335630E+04  0.26952950826E+04  0.46999998093E+01 0. -1.
       -5    1    3    3    0  502 -0.43176473889E+03 -0.44717546531E+03 -0.12199298970E+04  0.13691741052E+04  0.46999998093E+01 0.  1.
</event>
<event>
 5   0  0.1628250E-08  0.3808027E+04  0.7818609E-02  0.8044434E-01
        1   -1    0    0  501    0  0.00000000000E+00  0.00000000000E+00  0.23713270634E+04  0.23713270634E+04  0.50400001928E-02 0.  1.
       -1   -1    0    0    0  501  0.00000000000E+00  0.00000000000E+00 -0.15287930501E+04  0.15287930502E+04  0.50400001928E-02 0. -1.
    10030    2    1    2    0    0  0.00000000000E+00  0.00000000000E+00  0.84253401327E+03  0.39001201136E+04  0.38080274863E+04 0.  0.
        5    1    3    3  502    0 -0.10052223480E+04 -0.94431018156E+03 -0.92312886487E+03  0.16596332966E+04  0.46999998093E+01 0. -1.
       -5    1    3    3    0  502  0.10052223480E+04  0.94431018156E+03  0.17656628781E+04  0.22404868170E+04  0.46999998093E+01 0.  1.
</event>
<event>
 5   0  0.1666051E-08  0.3816007E+04  0.7818609E-02  0.8042728E-01
       -1   -1    0    0    0  501  0.00000000000E+00  0.00000000000E+00  0.23216030134E+04  0.23216030134E+04  0.50400001928E-02 0.  1.
        1   -1    0    0  501    0  0.00000000000E+00  0.00000000000E+00 -0.15680880352E+04  0.15680880352E+04  0.50400001928E-02 0. -1.
    10030    2    1    2    0    0  0.00000000000E+00  0.00000000000E+00  0.75351497828E+03  0.38896910486E+04  0.38160072892E+04 0.  0.
        2    1    3    3  502    0  0.11557334214E+03 -0.12397117575E+04  0.18504386047E+04  0.22303285562E+04  0.25500000920E-02 0.  1.
       -2    1    3    3    0  502 -0.11557334214E+03  0.12397117575E+04 -0.10969236264E+04  0.16593624924E+04  0.25500000920E-02 0. -1.
</event>
<event>
 5   0  0.5086209E-08  0.3811806E+04  0.7818609E-02  0.8043626E-01
       -2   -1    0    0    0  501  0.00000000000E+00  0.00000000000E+00  0.19179554453E+04  0.19179554453E+04  0.25500000920E-02 0.  1.
        2   -1    0    0  501    0  0.00000000000E+00  0.00000000000E+00 -0.18939267814E+04  0.18939267814E+04  0.25500000920E-02 0. -1.
    10030    2    1    2    0    0  0.00000000000E+00  0.00000000000E+00  0.24028663869E+02  0.38118822268E+04  0.38118064922E+04 0.  0.
        3    1    3    3  502    0 -0.13813985031E+04  0.78567150095E+03 -0.10401119094E+04  0.18993089075E+04  0.10100000352E+00 0. -1.
       -3    1    3    3    0  502  0.13813985031E+04 -0.78567150095E+03  0.10641405733E+04  0.19125733193E+04  0.10100000352E+00 0.  1.
</event>
<event>
 5   0  0.1628473E-08  0.3853269E+04  0.7818609E-02  0.8034819E-01
       -1   -1    0    0    0  501  0.00000000000E+00  0.00000000000E+00  0.18963895514E+04  0.18963895514E+04  0.50400001928E-02 0. -1.
        1   -1    0    0  501    0  0.00000000000E+00  0.00000000000E+00 -0.19573617251E+04  0.19573617251E+04  0.50400001928E-02 0.  1.
    10030    2    1    2    0    0  0.00000000000E+00  0.00000000000E+00 -0.60972173766E+02  0.38537512765E+04  0.38532689103E+04 0.  0.
        3    1    3    3  502    0 -0.75511681770E+03 -0.56145754304E+03 -0.17119116832E+04  0.19534783342E+04  0.10100000352E+00 0.  1.
       -3    1    3    3    0  502  0.75511681770E+03  0.56145754304E+03  0.16509395095E+04  0.19002729423E+04  0.10100000352E+00 0. -1.
</event>
<event>
 5   0  0.1628473E-08  0.3808906E+04  0.7818609E-02  0.8044246E-01
        1   -1    0    0  501    0  0.00000000000E+00  0.00000000000E+00  0.19232695959E+04  0.19232695959E+04  0.50400001928E-02 0.  1.
       -1   -1    0    0    0  501  0.00000000000E+00  0.00000000000E+00 -0.18858202341E+04  0.18858202341E+04  0.50400001928E-02 0. -1.
    10030    2    1    2    0    0  0.00000000000E+00  0.00000000000E+00  0.37449361808E+02  0.38090898300E+04  0.38089057324E+04 0.  0.
        3    1    3    3  502    0  0.27933758711E+03  0.17236012633E+04  0.77909682169E+03  0.19120205726E+04  0.10100000352E+00 0.  1.
       -3    1    3    3    0  502 -0.27933758711E+03 -0.17236012633E+04 -0.74164745988E+03  0.18970692574E+04  0.10100000352E+00 0. -1.
</event>
<event>
 5   0  0.1628473E-08  0.3793301E+04  0.7818609E-02  0.8047594E-01
       -1   -1    0    0    0  501  0.00000000000E+00  0.00000000000E+00  0.20769351750E+04  0.20769351750E+04  0.50400001928E-02 0. -1.
        1   -1    0    0  501    0  0.00000000000E+00  0.00000000000E+00 -0.17320152497E+04  0.17320152497E+04  0.50400001928E-02 0.  1.
    10030    2    1    2    0    0  0.00000000000E+00  0.00000000000E+00  0.34491992536E+03  0.38089504247E+04  0.37933011458E+04 0.  0.
        3    1    3    3  502    0 -0.57392886953E+03  0.12292802655E+04 -0.11584359761E+04  0.17839557840E+04  0.10100000352E+00 0.  1.
       -3    1    3    3    0  502  0.57392886953E+03 -0.12292802655E+04  0.15033559014E+04  0.20249946407E+04  0.10100000352E+00 0. -1.
</event>
<event>
 5   0  0.1666051E-08  0.3797748E+04  0.7818609E-02  0.8046638E-01
       -1   -1    0    0    0  501  0.00000000000E+00  0.00000000000E+00  0.27315117380E+04  0.27315117380E+04  0.50400001928E-02 0.  1.
        1   -1    0    0  501    0  0.00000000000E+00  0.00000000000E+00 -0.13200462562E+04  0.13200462562E+04  0.50400001928E-02 0. -1.
    10030    2    1    2    0    0  0.00000000000E+00  0.00000000000E+00  0.14114654818E+04  0.40515579942E+04  0.37977476712E+04 0.  0.
        2    1    3    3  502    0  0.22700780319E+03  0.26437607383E+03  0.26971092839E+04  0.27195267494E+04  0.25500000920E-02 0.  1.
       -2    1    3    3    0  502 -0.22700780319E+03 -0.26437607383E+03 -0.12856438022E+04  0.13320312448E+04  0.25500000920E-02 0. -1.
</event>
<event>
 5   0  0.1628250E-08  0.3801497E+04  0.7818609E-02  0.8045834E-01
       -1   -1    0    0    0  501  0.00000000000E+00  0.00000000000E+00  0.14378471116E+04  0.14378471116E+04  0.50400001928E-02 0. -1.
        1   -1    0    0  501    0  0.00000000000E+00  0.00000000000E+00 -0.25126771110E+04  0.25126771110E+04  0.50400001928E-02 0.  1.
    10030    2    1    2    0    0  0.00000000000E+00  0.00000000000E+00 -0.10748299994E+04  0.39505242226E+04  0.38014973505E+04 0.  0.
        4    1    3    3  502    0  0.45071096629E+03  0.34780405956E+03 -0.24219948126E+04  0.24880049285E+04  0.12699999809E+01 0.  1.
       -4    1    3    3    0  502 -0.45071096629E+03 -0.34780405956E+03  0.13471648132E+04  0.14625192941E+04  0.12699999809E+01 0. -1.
</event>
<event>
 5   0  0.1628250E-08  0.3788674E+04  0.7818609E-02  0.8048590E-01
       -1   -1    0    0    0  501  0.00000000000E+00  0.00000000000E+00  0.14871969292E+04  0.14871969292E+04  0.50400001928E-02 0. -1.
        1   -1    0    0  501    0  0.00000000000E+00  0.00000000000E+00 -0.24129370008E+04  0.24129370008E+04  0.50400001928E-02 0.  1.
    10030    2    1    2    0    0  0.00000000000E+00  0.00000000000E+00 -0.92574007160E+03  0.39001339299E+04  0.37886739093E+04 0.  0.
        4    1    3    3  502    0 -0.77770127572E+02 -0.32926981829E+03  0.14558426896E+04  0.14946392059E+04  0.12699999809E+01 0. -1.
       -4    1    3    3    0  502  0.77770127572E+02  0.32926981829E+03 -0.23815827612E+04  0.24054947240E+04  0.12699999809E+01 0.  1.
</event>
<event>
 5   0  0.5086209E-08  0.3770272E+04  0.7818609E-02  0.8052565E-01
       -2   -1    0    0    0  501  0.00000000000E+00  0.00000000000E+00  0.19616958855E+04  0.19616958855E+04  0.25500000920E-02 0.  1.
        2   -1    0    0  501    0  0.00000000000E+00  0.00000000000E+00 -0.18115640347E+04  0.18115640347E+04  0.25500000920E-02 0. -1.
    10030    2    1    2    0    0  0.00000000000E+00  0.00000000000E+00  0.15013185072E+03  0.37732599202E+04  0.37702719866E+04 0.  0.
        3    1    3    3  502    0  0.27952558086E+03 -0.47209399033E+03  0.18800279819E+04  0.19584464529E+04  0.10100000352E+00 0.  1.
       -3    1    3    3    0  502 -0.27952558086E+03  0.47209399033E+03 -0.17298961312E+04  0.18148134673E+04  0.10100000352E+00 0. -1.
</event>
<event>
 5   0  0.5207474E-08  0.3820193E+04  0.7818609E-02  0.8041835E-01
       -2   -1    0    0    0  501  0.00000000000E+00  0.00000000000E+00  0.25407372321E+04  0.25407372321E+04  0.25500000920E-02 0. -1.
        2   -1    0    0  501    0  0.00000000000E+00  0.00000000000E+00 -0.14359881536E+04  0.14359881536E+04  0.25500000920E-02 0.  1.
    10030    2    1    2    0    0  0.00000000000E+00  0.00000000000E+00  0.11047490785E+04  0.39767253857E+04  0.38201929620E+04 0.  0.
        4    1    3    3  502    0 -0.97234311018E+03 -0.24003975309E+03  0.22454866222E+04  0.24587155164E+04  0.12699999809E+01 0. -1.
       -4    1    3    3    0  502  0.97234311018E+03  0.24003975309E+03 -0.11407375437E+04  0.15180098694E+04  0.12699999809E+01 0.  1.
</event>
<event>
 5   0  0.5207474E-08  0.3801208E+04  0.7818609E-02  0.8045896E-01
        2   -1    0    0  501    0  0.00000000000E+00  0.00000000000E+00  0.11623929812E+04  0.11623929812E+04  0.25500000920E-02 0. -1.
       -2   -1    0    0    0  501  0.00000000000E+00  0.00000000000E+00 -0.31076370408E+04  0.31076370408E+04  0.25500000920E-02 0.  1.
    10030    2    1    2    0    0  0.00000000000E+00  0.00000000000E+00 -0.19452440596E+04  0.42700300220E+04  0.38012079577E+04 0.  0.
        4    1    3    3  502    0  0.13829651792E+04 -0.41664268252E+03  0.41509918078E+03  0.15028282519E+04  0.12699999809E+01 0. -1.
       -4    1    3    3    0  502 -0.13829651792E+04  0.41664268252E+03 -0.23603432403E+04  0.27672017702E+04  0.12699999809E+01 0.  1.
</event>
<event>
 5   0  0.1628250E-08  0.3800710E+04  0.7818609E-02  0.8046003E-01
       -1   -1    0    0    0  501  0.00000000000E+00  0.00000000000E+00  0.30316885973E+04  0.30316885973E+04  0.50400001928E-02 0. -1.
        1   -1    0    0  501    0  0.00000000000E+00  0.00000000000E+00 -0.11912006392E+04  0.11912006393E+04  0.50400001928E-02 0.  1.
    10030    2    1    2    0    0  0.00000000000E+00  0.00000000000E+00  0.18404879581E+04  0.42228892366E+04  0.38007101416E+04 0.  0.
        5    1    3    3  502    0 -0.17364833038E+04 -0.44062309114E+03  0.16245351567E+04  0.24184002022E+04  0.46999998093E+01 0. -1.
       -5    1    3    3    0  502  0.17364833038E+04  0.44062309114E+03  0.21595280140E+03  0.18044890344E+04  0.46999998093E+01 0.  1.
</event>
<event>
 5   0  0.1628473E-08  0.3790527E+04  0.7818609E-02  0.8048191E-01
       -1   -1    0    0    0  501  0.00000000000E+00  0.00000000000E+00  0.17947435564E+04  0.17947435564E+04  0.50400001928E-02 0.  1.
        1   -1    0    0  501    0  0.00000000000E+00  0.00000000000E+00 -0.20014130751E+04  0.20014130751E+04  0.50400001928E-02 0. -1.
    10030    2    1    2    0    0  0.00000000000E+00  0.00000000000E+00 -0.20666951865E+03  0.37961566315E+04  0.37905267287E+04 0.  0.
        3    1    3    3  502    0 -0.52256532117E+03 -0.10315312435E+04  0.14005253230E+04  0.18162054982E+04  0.10100000352E+00 0.  1.
       -3    1    3    3    0  502  0.52256532117E+03  0.10315312435E+04 -0.16071948416E+04  0.19799511333E+04  0.10100000352E+00 0. -1.
</event>
<event>
 5   0  0.5207474E-08  0.3801503E+04  0.7818609E-02  0.8045832E-01
        2   -1    0    0  501    0  0.00000000000E+00  0.00000000000E+00  0.12933246614E+04  0.12933246614E+04  0.25500000920E-02 0.  1.
       -2   -1    0    0    0  501  0.00000000000E+00  0.00000000000E+00 -0.27934650255E+04  0.27934650255E+04  0.25500000920E-02 0. -1.
    10030    2    1    2    0    0  0.00000000000E+00  0.00000000000E+00 -0.15001403641E+04  0.40867896869E+04  0.38015034964E+04 0.  0.
        4    1    3    3  502    0  0.20695837834E+03  0.63825087444E+03 -0.26619171346E+04  0.27451776616E+04  0.12699999809E+01 0. -1.
       -4    1    3    3    0  502 -0.20695837834E+03 -0.63825087444E+03  0.11617767705E+04  0.13416120253E+04  0.12699999809E+01 0.  1.
</event>
<event>
 5   0  0.5159761E-08  0.3793274E+04  0.7818609E-02  0.8047600E-01
        2   -1    0    0  501    0  0.00000000000E+00  0.00000000000E+00  0.29797529474E+04  0.29797529474E+04  0.25500000920E-02 0. -1.
       -2   -1    0    0    0  501  0.00000000000E+00  0.00000000000E+00 -0.12072250046E+04  0.12072250047E+04  0.25500000920E-02 0.  1.
    10030    2    1    2    0    0  0.00000000000E+00  0.00000000000E+00  0.17725279427E+04  0.41869779520E+04  0.37932741877E+04 0.  0.
        5    1    3    3  502    0  0.37914762787E+03 -0.35091330001E+03 -0.11280595887E+04  0.12407391319E+04  0.46999998093E+01 0.  1.
       -5    1    3    3    0  502 -0.37914762787E+03  0.35091330001E+03  0.29005875314E+04  0.29462388201E+04  0.46999998093E+01 0. -1.
</event>
<event>
 5   0  0.1628250E-08  0.3777985E+04  0.7818609E-02  0.8050896E-01
        1   -1    0    0  501    0  0.00000000000E+00  0.00000000000E+00  0.26242822997E+04  0.26242822997E+04  0.50400001928E-02 0. -1.
       -1   -1    0    0    0  501  0.00000000000E+00  0.00000000000E+00 -0.13597210044E+04  0.13597210044E+04  0.50400001928E-02 0.  1.
    10030    2    1    2    0    0  0.00000000000E+00  0.00000000000E+00  0.12645612953E+04  0.39840033042E+04  0.37779845232E+04 0.  0.
        5    1    3    3  502    0  0.23401008149E+03 -0.17064759600E+04  0.14501027251E+04  0.22515863127E+04  0.46999998093E+01 0. -1.
       -5    1    3    3    0  502 -0.23401008149E+03  0.17064759600E+04 -0.18554142978E+03  0.17324169915E+04  0.46999998093E+01 0.  1.
</event>
<event>
 5   0  0.1628473E-08  0.3805811E+04  0.7818609E-02  0.8044909E-01
       -1   -1    0    0    0  501  0.00000000000E+00  0.00000000000E+00  0.17661219610E+04  0.17661219610E+04  0.50400001928E-02 0.  1.
        1   -1    0    0  501    0  0.00000000000E+00  0.00000000000E+00 -0.20502825516E+04  0.20502825517E+04  0.50400001928E-02 0. -1.
    10030    2    1    2    0    0  0.00000000000E+00  0.00000000000E+00 -0.28416059063E+03  0.38164045127E+04  0.38058108417E+04 0.  0.
        3    1    3    3  502    0  0.52915893225E+03 -0.14821915905E+04  0.93054564076E+03  0.18283370276E+04  0.10100000352E+00 0.  1.
       -3    1    3    3    0  502 -0.52915893225E+03  0.14821915905E+04 -0.12147062314E+04  0.19880674851E+04  0.10100000352E+00 0. -1.
</event>
<event>
 5   0  0.5140842E-08  0.3829043E+04  0.7818609E-02  0.8039951E-01
       -2   -1    0    0    0  501  0.00000000000E+00  0.00000000000E+00  0.16587211621E+04  0.16587211621E+04  0.25500000920E-02 0. -1.
        2   -1    0    0  501    0  0.00000000000E+00  0.00000000000E+00 -0.22097704179E+04  0.22097704179E+04  0.25500000920E-02 0.  1.
    10030    2    1    2    0    0  0.00000000000E+00  0.00000000000E+00 -0.55104925583E+03  0.38684915800E+04  0.38290431993E+04 0.  0.
        2    1    3    3  502    0 -0.22128396668E+02  0.16808353708E+04  0.65026511808E+03  0.18023711975E+04  0.25500000920E-02 0. -1.
       -2    1    3    3    0  502  0.22128396668E+02 -0.16808353708E+04 -0.12013143739E+04  0.20661203824E+04  0.25500000920E-02 0.  1.
</event>
<event>
 5   0  0.5159761E-08  0.3805217E+04  0.7818609E-02  0.8045036E-01
        2   -1    0    0  501    0  0.00000000000E+00  0.00000000000E+00  0.21132965065E+04  0.21132965065E+04  0.25500000920E-02 0. -1.
       -2   -1    0    0    0  501  0.00000000000E+00  0.00000000000E+00 -0.17129255202E+04  0.17129255202E+04  0.25500000920E-02 0.  1.
    10030    2    1    2    0    0  0.00000000000E+00  0.00000000000E+00  0.40037098634E+03  0.38262220268E+04  0.38052172174E+04 0.  0.
        5    1    3    3  502    0  0.13845919703E+04 -0.59415770494E+03 -0.96802759632E+03  0.17908706876E+04  0.46999998093E+01 0.  1.
       -5    1    3    3    0  502 -0.13845919703E+04  0.59415770494E+03  0.13683985827E+04  0.20353513391E+04  0.46999998093E+01 0. -1.
</event>
<event>
 5   0  0.5147582E-08  0.3801099E+04  0.7818609E-02  0.8045919E-01
       -2   -1    0    0    0  501  0.00000000000E+00  0.00000000000E+00  0.15270428155E+04  0.15270428155E+04  0.25500000920E-02 0.  1.
        2   -1    0    0  501    0  0.00000000000E+00  0.00000000000E+00 -0.23654135478E+04  0.23654135478E+04  0.25500000920E-02 0. -1.
    10030    2    1    2    0    0  0.00000000000E+00  0.00000000000E+00 -0.83837073236E+03  0.38924563633E+04  0.38010986643E+04 0.  0.
        1    1    3    3  502    0  0.34022058814E+03  0.15193220056E+04  0.69696454802E+03  0.17058279476E+04  0.50400001928E-02 0.  1.
       -1    1    3    3    0  502 -0.34022058814E+03 -0.15193220056E+04 -0.15353352804E+04  0.21866284158E+04  0.50400001928E-02 0. -1.
</event>
<event>
 5   0  0.5207474E-08  0.3789963E+04  0.7818609E-02  0.8048312E-01
       -2   -1    0    0    0  501  0.00000000000E+00  0.00000000000E+00  0.19124662566E+04  0.19124662566E+04  0.25500000920E-02 0. -1.
        2   -1    0    0  501    0  0.00000000000E+00  0.00000000000E+00 -0.18776569818E+04  0.18776569818E+04  0.25500000920E-02 0.  1.
    10030    2    1    2    0    0  0.00000000000E+00  0.00000000000E+00  0.34809274799E+02  0.37901232384E+04  0.37899633873E+04 0.  0.
        4    1    3    3  502    0 -0.12818025218E+04 -0.61757130293E+02 -0.13769720543E+04  0.18822553756E+04  0.12699999809E+01 0.  1.
       -4    1    3    3    0  502  0.12818025218E+04  0.61757130293E+02  0.14117813291E+04  0.19078678628E+04  0.12699999809E+01 0. -1.
</event>
<event>
 5   0  0.5159761E-08  0.3799737E+04  0.7818609E-02  0.8046211E-01
       -2   -1    0    0    0  501  0.00000000000E+00  0.00000000000E+00  0.16043025046E+04  0.16043025046E+04  0.25500000920E-02 0. -1.
        2   -1    0    0  501    0  0.00000000000E+00  0.00000000000E+00 -0.22498870854E+04  0.22498870854E+04  0.25500000920E-02 0.  1.
    10030    2    1    2    0    0  0.00000000000E+00  0.00000000000E+00 -0.64558458082E+03  0.38541895901E+04  0.37997365626E+04 0.  0.
        5    1    3    3  502    0  0.10639597795E+04  0.26014235838E+03  0.12518048189E+04  0.16633465826E+04  0.46999998093E+01 0. -1.
       -5    1    3    3    0  502 -0.10639597795E+04 -0.26014235838E+03 -0.18973893998E+04  0.21908430075E+04  0.46999998093E+01 0.  1.
</event>
<event>
 5   0  0.5086209E-08  0.3796527E+04  0.7818609E-02  0.8046901E-01
        2   -1    0    0  501    0  0.00000000000E+00  0.00000000000E+00  0.15246553095E+04  0.15246553095E+04  0.25500000920E-02 0.  1.
       -2   -1    0    0    0  501  0.00000000000E+00  0.00000000000E+00 -0.23634218773E+04  0.23634218773E+04  0.25500000920E-02 0. -1.
    10030    2    1    2    0    0  0.00000000000E+00  0.00000000000E+00 -0.83876656778E+03  0.38880771868E+04  0.37965266831E+04 0.  0.
        3    1    3    3  502    0  0.87203298492E+03  0.14847184364E+04 -0.12377610342E+04  0.21205854735E+04  0.10100000352E+00 0.  1.
       -3    1    3    3    0  502 -0.87203298492E+03 -0.14847184364E+04  0.39899446647E+03  0.17674917133E+04  0.10100000352E+00 0. -1.
</event>
<event>
 5   0  0.1628250E-08  0.3789251E+04  0.7818609E-02  0.8048465E-01
        1   -1    0    0  501    0  0.00000000000E+00  0.00000000000E+00  0.20314990639E+04  0.20314990639E+04  0.50400001928E-02 0.  1.
       -1   -1    0    0    0  501  0.00000000000E+00  0.00000000000E+00 -0.17669742080E+04  0.17669742080E+04  0.50400001928E-02 0. -1.
    10030    2    1    2    0    0  0.00000000000E+00  0.00000000000E+00  0.26452485595E+03  0.37984732719E+04  0.37892513506E+04 0.  0.
        4    1    3    3  502    0 -0.14288295980E+04 -0.12058137393E+04 -0.17518260429E+03  0.18778262305E+04  0.12699999809E+01 0.  1.
       -4    1    3    3    0  502  0.14288295980E+04  0.12058137393E+04  0.43970746025E+03  0.19206470414E+04  0.12699999809E+01 0. -1.
</event>
<event>
 5   0  0.5159761E-08  0.3794834E+04  0.7818609E-02  0.8047264E-01
        2   -1    0    0  501    0  0.00000000000E+00  0.00000000000E+00  0.26689030725E+04  0.26689030725E+04  0.25500000920E-02 0.  1.
       -2   -1    0    0    0  501  0.00000000000E+00  0.00000000000E+00 -0.13489404037E+04  0.13489404037E+04  0.25500000920E-02 0. -1.
    10030    2    1    2    0    0  0.00000000000E+00  0.00000000000E+00  0.13199626688E+04  0.40178434762E+04  0.37948339558E+04 0.  0.
        5    1    3    3  502    0 -0.10833689715E+04  0.75605388940E+03 -0.78198854417E+03  0.15351983538E+04  0.46999998093E+01 0. -1.
       -5    1    3    3    0  502  0.10833689715E+04 -0.75605388940E+03  0.21019512130E+04  0.24826451224E+04  0.46999998093E+01 0.  1.
</event>
<event>
 5   0  0.1628250E-08  0.3775996E+04  0.7818609E-02  0.8051326E-01
        1   -1    0    0  501    0  0.00000000000E+00  0.00000000000E+00  0.20740672778E+04  0.20740672778E+04  0.50400001928E-02 0. -1.
       -1   -1    0    0    0  501  0.00000000000E+00  0.00000000000E+00 -0.17186218147E+04  0.17186218147E+04  0.50400001928E-02 0.  1.
    10030    2    1    2    0    0  0.00000000000E+00  0.00000000000E+00  0.35544546307E+03  0.37926890925E+04  0.37759964348E+04 0.  0.
        5    1    3    3  502    0 -0.44813040969E+03 -0.94619114124E+03 -0.14003423121E+04  0.17484505200E+04  0.46999998093E+01 0.  1.
       -5    1    3    3    0  502  0.44813040969E+03  0.94619114124E+03  0.17557877752E+04  0.20442385725E+04  0.46999998093E+01 0. -1.
</event>
<event>
 5   0  0.1628250E-08  0.3796624E+04  0.7818609E-02  0.8046880E-01
        1   -1    0    0  501    0  0.00000000000E+00  0.00000000000E+00  0.26999095277E+04  0.26999095277E+04  0.50400001928E-02 0. -1.
       -1   -1    0    0    0  501  0.00000000000E+00  0.00000000000E+00 -0.13347069386E+04  0.13347069386E+04  0.50400001928E-02 0.  1.
    10030    2    1    2    0    0  0.00000000000E+00  0.00000000000E+00  0.13652025892E+04  0.40346164663E+04  0.37966237529E+04 0.  0.
        5    1    3    3  502    0 -0.59821842338E+03 -0.11796788968E+04  0.21295941617E+04  0.25069305864E+04  0.46999998093E+01 0. -1.
       -5    1    3    3    0  502  0.59821842338E+03  0.11796788968E+04 -0.76439157250E+03  0.15276858799E+04  0.46999998093E+01 0.  1.
</event>
<event>
 5   0  0.1628250E-08  0.3794363E+04  0.7818609E-02  0.8047366E-01
        1   -1    0    0  501    0  0.00000000000E+00  0.00000000000E+00  0.22104636588E+04  0.22104636589E+04  0.50400001928E-02 0.  1.
       -1   -1    0    0    0  501  0.00000000000E+00  0.00000000000E+00 -0.16282995634E+04  0.16282995634E+04  0.50400001928E-02 0. -1.
    10030    2    1    2    0    0  0.00000000000E+00  0.00000000000E+00  0.58216409548E+03  0.38387632222E+04  0.37943626661E+04 0.  0.
        5    1    3    3  502    0  0.13889627778E+04  0.12923055126E+04  0.28911392603E+03  0.19190831374E+04  0.46999998093E+01 0. -1.
       -5    1    3    3    0  502 -0.13889627778E+04 -0.12923055126E+04  0.29305016945E+03  0.19196800848E+04  0.46999998093E+01 0.  1.
</event>
<event>
 5   0  0.1628250E-08  0.3792778E+04  0.7818609E-02  0.8047707E-01
        1   -1    0    0  501    0  0.00000000000E+00  0.00000000000E+00  0.20844289486E+04  0.20844289486E+04  0.50400001928E-02 0. -1.
       -1   -1    0    0    0  501  0.00000000000E+00  0.00000000000E+00 -0.17253123194E+04  0.17253123194E+04  0.50400001928E-02 0.  1.
    10030    2    1    2    0    0  0.00000000000E+00  0.00000000000E+00  0.35911662914E+03  0.38097412680E+04  0.37927778443E+04 0.  0.
        1    1    3    3  502    0 -0.17170505729E+04  0.80480817805E+03  0.16181378689E+03  0.19031979863E+04  0.50400001928E-02 0. -1.
       -1    1    3    3    0  502  0.17170505729E+04 -0.80480817805E+03  0.19730284225E+03  0.19065432817E+04  0.50400001928E-02 0.  1.
</event>
<event>
 5   0  0.5086209E-08  0.3786160E+04  0.7818609E-02  0.8049131E-01
        2   -1    0    0  501    0  0.00000000000E+00  0.00000000000E+00  0.28700649536E+04  0.28700649536E+04  0.25500000920E-02 0.  1.
       -2   -1    0    0    0  501  0.00000000000E+00  0.00000000000E+00 -0.12486657180E+04  0.12486657180E+04  0.25500000920E-02 0. -1.
    10030    2    1    2    0    0  0.00000000000E+00  0.00000000000E+00  0.16213992355E+04  0.41187306716E+04  0.37861599100E+04 0.  0.
        3    1    3    3  502    0  0.71844542526E+03  0.17043365197E+04  0.12496595269E+04  0.22321683952E+04  0.10100000352E+00 0.  1.
       -3    1    3    3    0  502 -0.71844542526E+03 -0.17043365197E+04  0.37173970864E+03  0.18865622764E+04  0.10100000352E+00 0. -1.
</event>
<event>
 5   0  0.5159761E-08  0.3789141E+04  0.7818609E-02  0.8048489E-01
        2   -1    0    0  501    0  0.00000000000E+00  0.00000000000E+00  0.19021104019E+04  0.19021104019E+04  0.25500000920E-02 0. -1.
       -2   -1    0    0    0  501  0.00000000000E+00  0.00000000000E+00 -0.18870602592E+04  0.18870602592E+04  0.25500000920E-02 0.  1.
    10030    2    1    2    0    0  0.00000000000E+00  0.00000000000E+00  0.15050142671E+02  0.37891706611E+04  0.37891407723E+04 0.  0.
        5    1    3    3  502    0 -0.21214582235E+03 -0.16750502056E+04 -0.85188604601E+03  0.18911718501E+04  0.46999998093E+01 0. -1.
       -5    1    3    3    0  502  0.21214582235E+03  0.16750502056E+04  0.86693618868E+03  0.18979988110E+04  0.46999998093E+01 0.  1.
</event>
<event>
 5   0  0.1628250E-08  0.3801155E+04  0.7818609E-02  0.8045907E-01
        1   -1    0    0  501    0  0.00000000000E+00  0.00000000000E+00  0.23470744772E+04  0.23470744772E+04  0.50400001928E-02 0.  1.
       -1   -1    0    0    0  501  0.00000000000E+00  0.00000000000E+00 -0.15390203098E+04  0.15390203098E+04  0.50400001928E-02 0. -1.
    10030    2    1    2    0    0  0.00000000000E+00  0.00000000000E+00  0.80805416740E+03  0.38860947870E+04  0.38011552397E+04 0.  0.
        4    1    3    3  502    0  0.12619986002E+04 -0.10084535477E+04 -0.61963388129E+03  0.17301927016E+04  0.12699999809E+01 0. -1.
       -4    1    3    3    0  502 -0.12619986002E+04  0.10084535477E+04  0.14276880487E+04  0.21559020855E+04  0.12699999809E+01 0.  1.
</event>
<event>
 5   0  0.5140842E-08  0.3786213E+04  0.7818609E-02  0.8049120E-01
        2   -1    0    0  501    0  0.00000000000E+00  0.00000000000E+00  0.16803678439E+04  0.16803678439E+04  0.25500000920E-02 0.  1.
       -2   -1    0    0    0  501  0.00000000000E+00  0.00000000000E+00 -0.21327780223E+04  0.21327780223E+04  0.25500000920E-02 0. -1.
    10030    2    1    2    0    0  0.00000000000E+00  0.00000000000E+00 -0.45241017843E+03  0.38131458662E+04  0.37862126759E+04 0.  0.
        2    1    3    3  502    0  0.87387373877E+02  0.14147839769E+04 -0.14899625246E+04  0.20565112640E+04  0.25500000920E-02 0. -1.
       -2    1    3    3    0  502 -0.87387373877E+02 -0.14147839769E+04  0.10375523462E+04  0.17566346021E+04  0.25500000920E-02 0.  1.
</event>
<event>
 5   0  0.5140842E-08  0.3795368E+04  0.7818609E-02  0.8047150E-01
        2   -1    0    0  501    0  0.00000000000E+00  0.00000000000E+00  0.15220615338E+04  0.15220615338E+04  0.25500000920E-02 0. -1.
       -2   -1    0    0    0  501  0.00000000000E+00  0.00000000000E+00 -0.23660048233E+04  0.23660048233E+04  0.25500000920E-02 0.  1.
    10030    2    1    2    0    0  0.00000000000E+00  0.00000000000E+00 -0.84394328955E+03  0.38880663571E+04  0.37953681931E+04 0.  0.
        2    1    3    3  502    0  0.24697031896E+03  0.49252808286E+03  0.14383177008E+04  0.15402389617E+04  0.25500000920E-02 0. -1.
       -2    1    3    3    0  502 -0.24697031896E+03 -0.49252808286E+03 -0.22822609903E+04  0.23478273954E+04  0.25500000920E-02 0.  1.
</event>
<event>
 5   0  0.1628250E-08  0.3819272E+04  0.7818609E-02  0.8042032E-01
        1   -1    0    0  501    0  0.00000000000E+00  0.00000000000E+00  0.20410686856E+04  0.20410686856E+04  0.50400001928E-02 0.  1.
       -1   -1    0    0    0  501  0.00000000000E+00  0.00000000000E+00 -0.17866665073E+04  0.17866665073E+04  0.50400001928E-02 0. -1.
    10030    2    1    2    0    0  0.00000000000E+00  0.00000000000E+00  0.25440217825E+03  0.38277351929E+04  0.38192716895E+04 0.  0.
        1    1    3    3  502    0 -0.26219957209E+03  0.73984549662E+03 -0.16175153732E+04  0.17979087733E+04  0.50400001928E-02 0. -1.
       -1    1    3    3    0  502  0.26219957209E+03 -0.73984549662E+03  0.18719175514E+04  0.20298264196E+04  0.50400001928E-02 0.  1.
</event>
<event>
 5   0  0.5159761E-08  0.3790946E+04  0.7818609E-02  0.8048101E-01
       -2   -1    0    0    0  501  0.00000000000E+00  0.00000000000E+00  0.19005621787E+04  0.19005621787E+04  0.25500000920E-02 0. -1.
        2   -1    0    0  501    0  0.00000000000E+00  0.00000000000E+00 -0.18903976845E+04  0.18903976845E+04  0.25500000920E-02 0.  1.
    10030    2    1    2    0    0  0.00000000000E+00  0.00000000000E+00  0.10164494206E+02  0.37909598632E+04  0.37909462364E+04 0.  0.
        5    1    3    3  502    0 -0.10405483787E+04 -0.90243111679E+03  0.13072671777E+04  0.18989714091E+04  0.46999998093E+01 0. -1.
       -5    1    3    3    0  502  0.10405483787E+04  0.90243111679E+03 -0.12971026835E+04  0.18919884541E+04  0.46999998093E+01 0.  1.
</event>
<event>
 5   0  0.1628473E-08  0.3799624E+04  0.7818609E-02  0.8046236E-01
       -1   -1    0    0    0  501  0.00000000000E+00  0.00000000000E+00  0.16119718280E+04  0.16119718280E+04  0.50400001928E-02 0.  1.
        1   -1    0    0  501    0  0.00000000000E+00  0.00000000000E+00 -0.22390499451E+04  0.22390499451E+04  0.50400001928E-02 0. -1.
    10030    2    1    2    0    0  0.00000000000E+00  0.00000000000E+00 -0.62707811709E+03  0.38510217730E+04  0.37996238934E+04 0.  0.
        3    1    3    3  502    0  0.52426512893E+03 -0.15929608136E+04 -0.12183113220E+04  0.20728387701E+04  0.10100000352E+00 0. -1.
       -3    1    3    3    0  502 -0.52426512893E+03  0.15929608136E+04  0.59123320495E+03  0.17781830029E+04  0.10100000352E+00 0.  1.
</event>
<event>
 5   0  0.5207474E-08  0.3798317E+04  0.7818609E-02  0.8046516E-01
       -2   -1    0    0    0  501  0.00000000000E+00  0.00000000000E+00  0.16108956089E+04  0.16108956089E+04  0.25500000920E-02 0. -1.
        2   -1    0    0  501    0  0.00000000000E+00  0.00000000000E+00 -0.22390042181E+04  0.22390042181E+04  0.25500000920E-02 0.  1.
    10030    2    1    2    0    0  0.00000000000E+00  0.00000000000E+00 -0.62810860919E+03  0.38498998271E+04  0.37983165026E+04 0.  0.
        4    1    3    3  502    0  0.40406736337E+03 -0.64711119229E+03  0.14487535170E+04  0.16373489840E+04  0.12699999809E+01 0. -1.
       -4    1    3    3    0  502 -0.40406736337E+03  0.64711119229E+03 -0.20768621262E+04  0.22125508431E+04  0.12699999809E+01 0.  1.
</event>
<event>
 5   0  0.5159761E-08  0.3803958E+04  0.7818609E-02  0.8045306E-01
        2   -1    0    0  501    0  0.00000000000E+00  0.00000000000E+00  0.19937361113E+04  0.19937361114E+04  0.25500000920E-02 0. -1.
       -2   -1    0    0    0  501  0.00000000000E+00  0.00000000000E+00 -0.18144449073E+04  0.18144449073E+04  0.25500000920E-02 0.  1.
    10030    2    1    2    0    0  0.00000000000E+00  0.00000000000E+00  0.17929120403E+03  0.38081810187E+04  0.38039581143E+04 0.  0.
        5    1    3    3  502    0 -0.47212583299E+03  0.25560919033E+02 -0.17546661221E+04  0.18172593246E+04  0.46999998093E+01 0.  1.
       -5    1    3    3    0  502  0.47212583299E+03 -0.25560919033E+02  0.19339573261E+04  0.19909216941E+04  0.46999998093E+01 0. -1.
</event>
<event>
 5   0  0.1628473E-08  0.3797954E+04  0.7818609E-02  0.8046594E-01
       -1   -1    0    0    0  501  0.00000000000E+00  0.00000000000E+00  0.16429597768E+04  0.16429597768E+04  0.50400001928E-02 0. -1.
        1   -1    0    0  501    0  0.00000000000E+00  0.00000000000E+00 -0.21948883140E+04  0.21948883140E+04  0.50400001928E-02 0.  1.
    10030    2    1    2    0    0  0.00000000000E+00  0.00000000000E+00 -0.55192853720E+03  0.38378480909E+04  0.37979537726E+04 0.  0.
        3    1    3    3  502    0  0.81073305728E+03  0.12401167300E+04 -0.14762695128E+04  0.20915423206E+04  0.10100000352E+00 0.  1.
       -3    1    3    3    0  502 -0.81073305728E+03 -0.12401167300E+04  0.92434097559E+03  0.17463057703E+04  0.10100000352E+00 0. -1.
</event>
<event>
 5   0  0.1628250E-08  0.3806841E+04  0.7818609E-02  0.8044688E-01
        1   -1    0    0  501    0  0.00000000000E+00  0.00000000000E+00  0.25091315157E+04  0.25091315158E+04  0.50400001928E-02 0. -1.
       -1   -1    0    0    0  501  0.00000000000E+00  0.00000000000E+00 -0.14439297184E+04  0.14439297184E+04  0.50400001928E-02 0.  1.
    10030    2    1    2    0    0  0.00000000000E+00  0.00000000000E+00  0.10652017973E+04  0.39530612342E+04  0.38068409807E+04 0.  0.
        1    1    3    3  502    0  0.18332487849E+03  0.16028784112E+04  0.15814371965E+04  0.22591526772E+04  0.50400001928E-02 0. -1.
       -1    1    3    3    0  502 -0.18332487849E+03 -0.16028784112E+04 -0.51623539919E+03  0.16939085570E+04  0.50400001928E-02 0.  1.
</event>
<event>
 5   0  0.1628473E-08  0.3795466E+04  0.7818609E-02  0.8047129E-01
        1   -1    0    0  501    0  0.00000000000E+00  0.00000000000E+00  0.12268238312E+04  0.12268238312E+04  0.50400001928E-02 0.  1.
       -1   -1    0    0    0  501  0.00000000000E+00  0.00000000000E+00 -0.29355402095E+04  0.29355402095E+04  0.50400001928E-02 0. -1.
    10030    2    1    2    0    0  0.00000000000E+00  0.00000000000E+00 -0.17087163784E+04  0.41623640407E+04  0.37954660775E+04 0.  0.
        3    1    3    3  502    0 -0.18879423082E+04 -0.10075992049E+03 -0.10342649875E+04  0.21550366111E+04  0.10100000352E+00 0. -1.
       -3    1    3    3    0  502  0.18879423082E+04  0.10075992049E+03 -0.67445139090E+03  0.20073274296E+04  0.10100000352E+00 0.  1.
</event>
<event>
 5   0  0.5207474E-08  0.3795795E+04  0.7818609E-02  0.8047058E-01
        2   -1    0    0  501    0  0.00000000000E+00  0.00000000000E+00  0.13738309819E+04  0.13738309819E+04  0.25500000920E-02 0. -1.
       -2   -1    0    0    0  501  0.00000000000E+00  0.00000000000E+00 -0.26218761019E+04  0.26218761019E+04  0.25500000920E-02 0.  1.
    10030    2    1    2    0    0  0.00000000000E+00  0.00000000000E+00 -0.12480451201E+04  0.39957070838E+04  0.37957948414E+04 0.  0.
        4    1    3    3  502    0 -0.45954425346E+03  0.36201096489E+02 -0.25620508536E+04  0.26031898951E+04  0.12699999809E+01 0.  1.
       -4    1    3    3    0  502  0.45954425346E+03 -0.36201096489E+02  0.13140057336E+04  0.13925171888E+04  0.12699999809E+01 0. -1.
</event>
<event>
 5   0  0.5147582E-08  0.3796119E+04  0.7818609E-02  0.8046988E-01
        2   -1    0    0  501    0  0.00000000000E+00  0.00000000000E+00  0.21681305404E+04  0.21681305404E+04  0.25500000920E-02 0.  1.
       -2   -1    0    0    0  501  0.00000000000E+00  0.00000000000E+00 -0.16616297320E+04  0.16616297320E+04  0.25500000920E-02 0. -1.
    10030    2    1    2    0    0  0.00000000000E+00  0.00000000000E+00  0.50650080836E+03  0.38297602725E+04  0.37961191598E+04 0.  0.
        1    1    3    3  502    0 -0.35157764712E+03  0.18144644037E+04  0.68921683695E+03  0.19725384059E+04  0.50400001928E-02 0.  1.
       -1    1    3    3    0  502  0.35157764712E+03 -0.18144644037E+04 -0.18271602859E+03  0.18572218665E+04  0.50400001928E-02 0. -1.
</event>
<event>
 5   0  0.1628250E-08  0.3799792E+04  0.7818609E-02  0.8046200E-01
        4   -1    0    0  501    0  0.00000000000E+00  0.00000000000E+00  0.24241305244E+04  0.24241308571E+04  0.12699999809E+01 0.  1.
       -4   -1    0    0    0  501  0.00000000000E+00  0.00000000000E+00 -0.14890298263E+04  0.14890303679E+04  0.12699999809E+01 0. -1.
    10030    2    1    2    0    0  0.00000000000E+00  0.00000000000E+00  0.93510069818E+03  0.39131612250E+04  0.37997917649E+04 0.  0.
        2    1    3    3  502    0  0.47352487576E+03 -0.17377926745E+04  0.10901157819E+04  0.21053507084E+04  0.25500000920E-02 0.  1.
       -2    1    3    3    0  502 -0.47352487576E+03  0.17377926745E+04 -0.15501508374E+03  0.18078105165E+04  0.25500000920E-02 0. -1.
</event>
<event>
 5   0  0.1666051E-08  0.3805656E+04  0.7818609E-02  0.8044942E-01
       -1   -1    0    0    0  501  0.00000000000E+00  0.00000000000E+00  0.19052728374E+04  0.19052728375E+04  0.50400001928E-02 0. -1.
        1   -1    0    0  501    0  0.00000000000E+00  0.00000000000E+00 -0.19003867946E+04  0.19003867946E+04  0.50400001928E-02 0.  1.
    10030    2    1    2    0    0  0.00000000000E+00  0.00000000000E+00  0.48860428630E+01  0.38056596320E+04  0.38056564955E+04 0.  0.
        2    1    3    3  502    0 -0.10423197209E+04  0.45778516140E+03  0.15271598863E+04  0.19047873826E+04  0.25500000920E-02 0. -1.
       -2    1    3    3    0  502  0.10423197209E+04 -0.45778516140E+03 -0.15222738434E+04  0.19008722495E+04  0.25500000920E-02 0.  1.
</event>
<event>
 5   0  0.1628250E-08  0.3792798E+04  0.7818609E-02  0.8047702E-01
       -3   -1    0    0    0  501  0.00000000000E+00  0.00000000000E+00  0.20287615920E+04  0.20287615945E+04  0.10100000352E+00 0. -1.
        3   -1    0    0  501    0  0.00000000000E+00  0.00000000000E+00 -0.17726720949E+04  0.17726720977E+04  0.10100000352E+00 0.  1.
    10030    2    1    2    0    0  0.00000000000E+00  0.00000000000E+00  0.25608949715E+03  0.38014336923E+04  0.37927979496E+04 0.  0.
        5    1    3    3  502    0  0.17738328580E+04  0.28220082560E+03  0.73785974299E+03  0.19417979823E+04  0.46999998093E+01 0. -1.
       -5    1    3    3    0  502 -0.17738328580E+04 -0.28220082560E+03 -0.48177024584E+03  0.18596357099E+04  0.46999998093E+01 0.  1.
</event>
<event>
 5   0  0.5207474E-08  0.3777985E+04  0.7818609E-02  0.8050896E-01
       -2   -1    0    0    0  501  0.00000000000E+00  0.00000000000E+00  0.16498953339E+04  0.16498953339E+04  0.25500000920E-02 0.  1.
        2   -1    0    0  501    0  0.00000000000E+00  0.00000000000E+00 -0.21627383654E+04  0.21627383654E+04  0.25500000920E-02 0. -1.
    10030    2    1    2    0    0  0.00000000000E+00  0.00000000000E+00 -0.51284303146E+03  0.38126336993E+04  0.37779846149E+04 0.  0.
        4    1    3    3  502    0 -0.17424900537E+04 -0.53153171753E+03 -0.76049503155E+03  0.19741205282E+04  0.12699999809E+01 0. -1.
       -4    1    3    3    0  502  0.17424900537E+04  0.53153171753E+03  0.24765200009E+03  0.18385131711E+04  0.12699999809E+01 0.  1.
</event>
<event>
 5   0  0.1628473E-08  0.3810667E+04  0.7818609E-02  0.8043870E-01
        1   -1    0    0  501    0  0.00000000000E+00  0.00000000000E+00  0.25177354898E+04  0.25177354898E+04  0.50400001928E-02 0.  1.
       -1   -1    0    0    0  501  0.00000000000E+00  0.00000000000E+00 -0.14418892433E+04  0.14418892434E+04  0.50400001928E-02 0. -1.
    10030    2    1    2    0    0  0.00000000000E+00  0.00000000000E+00  0.10758462464E+04  0.39596247331E+04  0.38106669864E+04 0.  0.
        3    1    3    3  502    0 -0.11938159545E+04  0.13383761089E+04 -0.13053431359E+03  0.17981897450E+04  0.10100000352E+00 0. -1.
       -3    1    3    3    0  502  0.11938159545E+04 -0.13383761089E+04  0.12063805600E+04  0.21614349881E+04  0.10100000352E+00 0.  1.
</event>
<event>
 5   0  0.5207474E-08  0.3816715E+04  0.7818609E-02  0.8042577E-01
        2   -1    0    0  501    0  0.00000000000E+00  0.00000000000E+00  0.18034667019E+04  0.18034667019E+04  0.25500000920E-02 0.  1.
       -2   -1    0    0    0  501  0.00000000000E+00  0.00000000000E+00 -0.20193491560E+04  0.20193491560E+04  0.25500000920E-02 0. -1.
    10030    2    1    2    0    0  0.00000000000E+00  0.00000000000E+00 -0.21588245414E+03  0.38228158578E+04  0.38167153220E+04 0.  0.
        4    1    3    3  502    0 -0.16285088807E+04  0.62622223677E+03 -0.88224342221E+03  0.19551344029E+04  0.12699999809E+01 0. -1.
       -4    1    3    3    0  502  0.16285088807E+04 -0.62622223677E+03  0.66636096807E+03  0.18676814549E+04  0.12699999809E+01 0.  1.
</event>
<event>
 5   0  0.1628473E-08  0.3805950E+04  0.7818609E-02  0.8044879E-01
       -1   -1    0    0    0  501  0.00000000000E+00  0.00000000000E+00  0.30573656608E+04  0.30573656608E+04  0.50400001928E-02 0. -1.
        1   -1    0    0  501    0  0.00000000000E+00  0.00000000000E+00 -0.11844557860E+04  0.11844557860E+04  0.50400001928E-02 0.  1.
    10030    2    1    2    0    0  0.00000000000E+00  0.00000000000E+00  0.18729098748E+04  0.42418214468E+04  0.38059503134E+04 0.  0.
        3    1    3    3  502    0 -0.98552673020E+03 -0.89739176760E+03 -0.57730425961E+03  0.14525340405E+04  0.10100000352E+00 0.  1.
       -3    1    3    3    0  502  0.98552673020E+03  0.89739176760E+03  0.24502141344E+04  0.27892874063E+04  0.10100000352E+00 0. -1.
</event>
<event>
 5   0  0.1628473E-08  0.3794480E+04  0.7818609E-02  0.8047340E-01
       -1   -1    0    0    0  501  0.00000000000E+00  0.00000000000E+00  0.15865883547E+04  0.15865883547E+04  0.50400001928E-02 0.  1.
        1   -1    0    0  501    0  0.00000000000E+00  0.00000000000E+00 -0.22687170929E+04  0.22687170929E+04  0.50400001928E-02 0. -1.
    10030    2    1    2    0    0  0.00000000000E+00  0.00000000000E+00 -0.68212873823E+03  0.38553054476E+04  0.37944802647E+04 0.  0.
        3    1    3    3  502    0  0.14727103903E+04 -0.64960361620E+03 -0.13614838815E+04  0.21081980746E+04  0.10100000352E+00 0. -1.
       -3    1    3    3    0  502 -0.14727103903E+04  0.64960361620E+03  0.67935514330E+03  0.17471073730E+04  0.10100000352E+00 0.  1.
</event>
<event>
 5   0  0.5207474E-08  0.3802854E+04  0.7818609E-02  0.8045543E-01
        2   -1    0    0  501    0  0.00000000000E+00  0.00000000000E+00  0.11793477171E+04  0.11793477171E+04  0.25500000920E-02 0. -1.
       -2   -1    0    0    0  501  0.00000000000E+00  0.00000000000E+00 -0.30656135889E+04  0.30656135889E+04  0.25500000920E-02 0.  1.
    10030    2    1    2    0    0  0.00000000000E+00  0.00000000000E+00 -0.18862658718E+04  0.42449613060E+04  0.38028538691E+04 0.  0.
        4    1    3    3  502    0  0.98020257258E+02 -0.37782054388E+03 -0.30204104044E+04  0.30455273695E+04  0.12699999809E+01 0.  1.
       -4    1    3    3    0  502 -0.98020257258E+02  0.37782054388E+03  0.11341445326E+04  0.11994339365E+04  0.12699999809E+01 0. -1.
</event>
<event>
 5   0  0.5147582E-08  0.3798819E+04  0.7818609E-02  0.8046408E-01
       -2   -1    0    0    0  501  0.00000000000E+00  0.00000000000E+00  0.24044508847E+04  0.24044508847E+04  0.25500000920E-02 0. -1.
        2   -1    0    0  501    0  0.00000000000E+00  0.00000000000E+00 -0.15004494391E+04  0.15004494391E+04  0.25500000920E-02 0.  1.
    10030    2    1    2    0    0  0.00000000000E+00  0.00000000000E+00  0.90400144564E+03  0.39049003238E+04  0.37988192804E+04 0.  0.
        1    1    3    3  502    0 -0.65999407207E+03 -0.10605655196E+04 -0.10188175557E+04  0.16119493194E+04  0.50400001928E-02 0.  1.
       -1    1    3    3    0  502  0.65999407207E+03  0.10605655196E+04  0.19228190014E+04  0.22929510044E+04  0.50400001928E-02 0. -1.
</event>
<event>
 5   0  0.5140842E-08  0.3770904E+04  0.7818609E-02  0.8052428E-01
       -2   -1    0    0    0  501  0.00000000000E+00  0.00000000000E+00  0.20282731057E+04  0.20282731057E+04  0.25500000920E-02 0.  1.
        2   -1    0    0  501    0  0.00000000000E+00  0.00000000000E+00 -0.17526876544E+04  0.17526876544E+04  0.25500000920E-02 0. -1.
    10030    2    1    2    0    0  0.00000000000E+00  0.00000000000E+00  0.27558545135E+03  0.37809607601E+04  0.37709039935E+04 0.  0.
        2    1    3    3  502    0  0.10963843893E+04 -0.12903539644E+04 -0.69379069562E+03  0.18298681952E+04  0.25500000920E-02 0. -1.
       -2    1    3    3    0  502 -0.10963843893E+04  0.12903539644E+04  0.96937614697E+03  0.19510925649E+04  0.25500000920E-02 0.  1.
</event>
<event>
 5   0  0.5207474E-08  0.3794111E+04  0.7818609E-02  0.8047420E-01
       -2   -1    0    0    0  501  0.00000000000E+00  0.00000000000E+00  0.18454180645E+04  0.18454180645E+04  0.25500000920E-02 0.  1.
        2   -1    0    0  501    0  0.00000000000E+00  0.00000000000E+00 -0.19501374815E+04  0.19501374815E+04  0.25500000920E-02 0. -1.
    10030    2    1    2    0    0  0.00000000000E+00  0.00000000000E+00 -0.10471941704E+03  0.37955555460E+04  0.37941106661E+04 0.  0.
        4    1    3    3  502    0  0.59215367425E+03 -0.17934948091E+04  0.12532470946E+03  0.18928754581E+04  0.12699999809E+01 0. -1.
       -4    1    3    3    0  502 -0.59215367425E+03  0.17934948091E+04 -0.23004412650E+03  0.19026800879E+04  0.12699999809E+01 0.  1.
</event>
<event>
 5   0  0.1628250E-08  0.3794796E+04  0.7818609E-02  0.8047273E-01
       -1   -1    0    0    0  501  0.00000000000E+00  0.00000000000E+00  0.17866806440E+04  0.17866806440E+04  0.50400001928E-02 0. -1.
        1   -1    0    0  501    0  0.00000000000E+00  0.00000000000E+00 -0.20149765543E+04  0.20149765543E+04  0.50400001928E-02 0.  1.
    10030    2    1    2    0    0  0.00000000000E+00  0.00000000000E+00 -0.22829591031E+03  0.38016571984E+04  0.37947962305E+04 0.  0.
        1    1    3    3  502    0 -0.30981504663E+03 -0.18719145935E+04 -0.12252963016E+03  0.19013319329E+04  0.50400001928E-02 0. -1.
       -1    1    3    3    0  502  0.30981504663E+03  0.18719145935E+04 -0.10576628015E+03  0.19003252655E+04  0.50400001928E-02 0.  1.
</event>
<event>
 5   0  0.1628473E-08  0.3796770E+04  0.7818609E-02  0.8046848E-01
       -1   -1    0    0    0  501  0.00000000000E+00  0.00000000000E+00  0.36629067194E+04  0.36629067194E+04  0.50400001928E-02 0. -1.
        1   -1    0    0  501    0  0.00000000000E+00  0.00000000000E+00 -0.98388111513E+03  0.98388111514E+03  0.50400001928E-02 0.  1.
    10030    2    1    2    0    0  0.00000000000E+00  0.00000000000E+00  0.26790256043E+04  0.46467878346E+04  0.37967695467E+04 0.  0.
        3    1    3    3  502    0 -0.17691575907E+04  0.42717826553E+03  0.20002545182E+04  0.27043331894E+04  0.10100000352E+00 0. -1.
       -3    1    3    3    0  502  0.17691575907E+04 -0.42717826553E+03  0.67877108606E+03  0.19424546452E+04  0.10100000352E+00 0.  1.
</event>
<event>
 5   0  0.5140842E-08  0.3796483E+04  0.7818609E-02  0.8046910E-01
       -2   -1    0    0    0  501  0.00000000000E+00  0.00000000000E+00  0.14760335152E+04  0.14760335152E+04  0.25500000920E-02 0. -1.
        2   -1    0    0  501    0  0.00000000000E+00  0.00000000000E+00 -0.24412182945E+04  0.24412182945E+04  0.25500000920E-02 0.  1.
    10030    2    1    2    0    0  0.00000000000E+00  0.00000000000E+00 -0.96518477931E+03  0.39172518097E+04  0.37964825934E+04 0.  0.
        2    1    3    3  502    0 -0.16110580520E+04 -0.75662937392E+02 -0.15154793892E+04  0.22131223884E+04  0.25500000920E-02 0.  1.
       -2    1    3    3    0  502  0.16110580520E+04  0.75662937392E+02  0.55029460986E+03  0.17041294213E+04  0.25500000920E-02 0. -1.
</event>
<event>
 5   0  0.1666051E-08  0.3795343E+04  0.7818609E-02  0.8047155E-01
       -1   -1    0    0    0  501  0.00000000000E+00  0.00000000000E+00  0.18116350199E+04  0.18116350199E+04  0.50400001928E-02 0. -1.
        1   -1    0    0  501    0  0.00000000000E+00  0.00000000000E+00 -0.19877937643E+04  0.19877937643E+04  0.50400001928E-02 0.  1.
    10030    2    1    2    0    0  0.00000000000E+00  0.00000000000E+00 -0.17615874437E+03  0.37994287842E+04  0.37953428281E+04 0.  0.
        2    1    3    3  502    0 -0.10679034685E+04 -0.58490507410E+02  0.14811916817E+04  0.18269558712E+04  0.25500000920E-02 0.  1.
       -2    1    3    3    0  502  0.10679034685E+04  0.58490507410E+02 -0.16573504260E+04  0.19724729129E+04  0.25500000920E-02 0. -1.
</event>
<event>
 5   0  0.1628250E-08  0.3800332E+04  0.7818609E-02  0.8046084E-01
        1   -1    0    0  501    0  0.00000000000E+00  0.00000000000E+00  0.16198049434E+04  0.16198049434E+04  0.50400001928E-02 0.  1.
       -1   -1    0    0    0  501  0.00000000000E+00  0.00000000000E+00 -0.22290533668E+04  0.22290533668E+04  0.50400001928E-02 0. -1.
    10030    2    1    2    0    0  0.00000000000E+00  0.00000000000E+00 -0.60924842338E+03  0.38488583103E+04  0.38003324396E+04 0.  0.
        4    1    3    3  502    0 -0.11101376093E+04  0.91042579506E+03  0.95599818948E+03  0.17248810948E+04  0.12699999809E+01 0.  1.
       -4    1    3    3    0  502  0.11101376093E+04 -0.91042579506E+03 -0.15652466129E+04  0.21239772155E+04  0.12699999809E+01 0. -1.
</event>
<event>
 5   0  0.1628250E-08  0.3798900E+04  0.7818609E-02  0.8046391E-01
       -1   -1    0    0    0  501  0.00000000000E+00  0.00000000000E+00  0.15888182572E+04  0.15888182572E+04  0.50400001928E-02 0.  1.
        1   -1    0    0  501    0  0.00000000000E+00  0.00000000000E+00 -0.22708137855E+04  0.22708137855E+04  0.50400001928E-02 0. -1.
    10030    2    1    2    0    0  0.00000000000E+00  0.00000000000E+00 -0.68199552828E+03  0.38596320427E+04  0.37989000519E+04 0.  0.
        4    1    3    3  502    0 -0.52558192401E+03 -0.15991483893E+04  0.55306874498E+03  0.17718348059E+04  0.12699999809E+01 0.  1.
       -4    1    3    3    0  502  0.52558192401E+03  0.15991483893E+04 -0.12350642733E+04  0.20877972368E+04  0.12699999809E+01 0. -1.
</event>
<event>
 5   0  0.5140842E-08  0.3798897E+04  0.7818609E-02  0.8046392E-01
       -2   -1    0    0    0  501  0.00000000000E+00  0.00000000000E+00  0.19437720745E+04  0.19437720745E+04  0.25500000920E-02 0. -1.
        2   -1    0    0  501    0  0.00000000000E+00  0.00000000000E+00 -0.18561357848E+04  0.18561357848E+04  0.25500000920E-02 0.  1.
    10030    2    1    2    0    0  0.00000000000E+00  0.00000000000E+00  0.87636289677E+02  0.37999078592E+04  0.37988971583E+04 0.  0.
        2    1    3    3  502    0 -0.71494990576E+03 -0.16510321348E+04  0.65295013413E+03  0.19140021827E+04  0.25500000920E-02 0. -1.
       -2    1    3    3    0  502  0.71494990576E+03  0.16510321348E+04 -0.56531384445E+03  0.18859056765E+04  0.25500000920E-02 0.  1.
</event>
<event>
 5   0  0.1628250E-08  0.3801124E+04  0.7818609E-02  0.8045914E-01
       -1   -1    0    0    0  501  0.00000000000E+00  0.00000000000E+00  0.13330443832E+04  0.13330443832E+04  0.50400001928E-02 0.  1.
        1   -1    0    0  501    0  0.00000000000E+00  0.00000000000E+00 -0.27096894275E+04  0.27096894275E+04  0.50400001928E-02 0. -1.
    10030    2    1    2    0    0  0.00000000000E+00  0.00000000000E+00 -0.13766450443E+04  0.40427338107E+04  0.38011241871E+04 0.  0.
        1    1    3    3  502    0 -0.17158995538E+04 -0.31101711975E+03 -0.14920644739E+04  0.22950597643E+04  0.50400001928E-02 0. -1.
       -1    1    3    3    0  502  0.17158995538E+04  0.31101711975E+03  0.11541942960E+03  0.17476740463E+04  0.50400001928E-02 0.  1.
</event>
<event>
 5   0  0.5140842E-08  0.3782241E+04  0.7818609E-02  0.8049977E-01
       -2   -1    0    0    0  501  0.00000000000E+00  0.00000000000E+00  0.17675186542E+04  0.17675186542E+04  0.25500000920E-02 0. -1.
        2   -1    0    0  501    0  0.00000000000E+00  0.00000000000E+00 -0.20233660106E+04  0.20233660106E+04  0.25500000920E-02 0.  1.
    10030    2    1    2    0    0  0.00000000000E+00  0.00000000000E+00 -0.25584735638E+03  0.37908846648E+04  0.37822412234E+04 0.  0.
        2    1    3    3  502    0 -0.14674570395E+03  0.15226232114E+04 -0.12424096550E+04  0.19706591528E+04  0.25500000920E-02 0.  1.
       -2    1    3    3    0  502  0.14674570395E+03 -0.15226232114E+04  0.98656229860E+03  0.18202255120E+04  0.25500000920E-02 0. -1.
</event>
<event>
 5   0  0.5140842E-08  0.3798654E+04  0.7818609E-02  0.8046444E-01
        2   -1    0    0  501    0  0.00000000000E+00  0.00000000000E+00  0.12657469627E+04  0.12657469627E+04  0.25500000920E-02 0.  1.
       -2   -1    0    0    0  501  0.00000000000E+00  0.00000000000E+00 -0.28500511375E+04  0.28500511375E+04  0.25500000920E-02 0. -1.
    10030    2    1    2    0    0  0.00000000000E+00  0.00000000000E+00 -0.15843041747E+04  0.41157981002E+04  0.37986542727E+04 0.  0.
        2    1    3    3  502    0  0.78762824189E+03  0.30608745670E+03  0.10508601389E+04  0.13484638705E+04  0.25500000920E-02 0.  1.
       -2    1    3    3    0  502 -0.78762824189E+03 -0.30608745670E+03 -0.26351643137E+04  0.27673342297E+04  0.25500000920E-02 0. -1.
</event>
<event>
 5   0  0.5140842E-08  0.3802061E+04  0.7818609E-02  0.8045713E-01
        2   -1    0    0  501    0  0.00000000000E+00  0.00000000000E+00  0.28758093625E+04  0.28758093625E+04  0.25500000920E-02 0. -1.
       -2   -1    0    0    0  501  0.00000000000E+00  0.00000000000E+00 -0.12566605056E+04  0.12566605056E+04  0.25500000920E-02 0.  1.
    10030    2    1    2    0    0  0.00000000000E+00  0.00000000000E+00  0.16191488568E+04  0.41324698681E+04  0.38020605190E+04 0.  0.
        2    1    3    3  502    0 -0.27499598257E+03  0.15542894874E+04  0.19611156315E+04  0.25174219196E+04  0.25500000920E-02 0. -1.
       -2    1    3    3    0  502  0.27499598257E+03 -0.15542894874E+04 -0.34196677466E+03  0.16150479485E+04  0.25500000920E-02 0.  1.
</event>
<event>
 5   0  0.5147582E-08  0.3792990E+04  0.7818609E-02  0.8047661E-01
       -2   -1    0    0    0  501  0.00000000000E+00  0.00000000000E+00  0.16129050882E+04  0.16129050882E+04  0.25500000920E-02 0. -1.
        2   -1    0    0  501    0  0.00000000000E+00  0.00000000000E+00 -0.22299471180E+04  0.22299471180E+04  0.25500000920E-02 0.  1.
    10030    2    1    2    0    0  0.00000000000E+00  0.00000000000E+00 -0.61704202982E+03  0.38428522063E+04  0.37929898777E+04 0.  0.
        1    1    3    3  502    0 -0.34711104254E+03 -0.18599054948E+04 -0.17658417645E+03  0.19002411680E+04  0.50400001928E-02 0.  1.
       -1    1    3    3    0  502  0.34711104254E+03  0.18599054948E+04 -0.44045785338E+03  0.19426110382E+04  0.50400001928E-02 0. -1.
</event>
<event>
 5   0  0.1666051E-08  0.3812222E+04  0.7818609E-02  0.8043537E-01
        1   -1    0    0  501    0  0.00000000000E+00  0.00000000000E+00  0.26863759784E+04  0.26863759784E+04  0.50400001928E-02 0. -1.
       -1   -1    0    0    0  501  0.00000000000E+00  0.00000000000E+00 -0.13524761095E+04  0.13524761095E+04  0.50400001928E-02 0.  1.
    10030    2    1    2    0    0  0.00000000000E+00  0.00000000000E+00  0.13338998689E+04  0.40388520879E+04  0.38122220985E+04 0.  0.
        2    1    3    3  502    0  0.16029670314E+04 -0.97282055664E+03  0.30398074324E+03  0.18995492706E+04  0.25500000920E-02 0.  1.
       -2    1    3    3    0  502 -0.16029670314E+04  0.97282055664E+03  0.10299191256E+04  0.21393028174E+04  0.25500000920E-02 0. -1.
</event>
<event>
 5   0  0.5207474E-08  0.3802144E+04  0.7818609E-02  0.8045695E-01
       -2   -1    0    0    0  501  0.00000000000E+00  0.00000000000E+00  0.18708554192E+04  0.18708554192E+04  0.25500000920E-02 0.  1.
        2   -1    0    0  501    0  0.00000000000E+00  0.00000000000E+00 -0.19317764381E+04  0.19317764381E+04  0.25500000920E-02 0. -1.
    10030    2    1    2    0    0  0.00000000000E+00  0.00000000000E+00 -0.60921018840E+02  0.38026318573E+04  0.38021438257E+04 0.  0.
        4    1    3    3  502    0  0.97206271005E+03  0.14219628399E+04 -0.83504408350E+03  0.19142059619E+04  0.12699999809E+01 0. -1.
       -4    1    3    3    0  502 -0.97206271005E+03 -0.14219628399E+04  0.77412306466E+03  0.18884258954E+04  0.12699999809E+01 0.  1.
</event>
<event>
 5   0  0.5159761E-08  0.3796860E+04  0.7818609E-02  0.8046829E-01
       -2   -1    0    0    0  501  0.00000000000E+00  0.00000000000E+00  0.16997922428E+04  0.16997922428E+04  0.25500000920E-02 0.  1.
        2   -1    0    0  501    0  0.00000000000E+00  0.00000000000E+00 -0.21202804037E+04  0.21202804037E+04  0.25500000920E-02 0. -1.
    10030    2    1    2    0    0  0.00000000000E+00  0.00000000000E+00 -0.42048816090E+03  0.38200726465E+04  0.37968598513E+04 0.  0.
        5    1    3    3  502    0 -0.23672979089E+03  0.14256470542E+04 -0.14488282866E+04  0.20463714255E+04  0.46999998093E+01 0. -1.
       -5    1    3    3    0  502  0.23672979089E+03 -0.14256470542E+04  0.10283401257E+04  0.17737012210E+04  0.46999998093E+01 0.  1.
</event>
<event>
 5   0  0.1628250E-08  0.3789257E+04  0.7818609E-02  0.8048464E-01
       -1   -1    0    0    0  501  0.00000000000E+00  0.00000000000E+00  0.28619111643E+04  0.28619111643E+04  0.50400001928E-02 0.  1.
        1   -1    0    0  501    0  0.00000000000E+00  0.00000000000E+00 -0.12542724902E+04  0.12542724902E+04  0.50400001928E-02 0. -1.
    10030    2    1    2    0    0  0.00000000000E+00  0.00000000000E+00  0.16076386741E+04  0.41161836545E+04  0.37892566252E+04 0.  0.
        5    1    3    3  502    0 -0.26337767681E+03  0.12112716743E+04 -0.75264875548E+03  0.14501893354E+04  0.46999998093E+01 0. -1.
       -5    1    3    3    0  502  0.26337767681E+03 -0.12112716743E+04  0.23602874295E+04  0.26659943191E+04  0.46999998093E+01 0.  1.
</event>
<event>
 5   0  0.5159761E-08  0.3801108E+04  0.7818609E-02  0.8045917E-01
       -2   -1    0    0    0  501  0.00000000000E+00  0.00000000000E+00  0.22303988178E+04  0.22303988178E+04  0.25500000920E-02 0.  1.
        2   -1    0    0  501    0  0.00000000000E+00  0.00000000000E+00 -0.16194890062E+04  0.16194890062E+04  0.25500000920E-02 0. -1.
    10030    2    1    2    0    0  0.00000000000E+00  0.00000000000E+00  0.61090981162E+03  0.38498878240E+04  0.38011084515E+04 0.  0.
        5    1    3    3  502    0 -0.10673095024E+04  0.15462669606E+04  0.15435739441E+02  0.18789229466E+04  0.46999998093E+01 0. -1.
       -5    1    3    3    0  502  0.10673095024E+04 -0.15462669606E+04  0.59547407218E+03  0.19709648774E+04  0.46999998093E+01 0.  1.
</event>
<event>
 5   0  0.1628250E-08  0.3799589E+04  0.7818609E-02  0.8046243E-01
       -1   -1    0    0    0  501  0.00000000000E+00  0.00000000000E+00  0.17305905405E+04  0.17305905405E+04  0.50400001928E-02 0.  1.
        1   -1    0    0  501    0  0.00000000000E+00  0.00000000000E+00 -0.20855421985E+04  0.20855421985E+04  0.50400001928E-02 0. -1.
    10030    2    1    2    0    0  0.00000000000E+00  0.00000000000E+00 -0.35495165798E+03  0.38161327390E+04  0.37995892412E+04 0.  0.
        5    1    3    3  502    0 -0.15306985553E+04 -0.41738663426E+03  0.87203704512E+03  0.18104475600E+04  0.46999998093E+01 0.  1.
       -5    1    3    3    0  502  0.15306985553E+04  0.41738663426E+03 -0.12269887031E+04  0.20056851789E+04  0.46999998093E+01 0. -1.
</event>
<event>
 5   0  0.5159761E-08  0.3798020E+04  0.7818609E-02  0.8046580E-01
       -2   -1    0    0    0  501  0.00000000000E+00  0.00000000000E+00  0.18357986276E+04  0.18357986276E+04  0.25500000920E-02 0.  1.
        2   -1    0    0  501    0  0.00000000000E+00  0.00000000000E+00 -0.19643983353E+04  0.19643983353E+04  0.25500000920E-02 0. -1.
    10030    2    1    2    0    0  0.00000000000E+00  0.00000000000E+00 -0.12859970768E+03  0.38001969629E+04  0.37980204149E+04 0.  0.
        5    1    3    3  502    0  0.92711586064E+03 -0.40866871318E+03 -0.16713534519E+04  0.19544816160E+04  0.46999998093E+01 0. -1.
       -5    1    3    3    0  502 -0.92711586064E+03  0.40866871318E+03  0.15427537442E+04  0.18457153468E+04  0.46999998093E+01 0.  1.
</event>
<event>
 5   0  0.5140842E-08  0.3804708E+04  0.7818609E-02  0.8045145E-01
       -2   -1    0    0    0  501  0.00000000000E+00  0.00000000000E+00  0.15005238512E+04  0.15005238512E+04  0.25500000920E-02 0.  1.
        2   -1    0    0  501    0  0.00000000000E+00  0.00000000000E+00 -0.24117910971E+04  0.24117910971E+04  0.25500000920E-02 0. -1.
    10030    2    1    2    0    0  0.00000000000E+00  0.00000000000E+00 -0.91126724585E+03  0.39123149483E+04  0.38047076447E+04 0.  0.
        2    1    3    3  502    0  0.13135112734E+04 -0.33478172247E+03 -0.18281346284E+04  0.22758442140E+04  0.25500000920E-02 0. -1.
       -2    1    3    3    0  502 -0.13135112734E+04  0.33478172247E+03  0.91686738252E+03  0.16364707343E+04  0.25500000920E-02 0.  1.
</event>
<event>
 5   0  0.1628250E-08  0.3800022E+04  0.7818609E-02  0.8046150E-01
        1   -1    0    0  501    0  0.00000000000E+00  0.00000000000E+00  0.22977815638E+04  0.22977815638E+04  0.50400001928E-02 0.  1.
       -1   -1    0    0    0  501  0.00000000000E+00  0.00000000000E+00 -0.15710985391E+04  0.15710985391E+04  0.50400001928E-02 0. -1.
    10030    2    1    2    0    0  0.00000000000E+00  0.00000000000E+00  0.72668302470E+03  0.38688801030E+04  0.38000217148E+04 0.  0.
        1    1    3    3  502    0  0.52647149170E+03 -0.59097274919E+03  0.21219572885E+04  0.22647568867E+04  0.50400001928E-02 0.  1.
       -1    1    3    3    0  502 -0.52647149170E+03  0.59097274919E+03 -0.13952742638E+04  0.16041232163E+04  0.50400001928E-02 0. -1.
</event>
<event>
 5   0  0.1628473E-08  0.3801357E+04  0.7818609E-02  0.8045864E-01
       -1   -1    0    0    0  501  0.00000000000E+00  0.00000000000E+00  0.29264820074E+04  0.29264820074E+04  0.50400001928E-02 0. -1.
        1   -1    0    0  501    0  0.00000000000E+00  0.00000000000E+00 -0.12344445226E+04  0.12344445226E+04  0.50400001928E-02 0.  1.
    10030    2    1    2    0    0  0.00000000000E+00  0.00000000000E+00  0.16920374848E+04  0.41609265300E+04  0.38013574862E+04 0.  0.
        3    1    3    3  502    0  0.88074289141E+03 -0.35811609093E+02  0.26892209760E+04  0.28299999965E+04  0.10100000352E+00 0. -1.
       -3    1    3    3    0  502 -0.88074289141E+03  0.35811609093E+02 -0.99718349120E+03  0.13309265334E+04  0.10100000352E+00 0.  1.
</event>
<event>
 5   0  0.5207474E-08  0.3802031E+04  0.7818609E-02  0.8045719E-01
        2   -1    0    0  501    0  0.00000000000E+00  0.00000000000E+00  0.18715426664E+04  0.18715426664E+04  0.25500000920E-02 0. -1.
       -2   -1    0    0    0  501  0.00000000000E+00  0.00000000000E+00 -0.19309521039E+04  0.19309521039E+04  0.25500000920E-02 0.  1.
    10030    2    1    2    0    0  0.00000000000E+00  0.00000000000E+00 -0.59409437458E+02  0.38024947703E+04  0.38020306412E+04 0.  0.
        4    1    3    3  502    0 -0.14927231708E+04  0.26330951842E+03  0.11177379428E+04  0.18833199645E+04  0.12699999809E+01 0. -1.
       -4    1    3    3    0  502  0.14927231708E+04 -0.26330951842E+03 -0.11771473803E+04  0.19191748057E+04  0.12699999809E+01 0.  1.
</event>
<event>
 5   0  0.5207474E-08  0.3800008E+04  0.7818609E-02  0.8046153E-01
        2   -1    0    0  501    0  0.00000000000E+00  0.00000000000E+00  0.22115132164E+04  0.22115132164E+04  0.25500000920E-02 0. -1.
       -2   -1    0    0    0  501  0.00000000000E+00  0.00000000000E+00 -0.16323731803E+04  0.16323731803E+04  0.25500000920E-02 0.  1.
    10030    2    1    2    0    0  0.00000000000E+00  0.00000000000E+00  0.57914003618E+03  0.38438863967E+04  0.38000078223E+04 0.  0.
        4    1    3    3  502    0 -0.12181360451E+04  0.13781947020E+03 -0.11787989002E+04  0.17007110544E+04  0.12699999809E+01 0.  1.
       -4    1    3    3    0  502  0.12181360451E+04 -0.13781947020E+03  0.17579389364E+04  0.21431753423E+04  0.12699999809E+01 0. -1.
</event>
<event>
 5   0  0.5147582E-08  0.3800246E+04  0.7818609E-02  0.8046102E-01
       -2   -1    0    0    0  501  0.00000000000E+00  0.00000000000E+00  0.15781666473E+04  0.15781666473E+04  0.25500000920E-02 0. -1.
        2   -1    0    0  501    0  0.00000000000E+00  0.00000000000E+00 -0.22877607502E+04  0.22877607502E+04  0.25500000920E-02 0.  1.
    10030    2    1    2    0    0  0.00000000000E+00  0.00000000000E+00 -0.70959410292E+03  0.38659273975E+04  0.38002461567E+04 0.  0.
        1    1    3    3  502    0  0.15901259622E+04  0.47237084585E+03 -0.12975465434E+04  0.21060061311E+04  0.50400001928E-02 0.  1.
       -1    1    3    3    0  502 -0.15901259622E+04 -0.47237084585E+03  0.58795244046E+03  0.17599212664E+04  0.50400001928E-02 0. -1.
</event>
<event>
 5   0  0.5159761E-08  0.3799054E+04  0.7818609E-02  0.8046358E-01
       -2   -1    0    0    0  501  0.00000000000E+00  0.00000000000E+00  0.14927221519E+04  0.14927221519E+04  0.25500000920E-02 0. -1.
        2   -1    0    0  501    0  0.00000000000E+00  0.00000000000E+00 -0.24171964778E+04  0.24171964778E+04  0.25500000920E-02 0.  1.
    10030    2    1    2    0    0  0.00000000000E+00  0.00000000000E+00 -0.92447432595E+03  0.39099186297E+04  0.37990539496E+04 0.  0.
        5    1    3    3  502    0  0.12062127523E+04  0.56910538083E+03 -0.18542419219E+04  0.22840896071E+04  0.46999998093E+01 0.  1.
       -5    1    3    3    0  502 -0.12062127523E+04 -0.56910538083E+03  0.92976759593E+03  0.16258290226E+04  0.46999998093E+01 0. -1.
</event>
<event>
 5   0  0.1628473E-08  0.3803051E+04  0.7818609E-02  0.8045501E-01
        1   -1    0    0  501    0  0.00000000000E+00  0.00000000000E+00  0.24335454927E+04  0.24335454927E+04  0.50400001928E-02 0.  1.
       -1   -1    0    0    0  501  0.00000000000E+00  0.00000000000E+00 -0.14858149783E+04  0.14858149783E+04  0.50400001928E-02 0. -1.
    10030    2    1    2    0    0  0.00000000000E+00  0.00000000000E+00  0.94773051438E+03  0.39193604711E+04  0.38030505353E+04 0.  0.
        3    1    3    3  502    0 -0.12523325910E+04 -0.99991275670E+03  0.15287094022E+04  0.22147493958E+04  0.10100000352E+00 0.  1.
       -3    1    3    3    0  502  0.12523325910E+04  0.99991275670E+03 -0.58097888785E+03  0.17046110753E+04  0.10100000352E+00 0. -1.
</event>
<event>
 5   0  0.1628250E-08  0.3798421E+04  0.7818609E-02  0.8046494E-01
       -1   -1    0    0    0  501  0.00000000000E+00  0.00000000000E+00  0.30395596950E+04  0.30395596950E+04  0.50400001928E-02 0. -1.
        1   -1    0    0  501    0  0.00000000000E+00  0.00000000000E+00 -0.11866854546E+04  0.11866854546E+04  0.50400001928E-02 0.  1.
    10030    2    1    2    0    0  0.00000000000E+00  0.00000000000E+00  0.18528742405E+04  0.42262451496E+04  0.37984213976E+04 0.  0.
        1    1    3    3  502    0  0.79393849520E+03 -0.16073311937E+04  0.22879878359E+03  0.18072633410E+04  0.50400001928E-02 0.  1.
       -1    1    3    3    0  502 -0.79393849520E+03  0.16073311937E+04  0.16240754569E+04  0.24189818086E+04  0.50400001928E-02 0. -1.
</event>
<event>
 5   0  0.5140842E-08  0.3799726E+04  0.7818609E-02  0.8046214E-01
        2   -1    0    0  501    0  0.00000000000E+00  0.00000000000E+00  0.27198591147E+04  0.27198591147E+04  0.25500000920E-02 0. -1.
       -2   -1    0    0    0  501  0.00000000000E+00  0.00000000000E+00 -0.13270834808E+04  0.13270834808E+04  0.25500000920E-02 0.  1.
    10030    2    1    2    0    0  0.00000000000E+00  0.00000000000E+00  0.13927756339E+04  0.40469425956E+04  0.37997263593E+04 0.  0.
        2    1    3    3  502    0 -0.71102806358E+03 -0.26649776700E+03 -0.11584401454E+04  0.13851229323E+04  0.25500000920E-02 0.  1.
       -2    1    3    3    0  502  0.71102806358E+03  0.26649776700E+03  0.25512157793E+04  0.26618196633E+04  0.25500000920E-02 0. -1.
</event>
<event>
 5   0  0.1628250E-08  0.3788229E+04  0.7818609E-02  0.8048686E-01
        1   -1    0    0  501    0  0.00000000000E+00  0.00000000000E+00  0.17725189511E+04  0.17725189511E+04  0.50400001928E-02 0. -1.
       -1   -1    0    0    0  501  0.00000000000E+00  0.00000000000E+00 -0.20240511237E+04  0.20240511237E+04  0.50400001928E-02 0.  1.
    10030    2    1    2    0    0  0.00000000000E+00  0.00000000000E+00 -0.25153217251E+03  0.37965700748E+04  0.37882285965E+04 0.  0.
        5    1    3    3  502    0  0.36382535178E+03 -0.16734015483E+04  0.68533995221E+03  0.18445472530E+04  0.46999998093E+01 0. -1.
       -5    1    3    3    0  502 -0.36382535178E+03  0.16734015483E+04 -0.93687212473E+03  0.19520228218E+04  0.46999998093E+01 0.  1.
</event>
<event>
 5   0  0.1628473E-08  0.3801726E+04  0.7818609E-02  0.8045785E-01
        1   -1    0    0  501    0  0.00000000000E+00  0.00000000000E+00  0.22117566429E+04  0.22117566429E+04  0.50400001928E-02 0.  1.
       -1   -1    0    0    0  501  0.00000000000E+00  0.00000000000E+00 -0.16336697144E+04  0.16336697144E+04  0.50400001928E-02 0. -1.
    10030    2    1    2    0    0  0.00000000000E+00  0.00000000000E+00  0.57808692846E+03  0.38454263574E+04  0.38017258414E+04 0.  0.
        3    1    3    3  502    0 -0.10363547578E+04  0.15808423518E+04  0.86274409921E+02  0.18922306967E+04  0.10100000352E+00 0. -1.
       -3    1    3    3    0  502  0.10363547578E+04 -0.15808423518E+04  0.49181251854E+03  0.19531956607E+04  0.10100000352E+00 0.  1.
</event>
<event>
 5   0  0.1666051E-08  0.3808725E+04  0.7818609E-02  0.8044285E-01
       -1   -1    0    0    0  501  0.00000000000E+00  0.00000000000E+00  0.19116390926E+04  0.19116390926E+04  0.50400001928E-02 0.  1.
        1   -1    0    0  501    0  0.00000000000E+00  0.00000000000E+00 -0.18971135570E+04  0.18971135570E+04  0.50400001928E-02 0. -1.
    10030    2    1    2    0    0  0.00000000000E+00  0.00000000000E+00  0.14525535620E+02  0.38087526496E+04  0.38087249513E+04 0.  0.
        2    1    3    3  502    0 -0.93145782433E+03  0.12451436018E+04 -0.10921087572E+04  0.19001836240E+04  0.25500000920E-02 0. -1.
       -2    1    3    3    0  502  0.93145782433E+03 -0.12451436018E+04  0.11066342928E+04  0.19085690256E+04  0.25500000920E-02 0.  1.
</event>
<event>
 5   0  0.5140842E-08  0.3794248E+04  0.7818609E-02  0.8047390E-01
       -2   -1    0    0    0  501  0.00000000000E+00  0.00000000000E+00  0.15973673109E+04  0.15973673109E+04  0.25500000920E-02 0.  1.
        2   -1    0    0  501    0  0.00000000000E+00  0.00000000000E+00 -0.22531320365E+04  0.22531320365E+04  0.25500000920E-02 0. -1.
    10030    2    1    2    0    0  0.00000000000E+00  0.00000000000E+00 -0.65576472557E+03  0.38504993474E+04  0.37942479952E+04 0.  0.
        2    1    3    3  502    0  0.17740751630E+04  0.65861915069E+03 -0.46387500096E+03  0.19484100919E+04  0.25500000920E-02 0.  1.
       -2    1    3    3    0  502 -0.17740751630E+04 -0.65861915069E+03 -0.19188972462E+03  0.19020892555E+04  0.25500000920E-02 0. -1.
</event>
<event>
 5   0  0.5086209E-08  0.3792403E+04  0.7818609E-02  0.8047787E-01
       -2   -1    0    0    0  501  0.00000000000E+00  0.00000000000E+00  0.17915620702E+04  0.17915620702E+04  0.25500000920E-02 0. -1.
        2   -1    0    0  501    0  0.00000000000E+00  0.00000000000E+00 -0.20069524270E+04  0.20069524270E+04  0.25500000920E-02 0.  1.
    10030    2    1    2    0    0  0.00000000000E+00  0.00000000000E+00 -0.21539035678E+03  0.37985144972E+04  0.37924028504E+04 0.  0.
        3    1    3    3  502    0  0.14214447652E+04 -0.13588648118E+03  0.11419570249E+04  0.18283971705E+04  0.10100000352E+00 0. -1.
       -3    1    3    3    0  502 -0.14214447652E+04  0.13588648118E+03 -0.13573473817E+04  0.19701173267E+04  0.10100000352E+00 0.  1.
</event>
<event>
 5   0  0.1628250E-08  0.3795848E+04  0.7818609E-02  0.8047047E-01
       -1   -1    0    0    0  501  0.00000000000E+00  0.00000000000E+00  0.19666537709E+04  0.19666537709E+04  0.50400001928E-02 0. -1.
        1   -1    0    0  501    0  0.00000000000E+00  0.00000000000E+00 -0.18315957627E+04  0.18315957627E+04  0.50400001928E-02 0.  1.
    10030    2    1    2    0    0  0.00000000000E+00  0.00000000000E+00  0.13505800821E+03  0.37982495335E+04  0.37958475804E+04 0.  0.
        5    1    3    3  502    0 -0.78785539066E+03  0.13424098304E+04 -0.10191196637E+04  0.18604857560E+04  0.46999998093E+01 0.  1.
       -5    1    3    3    0  502  0.78785539066E+03 -0.13424098304E+04  0.11541776719E+04  0.19377637775E+04  0.46999998093E+01 0. -1.
</event>
<event>
 5   0  0.1628250E-08  0.3800247E+04  0.7818609E-02  0.8046102E-01
        1   -1    0    0  501    0  0.00000000000E+00  0.00000000000E+00  0.17446228288E+04  0.17446228288E+04  0.50400001928E-02 0. -1.
       -1   -1    0    0    0  501  0.00000000000E+00  0.00000000000E+00 -0.20694838500E+04  0.20694838500E+04  0.50400001928E-02 0.  1.
    10030    2    1    2    0    0  0.00000000000E+00  0.00000000000E+00 -0.32486102123E+03  0.38141066788E+04  0.38002467123E+04 0.  0.
        1    1    3    3  502    0 -0.73427796141E+03 -0.15613141309E+04  0.63646429551E+03  0.18390086295E+04  0.50400001928E-02 0. -1.
       -1    1    3    3    0  502  0.73427796141E+03  0.15613141309E+04 -0.96132531673E+03  0.19750980493E+04  0.50400001928E-02 0.  1.
</event>
<event>
 5   0  0.1628250E-08  0.3798319E+04  0.7818609E-02  0.8046516E-01
       -1   -1    0    0    0  501  0.00000000000E+00  0.00000000000E+00  0.23362126203E+04  0.23362126203E+04  0.50400001928E-02 0. -1.
        1   -1    0    0  501    0  0.00000000000E+00  0.00000000000E+00 -0.15438693577E+04  0.15438693578E+04  0.50400001928E-02 0.  1.
    10030    2    1    2    0    0  0.00000000000E+00  0.00000000000E+00  0.79234326252E+03  0.38800819780E+04  0.37983191428E+04 0.  0.
        5    1    3    3  502    0  0.42451362475E+03  0.43357118483E+03 -0.14421749028E+04  0.15646361654E+04  0.46999998093E+01 0.  1.
       -5    1    3    3    0  502 -0.42451362475E+03 -0.43357118483E+03  0.22345181653E+04  0.23154458126E+04  0.46999998093E+01 0. -1.
</event>
<event>
 5   0  0.5159761E-08  0.3785871E+04  0.7818609E-02  0.8049194E-01
        2   -1    0    0  501    0  0.00000000000E+00  0.00000000000E+00  0.25817460774E+04  0.25817460774E+04  0.25500000920E-02 0. -1.
       -2   -1    0    0    0  501  0.00000000000E+00  0.00000000000E+00 -0.13878999324E+04  0.13878999324E+04  0.25500000920E-02 0.  1.
    10030    2    1    2    0    0  0.00000000000E+00  0.00000000000E+00  0.11938461450E+04  0.39696460098E+04  0.37858712108E+04 0.  0.
        5    1    3    3  502    0 -0.50310640695E+03  0.86206060594E+03  0.22833880395E+04  0.24920167684E+04  0.46999998093E+01 0. -1.
       -5    1    3    3    0  502  0.50310640695E+03 -0.86206060594E+03 -0.10895418945E+04  0.14776292414E+04  0.46999998093E+01 0.  1.
</event>
<event>
 5   0  0.5140842E-08  0.3805700E+04  0.7818609E-02  0.8044933E-01
        2   -1    0    0  501    0  0.00000000000E+00  0.00000000000E+00  0.27116045173E+04  0.27116045173E+04  0.25500000920E-02 0.  1.
       -2   -1    0    0    0  501  0.00000000000E+00  0.00000000000E+00 -0.13353119277E+04  0.13353119277E+04  0.25500000920E-02 0. -1.
    10030    2    1    2    0    0  0.00000000000E+00  0.00000000000E+00  0.13762925895E+04  0.40469164450E+04  0.38056998595E+04 0.  0.
        2    1    3    3  502    0 -0.15519959574E+04  0.10878026090E+04  0.50758434321E+03  0.19620519446E+04  0.25500000920E-02 0.  1.
       -2    1    3    3    0  502  0.15519959574E+04 -0.10878026090E+04  0.86870824633E+03  0.20848645004E+04  0.25500000920E-02 0. -1.
</event>
<event>
 5   0  0.5140842E-08  0.3812535E+04  0.7818609E-02  0.8043470E-01
       -2   -1    0    0    0  501  0.00000000000E+00  0.00000000000E+00  0.12761086054E+04  0.12761086054E+04  0.25500000920E-02 0.  1.
        2   -1    0    0  501    0  0.00000000000E+00  0.00000000000E+00 -0.28476075358E+04  0.28476075358E+04  0.25500000920E-02 0. -1.
    10030    2    1    2    0    0  0.00000000000E+00  0.00000000000E+00 -0.15714989303E+04  0.41237161412E+04  0.38125353671E+04 0.  0.
        2    1    3    3  502    0  0.11404843949E+04  0.15188829329E+04 -0.96064605921E+03  0.21285090720E+04  0.25500000920E-02 0. -1.
       -2    1    3    3    0  502 -0.11404843949E+04 -0.15188829329E+04 -0.61085287111E+03  0.19952070692E+04  0.25500000920E-02 0.  1.
</event>
<event>
 5   0  0.5159761E-08  0.3796272E+04  0.7818609E-02  0.8046955E-01
        2   -1    0    0  501    0  0.00000000000E+00  0.00000000000E+00  0.32774667809E+04  0.32774667809E+04  0.25500000920E-02 0.  1.
       -2   -1    0    0    0  501  0.00000000000E+00  0.00000000000E+00 -0.10993004439E+04  0.10993004439E+04  0.25500000920E-02 0. -1.
    10030    2    1    2    0    0  0.00000000000E+00  0.00000000000E+00  0.21781663370E+04  0.43767672248E+04  0.37962722174E+04 0.  0.
        5    1    3    3  502    0  0.21025654952E+03 -0.18789528212E+04  0.12827829149E+04  0.22847813063E+04  0.46999998093E+01 0.  1.
       -5    1    3    3    0  502 -0.21025654952E+03  0.18789528212E+04  0.89538342210E+03  0.20919859185E+04  0.46999998093E+01 0. -1.
</event>
<event>
 5   0  0.5147582E-08  0.3801280E+04  0.7818609E-02  0.8045880E-01
       -2   -1    0    0    0  501  0.00000000000E+00  0.00000000000E+00  0.25564337538E+04  0.25564337538E+04  0.25500000920E-02 0. -1.
        2   -1    0    0  501    0  0.00000000000E+00  0.00000000000E+00 -0.14130748779E+04  0.14130748779E+04  0.25500000920E-02 0.  1.
    10030    2    1    2    0    0  0.00000000000E+00  0.00000000000E+00  0.11433588759E+04  0.39695086317E+04  0.38012799500E+04 0.  0.
        1    1    3    3  502    0  0.21594114512E+03  0.30214554520E+03 -0.13748172387E+04  0.14240944311E+04  0.50400001928E-02 0.  1.
       -1    1    3    3    0  502 -0.21594114512E+03 -0.30214554520E+03  0.25181761146E+04  0.25454142006E+04  0.50400001928E-02 0. -1.
</event>
<event>
 5   0  0.5140842E-08  0.3784150E+04  0.7818609E-02  0.8049565E-01
        2   -1    0    0  501    0  0.00000000000E+00  0.00000000000E+00  0.31654273500E+04  0.31654273500E+04  0.25500000920E-02 0. -1.
       -2   -1    0    0    0  501  0.00000000000E+00  0.00000000000E+00 -0.11309525701E+04  0.11309525701E+04  0.25500000920E-02 0.  1.
    10030    2    1    2    0    0  0.00000000000E+00  0.00000000000E+00  0.20344747799E+04  0.42963799201E+04  0.37841502068E+04 0.  0.
        2    1    3    3  502    0 -0.11773822268E+04 -0.82530452850E+03  0.24135902256E+04  0.28094081672E+04  0.25500000920E-02 0. -1.
       -2    1    3    3    0  502  0.11773822268E+04  0.82530452850E+03 -0.37911544571E+03  0.14869717529E+04  0.25500000920E-02 0.  1.
</event>
<event>
 5   0  0.5147582E-08  0.3800034E+04  0.7818609E-02  0.8046148E-01
       -2   -1    0    0    0  501  0.00000000000E+00  0.00000000000E+00  0.17796606009E+04  0.17796606009E+04  0.25500000920E-02 0. -1.
        2   -1    0    0  501    0  0.00000000000E+00  0.00000000000E+00 -0.20285130622E+04  0.20285130622E+04  0.25500000920E-02 0.  1.
    10030    2    1    2    0    0  0.00000000000E+00  0.00000000000E+00 -0.24885246133E+03  0.38081736631E+04  0.38000340921E+04 0.  0.
        1    1    3    3  502    0  0.16517002942E+04 -0.91942131541E+03  0.67335038477E+02  0.18915558211E+04  0.50400001928E-02 0. -1.
       -1    1    3    3    0  502 -0.16517002942E+04  0.91942131541E+03 -0.31618749981E+03  0.19166178420E+04  0.50400001928E-02 0.  1.
</event>
<event>
 5   0  0.1628250E-08  0.3801528E+04  0.7818609E-02  0.8045827E-01
       -1   -1    0    0    0  501  0.00000000000E+00  0.00000000000E+00  0.18252884926E+04  0.18252884926E+04  0.50400001928E-02 0. -1.
        1   -1    0    0  501    0  0.00000000000E+00  0.00000000000E+00 -0.19793605996E+04  0.19793605996E+04  0.50400001928E-02 0.  1.
    10030    2    1    2    0    0  0.00000000000E+00  0.00000000000E+00 -0.15407210698E+03  0.38046490922E+04  0.38015281797E+04 0.  0.
        4    1    3    3  502    0  0.12780121892E+04  0.14019555899E+04 -0.19591016361E+03  0.19071384420E+04  0.12699999809E+01 0.  1.
       -4    1    3    3    0  502 -0.12780121892E+04 -0.14019555899E+04  0.41838056631E+02  0.18975106502E+04  0.12699999809E+01 0. -1.
</event>
<event>
 5   0  0.1628250E-08  0.3780463E+04  0.7818609E-02  0.8050361E-01
        1   -1    0    0  501    0  0.00000000000E+00  0.00000000000E+00  0.14140066144E+04  0.14140066144E+04  0.50400001928E-02 0.  1.
       -1   -1    0    0    0  501  0.00000000000E+00  0.00000000000E+00 -0.25268444599E+04  0.25268444599E+04  0.50400001928E-02 0. -1.
    10030    2    1    2    0    0  0.00000000000E+00  0.00000000000E+00 -0.11128378455E+04  0.39408510744E+04  0.37804628182E+04 0.  0.
        1    1    3    3  502    0  0.11831190987E+04 -0.26390752946E+03  0.95547796525E+03  0.15434882986E+04  0.50400001928E-02 0. -1.
       -1    1    3    3    0  502 -0.11831190987E+04  0.26390752946E+03 -0.20683158107E+04  0.23973627758E+04  0.50400001928E-02 0.  1.
</event>
<event>
 5   0  0.1628250E-08  0.3808025E+04  0.7818609E-02  0.8044435E-01
       -1   -1    0    0    0  501  0.00000000000E+00  0.00000000000E+00  0.23455383582E+04  0.23455383582E+04  0.50400001928E-02 0. -1.
        1   -1    0    0  501    0  0.00000000000E+00  0.00000000000E+00 -0.15456001968E+04  0.15456001968E+04  0.50400001928E-02 0.  1.
    10030    2    1    2    0    0  0.00000000000E+00  0.00000000000E+00  0.79993816144E+03  0.38911385550E+04  0.38080254979E+04 0.  0.
        4    1    3    3  502    0 -0.16661749324E+03  0.17269135673E+03  0.23300243621E+04  0.23423489993E+04  0.12699999809E+01 0. -1.
       -4    1    3    3    0  502  0.16661749324E+03 -0.17269135673E+03 -0.15300862006E+04  0.15487895557E+04  0.12699999809E+01 0.  1.
</event>
<event>
 5   0  0.5207474E-08  0.3817176E+04  0.7818609E-02  0.8042479E-01
       -2   -1    0    0    0  501  0.00000000000E+00  0.00000000000E+00  0.18853589580E+04  0.18853589580E+04  0.25500000920E-02 0.  1.
        2   -1    0    0  501    0  0.00000000000E+00  0.00000000000E+00 -0.19321029916E+04  0.19321029916E+04  0.25500000920E-02 0. -1.
    10030    2    1    2    0    0  0.00000000000E+00  0.00000000000E+00 -0.46744033634E+02  0.38174619497E+04  0.38171757534E+04 0.  0.
        4    1    3    3  502    0  0.37137787598E+03  0.15045636815E+04 -0.11374899549E+04  0.19223731190E+04  0.12699999809E+01 0. -1.
       -4    1    3    3    0  502 -0.37137787598E+03 -0.15045636815E+04  0.10907459213E+04  0.18950888306E+04  0.12699999809E+01 0.  1.
</event>
<event>
 5   0  0.1628250E-08  0.3803391E+04  0.7818609E-02  0.8045428E-01
       -1   -1    0    0    0  501  0.00000000000E+00  0.00000000000E+00  0.11973765945E+04  0.11973765946E+04  0.50400001928E-02 0.  1.
        1   -1    0    0  501    0  0.00000000000E+00  0.00000000000E+00 -0.30203071488E+04  0.30203071488E+04  0.50400001928E-02 0. -1.
    10030    2    1    2    0    0  0.00000000000E+00  0.00000000000E+00 -0.18229305542E+04  0.42176837433E+04  0.38033906391E+04 0.  0.
        5    1    3    3  502    0 -0.28876692733E+03  0.17086352988E+04 -0.42811947953E+02  0.17334000910E+04  0.46999998093E+01 0.  1.
       -5    1    3    3    0  502  0.28876692733E+03 -0.17086352988E+04 -0.17801186063E+04  0.24842836523E+04  0.46999998093E+01 0. -1.
</event>
<event>
 5   0  0.1666051E-08  0.3799938E+04  0.7818609E-02  0.8046168E-01
       -1   -1    0    0    0  501  0.00000000000E+00  0.00000000000E+00  0.16926732980E+04  0.16926732980E+04  0.50400001928E-02 0.  1.
        1   -1    0    0  501    0  0.00000000000E+00  0.00000000000E+00 -0.21326518203E+04  0.21326518204E+04  0.50400001928E-02 0. -1.
    10030    2    1    2    0    0  0.00000000000E+00  0.00000000000E+00 -0.43997852239E+03  0.38253251183E+04  0.37999383101E+04 0.  0.
        2    1    3    3  502    0 -0.78871739155E+03  0.10735197269E+04 -0.15837958980E+04  0.20695239004E+04  0.25500000920E-02 0. -1.
       -2    1    3    3    0  502  0.78871739155E+03 -0.10735197269E+04  0.11438173756E+04  0.17558012179E+04  0.25500000920E-02 0.  1.
</event>
<event>
 5   0  0.1628250E-08  0.3826979E+04  0.7818609E-02  0.8040390E-01
        1   -1    0    0  501    0  0.00000000000E+00  0.00000000000E+00  0.14565128557E+04  0.14565128557E+04  0.50400001928E-02 0. -1.
       -1   -1    0    0    0  501  0.00000000000E+00  0.00000000000E+00 -0.25138415109E+04  0.25138415109E+04  0.50400001928E-02 0.  1.
    10030    2    1    2    0    0  0.00000000000E+00  0.00000000000E+00 -0.10573286552E+04  0.39703543666E+04  0.38269792149E+04 0.  0.
        4    1    3    3  502    0  0.12914058168E+04  0.83160955712E+03  0.65519902780E+03  0.16699074280E+04  0.12699999809E+01 0. -1.
       -4    1    3    3    0  502 -0.12914058168E+04 -0.83160955712E+03 -0.17125276830E+04  0.23004469386E+04  0.12699999809E+01 0.  1.
</event>
<event>
 5   0  0.1628250E-08  0.3800264E+04  0.7818609E-02  0.8046098E-01
        1   -1    0    0  501    0  0.00000000000E+00  0.00000000000E+00  0.23938618317E+04  0.23938618317E+04  0.50400001928E-02 0.  1.
       -1   -1    0    0    0  501  0.00000000000E+00  0.00000000000E+00 -0.15082332111E+04  0.15082332111E+04  0.50400001928E-02 0. -1.
    10030    2    1    2    0    0  0.00000000000E+00  0.00000000000E+00  0.88562862063E+03  0.39020950428E+04  0.38002641578E+04 0.  0.
        1    1    3    3  502    0 -0.13163192260E+03 -0.92299086704E+03  0.21428553085E+04  0.23368928039E+04  0.50400001928E-02 0.  1.
       -1    1    3    3    0  502  0.13163192260E+03  0.92299086704E+03 -0.12572266879E+04  0.15652022389E+04  0.50400001928E-02 0. -1.
</event>
<event>
 5   0  0.5086209E-08  0.3785364E+04  0.7818609E-02  0.8049303E-01
        2   -1    0    0  501    0  0.00000000000E+00  0.00000000000E+00  0.20690667217E+04  0.20690667217E+04  0.25500000920E-02 0. -1.
       -2   -1    0    0    0  501  0.00000000000E+00  0.00000000000E+00 -0.17313336165E+04  0.17313336165E+04  0.25500000920E-02 0.  1.
    10030    2    1    2    0    0  0.00000000000E+00  0.00000000000E+00  0.33773310516E+03  0.38004003382E+04  0.37853637976E+04 0.  0.
        3    1    3    3  502    0 -0.12884610783E+03 -0.11096243545E+04  0.17028025636E+04  0.20365176425E+04  0.10100000352E+00 0. -1.
       -3    1    3    3    0  502  0.12884610783E+03  0.11096243545E+04 -0.13650694585E+04  0.17638826957E+04  0.10100000352E+00 0.  1.
</event>
<event>
 5   0  0.1666051E-08  0.3802773E+04  0.7818609E-02  0.8045560E-01
       -1   -1    0    0    0  501  0.00000000000E+00  0.00000000000E+00  0.13784712779E+04  0.13784712779E+04  0.50400001928E-02 0.  1.
        1   -1    0    0  501    0  0.00000000000E+00  0.00000000000E+00 -0.26226671835E+04  0.26226671835E+04  0.50400001928E-02 0. -1.
    10030    2    1    2    0    0  0.00000000000E+00  0.00000000000E+00 -0.12441959056E+04  0.40011384615E+04  0.38027734006E+04 0.  0.
        2    1    3    3  502    0 -0.10381148574E+04 -0.15604741502E+04 -0.95896992569E+03  0.21053230985E+04  0.25500000920E-02 0.  1.
       -2    1    3    3    0  502  0.10381148574E+04  0.15604741502E+04 -0.28522597996E+03  0.18958153629E+04  0.25500000920E-02 0. -1.
</event>
<event>
 5   0  0.5086209E-08  0.3852281E+04  0.7818609E-02  0.8035028E-01
       -2   -1    0    0    0  501  0.00000000000E+00  0.00000000000E+00  0.12948471214E+04  0.12948471214E+04  0.25500000920E-02 0.  1.
        2   -1    0    0  501    0  0.00000000000E+00  0.00000000000E+00 -0.28652170681E+04  0.28652170681E+04  0.25500000920E-02 0. -1.
    10030    2    1    2    0    0  0.00000000000E+00  0.00000000000E+00 -0.15703699467E+04  0.41600641894E+04  0.38522814397E+04 0.  0.
        3    1    3    3  502    0  0.17596669921E+04 -0.55309230011E+03 -0.18617923277E+03  0.18539152441E+04  0.10100000352E+00 0.  1.
       -3    1    3    3    0  502 -0.17596669921E+04  0.55309230011E+03 -0.13841907139E+04  0.23061489453E+04  0.10100000352E+00 0. -1.
</event>
<event>
 5   0  0.1628250E-08  0.3793602E+04  0.7818609E-02  0.8047529E-01
        3   -1    0    0  501    0  0.00000000000E+00  0.00000000000E+00  0.26250684763E+04  0.26250684783E+04  0.10100000352E+00 0. -1.
       -3   -1    0    0    0  501  0.00000000000E+00  0.00000000000E+00 -0.13705753831E+04  0.13705753868E+04  0.10100000352E+00 0.  1.
    10030    2    1    2    0    0  0.00000000000E+00  0.00000000000E+00  0.12544930933E+04  0.39956438651E+04  0.37936021109E+04 0.  0.
        4    1    3    3  502    0 -0.16057559445E+04 -0.59414460837E+02 -0.43433692226E+03  0.16645216749E+04  0.12699999809E+01 0.  1.
       -4    1    3    3    0  502  0.16057559445E+04  0.59414460837E+02  0.16888300155E+04  0.23311221902E+04  0.12699999809E+01 0. -1.
</event>
<event>
 5   0  0.5086209E-08  0.3798318E+04  0.7818609E-02  0.8046516E-01
       -2   -1    0    0    0  501  0.00000000000E+00  0.00000000000E+00  0.19978113827E+04  0.19978113827E+04  0.25500000920E-02 0.  1.
        2   -1    0    0  501    0  0.00000000000E+00  0.00000000000E+00 -0.18053782260E+04  0.18053782260E+04  0.25500000920E-02 0. -1.
    10030    2    1    2    0    0  0.00000000000E+00  0.00000000000E+00  0.19243315667E+03  0.38031896087E+04  0.37983181383E+04 0.  0.
        3    1    3    3  502    0 -0.57204410379E+03 -0.17591463016E+04  0.52685537130E+03  0.19233841945E+04  0.10100000352E+00 0.  1.
       -3    1    3    3    0  502  0.57204410379E+03  0.17591463016E+04 -0.33442221464E+03  0.18798054142E+04  0.10100000352E+00 0. -1.
</event>
<event>
 5   0  0.1628473E-08  0.3810526E+04  0.7818609E-02  0.8043900E-01
       -1   -1    0    0    0  501  0.00000000000E+00  0.00000000000E+00  0.12899892578E+04  0.12899892578E+04  0.50400001928E-02 0.  1.
        1   -1    0    0  501    0  0.00000000000E+00  0.00000000000E+00 -0.28139982402E+04  0.28139982403E+04  0.50400001928E-02 0. -1.
    10030    2    1    2    0    0  0.00000000000E+00  0.00000000000E+00 -0.15240089825E+04  0.41039874980E+04  0.38105262111E+04 0.  0.
        3    1    3    3  502    0 -0.17261643529E+04  0.69836358280E+03 -0.32761626558E+03  0.18906843985E+04  0.10100000352E+00 0.  1.
       -3    1    3    3    0  502  0.17261643529E+04 -0.69836358280E+03 -0.11963927169E+04  0.22133030995E+04  0.10100000352E+00 0. -1.
</event>
<event>
 5   0  0.1628250E-08  0.3783493E+04  0.7818609E-02  0.8049707E-01
       -1   -1    0    0    0  501  0.00000000000E+00  0.00000000000E+00  0.26105078707E+04  0.26105078707E+04  0.50400001928E-02 0.  1.
        1   -1    0    0  501    0  0.00000000000E+00  0.00000000000E+00 -0.13708846358E+04  0.13708846358E+04  0.50400001928E-02 0. -1.
    10030    2    1    2    0    0  0.00000000000E+00  0.00000000000E+00  0.12396232349E+04  0.39813925066E+04  0.37834931646E+04 0.  0.
        5    1    3    3  502    0  0.39487454578E+02  0.13045353222E+04  0.20608605733E+04  0.24393728822E+04  0.46999998093E+01 0.  1.
       -5    1    3    3    0  502 -0.39487454578E+02 -0.13045353222E+04 -0.82123733842E+03  0.15420196243E+04  0.46999998093E+01 0. -1.
</event>
<event>
 5   0  0.5159761E-08  0.3798458E+04  0.7818609E-02  0.8046486E-01
       -2   -1    0    0    0  501  0.00000000000E+00  0.00000000000E+00  0.29120255761E+04  0.29120255761E+04  0.25500000920E-02 0.  1.
        2   -1    0    0  501    0  0.00000000000E+00  0.00000000000E+00 -0.12386807532E+04  0.12386807532E+04  0.25500000920E-02 0. -1.
    10030    2    1    2    0    0  0.00000000000E+00  0.00000000000E+00  0.16733448229E+04  0.41507063294E+04  0.37984575996E+04 0.  0.
        5    1    3    3  502    0  0.13717794935E+04  0.11105877213E+04  0.70304716653E+02  0.17663943242E+04  0.46999998093E+01 0.  1.
       -5    1    3    3    0  502 -0.13717794935E+04 -0.11105877213E+04  0.16030401063E+04  0.23843120051E+04  0.46999998093E+01 0. -1.
</event>
<event>
 5   0  0.1628473E-08  0.3788416E+04  0.7818609E-02  0.8048645E-01
        1   -1    0    0  501    0  0.00000000000E+00  0.00000000000E+00  0.23694898178E+04  0.23694898178E+04  0.50400001928E-02 0. -1.
       -1   -1    0    0    0  501  0.00000000000E+00  0.00000000000E+00 -0.15142597554E+04  0.15142597554E+04  0.50400001928E-02 0.  1.
    10030    2    1    2    0    0  0.00000000000E+00  0.00000000000E+00  0.85523006237E+03  0.38837495732E+04  0.37884155379E+04 0.  0.
        3    1    3    3  502    0  0.17038398137E+04 -0.75982250569E+03  0.76392951630E+03  0.20159336961E+04  0.10100000352E+00 0.  1.
       -3    1    3    3    0  502 -0.17038398137E+04  0.75982250569E+03  0.91300546066E+02  0.18678158771E+04  0.10100000352E+00 0. -1.
</event>
<event>
 5   0  0.1666051E-08  0.3781693E+04  0.7818609E-02  0.8050095E-01
       -1   -1    0    0    0  501  0.00000000000E+00  0.00000000000E+00  0.17121234116E+04  0.17121234116E+04  0.50400001928E-02 0. -1.
        1   -1    0    0  501    0  0.00000000000E+00  0.00000000000E+00 -0.20882257525E+04  0.20882257525E+04  0.50400001928E-02 0.  1.
    10030    2    1    2    0    0  0.00000000000E+00  0.00000000000E+00 -0.37610234098E+03  0.38003491641E+04  0.37816928482E+04 0.  0.
        2    1    3    3  502    0  0.55913047979E+03 -0.49408801969E+03 -0.19340198909E+04  0.20729647376E+04  0.25500000920E-02 0.  1.
       -2    1    3    3    0  502 -0.55913047979E+03  0.49408801969E+03  0.15579175500E+04  0.17273844266E+04  0.25500000920E-02 0. -1.
</event>
<event>
 5   0  0.5140842E-08  0.3800861E+04  0.7818609E-02  0.8045970E-01
       -2   -1    0    0    0  501  0.00000000000E+00  0.00000000000E+00  0.25731144364E+04  0.25731144364E+04  0.25500000920E-02 0.  1.
        2   -1    0    0  501    0  0.00000000000E+00  0.00000000000E+00 -0.14036046157E+04  0.14036046157E+04  0.25500000920E-02 0. -1.
    10030    2    1    2    0    0  0.00000000000E+00  0.00000000000E+00  0.11695098207E+04  0.39767190522E+04  0.38008605867E+04 0.  0.
        2    1    3    3  502    0 -0.11272183373E+04  0.15293220210E+04  0.63369829553E+03  0.20027532433E+04  0.25500000920E-02 0.  1.
       -2    1    3    3    0  502  0.11272183373E+04 -0.15293220210E+04  0.53581152517E+03  0.19739658088E+04  0.25500000920E-02 0. -1.
</event>
<event>
 5   0  0.5140842E-08  0.3766943E+04  0.7818609E-02  0.8053286E-01
        2   -1    0    0  501    0  0.00000000000E+00  0.00000000000E+00  0.20530551240E+04  0.20530551240E+04  0.25500000920E-02 0. -1.
       -2   -1    0    0    0  501  0.00000000000E+00  0.00000000000E+00 -0.17278952037E+04  0.17278952037E+04  0.25500000920E-02 0.  1.
    10030    2    1    2    0    0  0.00000000000E+00  0.00000000000E+00  0.32515992028E+03  0.37809503277E+04  0.37669425808E+04 0.  0.
        2    1    3    3  502    0 -0.12590525427E+04 -0.12674262188E+04  0.76135642819E+03  0.19419696538E+04  0.25500000920E-02 0. -1.
       -2    1    3    3    0  502  0.12590525427E+04  0.12674262188E+04 -0.43619650791E+03  0.18389806739E+04  0.25500000920E-02 0.  1.
</event>
<event>
 5   0  0.5207474E-08  0.3797306E+04  0.7818609E-02  0.8046733E-01
       -2   -1    0    0    0  501  0.00000000000E+00  0.00000000000E+00  0.18765153618E+04  0.18765153618E+04  0.25500000920E-02 0.  1.
        2   -1    0    0  501    0  0.00000000000E+00  0.00000000000E+00 -0.19210517532E+04  0.19210517532E+04  0.25500000920E-02 0. -1.
    10030    2    1    2    0    0  0.00000000000E+00  0.00000000000E+00 -0.44536391410E+02  0.37975671150E+04  0.37973059533E+04 0.  0.
        4    1    3    3  502    0  0.12001707632E+04  0.12808136810E+04 -0.74618811115E+03  0.19072734090E+04  0.12699999809E+01 0.  1.
       -4    1    3    3    0  502 -0.12001707632E+04 -0.12808136810E+04  0.70165171974E+03  0.18902937061E+04  0.12699999809E+01 0. -1.
</event>
<event>
 5   0  0.5147582E-08  0.3798172E+04  0.7818609E-02  0.8046547E-01
        2   -1    0    0  501    0  0.00000000000E+00  0.00000000000E+00  0.28842567862E+04  0.28842567862E+04  0.25500000920E-02 0.  1.
       -2   -1    0    0    0  501  0.00000000000E+00  0.00000000000E+00 -0.12504181000E+04  0.12504181000E+04  0.25500000920E-02 0. -1.
    10030    2    1    2    0    0  0.00000000000E+00  0.00000000000E+00  0.16338386862E+04  0.41346748862E+04  0.37981716078E+04 0.  0.
        1    1    3    3  502    0 -0.12985886082E+04  0.12121523886E+04  0.85952293169E+02  0.17784919408E+04  0.50400001928E-02 0.  1.
       -1    1    3    3    0  502  0.12985886082E+04 -0.12121523886E+04  0.15478863930E+04  0.23561829455E+04  0.50400001928E-02 0. -1.
</event>
<event>
 5   0  0.1628250E-08  0.3761908E+04  0.7818609E-02  0.8054379E-01
       -4   -1    0    0    0  501  0.00000000000E+00  0.00000000000E+00  0.19245483494E+04  0.19245487684E+04  0.12699999809E+01 0. -1.
        4   -1    0    0  501    0  0.00000000000E+00  0.00000000000E+00 -0.18383467053E+04  0.18383471440E+04  0.12699999809E+01 0.  1.
    10030    2    1    2    0    0  0.00000000000E+00  0.00000000000E+00  0.86201644042E+02  0.37628959124E+04  0.37619084152E+04 0.  0.
        1    1    3    3  502    0 -0.40170138824E+03  0.58527791157E+03 -0.16992159070E+04  0.18415343976E+04  0.50400001928E-02 0.  1.
       -1    1    3    3    0  502  0.40170138824E+03 -0.58527791157E+03  0.17854175510E+04  0.19213615148E+04  0.50400001928E-02 0. -1.
</event>
<event>
 5   0  0.5140842E-08  0.3800387E+04  0.7818609E-02  0.8046072E-01
       -2   -1    0    0    0  501  0.00000000000E+00  0.00000000000E+00  0.20259734136E+04  0.20259734136E+04  0.25500000920E-02 0. -1.
        2   -1    0    0  501    0  0.00000000000E+00  0.00000000000E+00 -0.17822220241E+04  0.17822220241E+04  0.25500000920E-02 0.  1.
    10030    2    1    2    0    0  0.00000000000E+00  0.00000000000E+00  0.24375138959E+03  0.38081954377E+04  0.38003865266E+04 0.  0.
        2    1    3    3  502    0  0.26450008197E+03  0.36889133779E+03  0.19708482223E+04  0.20224450123E+04  0.25500000920E-02 0. -1.
       -2    1    3    3    0  502 -0.26450008197E+03 -0.36889133779E+03 -0.17270968327E+04  0.17857504254E+04  0.25500000920E-02 0.  1.
</event>
<event>
 5   0  0.5086209E-08  0.3805693E+04  0.7818609E-02  0.8044934E-01
       -2   -1    0    0    0  501  0.00000000000E+00  0.00000000000E+00  0.21584086904E+04  0.21584086904E+04  0.25500000920E-02 0. -1.
        2   -1    0    0  501    0  0.00000000000E+00  0.00000000000E+00 -0.16775437452E+04  0.16775437452E+04  0.25500000920E-02 0.  1.
    10030    2    1    2    0    0  0.00000000000E+00  0.00000000000E+00  0.48086494522E+03  0.38359524355E+04  0.38056931027E+04 0.  0.
        3    1    3    3  502    0  0.86632332500E+03 -0.12916857642E+04  0.13454414530E+04  0.20564972479E+04  0.10100000352E+00 0. -1.
       -3    1    3    3    0  502 -0.86632332500E+03  0.12916857642E+04 -0.86457650775E+03  0.17794551877E+04  0.10100000352E+00 0.  1.
</event>
<event>
 5   0  0.1628473E-08  0.3781521E+04  0.7818609E-02  0.8050132E-01
        1   -1    0    0  501    0  0.00000000000E+00  0.00000000000E+00  0.21151020532E+04  0.21151020532E+04  0.50400001928E-02 0. -1.
       -1   -1    0    0    0  501  0.00000000000E+00  0.00000000000E+00 -0.16902143504E+04  0.16902143504E+04  0.50400001928E-02 0.  1.
    10030    2    1    2    0    0  0.00000000000E+00  0.00000000000E+00  0.42488770279E+03  0.38053164036E+04  0.37815213039E+04 0.  0.
        3    1    3    3  502    0  0.80417631198E+03  0.99189016288E+03  0.16156465147E+04  0.20593346757E+04  0.10100000352E+00 0. -1.
       -3    1    3    3    0  502 -0.80417631198E+03 -0.99189016288E+03 -0.11907588119E+04  0.17459817279E+04  0.10100000352E+00 0.  1.
</event>
<event>
 5   0  0.5159761E-08  0.3799073E+04  0.7818609E-02  0.8046354E-01
       -2   -1    0    0    0  501  0.00000000000E+00  0.00000000000E+00  0.16473471447E+04  0.16473471447E+04  0.25500000920E-02 0. -1.
        2   -1    0    0  501    0  0.00000000000E+00  0.00000000000E+00 -0.21903332075E+04  0.21903332075E+04  0.25500000920E-02 0.  1.
    10030    2    1    2    0    0  0.00000000000E+00  0.00000000000E+00 -0.54298606277E+03  0.38376803522E+04  0.37990731266E+04 0.  0.
        5    1    3    3  502    0 -0.11036712774E+04  0.63417946433E+03 -0.16957656643E+04  0.21203577905E+04  0.46999998093E+01 0.  1.
       -5    1    3    3    0  502  0.11036712774E+04 -0.63417946433E+03  0.11527796015E+04  0.17173225618E+04  0.46999998093E+01 0. -1.
</event>
<event>
 5   0  0.1628250E-08  0.3792815E+04  0.7818609E-02  0.8047699E-01
       -1   -1    0    0    0  501  0.00000000000E+00  0.00000000000E+00  0.21778721046E+04  0.21778721046E+04  0.50400001928E-02 0.  1.
        1   -1    0    0  501    0  0.00000000000E+00  0.00000000000E+00 -0.16513186658E+04  0.16513186658E+04  0.50400001928E-02 0. -1.
    10030    2    1    2    0    0  0.00000000000E+00  0.00000000000E+00  0.52655343885E+03  0.38291907704E+04  0.37928147110E+04 0.  0.
        4    1    3    3  502    0  0.92639946142E+03 -0.15759023919E+04 -0.24621658147E+03  0.18445347730E+04  0.12699999809E+01 0.  1.
       -4    1    3    3    0  502 -0.92639946142E+03  0.15759023919E+04  0.77277002032E+03  0.19846559974E+04  0.12699999809E+01 0. -1.
</event>
<event>
 5   0  0.5147582E-08  0.3792460E+04  0.7818609E-02  0.8047775E-01
        2   -1    0    0  501    0  0.00000000000E+00  0.00000000000E+00  0.18681977280E+04  0.18681977280E+04  0.25500000920E-02 0.  1.
       -2   -1    0    0    0  501  0.00000000000E+00  0.00000000000E+00 -0.19246825299E+04  0.19246825299E+04  0.25500000920E-02 0. -1.
    10030    2    1    2    0    0  0.00000000000E+00  0.00000000000E+00 -0.56484801849E+02  0.37928802579E+04  0.37924596396E+04 0.  0.
        1    1    3    3  502    0  0.12897363363E+04 -0.10620783729E+04  0.86866096680E+03  0.18830831534E+04  0.50400001928E-02 0.  1.
       -1    1    3    3    0  502 -0.12897363363E+04  0.10620783729E+04 -0.92514576865E+03  0.19097971045E+04  0.50400001928E-02 0. -1.
</event>
<event>
 5   0  0.5140842E-08  0.3796554E+04  0.7818609E-02  0.8046895E-01
       -2   -1    0    0    0  501  0.00000000000E+00  0.00000000000E+00  0.18326384696E+04  0.18326384696E+04  0.25500000920E-02 0.  1.
        2   -1    0    0  501    0  0.00000000000E+00  0.00000000000E+00 -0.19662666276E+04  0.19662666276E+04  0.25500000920E-02 0. -1.
    10030    2    1    2    0    0  0.00000000000E+00  0.00000000000E+00 -0.13362815799E+03  0.37989050972E+04  0.37965541551E+04 0.  0.
        2    1    3    3  502    0  0.67069677030E+03  0.17758429414E+04 -0.64927966695E+02  0.18993862037E+04  0.25500000920E-02 0. -1.
       -2    1    3    3    0  502 -0.67069677030E+03 -0.17758429414E+04 -0.68700191298E+02  0.18995188934E+04  0.25500000920E-02 0.  1.
</event>
<event>
 5   0  0.1628250E-08  0.3799238E+04  0.7818609E-02  0.8046318E-01
       -1   -1    0    0    0  501  0.00000000000E+00  0.00000000000E+00  0.20513316752E+04  0.20513316752E+04  0.50400001928E-02 0. -1.
        1   -1    0    0  501    0  0.00000000000E+00  0.00000000000E+00 -0.17591268331E+04  0.17591268331E+04  0.50400001928E-02 0.  1.
    10030    2    1    2    0    0  0.00000000000E+00  0.00000000000E+00  0.29220484206E+03  0.38104585083E+04  0.37992381307E+04 0.  0.
        5    1    3    3  502    0 -0.29943969407E+03  0.10335687422E+04  0.17161655540E+04  0.20256294760E+04  0.46999998093E+01 0. -1.
       -5    1    3    3    0  502  0.29943969407E+03 -0.10335687422E+04 -0.14239607120E+04  0.17848290323E+04  0.46999998093E+01 0.  1.
</event>
<event>
 5   0  0.5207474E-08  0.3798341E+04  0.7818609E-02  0.8046511E-01
       -2   -1    0    0    0  501  0.00000000000E+00  0.00000000000E+00  0.16915647464E+04  0.16915647464E+04  0.25500000920E-02 0.  1.
        2   -1    0    0  501    0  0.00000000000E+00  0.00000000000E+00 -0.21322562567E+04  0.21322562567E+04  0.25500000920E-02 0. -1.
    10030    2    1    2    0    0  0.00000000000E+00  0.00000000000E+00 -0.44069151035E+03  0.38238210031E+04  0.37983414876E+04 0.  0.
        4    1    3    3  502    0  0.98357944143E+03  0.62761025390E+03  0.12882138366E+04  0.17380505315E+04  0.12699999809E+01 0.  1.
       -4    1    3    3    0  502 -0.98357944143E+03 -0.62761025390E+03 -0.17289053469E+04  0.20857704715E+04  0.12699999809E+01 0. -1.
</event>
<event>
 5   0  0.5159761E-08  0.3795426E+04  0.7818609E-02  0.8047137E-01
       -2   -1    0    0    0  501  0.00000000000E+00  0.00000000000E+00  0.21180088336E+04  0.21180088336E+04  0.25500000920E-02 0. -1.
        2   -1    0    0  501    0  0.00000000000E+00  0.00000000000E+00 -0.17003306020E+04  0.17003306020E+04  0.25500000920E-02 0.  1.
    10030    2    1    2    0    0  0.00000000000E+00  0.00000000000E+00  0.41767823159E+03  0.38183394356E+04  0.37954263187E+04 0.  0.
        5    1    3    3  502    0 -0.58379226013E+03  0.70751037548E+03  0.18801657515E+04  0.20919917967E+04  0.46999998093E+01 0. -1.
       -5    1    3    3    0  502  0.58379226013E+03 -0.70751037548E+03 -0.14624875199E+04  0.17263476389E+04  0.46999998093E+01 0.  1.
</event>
<event>
 5   0  0.1628250E-08  0.3797201E+04  0.7818609E-02  0.8046756E-01
        1   -1    0    0  501    0  0.00000000000E+00  0.00000000000E+00  0.27331474669E+04  0.27331474669E+04  0.50400001928E-02 0. -1.
       -1   -1    0    0    0  501  0.00000000000E+00  0.00000000000E+00 -0.13188763742E+04  0.13188763742E+04  0.50400001928E-02 0.  1.
    10030    2    1    2    0    0  0.00000000000E+00  0.00000000000E+00  0.14142710928E+04  0.40520238411E+04  0.37972008750E+04 0.  0.
        4    1    3    3  502    0 -0.44224322037E+03 -0.16796601164E+04  0.15252984295E+04  0.23115739410E+04  0.12699999809E+01 0. -1.
       -4    1    3    3    0  502  0.44224322037E+03  0.16796601164E+04 -0.11102733672E+03  0.17404499002E+04  0.12699999809E+01 0.  1.
</event>
<event>
 5   0  0.5086209E-08  0.3812392E+04  0.7818609E-02  0.8043501E-01
        2   -1    0    0  501    0  0.00000000000E+00  0.00000000000E+00  0.12751156017E+04  0.12751156017E+04  0.25500000920E-02 0.  1.
       -2   -1    0    0    0  501  0.00000000000E+00  0.00000000000E+00 -0.28496107564E+04  0.28496107564E+04  0.25500000920E-02 0. -1.
    10030    2    1    2    0    0  0.00000000000E+00  0.00000000000E+00 -0.15744951547E+04  0.41247263581E+04  0.38123919706E+04 0.  0.
        3    1    3    3  502    0 -0.18688549097E+04  0.12757101372E+03 -0.40520342196E+03  0.19165288571E+04  0.10100000352E+00 0.  1.
       -3    1    3    3    0  502  0.18688549097E+04 -0.12757101372E+03 -0.11692917327E+04  0.22081975010E+04  0.10100000352E+00 0. -1.
</event>
<event>
 5   0  0.1628250E-08  0.3803901E+04  0.7818609E-02  0.8045318E-01
       -3   -1    0    0    0  501  0.00000000000E+00  0.00000000000E+00  0.16165378390E+04  0.16165378422E+04  0.10100000352E+00 0.  1.
        3   -1    0    0  501    0  0.00000000000E+00  0.00000000000E+00 -0.22377552924E+04  0.22377552946E+04  0.10100000352E+00 0. -1.
    10030    2    1    2    0    0  0.00000000000E+00  0.00000000000E+00 -0.62121745335E+03  0.38542931368E+04  0.38039012159E+04 0.  0.
        5    1    3    3  502    0  0.30862011685E+03  0.18664802270E+04 -0.50916182090E+03  0.19591484539E+04  0.46999998093E+01 0. -1.
       -5    1    3    3    0  502 -0.30862011685E+03 -0.18664802270E+04 -0.11205563245E+03  0.18951446829E+04  0.46999998093E+01 0.  1.
</event>
<event>
 5   0  0.1628473E-08  0.3797496E+04  0.7818609E-02  0.8046692E-01
       -1   -1    0    0    0  501  0.00000000000E+00  0.00000000000E+00  0.22688379921E+04  0.22688379921E+04  0.50400001928E-02 0.  1.
        1   -1    0    0  501    0  0.00000000000E+00  0.00000000000E+00 -0.15890269167E+04  0.15890269167E+04  0.50400001928E-02 0. -1.
    10030    2    1    2    0    0  0.00000000000E+00  0.00000000000E+00  0.67981107534E+03  0.38578649088E+04  0.37974963537E+04 0.  0.
        3    1    3    3  502    0  0.13569144520E+04 -0.88490599787E+03 -0.66627828487E+03  0.17516284475E+04  0.10100000352E+00 0. -1.
       -3    1    3    3    0  502 -0.13569144520E+04  0.88490599787E+03  0.13460893602E+04  0.21062364613E+04  0.10100000352E+00 0.  1.
</event>
<event>
 5   0  0.1628473E-08  0.3801634E+04  0.7818609E-02  0.8045804E-01
        1   -1    0    0  501    0  0.00000000000E+00  0.00000000000E+00  0.26510633402E+04  0.26510633402E+04  0.50400001928E-02 0. -1.
       -1   -1    0    0    0  501  0.00000000000E+00  0.00000000000E+00 -0.13628893743E+04  0.13628893743E+04  0.50400001928E-02 0.  1.
    10030    2    1    2    0    0  0.00000000000E+00  0.00000000000E+00  0.12881739659E+04  0.40139527144E+04  0.38016344153E+04 0.  0.
        3    1    3    3  502    0 -0.77168415788E+03  0.36071004618E+03 -0.11500794936E+04  0.14311851833E+04  0.10100000352E+00 0.  1.
       -3    1    3    3    0  502  0.77168415788E+03 -0.36071004618E+03  0.24382534595E+04  0.25827675312E+04  0.10100000352E+00 0. -1.
</event>
<event>
 5   0  0.1628250E-08  0.3797944E+04  0.7818609E-02  0.8046596E-01
       -1   -1    0    0    0  501  0.00000000000E+00  0.00000000000E+00  0.13265634512E+04  0.13265634512E+04  0.50400001928E-02 0.  1.
        1   -1    0    0  501    0  0.00000000000E+00  0.00000000000E+00 -0.27183727536E+04  0.27183727536E+04  0.50400001928E-02 0. -1.
    10030    2    1    2    0    0  0.00000000000E+00  0.00000000000E+00 -0.13918093024E+04  0.40449362048E+04  0.37979436235E+04 0.  0.
        1    1    3    3  502    0  0.18490507971E+03 -0.98415232095E+03  0.10225152652E+04  0.14311824297E+04  0.50400001928E-02 0.  1.
       -1    1    3    3    0  502 -0.18490507971E+03  0.98415232095E+03 -0.24143245676E+04  0.26137537752E+04  0.50400001928E-02 0. -1.
</event>
<event>
 5   0  0.5086209E-08  0.3787514E+04  0.7818609E-02  0.8048840E-01
       -2   -1    0    0    0  501  0.00000000000E+00  0.00000000000E+00  0.19209604802E+04  0.19209604802E+04  0.25500000920E-02 0.  1.
        2   -1    0    0  501    0  0.00000000000E+00  0.00000000000E+00 -0.18669388620E+04  0.18669388620E+04  0.25500000920E-02 0. -1.
    10030    2    1    2    0    0  0.00000000000E+00  0.00000000000E+00  0.54021618176E+02  0.37878993422E+04  0.37875141044E+04 0.  0.
        3    1    3    3  502    0 -0.16620467658E+04  0.90767397753E+03  0.33664420465E+02  0.18940445624E+04  0.10100000352E+00 0. -1.
       -3    1    3    3    0  502  0.16620467658E+04 -0.90767397753E+03  0.20357197711E+02  0.18938547797E+04  0.10100000352E+00 0.  1.
</event>
<event>
 5   0  0.5086209E-08  0.3800212E+04  0.7818609E-02  0.8046109E-01
        2   -1    0    0  501    0  0.00000000000E+00  0.00000000000E+00  0.21737146440E+04  0.21737146440E+04  0.25500000920E-02 0.  1.
       -2   -1    0    0    0  501  0.00000000000E+00  0.00000000000E+00 -0.16609369598E+04  0.16609369598E+04  0.25500000920E-02 0. -1.
    10030    2    1    2    0    0  0.00000000000E+00  0.00000000000E+00  0.51277768421E+03  0.38346516038E+04  0.38002120953E+04 0.  0.
        3    1    3    3  502    0  0.46001776344E+03 -0.94439869589E+03 -0.13412786039E+04  0.17036823480E+04  0.10100000352E+00 0. -1.
       -3    1    3    3    0  502 -0.46001776344E+03  0.94439869589E+03  0.18540562881E+04  0.21309692558E+04  0.10100000352E+00 0.  1.
</event>
<event>
 5   0  0.5159761E-08  0.3802895E+04  0.7818609E-02  0.8045534E-01
       -2   -1    0    0    0  501  0.00000000000E+00  0.00000000000E+00  0.19554981110E+04  0.19554981110E+04  0.25500000920E-02 0. -1.
        2   -1    0    0  501    0  0.00000000000E+00  0.00000000000E+00 -0.18488909550E+04  0.18488909550E+04  0.25500000920E-02 0.  1.
    10030    2    1    2    0    0  0.00000000000E+00  0.00000000000E+00  0.10660715606E+03  0.38043890660E+04  0.38028950919E+04 0.  0.
        5    1    3    3  502    0 -0.10840951070E+04  0.15541254237E+04 -0.10459583304E+03  0.18977698522E+04  0.46999998093E+01 0.  1.
       -5    1    3    3    0  502  0.10840951070E+04 -0.15541254237E+04  0.21120298911E+03  0.19066192138E+04  0.46999998093E+01 0. -1.
</event>
<event>
 5   0  0.1628250E-08  0.3808621E+04  0.7818609E-02  0.8044307E-01
       -1   -1    0    0    0  501  0.00000000000E+00  0.00000000000E+00  0.21930457633E+04  0.21930457633E+04  0.50400001928E-02 0.  1.
        1   -1    0    0  501    0  0.00000000000E+00  0.00000000000E+00 -0.16535901930E+04  0.16535901931E+04  0.50400001928E-02 0. -1.
    10030    2    1    2    0    0  0.00000000000E+00  0.00000000000E+00  0.53945557029E+03  0.38466359564E+04  0.38086212556E+04 0.  0.
        4    1    3    3  502    0  0.13736835529E+04  0.85930555201E+03 -0.74075064059E+03  0.17816076054E+04  0.12699999809E+01 0. -1.
       -4    1    3    3    0  502 -0.13736835529E+04 -0.85930555201E+03  0.12802062109E+04  0.20650283510E+04  0.12699999809E+01 0.  1.
</event>
<event>
 5   0  0.1628250E-08  0.3802202E+04  0.7818609E-02  0.8045682E-01
       -1   -1    0    0    0  501  0.00000000000E+00  0.00000000000E+00  0.16521834224E+04  0.16521834224E+04  0.50400001928E-02 0. -1.
        1   -1    0    0  501    0  0.00000000000E+00  0.00000000000E+00 -0.21875204686E+04  0.21875204686E+04  0.50400001928E-02 0.  1.
    10030    2    1    2    0    0  0.00000000000E+00  0.00000000000E+00 -0.53533704617E+03  0.38397038910E+04  0.38022020222E+04 0.  0.
        1    1    3    3  502    0 -0.18247879981E+03  0.16654111823E+04 -0.11750249220E+04  0.20463568814E+04  0.50400001928E-02 0.  1.
       -1    1    3    3    0  502  0.18247879981E+03 -0.16654111823E+04  0.63968787583E+03  0.17933470097E+04  0.50400001928E-02 0. -1.
</event>
<event>
 5   0  0.5140842E-08  0.3810187E+04  0.7818609E-02  0.8043972E-01
        2   -1    0    0  501    0  0.00000000000E+00  0.00000000000E+00  0.20417355338E+04  0.20417355338E+04  0.25500000920E-02 0. -1.
       -2   -1    0    0    0  501  0.00000000000E+00  0.00000000000E+00 -0.17775966180E+04  0.17775966180E+04  0.25500000920E-02 0.  1.
    10030    2    1    2    0    0  0.00000000000E+00  0.00000000000E+00  0.26413891586E+03  0.38193321518E+04  0.38101874913E+04 0.  0.
        2    1    3    3  502    0 -0.16588588707E+04 -0.68125651536E+03  0.77662047813E+03  0.19542421957E+04  0.25500000920E-02 0. -1.
       -2    1    3    3    0  502  0.16588588707E+04  0.68125651536E+03 -0.51248156226E+03  0.18650899561E+04  0.25500000920E-02 0.  1.
</event>
<event>
 5   0  0.5086209E-08  0.3796595E+04  0.7818609E-02  0.8046886E-01
        2   -1    0    0  501    0  0.00000000000E+00  0.00000000000E+00  0.27018196925E+04  0.27018196925E+04  0.25500000920E-02 0. -1.
       -2   -1    0    0    0  501  0.00000000000E+00  0.00000000000E+00 -0.13337430627E+04  0.13337430627E+04  0.25500000920E-02 0.  1.
    10030    2    1    2    0    0  0.00000000000E+00  0.00000000000E+00  0.13680766299E+04  0.40355627552E+04  0.37965949331E+04 0.  0.
        3    1    3    3  502    0 -0.15318872665E+04 -0.84289760469E+03 -0.10166133484E+03  0.17514251358E+04  0.10100000352E+00 0. -1.
       -3    1    3    3    0  502  0.15318872665E+04  0.84289760469E+03  0.14697379647E+04  0.22841376194E+04  0.10100000352E+00 0.  1.
</event>
<event>
 5   0  0.1628250E-08  0.3801403E+04  0.7818609E-02  0.8045854E-01
       -1   -1    0    0    0  501  0.00000000000E+00  0.00000000000E+00  0.21439015436E+04  0.21439015436E+04  0.50400001928E-02 0.  1.
        1   -1    0    0  501    0  0.00000000000E+00  0.00000000000E+00 -0.16850897830E+04  0.16850897830E+04  0.50400001928E-02 0. -1.
    10030    2    1    2    0    0  0.00000000000E+00  0.00000000000E+00  0.45881176053E+03  0.38289913266E+04  0.38014032077E+04 0.  0.
        1    1    3    3  502    0  0.11175502616E+04 -0.14140865414E+04  0.83719806433E+03  0.19873248181E+04  0.50400001928E-02 0.  1.
       -1    1    3    3    0  502 -0.11175502616E+04  0.14140865414E+04 -0.37838630380E+03  0.18416665085E+04  0.50400001928E-02 0. -1.
</event>
<event>
 5   0  0.5159761E-08  0.3793203E+04  0.7818609E-02  0.8047615E-01
       -2   -1    0    0    0  501  0.00000000000E+00  0.00000000000E+00  0.18532715551E+04  0.18532715551E+04  0.25500000920E-02 0.  1.
        2   -1    0    0  501    0  0.00000000000E+00  0.00000000000E+00 -0.19409446089E+04  0.19409446089E+04  0.25500000920E-02 0. -1.
    10030    2    1    2    0    0  0.00000000000E+00  0.00000000000E+00 -0.87673053845E+02  0.37942161640E+04  0.37932030969E+04 0.  0.
        5    1    3    3  502    0 -0.18077455028E+04 -0.13167756742E+03 -0.60236953817E+03  0.19100141191E+04  0.46999998093E+01 0. -1.
       -5    1    3    3    0  502  0.18077455028E+04  0.13167756742E+03  0.51469648432E+03  0.18842020448E+04  0.46999998093E+01 0.  1.
</event>
<event>
 5   0  0.1628250E-08  0.3813890E+04  0.7818609E-02  0.8043181E-01
        1   -1    0    0  501    0  0.00000000000E+00  0.00000000000E+00  0.19621536551E+04  0.19621536551E+04  0.50400001928E-02 0. -1.
       -1   -1    0    0    0  501  0.00000000000E+00  0.00000000000E+00 -0.18532893496E+04  0.18532893496E+04  0.50400001928E-02 0.  1.
    10030    2    1    2    0    0  0.00000000000E+00  0.00000000000E+00  0.10886430554E+03  0.38154430047E+04  0.38138896005E+04 0.  0.
        1    1    3    3  502    0  0.78220316608E+03  0.87217414518E+03 -0.14508098552E+04  0.18647731145E+04  0.50400001928E-02 0.  1.
       -1    1    3    3    0  502 -0.78220316608E+03 -0.87217414518E+03  0.15596741608E+04  0.19506698902E+04  0.50400001928E-02 0. -1.
</event>
<event>
 5   0  0.1628250E-08  0.3805933E+04  0.7818609E-02  0.8044883E-01
       -1   -1    0    0    0  501  0.00000000000E+00  0.00000000000E+00  0.12368438002E+04  0.12368438002E+04  0.50400001928E-02 0. -1.
        1   -1    0    0  501    0  0.00000000000E+00  0.00000000000E+00 -0.29278403674E+04  0.29278403674E+04  0.50400001928E-02 0.  1.
    10030    2    1    2    0    0  0.00000000000E+00  0.00000000000E+00 -0.16909965673E+04  0.41646841676E+04  0.38059328456E+04 0.  0.
        5    1    3    3  502    0 -0.14543301392E+04 -0.34320802823E+03  0.44386969068E+03  0.15588169542E+04  0.46999998093E+01 0. -1.
       -5    1    3    3    0  502  0.14543301392E+04  0.34320802823E+03 -0.21348662580E+04  0.26058672134E+04  0.46999998093E+01 0.  1.
</event>
<event>
 5   0  0.5140842E-08  0.3802753E+04  0.7818609E-02  0.8045564E-01
        2   -1    0    0  501    0  0.00000000000E+00  0.00000000000E+00  0.18551362834E+04  0.18551362834E+04  0.25500000920E-02 0.  1.
       -2   -1    0    0    0  501  0.00000000000E+00  0.00000000000E+00 -0.19487689767E+04  0.19487689767E+04  0.25500000920E-02 0. -1.
    10030    2    1    2    0    0  0.00000000000E+00  0.00000000000E+00 -0.93632693269E+02  0.38039052601E+04  0.38027527065E+04 0.  0.
        2    1    3    3  502    0 -0.68304003604E+03 -0.24038721223E+03 -0.18054454219E+04  0.19452410838E+04  0.25500000920E-02 0. -1.
       -2    1    3    3    0  502  0.68304003604E+03  0.24038721223E+03  0.17118127286E+04  0.18586641763E+04  0.25500000920E-02 0.  1.
</event>
<event>
 5   0  0.1628250E-08  0.3798891E+04  0.7818609E-02  0.8046393E-01
        1   -1    0    0  501    0  0.00000000000E+00  0.00000000000E+00  0.18172823899E+04  0.18172823899E+04  0.50400001928E-02 0. -1.
       -1   -1    0    0    0  501  0.00000000000E+00  0.00000000000E+00 -0.19853229366E+04  0.19853229366E+04  0.50400001928E-02 0.  1.
    10030    2    1    2    0    0  0.00000000000E+00  0.00000000000E+00 -0.16804054664E+03  0.38026053265E+04  0.37988905806E+04 0.  0.
        1    1    3    3  502    0  0.84396993380E+03 -0.12754714876E+03  0.16145004842E+04  0.18262435046E+04  0.50400001928E-02 0. -1.
       -1    1    3    3    0  502 -0.84396993380E+03  0.12754714876E+03 -0.17825410309E+04  0.19763618219E+04  0.50400001928E-02 0.  1.
</event>
<event>
 5   0  0.1666051E-08  0.3800774E+04  0.7818609E-02  0.8045989E-01
       -1   -1    0    0    0  501  0.00000000000E+00  0.00000000000E+00  0.23775742666E+04  0.23775742666E+04  0.50400001928E-02 0. -1.
        1   -1    0    0  501    0  0.00000000000E+00  0.00000000000E+00 -0.15189727596E+04  0.15189727596E+04  0.50400001928E-02 0.  1.
    10030    2    1    2    0    0  0.00000000000E+00  0.00000000000E+00  0.85860150706E+03  0.38965470262E+04  0.38007738922E+04 0.  0.
        2    1    3    3  502    0  0.17139035770E+04  0.81998997195E+03  0.47058353675E+03  0.19573701465E+04  0.25500000920E-02 0. -1.
       -2    1    3    3    0  502 -0.17139035770E+04 -0.81998997195E+03  0.38801797032E+03  0.19391768797E+04  0.25500000920E-02 0.  1.
</event>
<event>
 5   0  0.5159761E-08  0.3790253E+04  0.7818609E-02  0.8048250E-01
        2   -1    0    0  501    0  0.00000000000E+00  0.00000000000E+00  0.22349732698E+04  0.22349732698E+04  0.25500000920E-02 0. -1.
       -2   -1    0    0    0  501  0.00000000000E+00  0.00000000000E+00 -0.16069563049E+04  0.16069563049E+04  0.25500000920E-02 0.  1.
    10030    2    1    2    0    0  0.00000000000E+00  0.00000000000E+00  0.62801696491E+03  0.38419295748E+04  0.37902529664E+04 0.  0.
        5    1    3    3  502    0 -0.90244347684E+03 -0.16650288160E+04  0.24409630660E+03  0.19095366673E+04  0.46999998093E+01 0. -1.
       -5    1    3    3    0  502  0.90244347684E+03  0.16650288160E+04  0.38392065832E+03  0.19323929075E+04  0.46999998093E+01 0.  1.
</event>
<event>
 5   0  0.5207474E-08  0.3801448E+04  0.7818609E-02  0.8045844E-01
        2   -1    0    0  501    0  0.00000000000E+00  0.00000000000E+00  0.24843720892E+04  0.24843720892E+04  0.25500000920E-02 0. -1.
       -2   -1    0    0    0  501  0.00000000000E+00  0.00000000000E+00 -0.14541908683E+04  0.14541908683E+04  0.25500000920E-02 0.  1.
    10030    2    1    2    0    0  0.00000000000E+00  0.00000000000E+00  0.10301812209E+04  0.39385629575E+04  0.38014477272E+04 0.  0.
        4    1    3    3  502    0  0.45272672792E+03 -0.70057293109E+03 -0.12544311875E+04  0.15064405528E+04  0.12699999809E+01 0.  1.
       -4    1    3    3    0  502 -0.45272672792E+03  0.70057293109E+03  0.22846124084E+04  0.24321224047E+04  0.12699999809E+01 0. -1.
</event>
<event>
 5   0  0.1666051E-08  0.3797720E+04  0.7818609E-02  0.8046644E-01
       -1   -1    0    0    0  501  0.00000000000E+00  0.00000000000E+00  0.17944866983E+04  0.17944866983E+04  0.50400001928E-02 0. -1.
        1   -1    0    0  501    0  0.00000000000E+00  0.00000000000E+00 -0.20093037729E+04  0.20093037729E+04  0.50400001928E-02 0.  1.
    10030    2    1    2    0    0  0.00000000000E+00  0.00000000000E+00 -0.21481707459E+03  0.38037904712E+04  0.37977197860E+04 0.  0.
        2    1    3    3  502    0  0.11834286940E+04 -0.37977116558E+03 -0.15453005370E+04  0.19830994332E+04  0.25500000920E-02 0.  1.
       -2    1    3    3    0  502 -0.11834286940E+04  0.37977116558E+03  0.13304834624E+04  0.18206910380E+04  0.25500000920E-02 0. -1.
</event>
<event>
 5   0  0.1628250E-08  0.3758041E+04  0.7818609E-02  0.8055220E-01
        1   -1    0    0  501    0  0.00000000000E+00  0.00000000000E+00  0.17096239869E+04  0.17096239869E+04  0.50400001928E-02 0. -1.
       -1   -1    0    0    0  501  0.00000000000E+00  0.00000000000E+00 -0.20652015303E+04  0.20652015303E+04  0.50400001928E-02 0.  1.
    10030    2    1    2    0    0  0.00000000000E+00  0.00000000000E+00 -0.35557754335E+03  0.37748255172E+04  0.37580410184E+04 0.  0.
        5    1    3    3  502    0  0.58429621107E+03  0.52280178840E+03 -0.18930373048E+04  0.20489841629E+04  0.46999998093E+01 0.  1.
       -5    1    3    3    0  502 -0.58429621107E+03 -0.52280178840E+03  0.15374597615E+04  0.17258413543E+04  0.46999998093E+01 0. -1.
</event>
<event>
 5   0  0.1666051E-08  0.3800627E+04  0.7818609E-02  0.8046020E-01
        1   -1    0    0  501    0  0.00000000000E+00  0.00000000000E+00  0.29491410477E+04  0.29491410478E+04  0.50400001928E-02 0. -1.
       -1   -1    0    0    0  501  0.00000000000E+00  0.00000000000E+00 -0.12244889006E+04  0.12244889007E+04  0.50400001928E-02 0.  1.
    10030    2    1    2    0    0  0.00000000000E+00  0.00000000000E+00  0.17246521471E+04  0.41736299484E+04  0.38006265165E+04 0.  0.
        2    1    3    3  502    0  0.17378360109E+04  0.53154411180E+03  0.25231073047E+03  0.18347408123E+04  0.25500000920E-02 0. -1.
       -2    1    3    3    0  502 -0.17378360109E+04 -0.53154411180E+03  0.14723414166E+04  0.23388891361E+04  0.25500000920E-02 0.  1.
</event>
<event>
 5   0  0.5086209E-08  0.3796493E+04  0.7818609E-02  0.8046908E-01
       -2   -1    0    0    0  501  0.00000000000E+00  0.00000000000E+00  0.18438535548E+04  0.18438535548E+04  0.25500000920E-02 0. -1.
        2   -1    0    0  501    0  0.00000000000E+00  0.00000000000E+00 -0.19542440493E+04  0.19542440493E+04  0.25500000920E-02 0.  1.
    10030    2    1    2    0    0  0.00000000000E+00  0.00000000000E+00 -0.11039049452E+03  0.37980976041E+04  0.37964930329E+04 0.  0.
        3    1    3    3  502    0  0.18573963828E+04  0.39111512717E+03 -0.76357474569E+02  0.18996638754E+04  0.10100000352E+00 0. -1.
       -3    1    3    3    0  502 -0.18573963828E+04 -0.39111512717E+03 -0.34033019951E+02  0.18984337287E+04  0.10100000352E+00 0.  1.
</event>
<event>
 5   0  0.1628250E-08  0.3800560E+04  0.7818609E-02  0.8046035E-01
       -1   -1    0    0    0  501  0.00000000000E+00  0.00000000000E+00  0.15248791506E+04  0.15248791506E+04  0.50400001928E-02 0.  1.
        1   -1    0    0  501    0  0.00000000000E+00  0.00000000000E+00 -0.23680981829E+04  0.23680981829E+04  0.50400001928E-02 0. -1.
    10030    2    1    2    0    0  0.00000000000E+00  0.00000000000E+00 -0.84321903232E+03  0.38929773335E+04  0.38005597197E+04 0.  0.
        4    1    3    3  502    0 -0.11439563684E+04  0.80273386825E+03 -0.17405717252E+04  0.22321759293E+04  0.12699999809E+01 0. -1.
       -4    1    3    3    0  502  0.11439563684E+04 -0.80273386825E+03  0.89735269288E+03  0.16608014042E+04  0.12699999809E+01 0.  1.
</event>
<event>
 5   0  0.1628473E-08  0.3804725E+04  0.7818609E-02  0.8045142E-01
       -1   -1    0    0    0  501  0.00000000000E+00  0.00000000000E+00  0.17468632161E+04  0.17468632161E+04  0.50400001928E-02 0. -1.
        1   -1    0    0  501    0  0.00000000000E+00  0.00000000000E+00 -0.20717032770E+04  0.20717032770E+04  0.50400001928E-02 0.  1.
    10030    2    1    2    0    0  0.00000000000E+00  0.00000000000E+00 -0.32484006085E+03  0.38185664931E+04  0.38047245626E+04 0.  0.
        3    1    3    3  502    0  0.18900272577E+04  0.20336587431E+03 -0.88521145039E+02  0.19029967727E+04  0.10100000352E+00 0.  1.
       -3    1    3    3    0  502 -0.18900272577E+04 -0.20336587431E+03 -0.23631891581E+03  0.19155697204E+04  0.10100000352E+00 0. -1.
</event>
<event>
 5   0  0.5147582E-08  0.3789635E+04  0.7818609E-02  0.8048383E-01
        2   -1    0    0  501    0  0.00000000000E+00  0.00000000000E+00  0.23302639997E+04  0.23302639997E+04  0.25500000920E-02 0.  1.
       -2   -1    0    0    0  501  0.00000000000E+00  0.00000000000E+00 -0.15407408427E+04  0.15407408427E+04  0.25500000920E-02 0. -1.
    10030    2    1    2    0    0  0.00000000000E+00  0.00000000000E+00  0.78952315708E+03  0.38710048424E+04  0.37896347679E+04 0.  0.
        1    1    3    3  502    0 -0.76042766801E+03 -0.32837865079E+03  0.21355394929E+04  0.22905483410E+04  0.50400001928E-02 0.  1.
       -1    1    3    3    0  502  0.76042766801E+03  0.32837865079E+03 -0.13460163358E+04  0.15804565014E+04  0.50400001928E-02 0. -1.
</event>
<event>
 5   0  0.1628250E-08  0.3814763E+04  0.7818609E-02  0.8042994E-01
       -1   -1    0    0    0  501  0.00000000000E+00  0.00000000000E+00  0.20179480141E+04  0.20179480141E+04  0.50400001928E-02 0. -1.
        1   -1    0    0  501    0  0.00000000000E+00  0.00000000000E+00 -0.18028733838E+04  0.18028733838E+04  0.50400001928E-02 0.  1.
    10030    2    1    2    0    0  0.00000000000E+00  0.00000000000E+00  0.21507463029E+03  0.38208213979E+04  0.38147633030E+04 0.  0.
        1    1    3    3  502    0  0.17334667350E+03 -0.40070113947E+03 -0.17521542404E+04  0.18057283723E+04  0.50400001928E-02 0.  1.
       -1    1    3    3    0  502 -0.17334667350E+03  0.40070113947E+03  0.19672288706E+04  0.20150930256E+04  0.50400001928E-02 0. -1.
</event>
<event>
 5   0  0.5086209E-08  0.3794627E+04  0.7818609E-02  0.8047309E-01
       -2   -1    0    0    0  501  0.00000000000E+00  0.00000000000E+00  0.25008538778E+04  0.25008538778E+04  0.25500000920E-02 0. -1.
        2   -1    0    0  501    0  0.00000000000E+00  0.00000000000E+00 -0.14394274078E+04  0.14394274078E+04  0.25500000920E-02 0.  1.
    10030    2    1    2    0    0  0.00000000000E+00  0.00000000000E+00  0.10614264700E+04  0.39402812855E+04  0.37946265242E+04 0.  0.
        3    1    3    3  502    0  0.80448277836E+03 -0.97485573789E+02 -0.12506841780E+04  0.14902707475E+04  0.10100000352E+00 0.  1.
       -3    1    3    3    0  502 -0.80448277836E+03  0.97485573789E+02  0.23121106480E+04  0.24500105380E+04  0.10100000352E+00 0. -1.
</event>
<event>
 5   0  0.5086209E-08  0.3851369E+04  0.7818609E-02  0.8035220E-01
       -2   -1    0    0    0  501  0.00000000000E+00  0.00000000000E+00  0.11678699116E+04  0.11678699116E+04  0.25500000920E-02 0.  1.
        2   -1    0    0  501    0  0.00000000000E+00  0.00000000000E+00 -0.31752346669E+04  0.31752346669E+04  0.25500000920E-02 0. -1.
    10030    2    1    2    0    0  0.00000000000E+00  0.00000000000E+00 -0.20073647553E+04  0.43431045785E+04  0.38513691227E+04 0.  0.
        3    1    3    3  502    0  0.10678053334E+04  0.15253238604E+04 -0.44958043433E+03  0.19154486906E+04  0.10100000352E+00 0.  1.
       -3    1    3    3    0  502 -0.10678053334E+04 -0.15253238604E+04 -0.15577843209E+04  0.24276558879E+04  0.10100000352E+00 0. -1.
</event>
<event>
 5   0  0.5207474E-08  0.3803744E+04  0.7818609E-02  0.8045352E-01
        2   -1    0    0  501    0  0.00000000000E+00  0.00000000000E+00  0.17033004851E+04  0.17033004851E+04  0.25500000920E-02 0. -1.
       -2   -1    0    0    0  501  0.00000000000E+00  0.00000000000E+00 -0.21235935441E+04  0.21235935441E+04  0.25500000920E-02 0.  1.
    10030    2    1    2    0    0  0.00000000000E+00  0.00000000000E+00 -0.42029305898E+03  0.38268940292E+04  0.38037444256E+04 0.  0.
        4    1    3    3  502    0  0.17947577019E+04 -0.63891210615E+02 -0.83995878321E+03  0.19826168732E+04  0.12699999809E+01 0.  1.
       -4    1    3    3    0  502 -0.17947577019E+04  0.63891210615E+02  0.41966572423E+03  0.18442771561E+04  0.12699999809E+01 0. -1.
</event>
<event>
 5   0  0.1628250E-08  0.3813645E+04  0.7818609E-02  0.8043233E-01
       -1   -1    0    0    0  501  0.00000000000E+00  0.00000000000E+00  0.15647285447E+04  0.15647285447E+04  0.50400001928E-02 0. -1.
        1   -1    0    0  501    0  0.00000000000E+00  0.00000000000E+00 -0.23237081332E+04  0.23237081332E+04  0.50400001928E-02 0.  1.
    10030    2    1    2    0    0  0.00000000000E+00  0.00000000000E+00 -0.75897958852E+03  0.38884366778E+04  0.38136452092E+04 0.  0.
        5    1    3    3  502    0 -0.11316734203E+04  0.13491569905E+04  0.36632035908E+03  0.17986444926E+04  0.46999998093E+01 0. -1.
       -5    1    3    3    0  502  0.11316734203E+04 -0.13491569905E+04 -0.11252999476E+04  0.20897921852E+04  0.46999998093E+01 0.  1.
</event>
<event>
 5   0  0.5207474E-08  0.3809844E+04  0.7818609E-02  0.8044046E-01
        2   -1    0    0  501    0  0.00000000000E+00  0.00000000000E+00  0.22919913507E+04  0.22919913507E+04  0.25500000920E-02 0. -1.
       -2   -1    0    0    0  501  0.00000000000E+00  0.00000000000E+00 -0.15832201635E+04  0.15832201635E+04  0.25500000920E-02 0.  1.
    10030    2    1    2    0    0  0.00000000000E+00  0.00000000000E+00  0.70877118721E+03  0.38752115142E+04  0.38098435249E+04 0.  0.
        4    1    3    3  502    0  0.17456735758E+04  0.72079129096E+03  0.60726536800E+03  0.19838571417E+04  0.12699999809E+01 0.  1.
       -4    1    3    3    0  502 -0.17456735758E+04 -0.72079129096E+03  0.10150581920E+03  0.18913543726E+04  0.12699999809E+01 0. -1.
</event>
<event>
 5   0  0.1628250E-08  0.3798636E+04  0.7818609E-02  0.8046448E-01
        1   -1    0    0  501    0  0.00000000000E+00  0.00000000000E+00  0.21372612089E+04  0.21372612089E+04  0.50400001928E-02 0.  1.
       -1   -1    0    0    0  501  0.00000000000E+00  0.00000000000E+00 -0.16878648213E+04  0.16878648213E+04  0.50400001928E-02 0. -1.
    10030    2    1    2    0    0  0.00000000000E+00  0.00000000000E+00  0.44939638760E+03  0.38251260303E+04  0.37986355490E+04 0.  0.
        5    1    3    3  502    0  0.11353374885E+04  0.12029964296E+04 -0.71518878381E+03  0.18021400358E+04  0.46999998093E+01 0. -1.
       -5    1    3    3    0  502 -0.11353374885E+04 -0.12029964296E+04  0.11645851714E+04  0.20229859944E+04  0.46999998093E+01 0.  1.
</event>
<event>
 5   0  0.5147582E-08  0.3804880E+04  0.7818609E-02  0.8045108E-01
       -2   -1    0    0    0  501  0.00000000000E+00  0.00000000000E+00  0.34464512831E+04  0.34464512831E+04  0.25500000920E-02 0.  1.
        2   -1    0    0  501    0  0.00000000000E+00  0.00000000000E+00 -0.10501463567E+04  0.10501463567E+04  0.25500000920E-02 0. -1.
    10030    2    1    2    0    0  0.00000000000E+00  0.00000000000E+00  0.23963049264E+04  0.44965976398E+04  0.38048801602E+04 0.  0.
        1    1    3    3  502    0  0.96519283008E+03  0.13258515919E+04  0.23377132414E+04  0.28555880028E+04  0.50400001928E-02 0.  1.
       -1    1    3    3    0  502 -0.96519283008E+03 -0.13258515919E+04  0.58591685033E+02  0.16410096369E+04  0.50400001928E-02 0. -1.
</event>
<event>
 5   0  0.1666051E-08  0.3799689E+04  0.7818609E-02  0.8046222E-01
        1   -1    0    0  501    0  0.00000000000E+00  0.00000000000E+00  0.21596375307E+04  0.21596375307E+04  0.50400001928E-02 0.  1.
       -1   -1    0    0    0  501  0.00000000000E+00  0.00000000000E+00 -0.16713034149E+04  0.16713034149E+04  0.50400001928E-02 0. -1.
    10030    2    1    2    0    0  0.00000000000E+00  0.00000000000E+00  0.48833411577E+03  0.38309409456E+04  0.37996892399E+04 0.  0.
        2    1    3    3  502    0 -0.73074317952E+02 -0.57885148271E+03  0.20670756171E+04  0.21478385651E+04  0.25500000920E-02 0.  1.
       -2    1    3    3    0  502  0.73074317952E+02  0.57885148271E+03 -0.15787415013E+04  0.16831023804E+04  0.25500000920E-02 0. -1.
</event>
<event>
 5   0  0.5159761E-08  0.3794893E+04  0.7818609E-02  0.8047252E-01
       -2   -1    0    0    0  501  0.00000000000E+00  0.00000000000E+00  0.18416233827E+04  0.18416233827E+04  0.25500000920E-02 0.  1.
        2   -1    0    0  501    0  0.00000000000E+00  0.00000000000E+00 -0.19549613950E+04  0.19549613950E+04  0.25500000920E-02 0. -1.
    10030    2    1    2    0    0  0.00000000000E+00  0.00000000000E+00 -0.11333801231E+03  0.37965847777E+04  0.37948926822E+04 0.  0.
        5    1    3    3  502    0 -0.11148324836E+04  0.14310992516E+04 -0.61313998938E+03  0.19149045071E+04  0.46999998093E+01 0. -1.
       -5    1    3    3    0  502  0.11148324836E+04 -0.14310992516E+04  0.49980197707E+03  0.18816802706E+04  0.46999998093E+01 0.  1.
</event>
<event>
 5   0  0.1628473E-08  0.3799203E+04  0.7818609E-02  0.8046326E-01
        1   -1    0    0  501    0  0.00000000000E+00  0.00000000000E+00  0.28009210351E+04  0.28009210351E+04  0.50400001928E-02 0.  1.
       -1   -1    0    0    0  501  0.00000000000E+00  0.00000000000E+00 -0.12883208602E+04  0.12883208602E+04  0.50400001928E-02 0. -1.
    10030    2    1    2    0    0  0.00000000000E+00  0.00000000000E+00  0.15126001749E+04  0.40892418954E+04  0.37992025466E+04 0.  0.
        3    1    3    3  502    0  0.12715019145E+04 -0.13737596926E+04  0.11043302553E+04  0.21733564215E+04  0.10100000352E+00 0.  1.
       -3    1    3    3    0  502 -0.12715019145E+04  0.13737596926E+04  0.40826991956E+03  0.19158854739E+04  0.10100000352E+00 0. -1.
</event>
<event>
 5   0  0.1628473E-08  0.3798136E+04  0.7818609E-02  0.8046555E-01
        1   -1    0    0  501    0  0.00000000000E+00  0.00000000000E+00  0.19067415621E+04  0.19067415621E+04  0.50400001928E-02 0. -1.
       -1   -1    0    0    0  501  0.00000000000E+00  0.00000000000E+00 -0.18914251655E+04  0.18914251655E+04  0.50400001928E-02 0.  1.
    10030    2    1    2    0    0  0.00000000000E+00  0.00000000000E+00  0.15316396652E+02  0.37981667276E+04  0.37981358452E+04 0.  0.
        3    1    3    3  502    0 -0.16278901345E+04 -0.96145906848E+03  0.18662650521E+03  0.18998050671E+04  0.10100000352E+00 0. -1.
       -3    1    3    3    0  502  0.16278901345E+04  0.96145906848E+03 -0.17131010855E+03  0.18983616605E+04  0.10100000352E+00 0.  1.
</event>
<event>
 5   0  0.1628473E-08  0.3783879E+04  0.7818609E-02  0.8049623E-01
        1   -1    0    0  501    0  0.00000000000E+00  0.00000000000E+00  0.25798631804E+04  0.25798631804E+04  0.50400001928E-02 0. -1.
       -1   -1    0    0    0  501  0.00000000000E+00  0.00000000000E+00 -0.13874514558E+04  0.13874514558E+04  0.50400001928E-02 0.  1.
    10030    2    1    2    0    0  0.00000000000E+00  0.00000000000E+00  0.11924117247E+04  0.39673146362E+04  0.37838789227E+04 0.  0.
        3    1    3    3  502    0 -0.12243050942E+04  0.59918019414E+03  0.19718696392E+04  0.23971253102E+04  0.10100000352E+00 0. -1.
       -3    1    3    3    0  502  0.12243050942E+04 -0.59918019414E+03 -0.77945791457E+03  0.15701893260E+04  0.10100000352E+00 0.  1.
</event>
<event>
 5   0  0.1666051E-08  0.3804404E+04  0.7818609E-02  0.8045210E-01
        1   -1    0    0  501    0  0.00000000000E+00  0.00000000000E+00  0.15597359497E+04  0.15597359497E+04  0.50400001928E-02 0. -1.
       -1   -1    0    0    0  501  0.00000000000E+00  0.00000000000E+00 -0.23198626859E+04  0.23198626859E+04  0.50400001928E-02 0.  1.
    10030    2    1    2    0    0  0.00000000000E+00  0.00000000000E+00 -0.76012673628E+03  0.38795986356E+04  0.38044044104E+04 0.  0.
        2    1    3    3  502    0  0.17588218434E+04 -0.71232003997E+03 -0.24508748317E+03  0.19133535979E+04  0.25500000920E-02 0.  1.
       -2    1    3    3    0  502 -0.17588218434E+04  0.71232003997E+03 -0.51503925311E+03  0.19662450377E+04  0.25500000920E-02 0. -1.
</event>
<event>
 5   0  0.1628250E-08  0.3795827E+04  0.7818609E-02  0.8047051E-01
        1   -1    0    0  501    0  0.00000000000E+00  0.00000000000E+00  0.18653161518E+04  0.18653161518E+04  0.50400001928E-02 0.  1.
       -1   -1    0    0    0  501  0.00000000000E+00  0.00000000000E+00 -0.19310805914E+04  0.19310805914E+04  0.50400001928E-02 0. -1.
    10030    2    1    2    0    0  0.00000000000E+00  0.00000000000E+00 -0.65764439565E+02  0.37963967432E+04  0.37958270864E+04 0.  0.
        5    1    3    3  502    0 -0.53807878210E+03 -0.12140275005E+04 -0.13890584966E+04  0.19216912199E+04  0.46999998093E+01 0. -1.
       -5    1    3    3    0  502  0.53807878210E+03  0.12140275005E+04  0.13232940570E+04  0.18747055233E+04  0.46999998093E+01 0.  1.
</event>
<event>
 5   0  0.5159761E-08  0.3790457E+04  0.7818609E-02  0.8048206E-01
        2   -1    0    0  501    0  0.00000000000E+00  0.00000000000E+00  0.16720981761E+04  0.16720981761E+04  0.25500000920E-02 0.  1.
       -2   -1    0    0    0  501  0.00000000000E+00  0.00000000000E+00 -0.21481343200E+04  0.21481343200E+04  0.25500000920E-02 0. -1.
    10030    2    1    2    0    0  0.00000000000E+00  0.00000000000E+00 -0.47603614393E+03  0.38202324961E+04  0.37904572170E+04 0.  0.
        5    1    3    3  502    0 -0.13025238620E+04  0.66787888866E+03  0.97528184221E+03  0.17589279072E+04  0.46999998093E+01 0. -1.
       -5    1    3    3    0  502  0.13025238620E+04 -0.66787888866E+03 -0.14513179861E+04  0.20613045888E+04  0.46999998093E+01 0.  1.
</event>
<event>
 5   0  0.1628250E-08  0.3822164E+04  0.7818609E-02  0.8041415E-01
       -3   -1    0    0    0  501  0.00000000000E+00  0.00000000000E+00  0.19717277028E+04  0.19717277054E+04  0.10100000352E+00 0.  1.
        3   -1    0    0  501    0  0.00000000000E+00  0.00000000000E+00 -0.18523015369E+04  0.18523015397E+04  0.10100000352E+00 0. -1.
    10030    2    1    2    0    0  0.00000000000E+00  0.00000000000E+00  0.11942616586E+03  0.38240292450E+04  0.38221639234E+04 0.  0.
        5    1    3    3  502    0  0.43132264326E+03 -0.71274609402E+03  0.17804844202E+04  0.19657550910E+04  0.46999998093E+01 0.  1.
       -5    1    3    3    0  502 -0.43132264326E+03  0.71274609402E+03 -0.16610582544E+04  0.18582741540E+04  0.46999998093E+01 0. -1.
</event>
<event>
 5   0  0.5147582E-08  0.3810765E+04  0.7818609E-02  0.8043849E-01
        2   -1    0    0  501    0  0.00000000000E+00  0.00000000000E+00  0.13543519626E+04  0.13543519627E+04  0.25500000920E-02 0. -1.
       -2   -1    0    0    0  501  0.00000000000E+00  0.00000000000E+00 -0.26806051988E+04  0.26806051988E+04  0.25500000920E-02 0.  1.
    10030    2    1    2    0    0  0.00000000000E+00  0.00000000000E+00 -0.13262532362E+04  0.40349571615E+04  0.38107652314E+04 0.  0.
        1    1    3    3  502    0 -0.45357154106E+03 -0.17460025901E+04 -0.13664441494E+02  0.18040063482E+04  0.50400001928E-02 0. -1.
       -1    1    3    3    0  502  0.45357154106E+03  0.17460025901E+04 -0.13125887947E+04  0.22309508133E+04  0.50400001928E-02 0.  1.
</event>
<event>
 5   0  0.1628250E-08  0.3798520E+04  0.7818609E-02  0.8046473E-01
        1   -1    0    0  501    0  0.00000000000E+00  0.00000000000E+00  0.12306520923E+04  0.12306520923E+04  0.50400001928E-02 0.  1.
       -1   -1    0    0    0  501  0.00000000000E+00  0.00000000000E+00 -0.29311192300E+04  0.29311192300E+04  0.50400001928E-02 0. -1.
    10030    2    1    2    0    0  0.00000000000E+00  0.00000000000E+00 -0.17004671377E+04  0.41617713224E+04  0.37985197187E+04 0.  0.
        1    1    3    3  502    0 -0.40099437985E+03  0.13933877696E+04  0.49380636408E+03  0.15317214807E+04  0.50400001928E-02 0.  1.
       -1    1    3    3    0  502  0.40099437985E+03 -0.13933877696E+04 -0.21942735018E+04  0.26300498417E+04  0.50400001928E-02 0. -1.
</event>
<event>
 5   0  0.5207474E-08  0.3799239E+04  0.7818609E-02  0.8046318E-01
        2   -1    0    0  501    0  0.00000000000E+00  0.00000000000E+00  0.21159880158E+04  0.21159880158E+04  0.25500000920E-02 0.  1.
       -2   -1    0    0    0  501  0.00000000000E+00  0.00000000000E+00 -0.17053758916E+04  0.17053758916E+04  0.25500000920E-02 0. -1.
    10030    2    1    2    0    0  0.00000000000E+00  0.00000000000E+00  0.41061212420E+03  0.38213639073E+04  0.37992393707E+04 0.  0.
        4    1    3    3  502    0 -0.77305771064E+03 -0.46941922911E+03 -0.14749250937E+04  0.17301382261E+04  0.12699999809E+01 0. -1.
       -4    1    3    3    0  502  0.77305771064E+03  0.46941922911E+03  0.18855372179E+04  0.20912256812E+04  0.12699999809E+01 0.  1.
</event>
<event>
 5   0  0.5086209E-08  0.3802180E+04  0.7818609E-02  0.8045687E-01
       -2   -1    0    0    0  501  0.00000000000E+00  0.00000000000E+00  0.25312873951E+04  0.25312873951E+04  0.25500000920E-02 0. -1.
        2   -1    0    0  501    0  0.00000000000E+00  0.00000000000E+00 -0.14277886330E+04  0.14277886330E+04  0.25500000920E-02 0.  1.
    10030    2    1    2    0    0  0.00000000000E+00  0.00000000000E+00  0.11034987621E+04  0.39590760281E+04  0.38021800954E+04 0.  0.
        3    1    3    3  502    0  0.11517312138E+04 -0.88659525876E+03  0.18277161396E+04  0.23351835557E+04  0.10100000352E+00 0. -1.
       -3    1    3    3    0  502 -0.11517312138E+04  0.88659525876E+03 -0.72421737756E+03  0.16238924724E+04  0.10100000352E+00 0.  1.
</event>
<event>
 5   0  0.1628473E-08  0.3809622E+04  0.7818609E-02  0.8044093E-01
        1   -1    0    0  501    0  0.00000000000E+00  0.00000000000E+00  0.30097585308E+04  0.30097585309E+04  0.50400001928E-02 0.  1.
       -1   -1    0    0    0  501  0.00000000000E+00  0.00000000000E+00 -0.12055139098E+04  0.12055139098E+04  0.50400001928E-02 0. -1.
    10030    2    1    2    0    0  0.00000000000E+00  0.00000000000E+00  0.18042446211E+04  0.42152724407E+04  0.38096224349E+04 0.  0.
        3    1    3    3  502    0  0.11925256613E+04  0.12527499320E+04  0.19149645168E+02  0.17297012934E+04  0.10100000352E+00 0. -1.
       -3    1    3    3    0  502 -0.11925256613E+04 -0.12527499320E+04  0.17850949759E+04  0.24855711473E+04  0.10100000352E+00 0.  1.
</event>
<event>
 5   0  0.1628250E-08  0.3808835E+04  0.7818609E-02  0.8044261E-01
        1   -1    0    0  501    0  0.00000000000E+00  0.00000000000E+00  0.16285959014E+04  0.16285959014E+04  0.50400001928E-02 0.  1.
       -1   -1    0    0    0  501  0.00000000000E+00  0.00000000000E+00 -0.22269531075E+04  0.22269531075E+04  0.50400001928E-02 0. -1.
    10030    2    1    2    0    0  0.00000000000E+00  0.00000000000E+00 -0.59835720611E+03  0.38555490088E+04  0.38088353618E+04 0.  0.
        5    1    3    3  502    0  0.47298934907E+03  0.10662515940E+04  0.12246656433E+04  0.16912833630E+04  0.46999998093E+01 0.  1.
       -5    1    3    3    0  502 -0.47298934907E+03 -0.10662515940E+04 -0.18230228494E+04  0.21642656458E+04  0.46999998093E+01 0. -1.
</event>
<event>
 5   0  0.1628250E-08  0.3778038E+04  0.7818609E-02  0.8050884E-01
       -1   -1    0    0    0  501  0.00000000000E+00  0.00000000000E+00  0.27033197900E+04  0.27033197900E+04  0.50400001928E-02 0. -1.
        1   -1    0    0  501    0  0.00000000000E+00  0.00000000000E+00 -0.13200041682E+04  0.13200041682E+04  0.50400001928E-02 0.  1.
    10030    2    1    2    0    0  0.00000000000E+00  0.00000000000E+00  0.13833156218E+04  0.40233239582E+04  0.37780383221E+04 0.  0.
        4    1    3    3  502    0  0.66774140644E+03 -0.13128378815E+04 -0.56791369668E+03  0.15785909758E+04  0.12699999809E+01 0.  1.
       -4    1    3    3    0  502 -0.66774140644E+03  0.13128378815E+04  0.19512293185E+04  0.24447329824E+04  0.12699999809E+01 0. -1.
</event>
<event>
 5   0  0.5086209E-08  0.3796521E+04  0.7818609E-02  0.8046902E-01
       -2   -1    0    0    0  501  0.00000000000E+00  0.00000000000E+00  0.15529378565E+04  0.15529378565E+04  0.25500000920E-02 0. -1.
        2   -1    0    0  501    0  0.00000000000E+00  0.00000000000E+00 -0.23203719535E+04  0.23203719535E+04  0.25500000920E-02 0.  1.
    10030    2    1    2    0    0  0.00000000000E+00  0.00000000000E+00 -0.76743409704E+03  0.38733098101E+04  0.37965212750E+04 0.  0.
        3    1    3    3  502    0  0.32481345881E+03 -0.18701440495E+04 -0.40538067232E+03  0.19409472040E+04  0.10100000352E+00 0. -1.
       -3    1    3    3    0  502 -0.32481345881E+03  0.18701440495E+04 -0.36205342472E+03  0.19323626061E+04  0.10100000352E+00 0.  1.
</event>
<event>
 5   0  0.5140842E-08  0.3805576E+04  0.7818609E-02  0.8044959E-01
       -2   -1    0    0    0  501  0.00000000000E+00  0.00000000000E+00  0.18427351800E+04  0.18427351800E+04  0.25500000920E-02 0.  1.
        2   -1    0    0  501    0  0.00000000000E+00  0.00000000000E+00 -0.19647979375E+04  0.19647979375E+04  0.25500000920E-02 0. -1.
    10030    2    1    2    0    0  0.00000000000E+00  0.00000000000E+00 -0.12206275758E+03  0.38075331175E+04  0.38055760568E+04 0.  0.
        2    1    3    3  502    0  0.99347725637E+03 -0.15864601643E+04 -0.40289316271E+03  0.19147260411E+04  0.25500000920E-02 0. -1.
       -2    1    3    3    0  502 -0.99347725637E+03  0.15864601643E+04  0.28083040513E+03  0.18928070764E+04  0.25500000920E-02 0.  1.
</event>
<event>
 5   0  0.5086209E-08  0.3814004E+04  0.7818609E-02  0.8043156E-01
       -2   -1    0    0    0  501  0.00000000000E+00  0.00000000000E+00  0.15599952206E+04  0.15599952206E+04  0.25500000920E-02 0.  1.
        2   -1    0    0  501    0  0.00000000000E+00  0.00000000000E+00 -0.23311968309E+04  0.23311968309E+04  0.25500000920E-02 0. -1.
    10030    2    1    2    0    0  0.00000000000E+00  0.00000000000E+00 -0.77120161027E+03  0.38911920516E+04  0.38140036259E+04 0.  0.
        3    1    3    3  502    0  0.35914275521E+02 -0.11212172367E+04  0.11877632334E+04  0.16337684768E+04  0.10100000352E+00 0.  1.
       -3    1    3    3    0  502 -0.35914275521E+02  0.11212172367E+04 -0.19589648437E+04  0.22574235748E+04  0.10100000352E+00 0. -1.
</event>
<event>
 5   0  0.5140842E-08  0.3800809E+04  0.7818609E-02  0.8045981E-01
        2   -1    0    0  501    0  0.00000000000E+00  0.00000000000E+00  0.21206593043E+04  0.21206593043E+04  0.25500000920E-02 0. -1.
       -2   -1    0    0    0  501  0.00000000000E+00  0.00000000000E+00 -0.17030258869E+04  0.17030258869E+04  0.25500000920E-02 0.  1.
    10030    2    1    2    0    0  0.00000000000E+00  0.00000000000E+00  0.41763341742E+03  0.38236851912E+04  0.38008092257E+04 0.  0.
        2    1    3    3  502    0  0.16675991554E+04 -0.77450305054E+03 -0.27448683968E+03  0.18590548522E+04  0.25500000920E-02 0. -1.
       -2    1    3    3    0  502 -0.16675991554E+04  0.77450305054E+03  0.69212025710E+03  0.19646303390E+04  0.25500000920E-02 0.  1.
</event>
<event>
 5   0  0.5086209E-08  0.3809791E+04  0.7818609E-02  0.8044057E-01
       -2   -1    0    0    0  501  0.00000000000E+00  0.00000000000E+00  0.24638604704E+04  0.24638604704E+04  0.25500000920E-02 0. -1.
        2   -1    0    0  501    0  0.00000000000E+00  0.00000000000E+00 -0.14727405262E+04  0.14727405262E+04  0.25500000920E-02 0.  1.
    10030    2    1    2    0    0  0.00000000000E+00  0.00000000000E+00  0.99111994418E+03  0.39366009966E+04  0.38097911574E+04 0.  0.
        3    1    3    3  502    0  0.76587567758E+03  0.14222055953E+04 -0.54769633624E+03  0.17056393510E+04  0.10100000352E+00 0. -1.
       -3    1    3    3    0  502 -0.76587567758E+03 -0.14222055953E+04  0.15388162804E+04  0.22309616456E+04  0.10100000352E+00 0.  1.
</event>
<event>
 5   0  0.5159761E-08  0.3799740E+04  0.7818609E-02  0.8046211E-01
       -2   -1    0    0    0  501  0.00000000000E+00  0.00000000000E+00  0.17245791957E+04  0.17245791957E+04  0.25500000920E-02 0. -1.
        2   -1    0    0  501    0  0.00000000000E+00  0.00000000000E+00 -0.20929773424E+04  0.20929773424E+04  0.25500000920E-02 0.  1.
    10030    2    1    2    0    0  0.00000000000E+00  0.00000000000E+00 -0.36839814671E+03  0.38175565381E+04  0.37997395605E+04 0.  0.
        5    1    3    3  502    0 -0.38546707152E+03  0.72609712763E+03  0.15366314681E+04  0.17427163454E+04  0.46999998093E+01 0. -1.
       -5    1    3    3    0  502  0.38546707152E+03 -0.72609712763E+03 -0.19050296148E+04  0.20748401927E+04  0.46999998093E+01 0.  1.
</event>
<event>
 5   0  0.5207474E-08  0.3799082E+04  0.7818609E-02  0.8046352E-01
        2   -1    0    0  501    0  0.00000000000E+00  0.00000000000E+00  0.22014771083E+04  0.22014771083E+04  0.25500000920E-02 0.  1.
       -2   -1    0    0    0  501  0.00000000000E+00  0.00000000000E+00 -0.16390159912E+04  0.16390159913E+04  0.25500000920E-02 0. -1.
    10030    2    1    2    0    0  0.00000000000E+00  0.00000000000E+00  0.56246111702E+03  0.38404930995E+04  0.37990820917E+04 0.  0.
        4    1    3    3  502    0  0.80723953461E+03  0.14294898171E+04 -0.68478912593E+03  0.17787677092E+04  0.12699999809E+01 0. -1.
       -4    1    3    3    0  502 -0.80723953461E+03 -0.14294898171E+04  0.12472502429E+04  0.20617253903E+04  0.12699999809E+01 0.  1.
</event>
<event>
 5   0  0.5207474E-08  0.3798048E+04  0.7818609E-02  0.8046574E-01
       -2   -1    0    0    0  501  0.00000000000E+00  0.00000000000E+00  0.21392672803E+04  0.21392672803E+04  0.25500000920E-02 0. -1.
        2   -1    0    0  501    0  0.00000000000E+00  0.00000000000E+00 -0.16857603440E+04  0.16857603440E+04  0.25500000920E-02 0.  1.
    10030    2    1    2    0    0  0.00000000000E+00  0.00000000000E+00  0.45350693632E+03  0.38250276243E+04  0.37980478914E+04 0.  0.
        4    1    3    3  502    0 -0.15555533584E+04 -0.99898238691E+03 -0.21058730333E+03  0.18606613570E+04  0.12699999809E+01 0. -1.
       -4    1    3    3    0  502  0.15555533584E+04  0.99898238691E+03  0.66409423965E+03  0.19643662673E+04  0.12699999809E+01 0.  1.
</event>
<event>
 5   0  0.1628250E-08  0.3798182E+04  0.7818609E-02  0.8046545E-01
        1   -1    0    0  501    0  0.00000000000E+00  0.00000000000E+00  0.14608042241E+04  0.14608042241E+04  0.50400001928E-02 0. -1.
       -1   -1    0    0    0  501  0.00000000000E+00  0.00000000000E+00 -0.24688771782E+04  0.24688771782E+04  0.50400001928E-02 0.  1.
    10030    2    1    2    0    0  0.00000000000E+00  0.00000000000E+00 -0.10080729541E+04  0.39296814024E+04  0.37981817812E+04 0.  0.
        1    1    3    3  502    0  0.41110872846E+02  0.16508270271E+03 -0.24609774098E+04  0.24668506671E+04  0.50400001928E-02 0.  1.
       -1    1    3    3    0  502 -0.41110872846E+02 -0.16508270271E+03  0.14529044557E+04  0.14628307352E+04  0.50400001928E-02 0. -1.
</event>
<event>
 5   0  0.5140842E-08  0.3775471E+04  0.7818609E-02  0.8051439E-01
       -2   -1    0    0    0  501  0.00000000000E+00  0.00000000000E+00  0.18084704653E+04  0.18084704653E+04  0.25500000920E-02 0.  1.
        2   -1    0    0  501    0  0.00000000000E+00  0.00000000000E+00 -0.19704750131E+04  0.19704750131E+04  0.25500000920E-02 0. -1.
    10030    2    1    2    0    0  0.00000000000E+00  0.00000000000E+00 -0.16200454780E+03  0.37789454785E+04  0.37754712892E+04 0.  0.
        2    1    3    3  502    0 -0.18808661774E+04  0.55190352830E+02 -0.23227808186E+03  0.18959579794E+04  0.25500000920E-02 0. -1.
       -2    1    3    3    0  502  0.18808661774E+04 -0.55190352830E+02  0.70273534064E+02  0.18829874991E+04  0.25500000920E-02 0.  1.
</event>
<event>
 5   0  0.1628250E-08  0.3796425E+04  0.7818609E-02  0.8046923E-01
       -1   -1    0    0    0  501  0.00000000000E+00  0.00000000000E+00  0.14862276539E+04  0.14862276539E+04  0.50400001928E-02 0. -1.
        1   -1    0    0  501    0  0.00000000000E+00  0.00000000000E+00 -0.24243997376E+04  0.24243997376E+04  0.50400001928E-02 0.  1.
    10030    2    1    2    0    0  0.00000000000E+00  0.00000000000E+00 -0.93817208377E+03  0.39106273915E+04  0.37964245990E+04 0.  0.
        5    1    3    3  502    0 -0.11942072616E+04  0.70321116823E+03  0.86706565171E+03  0.16347666088E+04  0.46999998093E+01 0. -1.
       -5    1    3    3    0  502  0.11942072616E+04 -0.70321116823E+03 -0.18052377355E+04  0.22758607827E+04  0.46999998093E+01 0.  1.
</event>
<event>
 5   0  0.1628250E-08  0.3801744E+04  0.7818609E-02  0.8045781E-01
       -1   -1    0    0    0  501  0.00000000000E+00  0.00000000000E+00  0.14411861471E+04  0.14411861471E+04  0.50400001928E-02 0.  1.
        1   -1    0    0  501    0  0.00000000000E+00  0.00000000000E+00 -0.25071814439E+04  0.25071814439E+04  0.50400001928E-02 0. -1.
    10030    2    1    2    0    0  0.00000000000E+00  0.00000000000E+00 -0.10659952968E+04  0.39483675910E+04  0.38017444234E+04 0.  0.
        1    1    3    3  502    0 -0.11877877647E+04 -0.69631288049E+03  0.82812945173E+03  0.16067015250E+04  0.50400001928E-02 0.  1.
       -1    1    3    3    0  502  0.11877877647E+04  0.69631288049E+03 -0.18941247485E+04  0.23416660660E+04  0.50400001928E-02 0. -1.
</event>
<event>
 5   0  0.1628250E-08  0.3803466E+04  0.7818609E-02  0.8045412E-01
        1   -1    0    0  501    0  0.00000000000E+00  0.00000000000E+00  0.14922140749E+04  0.14922140749E+04  0.50400001928E-02 0. -1.
       -1   -1    0    0    0  501  0.00000000000E+00  0.00000000000E+00 -0.24236387684E+04  0.24236387684E+04  0.50400001928E-02 0.  1.
    10030    2    1    2    0    0  0.00000000000E+00  0.00000000000E+00 -0.93142469352E+03  0.39158528434E+04  0.38034657263E+04 0.  0.
        5    1    3    3  502    0 -0.38061915742E+03 -0.16508548618E+04 -0.13551691018E+04  0.21694925910E+04  0.46999998093E+01 0.  1.
       -5    1    3    3    0  502  0.38061915742E+03  0.16508548618E+04  0.42374440832E+03  0.17463602524E+04  0.46999998093E+01 0. -1.
</event>
<event>
 5   0  0.5147582E-08  0.3798173E+04  0.7818609E-02  0.8046547E-01
       -2   -1    0    0    0  501  0.00000000000E+00  0.00000000000E+00  0.19322919382E+04  0.19322919382E+04  0.25500000920E-02 0.  1.
        2   -1    0    0  501    0  0.00000000000E+00  0.00000000000E+00 -0.18664516354E+04  0.18664516354E+04  0.25500000920E-02 0. -1.
    10030    2    1    2    0    0  0.00000000000E+00  0.00000000000E+00  0.65840302768E+02  0.37987435736E+04  0.37981729545E+04 0.  0.
        1    1    3    3  502    0  0.22606155834E+03 -0.18399916441E+04  0.44511841682E+03  0.19065160591E+04  0.50400001928E-02 0.  1.
       -1    1    3    3    0  502 -0.22606155834E+03  0.18399916441E+04 -0.37927811406E+03  0.18922275145E+04  0.50400001928E-02 0. -1.
</event>
<event>
 5   0  0.5086209E-08  0.3805058E+04  0.7818609E-02  0.8045070E-01
        2   -1    0    0  501    0  0.00000000000E+00  0.00000000000E+00  0.24783247822E+04  0.24783247822E+04  0.25500000920E-02 0. -1.
       -2   -1    0    0    0  501  0.00000000000E+00  0.00000000000E+00 -0.14605097627E+04  0.14605097627E+04  0.25500000920E-02 0.  1.
    10030    2    1    2    0    0  0.00000000000E+00  0.00000000000E+00  0.10178150195E+04  0.39388345449E+04  0.38050584961E+04 0.  0.
        3    1    3    3  502    0  0.12243671838E+04  0.79650298240E+03  0.17708342630E+04  0.22955056086E+04  0.10100000352E+00 0. -1.
       -3    1    3    3    0  502 -0.12243671838E+04 -0.79650298240E+03 -0.75301924351E+03  0.16433289364E+04  0.10100000352E+00 0.  1.
</event>
<event>
 5   0  0.5159761E-08  0.3793967E+04  0.7818609E-02  0.8047451E-01
       -2   -1    0    0    0  501  0.00000000000E+00  0.00000000000E+00  0.23871224242E+04  0.23871224242E+04  0.25500000920E-02 0.  1.
        2   -1    0    0  501    0  0.00000000000E+00  0.00000000000E+00 -0.15074832982E+04  0.15074832982E+04  0.25500000920E-02 0. -1.
    10030    2    1    2    0    0  0.00000000000E+00  0.00000000000E+00  0.87963912598E+03  0.38946057224E+04  0.37939674143E+04 0.  0.
        5    1    3    3  502    0 -0.60893628071E+03 -0.11162480006E+04  0.18848938783E+04  0.22736886364E+04  0.46999998093E+01 0.  1.
       -5    1    3    3    0  502  0.60893628071E+03  0.11162480006E+04 -0.10052547523E+04  0.16209170860E+04  0.46999998093E+01 0. -1.
</event>
<event>
 5   0  0.1628250E-08  0.3874851E+04  0.7818609E-02  0.8030280E-01
       -1   -1    0    0    0  501  0.00000000000E+00  0.00000000000E+00  0.27488468725E+04  0.27488468725E+04  0.50400001928E-02 0.  1.
        1   -1    0    0  501    0  0.00000000000E+00  0.00000000000E+00 -0.13655246521E+04  0.13655246521E+04  0.50400001928E-02 0. -1.
    10030    2    1    2    0    0  0.00000000000E+00  0.00000000000E+00  0.13833222204E+04  0.41143715246E+04  0.38748513103E+04 0.  0.
        5    1    3    3  502    0 -0.14371534989E+04 -0.30031460488E+03 -0.65059827287E+03  0.16058951535E+04  0.46999998093E+01 0. -1.
       -5    1    3    3    0  502  0.14371534989E+04  0.30031460488E+03  0.20339204933E+04  0.25084763711E+04  0.46999998093E+01 0.  1.
</event>
<event>
 5   0  0.5086209E-08  0.3800763E+04  0.7818609E-02  0.8045991E-01
       -2   -1    0    0    0  501  0.00000000000E+00  0.00000000000E+00  0.24630048976E+04  0.24630048976E+04  0.25500000920E-02 0.  1.
        2   -1    0    0  501    0  0.00000000000E+00  0.00000000000E+00 -0.14662778413E+04  0.14662778413E+04  0.25500000920E-02 0. -1.
    10030    2    1    2    0    0  0.00000000000E+00  0.00000000000E+00  0.99672705629E+03  0.39292827389E+04  0.38007628205E+04 0.  0.
        3    1    3    3  502    0  0.18970690204E+04 -0.10735229234E+03  0.53192846007E+03  0.19731556653E+04  0.10100000352E+00 0. -1.
       -3    1    3    3    0  502 -0.18970690204E+04  0.10735229234E+03  0.46479859622E+03  0.19561270736E+04  0.10100000352E+00 0.  1.
</event>
<event>
 5   0  0.5207474E-08  0.3800022E+04  0.7818609E-02  0.8046150E-01
       -2   -1    0    0    0  501  0.00000000000E+00  0.00000000000E+00  0.12544537376E+04  0.12544537376E+04  0.25500000920E-02 0.  1.
        2   -1    0    0  501    0  0.00000000000E+00  0.00000000000E+00 -0.28777797197E+04  0.28777797197E+04  0.25500000920E-02 0. -1.
    10030    2    1    2    0    0  0.00000000000E+00  0.00000000000E+00 -0.16233259821E+04  0.41322334573E+04  0.38000218554E+04 0.  0.
        4    1    3    3  502    0  0.11096254921E+03 -0.18718543041E+04 -0.47846268364E+03  0.19352207563E+04  0.12699999809E+01 0.  1.
       -4    1    3    3    0  502 -0.11096254921E+03  0.18718543041E+04 -0.11448632985E+04  0.21970127010E+04  0.12699999809E+01 0. -1.
</event>
<event>
 5   0  0.5159761E-08  0.3796815E+04  0.7818609E-02  0.8046839E-01
       -2   -1    0    0    0  501  0.00000000000E+00  0.00000000000E+00  0.14344818800E+04  0.14344818800E+04  0.25500000920E-02 0. -1.
        2   -1    0    0  501    0  0.00000000000E+00  0.00000000000E+00 -0.25123706474E+04  0.25123706474E+04  0.25500000920E-02 0.  1.
    10030    2    1    2    0    0  0.00000000000E+00  0.00000000000E+00 -0.10778887674E+04  0.39468525274E+04  0.37968145435E+04 0.  0.
        5    1    3    3  502    0  0.12399868125E+04  0.13903432939E+04 -0.91848378462E+03  0.20770787955E+04  0.46999998093E+01 0.  1.
       -5    1    3    3    0  502 -0.12399868125E+04 -0.13903432939E+04 -0.15940498281E+03  0.18697737319E+04  0.46999998093E+01 0. -1.
</event>
<event>
 5   0  0.1628250E-08  0.3804311E+04  0.7818609E-02  0.8045230E-01
       -1   -1    0    0    0  501  0.00000000000E+00  0.00000000000E+00  0.18497860291E+04  0.18497860291E+04  0.50400001928E-02 0. -1.
        1   -1    0    0  501    0  0.00000000000E+00  0.00000000000E+00 -0.19560077184E+04  0.19560077184E+04  0.50400001928E-02 0.  1.
    10030    2    1    2    0    0  0.00000000000E+00  0.00000000000E+00 -0.10622168934E+03  0.38057937475E+04  0.38043111073E+04 0.  0.
        5    1    3    3  502    0  0.17745813821E+04  0.63823942647E+03  0.19535062705E+03  0.18959621844E+04  0.46999998093E+01 0. -1.
       -5    1    3    3    0  502 -0.17745813821E+04 -0.63823942647E+03 -0.30157231639E+03  0.19098315631E+04  0.46999998093E+01 0.  1.
</event>
<event>
 5   0  0.5086209E-08  0.3800274E+04  0.7818609E-02  0.8046096E-01
       -2   -1    0    0    0  501  0.00000000000E+00  0.00000000000E+00  0.19346071184E+04  0.19346071184E+04  0.25500000920E-02 0. -1.
        2   -1    0    0  501    0  0.00000000000E+00  0.00000000000E+00 -0.18662810115E+04  0.18662810115E+04  0.25500000920E-02 0.  1.
    10030    2    1    2    0    0  0.00000000000E+00  0.00000000000E+00  0.68326106891E+02  0.38008881299E+04  0.38002739532E+04 0.  0.
        3    1    3    3  502    0  0.38378514619E+03  0.13087322184E+03 -0.18225048345E+04  0.18670679475E+04  0.10100000352E+00 0.  1.
       -3    1    3    3    0  502 -0.38378514619E+03 -0.13087322184E+03  0.18908309414E+04  0.19338201824E+04  0.10100000352E+00 0. -1.
</event>
<event>
 5   0  0.5147582E-08  0.3812412E+04  0.7818609E-02  0.8043497E-01
       -2   -1    0    0    0  501  0.00000000000E+00  0.00000000000E+00  0.14178067157E+04  0.14178067157E+04  0.25500000920E-02 0. -1.
        2   -1    0    0  501    0  0.00000000000E+00  0.00000000000E+00 -0.25628463844E+04  0.25628463844E+04  0.25500000920E-02 0.  1.
    10030    2    1    2    0    0  0.00000000000E+00  0.00000000000E+00 -0.11450396687E+04  0.39806531001E+04  0.38124117381E+04 0.  0.
        1    1    3    3  502    0  0.14443300870E+04 -0.64121288463E+03  0.54053314847E+03  0.16701555162E+04  0.50400001928E-02 0. -1.
       -1    1    3    3    0  502 -0.14443300870E+04  0.64121288463E+03 -0.16855728172E+04  0.23104975840E+04  0.50400001928E-02 0.  1.
</event>
<event>
 5   0  0.5207474E-08  0.3806486E+04  0.7818609E-02  0.8044764E-01
        2   -1    0    0  501    0  0.00000000000E+00  0.00000000000E+00  0.22047031537E+04  0.22047031537E+04  0.25500000920E-02 0. -1.
       -2   -1    0    0    0  501  0.00000000000E+00  0.00000000000E+00 -0.16430029909E+04  0.16430029909E+04  0.25500000920E-02 0.  1.
    10030    2    1    2    0    0  0.00000000000E+00  0.00000000000E+00  0.56170016276E+03  0.38477061446E+04  0.38064859783E+04 0.  0.
        4    1    3    3  502    0 -0.11394204772E+04  0.16079557404E+03 -0.12515472458E+04  0.17001489235E+04  0.12699999809E+01 0.  1.
       -4    1    3    3    0  502  0.11394204772E+04 -0.16079557404E+03  0.18132474086E+04  0.21475572212E+04  0.12699999809E+01 0. -1.
</event>
<event>
 5   0  0.5147582E-08  0.3801375E+04  0.7818609E-02  0.8045860E-01
        2   -1    0    0  501    0  0.00000000000E+00  0.00000000000E+00  0.22183823302E+04  0.22183823302E+04  0.25500000920E-02 0.  1.
       -2   -1    0    0    0  501  0.00000000000E+00  0.00000000000E+00 -0.16284894172E+04  0.16284894172E+04  0.25500000920E-02 0. -1.
    10030    2    1    2    0    0  0.00000000000E+00  0.00000000000E+00  0.58989291303E+03  0.38468717474E+04  0.38013745661E+04 0.  0.
        1    1    3    3  502    0 -0.16204514567E+04  0.31119273145E+03 -0.65969364424E+03  0.17770479858E+04  0.50400001928E-02 0. -1.
       -1    1    3    3    0  502  0.16204514567E+04 -0.31119273145E+03  0.12495865573E+04  0.20698237615E+04  0.50400001928E-02 0.  1.
</event>
<event>
 5   0  0.5086209E-08  0.3802023E+04  0.7818609E-02  0.8045721E-01
        2   -1    0    0  501    0  0.00000000000E+00  0.00000000000E+00  0.22815683037E+04  0.22815683037E+04  0.25500000920E-02 0. -1.
       -2   -1    0    0    0  501  0.00000000000E+00  0.00000000000E+00 -0.15839301683E+04  0.15839301683E+04  0.25500000920E-02 0.  1.
    10030    2    1    2    0    0  0.00000000000E+00  0.00000000000E+00  0.69763813539E+03  0.38654984720E+04  0.38020230759E+04 0.  0.
        3    1    3    3  502    0 -0.13208381254E+04  0.12025011255E+04 -0.31259763148E+03  0.18133779528E+04  0.10100000352E+00 0.  1.
       -3    1    3    3    0  502  0.13208381254E+04 -0.12025011255E+04  0.10102357669E+04  0.20521205192E+04  0.10100000352E+00 0. -1.
</event>
<event>
 5   0  0.5140842E-08  0.3800383E+04  0.7818609E-02  0.8046073E-01
       -2   -1    0    0    0  501  0.00000000000E+00  0.00000000000E+00  0.19720088080E+04  0.19720088080E+04  0.25500000920E-02 0. -1.
        2   -1    0    0  501    0  0.00000000000E+00  0.00000000000E+00 -0.18309898440E+04  0.18309898440E+04  0.25500000920E-02 0.  1.
    10030    2    1    2    0    0  0.00000000000E+00  0.00000000000E+00  0.14101896396E+03  0.38029986520E+04  0.38003831910E+04 0.  0.
        2    1    3    3  502    0 -0.24915441002E+03  0.18486144406E+04  0.43307751852E+03  0.19149437086E+04  0.25500000920E-02 0.  1.
       -2    1    3    3    0  502  0.24915441002E+03 -0.18486144406E+04 -0.29205855456E+03  0.18880549434E+04  0.25500000920E-02 0. -1.
</event>
<event>
 5   0  0.5147582E-08  0.3798654E+04  0.7818609E-02  0.8046444E-01
       -2   -1    0    0    0  501  0.00000000000E+00  0.00000000000E+00  0.15649772333E+04  0.15649772333E+04  0.25500000920E-02 0. -1.
        2   -1    0    0  501    0  0.00000000000E+00  0.00000000000E+00 -0.23051086396E+04  0.23051086396E+04  0.25500000920E-02 0.  1.
    10030    2    1    2    0    0  0.00000000000E+00  0.00000000000E+00 -0.74013140625E+03  0.38700858729E+04  0.37986537306E+04 0.  0.
        1    1    3    3  502    0 -0.15417694841E+03  0.18361464100E+04 -0.83942221373E+03  0.20248046383E+04  0.50400001928E-02 0. -1.
       -1    1    3    3    0  502  0.15417694841E+03 -0.18361464100E+04  0.99290807481E+02  0.18452812346E+04  0.50400001928E-02 0.  1.
</event>
<event>
 5   0  0.5140842E-08  0.3816947E+04  0.7818609E-02  0.8042528E-01
        2   -1    0    0  501    0  0.00000000000E+00  0.00000000000E+00  0.20896012342E+04  0.20896012342E+04  0.25500000920E-02 0. -1.
       -2   -1    0    0    0  501  0.00000000000E+00  0.00000000000E+00 -0.17430462363E+04  0.17430462363E+04  0.25500000920E-02 0.  1.
    10030    2    1    2    0    0  0.00000000000E+00  0.00000000000E+00  0.34655499786E+03  0.38326474705E+04  0.38169472444E+04 0.  0.
        2    1    3    3  502    0  0.98821385355E+03 -0.13532628939E+04 -0.74392626290E+03  0.18333884927E+04  0.25500000920E-02 0.  1.
       -2    1    3    3    0  502 -0.98821385355E+03  0.13532628939E+04  0.10904812608E+04  0.19992589778E+04  0.25500000920E-02 0. -1.
</event>
<event>
 5   0  0.1628250E-08  0.3793138E+04  0.7818609E-02  0.8047629E-01
       -1   -1    0    0    0  501  0.00000000000E+00  0.00000000000E+00  0.16894322886E+04  0.16894322886E+04  0.50400001928E-02 0. -1.
        1   -1    0    0  501    0  0.00000000000E+00  0.00000000000E+00 -0.21291024382E+04  0.21291024382E+04  0.50400001928E-02 0.  1.
    10030    2    1    2    0    0  0.00000000000E+00  0.00000000000E+00 -0.43967014961E+03  0.38185347267E+04  0.37931382283E+04 0.  0.
        1    1    3    3  502    0  0.13100254197E+03  0.31906758633E+03  0.16575934056E+04  0.16930982514E+04  0.50400001928E-02 0. -1.
       -1    1    3    3    0  502 -0.13100254197E+03 -0.31906758633E+03 -0.20972635552E+04  0.21254364753E+04  0.50400001928E-02 0.  1.
</event>
<event>
 5   0  0.1666051E-08  0.3799221E+04  0.7818609E-02  0.8046322E-01
        1   -1    0    0  501    0  0.00000000000E+00  0.00000000000E+00  0.23171693872E+04  0.23171693872E+04  0.50400001928E-02 0. -1.
       -1   -1    0    0    0  501  0.00000000000E+00  0.00000000000E+00 -0.15572966657E+04  0.15572966657E+04  0.50400001928E-02 0.  1.
    10030    2    1    2    0    0  0.00000000000E+00  0.00000000000E+00  0.75987272153E+03  0.38744660529E+04  0.37992210573E+04 0.  0.
        2    1    3    3  502    0  0.30458454468E+03 -0.84981296676E+03  0.20844355178E+04  0.22715248735E+04  0.25500000920E-02 0.  1.
       -2    1    3    3    0  502 -0.30458454468E+03  0.84981296676E+03 -0.13245627962E+04  0.16029411794E+04  0.25500000920E-02 0. -1.
</event>
<event>
 5   0  0.1628250E-08  0.3795088E+04  0.7818609E-02  0.8047210E-01
        1   -1    0    0  501    0  0.00000000000E+00  0.00000000000E+00  0.29041620008E+04  0.29041620008E+04  0.50400001928E-02 0. -1.
       -1   -1    0    0    0  501  0.00000000000E+00  0.00000000000E+00 -0.12398317769E+04  0.12398317769E+04  0.50400001928E-02 0.  1.
    10030    2    1    2    0    0  0.00000000000E+00  0.00000000000E+00  0.16643302239E+04  0.41439937777E+04  0.37950875267E+04 0.  0.
        4    1    3    3  502    0 -0.37387491108E+03 -0.51477302908E+03 -0.11198972380E+04  0.12880004492E+04  0.12699999809E+01 0.  1.
       -4    1    3    3    0  502  0.37387491108E+03  0.51477302908E+03  0.27842274618E+04  0.28559933285E+04  0.12699999809E+01 0. -1.
</event>
<event>
 5   0  0.1628250E-08  0.3801652E+04  0.7818609E-02  0.8045800E-01
       -3   -1    0    0    0  501  0.00000000000E+00  0.00000000000E+00  0.28590239297E+04  0.28590239314E+04  0.10100000352E+00 0.  1.
        3   -1    0    0  501    0  0.00000000000E+00  0.00000000000E+00 -0.12637670830E+04  0.12637670870E+04  0.10100000352E+00 0. -1.
    10030    2    1    2    0    0  0.00000000000E+00  0.00000000000E+00  0.15952568467E+04  0.41227910184E+04  0.38016524532E+04 0.  0.
        1    1    3    3  502    0 -0.14063993170E+04  0.11524438699E+04  0.19669467475E+03  0.18288725236E+04  0.50400001928E-02 0. -1.
       -1    1    3    3    0  502  0.14063993170E+04 -0.11524438699E+04  0.13985621719E+04  0.22939184949E+04  0.50400001928E-02 0.  1.
</event>
<event>
 5   0  0.5086209E-08  0.3808481E+04  0.7818609E-02  0.8044337E-01
       -2   -1    0    0    0  501  0.00000000000E+00  0.00000000000E+00  0.15183980068E+04  0.15183980068E+04  0.25500000920E-02 0. -1.
        2   -1    0    0  501    0  0.00000000000E+00  0.00000000000E+00 -0.23881300143E+04  0.23881300143E+04  0.25500000920E-02 0.  1.
    10030    2    1    2    0    0  0.00000000000E+00  0.00000000000E+00 -0.86973200752E+03  0.39065280211E+04  0.38084809852E+04 0.  0.
        3    1    3    3  502    0  0.16240487201E+04 -0.35351484982E+03 -0.13881048167E+04  0.21654888562E+04  0.10100000352E+00 0.  1.
       -3    1    3    3    0  502 -0.16240487201E+04  0.35351484982E+03  0.51837280914E+03  0.17410391649E+04  0.10100000352E+00 0. -1.
</event>
<event>
 5   0  0.5086209E-08  0.3803003E+04  0.7818609E-02  0.8045511E-01
        2   -1    0    0  501    0  0.00000000000E+00  0.00000000000E+00  0.21199142162E+04  0.21199142162E+04  0.25500000920E-02 0. -1.
       -2   -1    0    0    0  501  0.00000000000E+00  0.00000000000E+00 -0.17055916913E+04  0.17055916913E+04  0.25500000920E-02 0.  1.
    10030    2    1    2    0    0  0.00000000000E+00  0.00000000000E+00  0.41432252493E+03  0.38255059075E+04  0.38030030626E+04 0.  0.
        3    1    3    3  502    0  0.16922076252E+04  0.54398232931E+03  0.88660198237E+03  0.19863399777E+04  0.10100000352E+00 0. -1.
       -3    1    3    3    0  502 -0.16922076252E+04 -0.54398232931E+03 -0.47227945744E+03  0.18391659299E+04  0.10100000352E+00 0.  1.
</event>
<event>
 5   0  0.1628473E-08  0.3801023E+04  0.7818609E-02  0.8045935E-01
       -1   -1    0    0    0  501  0.00000000000E+00  0.00000000000E+00  0.12693279870E+04  0.12693279870E+04  0.50400001928E-02 0.  1.
        1   -1    0    0  501    0  0.00000000000E+00  0.00000000000E+00 -0.28455561154E+04  0.28455561154E+04  0.50400001928E-02 0. -1.
    10030    2    1    2    0    0  0.00000000000E+00  0.00000000000E+00 -0.15762281284E+04  0.41148841025E+04  0.38010230286E+04 0.  0.
        3    1    3    3  502    0  0.11797731613E+04 -0.10569731466E+04  0.34878688124E+03  0.16219461284E+04  0.10100000352E+00 0.  1.
       -3    1    3    3    0  502 -0.11797731613E+04  0.10569731466E+04 -0.19250150096E+04  0.24929379740E+04  0.10100000352E+00 0. -1.
</event>
<event>
 5   0  0.1628250E-08  0.3801093E+04  0.7818609E-02  0.8045920E-01
       -1   -1    0    0    0  501  0.00000000000E+00  0.00000000000E+00  0.16145839719E+04  0.16145839720E+04  0.50400001928E-02 0. -1.
        1   -1    0    0  501    0  0.00000000000E+00  0.00000000000E+00 -0.22371563244E+04  0.22371563244E+04  0.50400001928E-02 0.  1.
    10030    2    1    2    0    0  0.00000000000E+00  0.00000000000E+00 -0.62257235247E+03  0.38517402964E+04  0.38010928661E+04 0.  0.
        4    1    3    3  502    0  0.73050957886E+03  0.13996363281E+04 -0.13834241544E+04  0.20991641431E+04  0.12699999809E+01 0.  1.
       -4    1    3    3    0  502 -0.73050957886E+03 -0.13996363281E+04  0.76085180197E+03  0.17525761533E+04  0.12699999809E+01 0. -1.
</event>
<event>
 5   0  0.1628250E-08  0.3797176E+04  0.7818609E-02  0.8046761E-01
        3   -1    0    0  501    0  0.00000000000E+00  0.00000000000E+00  0.18994257739E+04  0.18994257766E+04  0.10100000352E+00 0.  1.
       -3   -1    0    0    0  501  0.00000000000E+00  0.00000000000E+00 -0.18977506782E+04  0.18977506809E+04  0.10100000352E+00 0. -1.
    10030    2    1    2    0    0  0.00000000000E+00  0.00000000000E+00  0.16750956412E+01  0.37971764575E+04  0.37971760880E+04 0.  0.
        4    1    3    3  502    0  0.10394174233E+04 -0.93578160074E+03  0.12847999634E+04  0.18991546390E+04  0.12699999809E+01 0.  1.
       -4    1    3    3    0  502 -0.10394174233E+04  0.93578160074E+03 -0.12831248678E+04  0.18980218184E+04  0.12699999809E+01 0. -1.
</event>
<event>
 5   0  0.5207474E-08  0.3796115E+04  0.7818609E-02  0.8046989E-01
       -2   -1    0    0    0  501  0.00000000000E+00  0.00000000000E+00  0.13736489370E+04  0.13736489370E+04  0.25500000920E-02 0.  1.
        2   -1    0    0  501    0  0.00000000000E+00  0.00000000000E+00 -0.26226660480E+04  0.26226660480E+04  0.25500000920E-02 0. -1.
    10030    2    1    2    0    0  0.00000000000E+00  0.00000000000E+00 -0.12490171110E+04  0.39963149850E+04  0.37961150820E+04 0.  0.
        4    1    3    3  502    0 -0.43664644618E+03  0.59965645420E+03 -0.24637516386E+04  0.25729985875E+04  0.12699999809E+01 0. -1.
       -4    1    3    3    0  502  0.43664644618E+03 -0.59965645420E+03  0.12147345275E+04  0.14233163975E+04  0.12699999809E+01 0.  1.
</event>
<event>
 5   0  0.5207474E-08  0.3787374E+04  0.7818609E-02  0.8048870E-01
        2   -1    0    0  501    0  0.00000000000E+00  0.00000000000E+00  0.23979048894E+04  0.23979048894E+04  0.25500000920E-02 0.  1.
       -2   -1    0    0    0  501  0.00000000000E+00  0.00000000000E+00 -0.14954928712E+04  0.14954928713E+04  0.25500000920E-02 0. -1.
    10030    2    1    2    0    0  0.00000000000E+00  0.00000000000E+00  0.90241201816E+03  0.38933977607E+04  0.37873735850E+04 0.  0.
        4    1    3    3  502    0 -0.21925758581E+03  0.93827679147E+03 -0.12246485347E+04  0.15582691914E+04  0.12699999809E+01 0. -1.
       -4    1    3    3    0  502  0.21925758581E+03 -0.93827679147E+03  0.21270605529E+04  0.23351285693E+04  0.12699999809E+01 0.  1.
</event>
<event>
 5   0  0.5086209E-08  0.3786775E+04  0.7818609E-02  0.8048999E-01
       -2   -1    0    0    0  501  0.00000000000E+00  0.00000000000E+00  0.26545453576E+04  0.26545453576E+04  0.25500000920E-02 0. -1.
        2   -1    0    0  501    0  0.00000000000E+00  0.00000000000E+00 -0.13504818829E+04  0.13504818829E+04  0.25500000920E-02 0.  1.
    10030    2    1    2    0    0  0.00000000000E+00  0.00000000000E+00  0.13040634747E+04  0.40050272406E+04  0.37867745710E+04 0.  0.
        3    1    3    3  502    0  0.72626990393E+03  0.13816870187E+04 -0.48136099363E+03  0.16334734180E+04  0.10100000352E+00 0.  1.
       -3    1    3    3    0  502 -0.72626990393E+03 -0.13816870187E+04  0.17854244683E+04  0.23715538225E+04  0.10100000352E+00 0. -1.
</event>
<event>
 5   0  0.1628250E-08  0.3797825E+04  0.7818609E-02  0.8046622E-01
       -1   -1    0    0    0  501  0.00000000000E+00  0.00000000000E+00  0.24030114810E+04  0.24030114810E+04  0.50400001928E-02 0.  1.
        1   -1    0    0  501    0  0.00000000000E+00  0.00000000000E+00 -0.15005624012E+04  0.15005624012E+04  0.50400001928E-02 0. -1.
    10030    2    1    2    0    0  0.00000000000E+00  0.00000000000E+00  0.90244907982E+03  0.39035738822E+04  0.37978249976E+04 0.  0.
        1    1    3    3  502    0 -0.17781921770E+04  0.86981834912E+02  0.11301743783E+04  0.21087501946E+04  0.50400001928E-02 0. -1.
       -1    1    3    3    0  502  0.17781921770E+04 -0.86981834912E+02 -0.22772529845E+03  0.17948236876E+04  0.50400001928E-02 0.  1.
</event>
<event>
 5   0  0.5207474E-08  0.3798555E+04  0.7818609E-02  0.8046465E-01
        2   -1    0    0  501    0  0.00000000000E+00  0.00000000000E+00  0.19719164885E+04  0.19719164885E+04  0.25500000920E-02 0. -1.
       -2   -1    0    0    0  501  0.00000000000E+00  0.00000000000E+00 -0.18293141586E+04  0.18293141586E+04  0.25500000920E-02 0.  1.
    10030    2    1    2    0    0  0.00000000000E+00  0.00000000000E+00  0.14260232986E+03  0.38012306471E+04  0.37985548578E+04 0.  0.
        4    1    3    3  502    0 -0.47629465832E+03 -0.67567230985E+03  0.17824365165E+04  0.19648081891E+04  0.12699999809E+01 0. -1.
       -4    1    3    3    0  502  0.47629465832E+03  0.67567230985E+03 -0.16398341866E+04  0.18364224580E+04  0.12699999809E+01 0.  1.
</event>
<event>
 5   0  0.1628250E-08  0.3798765E+04  0.7818609E-02  0.8046420E-01
       -1   -1    0    0    0  501  0.00000000000E+00  0.00000000000E+00  0.16145671464E+04  0.16145671464E+04  0.50400001928E-02 0. -1.
        1   -1    0    0  501    0  0.00000000000E+00  0.00000000000E+00 -0.22344401395E+04  0.22344401395E+04  0.50400001928E-02 0.  1.
    10030    2    1    2    0    0  0.00000000000E+00  0.00000000000E+00 -0.61987299307E+03  0.38490072860E+04  0.37987648729E+04 0.  0.
        4    1    3    3  502    0  0.67239442574E+03  0.17575545820E+04 -0.48572001374E+02  0.18824115450E+04  0.12699999809E+01 0. -1.
       -4    1    3    3    0  502 -0.67239442574E+03 -0.17575545820E+04 -0.57130099170E+03  0.19665957410E+04  0.12699999809E+01 0.  1.
</event>
<event>
 5   0  0.5147582E-08  0.3805170E+04  0.7818609E-02  0.8045046E-01
        2   -1    0    0  501    0  0.00000000000E+00  0.00000000000E+00  0.22705204039E+04  0.22705204039E+04  0.25500000920E-02 0.  1.
       -2   -1    0    0    0  501  0.00000000000E+00  0.00000000000E+00 -0.15942733480E+04  0.15942733480E+04  0.25500000920E-02 0. -1.
    10030    2    1    2    0    0  0.00000000000E+00  0.00000000000E+00  0.67624705592E+03  0.38647937520E+04  0.38051702543E+04 0.  0.
        1    1    3    3  502    0 -0.25609195246E+03 -0.31953649142E+03 -0.15489840124E+04  0.16021979054E+04  0.50400001928E-02 0. -1.
       -1    1    3    3    0  502  0.25609195246E+03  0.31953649142E+03  0.22252310683E+04  0.22625958466E+04  0.50400001928E-02 0.  1.
</event>
<event>
 5   0  0.5159761E-08  0.3804722E+04  0.7818609E-02  0.8045142E-01
        2   -1    0    0  501    0  0.00000000000E+00  0.00000000000E+00  0.10993084832E+04  0.10993084832E+04  0.25500000920E-02 0.  1.
       -2   -1    0    0    0  501  0.00000000000E+00  0.00000000000E+00 -0.32920488691E+04  0.32920488691E+04  0.25500000920E-02 0. -1.
    10030    2    1    2    0    0  0.00000000000E+00  0.00000000000E+00 -0.21927403858E+04  0.43913573523E+04  0.38047219341E+04 0.  0.
        5    1    3    3  502    0 -0.72769529581E+03 -0.11575335858E+04 -0.26230102137E+04  0.29579772002E+04  0.46999998093E+01 0. -1.
       -5    1    3    3    0  502  0.72769529581E+03  0.11575335858E+04  0.43026982786E+03  0.14333801521E+04  0.46999998093E+01 0.  1.
</event>
<event>
 5   0  0.1628250E-08  0.3798607E+04  0.7818609E-02  0.8046454E-01
        1   -1    0    0  501    0  0.00000000000E+00  0.00000000000E+00  0.20238454936E+04  0.20238454936E+04  0.50400001928E-02 0. -1.
       -1   -1    0    0    0  501  0.00000000000E+00  0.00000000000E+00 -0.17824253864E+04  0.17824253864E+04  0.50400001928E-02 0.  1.
    10030    2    1    2    0    0  0.00000000000E+00  0.00000000000E+00  0.24142010717E+03  0.38062708800E+04  0.37986068951E+04 0.  0.
        1    1    3    3  502    0 -0.49886421415E+03  0.56052638730E+03  0.18690220567E+04  0.20140255170E+04  0.50400001928E-02 0. -1.
       -1    1    3    3    0  502  0.49886421415E+03 -0.56052638730E+03 -0.16276019495E+04  0.17922453629E+04  0.50400001928E-02 0.  1.
</event>
<event>
 5   0  0.1628250E-08  0.3803668E+04  0.7818609E-02  0.8045368E-01
        1   -1    0    0  501    0  0.00000000000E+00  0.00000000000E+00  0.19010762488E+04  0.19010762488E+04  0.50400001928E-02 0. -1.
       -1   -1    0    0    0  501  0.00000000000E+00  0.00000000000E+00 -0.19025921674E+04  0.19025921674E+04  0.50400001928E-02 0.  1.
    10030    2    1    2    0    0  0.00000000000E+00  0.00000000000E+00 -0.15159185926E+01  0.38036684161E+04  0.38036681141E+04 0.  0.
        1    1    3    3  502    0 -0.86908366920E+03 -0.47456643854E+02  0.16902224302E+04  0.19011602827E+04  0.50400001928E-02 0. -1.
       -1    1    3    3    0  502  0.86908366920E+03  0.47456643854E+02 -0.16917383488E+04  0.19025081334E+04  0.50400001928E-02 0.  1.
</event>
<event>
 5   0  0.1628250E-08  0.3799491E+04  0.7818609E-02  0.8046264E-01
        1   -1    0    0  501    0  0.00000000000E+00  0.00000000000E+00  0.26331066077E+04  0.26331066077E+04  0.50400001928E-02 0.  1.
       -1   -1    0    0    0  501  0.00000000000E+00  0.00000000000E+00 -0.13706371444E+04  0.13706371444E+04  0.50400001928E-02 0. -1.
    10030    2    1    2    0    0  0.00000000000E+00  0.00000000000E+00  0.12624694633E+04  0.40037437521E+04  0.37994913984E+04 0.  0.
        4    1    3    3  502    0 -0.13312218752E+04 -0.44901048542E+03  0.19787557395E+04  0.24267752237E+04  0.12699999809E+01 0.  1.
       -4    1    3    3    0  502  0.13312218752E+04  0.44901048542E+03 -0.71628627617E+03  0.15769685283E+04  0.12699999809E+01 0. -1.
</event>
<event>
 5   0  0.5207474E-08  0.3801262E+04  0.7818609E-02  0.8045884E-01
       -2   -1    0    0    0  501  0.00000000000E+00  0.00000000000E+00  0.21347591616E+04  0.21347591616E+04  0.25500000920E-02 0. -1.
        2   -1    0    0  501    0  0.00000000000E+00  0.00000000000E+00 -0.16921803357E+04  0.16921803357E+04  0.25500000920E-02 0.  1.
    10030    2    1    2    0    0  0.00000000000E+00  0.00000000000E+00  0.44257882591E+03  0.38269394972E+04  0.38012616193E+04 0.  0.
        4    1    3    3  502    0 -0.78901269104E+03  0.15178461623E+04 -0.61255537185E+03  0.18170370650E+04  0.12699999809E+01 0. -1.
       -4    1    3    3    0  502  0.78901269104E+03 -0.15178461623E+04  0.10551341978E+04  0.20099024323E+04  0.12699999809E+01 0.  1.
</event>
<event>
 5   0  0.1628250E-08  0.3789500E+04  0.7818609E-02  0.8048412E-01
        1   -1    0    0  501    0  0.00000000000E+00  0.00000000000E+00  0.20583877615E+04  0.20583877615E+04  0.50400001928E-02 0. -1.
       -1   -1    0    0    0  501  0.00000000000E+00  0.00000000000E+00 -0.17441209151E+04  0.17441209151E+04  0.50400001928E-02 0.  1.
    10030    2    1    2    0    0  0.00000000000E+00  0.00000000000E+00  0.31426684645E+03  0.38025086766E+04  0.37894997803E+04 0.  0.
        1    1    3    3  502    0  0.30698129657E+03  0.16900366580E+04 -0.64537184751E+03  0.18349294927E+04  0.50400001928E-02 0.  1.
       -1    1    3    3    0  502 -0.30698129657E+03 -0.16900366580E+04  0.95963869396E+03  0.19675791838E+04  0.50400001928E-02 0. -1.
</event>
<event>
 5   0  0.5147582E-08  0.3799921E+04  0.7818609E-02  0.8046172E-01
       -2   -1    0    0    0  501  0.00000000000E+00  0.00000000000E+00  0.20672880694E+04  0.20672880694E+04  0.25500000920E-02 0.  1.
        2   -1    0    0  501    0  0.00000000000E+00  0.00000000000E+00 -0.17461760722E+04  0.17461760722E+04  0.25500000920E-02 0. -1.
    10030    2    1    2    0    0  0.00000000000E+00  0.00000000000E+00  0.32111199725E+03  0.38134641416E+04  0.37999205050E+04 0.  0.
        1    1    3    3  502    0 -0.14344051814E+04  0.37647400353E+02  0.14103514259E+04  0.20119708487E+04  0.50400001928E-02 0.  1.
       -1    1    3    3    0  502  0.14344051814E+04 -0.37647400353E+02 -0.10892394287E+04  0.18014932929E+04  0.50400001928E-02 0. -1.
</event>
<event>
 5   0  0.1628250E-08  0.3803616E+04  0.7818609E-02  0.8045379E-01
        3   -1    0    0  501    0  0.00000000000E+00  0.00000000000E+00  0.20860991587E+04  0.20860991611E+04  0.10100000352E+00 0. -1.
       -3   -1    0    0    0  501  0.00000000000E+00  0.00000000000E+00 -0.17337979667E+04  0.17337979696E+04  0.10100000352E+00 0.  1.
    10030    2    1    2    0    0  0.00000000000E+00  0.00000000000E+00  0.35230119202E+03  0.38198971307E+04  0.38036164317E+04 0.  0.
        3    1    3    3  502    0  0.17945834998E+04  0.22011741110E+03  0.76849967153E+03  0.19645796924E+04  0.10100000352E+00 0. -1.
       -3    1    3    3    0  502 -0.17945834998E+04 -0.22011741110E+03 -0.41619847951E+03  0.18553174383E+04  0.10100000352E+00 0.  1.
</event>
<event>
 5   0  0.5086209E-08  0.3806340E+04  0.7818609E-02  0.8044796E-01
       -2   -1    0    0    0  501  0.00000000000E+00  0.00000000000E+00  0.20097325540E+04  0.20097325540E+04  0.25500000920E-02 0.  1.
        2   -1    0    0  501    0  0.00000000000E+00  0.00000000000E+00 -0.18022573044E+04  0.18022573044E+04  0.25500000920E-02 0. -1.
    10030    2    1    2    0    0  0.00000000000E+00  0.00000000000E+00  0.20747524963E+03  0.38119898584E+04  0.38063395410E+04 0.  0.
        3    1    3    3  502    0  0.13111615145E+04 -0.11914015235E+04 -0.59261681485E+03  0.18680944320E+04  0.10100000352E+00 0. -1.
       -3    1    3    3    0  502 -0.13111615145E+04  0.11914015235E+04  0.80009206448E+03  0.19438954265E+04  0.10100000352E+00 0.  1.
</event>
<event>
 5   0  0.1628250E-08  0.3803714E+04  0.7818609E-02  0.8045358E-01
        1   -1    0    0  501    0  0.00000000000E+00  0.00000000000E+00  0.16230162798E+04  0.16230162798E+04  0.50400001928E-02 0.  1.
       -1   -1    0    0    0  501  0.00000000000E+00  0.00000000000E+00 -0.22286034411E+04  0.22286034411E+04  0.50400001928E-02 0. -1.
    10030    2    1    2    0    0  0.00000000000E+00  0.00000000000E+00 -0.60558716131E+03  0.38516197210E+04  0.38037137990E+04 0.  0.
        1    1    3    3  502    0 -0.80092752565E+02 -0.10447172654E+04 -0.19099857644E+04  0.21785074326E+04  0.50400001928E-02 0. -1.
       -1    1    3    3    0  502  0.80092752565E+02  0.10447172654E+04  0.13043986031E+04  0.16731122884E+04  0.50400001928E-02 0.  1.
</event>
<event>
 5   0  0.1628250E-08  0.3799964E+04  0.7818609E-02  0.8046163E-01
       -3   -1    0    0    0  501  0.00000000000E+00  0.00000000000E+00  0.21095577595E+04  0.21095577619E+04  0.10100000352E+00 0.  1.
        3   -1    0    0  501    0  0.00000000000E+00  0.00000000000E+00 -0.17112264236E+04  0.17112264266E+04  0.10100000352E+00 0. -1.
    10030    2    1    2    0    0  0.00000000000E+00  0.00000000000E+00  0.39833133593E+03  0.38207841885E+04  0.37999636790E+04 0.  0.
        3    1    3    3  502    0 -0.18119694020E+04  0.53372178692E+03 -0.65007093156E+01  0.18889505894E+04  0.10100000352E+00 0. -1.
       -3    1    3    3    0  502  0.18119694020E+04 -0.53372178692E+03  0.40483204525E+03  0.19318335991E+04  0.10100000352E+00 0.  1.
</event>
<event>
 5   0  0.5159761E-08  0.3808025E+04  0.7818609E-02  0.8044435E-01
       -2   -1    0    0    0  501  0.00000000000E+00  0.00000000000E+00  0.18252471271E+04  0.18252471271E+04  0.25500000920E-02 0.  1.
        2   -1    0    0  501    0  0.00000000000E+00  0.00000000000E+00 -0.19861770068E+04  0.19861770068E+04  0.25500000920E-02 0. -1.
    10030    2    1    2    0    0  0.00000000000E+00  0.00000000000E+00 -0.16092987977E+03  0.38114241339E+04  0.38080251447E+04 0.  0.
        5    1    3    3  502    0  0.16264045832E+04  0.79291723635E+03  0.51279692617E+03  0.18806627527E+04  0.46999998093E+01 0.  1.
       -5    1    3    3    0  502 -0.16264045832E+04 -0.79291723635E+03 -0.67372680594E+03  0.19307613812E+04  0.46999998093E+01 0. -1.
</event>
<event>
 5   0  0.1628250E-08  0.3797333E+04  0.7818609E-02  0.8046727E-01
       -1   -1    0    0    0  501  0.00000000000E+00  0.00000000000E+00  0.25218445144E+04  0.25218445144E+04  0.50400001928E-02 0. -1.
        1   -1    0    0  501    0  0.00000000000E+00  0.00000000000E+00 -0.14294834222E+04  0.14294834222E+04  0.50400001928E-02 0.  1.
    10030    2    1    2    0    0  0.00000000000E+00  0.00000000000E+00  0.10923610922E+04  0.39513279366E+04  0.37973332362E+04 0.  0.
        1    1    3    3  502    0 -0.20811211353E+03  0.18386576517E+04  0.10353261792E+03  0.18532921019E+04  0.50400001928E-02 0.  1.
       -1    1    3    3    0  502  0.20811211353E+03 -0.18386576517E+04  0.98882847431E+03  0.20980358347E+04  0.50400001928E-02 0. -1.
</event>
<event>
 5   0  0.1628250E-08  0.3812264E+04  0.7818609E-02  0.8043528E-01
        3   -1    0    0  501    0  0.00000000000E+00  0.00000000000E+00  0.13229098947E+04  0.13229098985E+04  0.10100000352E+00 0. -1.
       -3   -1    0    0    0  501  0.00000000000E+00  0.00000000000E+00 -0.27464749590E+04  0.27464749609E+04  0.10100000352E+00 0.  1.
    10030    2    1    2    0    0  0.00000000000E+00  0.00000000000E+00 -0.14235650643E+04  0.40693848594E+04  0.38122638473E+04 0.  0.
        2    1    3    3  502    0 -0.11046891702E+04 -0.63174117316E+03  0.80305193839E+03  0.15047682507E+04  0.25500000920E-02 0. -1.
       -2    1    3    3    0  502  0.11046891702E+04  0.63174117316E+03 -0.22266170027E+04  0.25646166087E+04  0.25500000920E-02 0.  1.
</event>
<event>
 5   0  0.1628473E-08  0.3795345E+04  0.7818609E-02  0.8047154E-01
       -1   -1    0    0    0  501  0.00000000000E+00  0.00000000000E+00  0.18143992125E+04  0.18143992125E+04  0.50400001928E-02 0.  1.
        1   -1    0    0  501    0  0.00000000000E+00  0.00000000000E+00 -0.19847681495E+04  0.19847681495E+04  0.50400001928E-02 0. -1.
    10030    2    1    2    0    0  0.00000000000E+00  0.00000000000E+00 -0.17036893695E+03  0.37991673620E+04  0.37953454480E+04 0.  0.
        3    1    3    3  502    0  0.19062631075E+03 -0.25434717213E+02 -0.19749882439E+04  0.19843295818E+04  0.10100000352E+00 0. -1.
       -3    1    3    3    0  502 -0.19062631075E+03  0.25434717213E+02  0.18046193070E+04  0.18148377802E+04  0.10100000352E+00 0.  1.
</event>
<event>
 5   0  0.5207474E-08  0.3787660E+04  0.7818609E-02  0.8048808E-01
       -2   -1    0    0    0  501  0.00000000000E+00  0.00000000000E+00  0.28453997368E+04  0.28453997368E+04  0.25500000920E-02 0.  1.
        2   -1    0    0  501    0  0.00000000000E+00  0.00000000000E+00 -0.12604881088E+04  0.12604881088E+04  0.25500000920E-02 0. -1.
    10030    2    1    2    0    0  0.00000000000E+00  0.00000000000E+00  0.15849116280E+04  0.41058878457E+04  0.37876602452E+04 0.  0.
        4    1    3    3  502    0 -0.68263588594E+03 -0.38890935319E+03 -0.10755002881E+04  0.13318951612E+04  0.12699999809E+01 0. -1.
       -4    1    3    3    0  502  0.68263588594E+03  0.38890935319E+03  0.26604119161E+04  0.27739926845E+04  0.12699999809E+01 0.  1.
</event>
<event>
 5   0  0.1666051E-08  0.3826632E+04  0.7818609E-02  0.8040464E-01
       -1   -1    0    0    0  501  0.00000000000E+00  0.00000000000E+00  0.14978610058E+04  0.14978610059E+04  0.50400001928E-02 0.  1.
        1   -1    0    0  501    0  0.00000000000E+00  0.00000000000E+00 -0.24440033960E+04  0.24440033960E+04  0.50400001928E-02 0. -1.
    10030    2    1    2    0    0  0.00000000000E+00  0.00000000000E+00 -0.94614239014E+03  0.39418644018E+04  0.38266316180E+04 0.  0.
        2    1    3    3  502    0 -0.15731887718E+04  0.88267412083E+03  0.18389637446E+03  0.18132441622E+04  0.25500000920E-02 0.  1.
       -2    1    3    3    0  502  0.15731887718E+04 -0.88267412083E+03 -0.11300387646E+04  0.21286202397E+04  0.25500000920E-02 0. -1.
</event>
<event>
 5   0  0.5147582E-08  0.3791263E+04  0.7818609E-02  0.8048032E-01
       -2   -1    0    0    0  501  0.00000000000E+00  0.00000000000E+00  0.14905296129E+04  0.14905296129E+04  0.25500000920E-02 0. -1.
        2   -1    0    0  501    0  0.00000000000E+00  0.00000000000E+00 -0.24108340921E+04  0.24108340921E+04  0.25500000920E-02 0.  1.
    10030    2    1    2    0    0  0.00000000000E+00  0.00000000000E+00 -0.92030447926E+03  0.39013637050E+04  0.37912634337E+04 0.  0.
        1    1    3    3  502    0 -0.16619090375E+04  0.81781311234E+03 -0.87517548383E+03  0.20485829403E+04  0.50400001928E-02 0.  1.
       -1    1    3    3    0  502  0.16619090375E+04 -0.81781311234E+03 -0.45128995430E+02  0.18527807647E+04  0.50400001928E-02 0. -1.
</event>
<event>
 5   0  0.5207474E-08  0.3799049E+04  0.7818609E-02  0.8046359E-01
       -2   -1    0    0    0  501  0.00000000000E+00  0.00000000000E+00  0.18931784421E+04  0.18931784421E+04  0.25500000920E-02 0.  1.
        2   -1    0    0  501    0  0.00000000000E+00  0.00000000000E+00 -0.19058921749E+04  0.19058921749E+04  0.25500000920E-02 0. -1.
    10030    2    1    2    0    0  0.00000000000E+00  0.00000000000E+00 -0.12713732778E+02  0.37990706170E+04  0.37990493434E+04 0.  0.
        4    1    3    3  502    0  0.10619838089E+04  0.13453974819E+04  0.81235912697E+03  0.18967954446E+04  0.12699999809E+01 0.  1.
       -4    1    3    3    0  502 -0.10619838089E+04 -0.13453974819E+04 -0.82507285975E+03  0.19022751724E+04  0.12699999809E+01 0. -1.
</event>
<event>
 5   0  0.5207474E-08  0.3778009E+04  0.7818609E-02  0.8050891E-01
        2   -1    0    0  501    0  0.00000000000E+00  0.00000000000E+00  0.13946733195E+04  0.13946733195E+04  0.25500000920E-02 0.  1.
       -2   -1    0    0    0  501  0.00000000000E+00  0.00000000000E+00 -0.25585481494E+04  0.25585481495E+04  0.25500000920E-02 0. -1.
    10030    2    1    2    0    0  0.00000000000E+00  0.00000000000E+00 -0.11638748300E+04  0.39532214689E+04  0.37780094445E+04 0.  0.
        4    1    3    3  502    0 -0.17497942531E+04  0.71011003702E+03 -0.53174365686E+03  0.19618331026E+04  0.12699999809E+01 0. -1.
       -4    1    3    3    0  502  0.17497942531E+04 -0.71011003702E+03 -0.63213117310E+03  0.19913883664E+04  0.12699999809E+01 0.  1.
</event>
<event>
 5   0  0.5140842E-08  0.3803947E+04  0.7818609E-02  0.8045308E-01
       -2   -1    0    0    0  501  0.00000000000E+00  0.00000000000E+00  0.22365732699E+04  0.22365732699E+04  0.25500000920E-02 0.  1.
        2   -1    0    0  501    0  0.00000000000E+00  0.00000000000E+00 -0.16174308784E+04  0.16174308784E+04  0.25500000920E-02 0. -1.
    10030    2    1    2    0    0  0.00000000000E+00  0.00000000000E+00  0.61914239147E+03  0.38540041483E+04  0.38039467234E+04 0.  0.
        2    1    3    3  502    0  0.75503187714E+02 -0.16642933910E+04  0.12392129071E+04  0.20763482010E+04  0.25500000920E-02 0.  1.
       -2    1    3    3    0  502 -0.75503187714E+02  0.16642933910E+04 -0.62007051562E+03  0.17776559473E+04  0.25500000920E-02 0. -1.
</event>
<event>
 5   0  0.5086209E-08  0.3798796E+04  0.7818609E-02  0.8046413E-01
       -2   -1    0    0    0  501  0.00000000000E+00  0.00000000000E+00  0.11893055828E+04  0.11893055828E+04  0.25500000920E-02 0.  1.
        2   -1    0    0  501    0  0.00000000000E+00  0.00000000000E+00 -0.30334608576E+04  0.30334608576E+04  0.25500000920E-02 0. -1.
    10030    2    1    2    0    0  0.00000000000E+00  0.00000000000E+00 -0.18441552748E+04  0.42227664403E+04  0.37987955633E+04 0.  0.
        3    1    3    3  502    0  0.36383099504E+03 -0.82216158926E+03 -0.27819484742E+04  0.29236210417E+04  0.10100000352E+00 0. -1.
       -3    1    3    3    0  502 -0.36383099504E+03  0.82216158926E+03  0.93779319942E+03  0.12991453987E+04  0.10100000352E+00 0.  1.
</event>
<event>
 5   0  0.1628473E-08  0.3839556E+04  0.7818609E-02  0.8037719E-01
        1   -1    0    0  501    0  0.00000000000E+00  0.00000000000E+00  0.15980655971E+04  0.15980655971E+04  0.50400001928E-02 0. -1.
       -1   -1    0    0    0  501  0.00000000000E+00  0.00000000000E+00 -0.23062558374E+04  0.23062558374E+04  0.50400001928E-02 0.  1.
    10030    2    1    2    0    0  0.00000000000E+00  0.00000000000E+00 -0.70819024033E+03  0.39043214346E+04  0.38395562827E+04 0.  0.
        3    1    3    3  502    0 -0.58453531473E+01  0.14923382538E+04 -0.15821248484E+04  0.21749084298E+04  0.10100000352E+00 0.  1.
       -3    1    3    3    0  502  0.58453531473E+01 -0.14923382538E+04  0.87393460802E+03  0.17294130048E+04  0.10100000352E+00 0. -1.
</event>
<event>
 5   0  0.1628250E-08  0.3807546E+04  0.7818609E-02  0.8044537E-01
       -1   -1    0    0    0  501  0.00000000000E+00  0.00000000000E+00  0.21050524101E+04  0.21050524101E+04  0.50400001928E-02 0. -1.
        1   -1    0    0  501    0  0.00000000000E+00  0.00000000000E+00 -0.17217392991E+04  0.17217392991E+04  0.50400001928E-02 0.  1.
    10030    2    1    2    0    0  0.00000000000E+00  0.00000000000E+00  0.38331311096E+03  0.38267917092E+04  0.38075459084E+04 0.  0.
        4    1    3    3  502    0  0.18000514369E+04 -0.21668256574E+03  0.77529252331E+03  0.19718561355E+04  0.12699999809E+01 0.  1.
       -4    1    3    3    0  502 -0.18000514369E+04  0.21668256574E+03 -0.39197941234E+03  0.18549355736E+04  0.12699999809E+01 0. -1.
</event>
<event>
 5   0  0.5086209E-08  0.3760856E+04  0.7818609E-02  0.8054608E-01
        2   -1    0    0  501    0  0.00000000000E+00  0.00000000000E+00  0.22643651997E+04  0.22643651997E+04  0.25500000920E-02 0.  1.
       -2   -1    0    0    0  501  0.00000000000E+00  0.00000000000E+00 -0.15615894588E+04  0.15615894588E+04  0.25500000920E-02 0. -1.
    10030    2    1    2    0    0  0.00000000000E+00  0.00000000000E+00  0.70277574085E+03  0.38259546585E+04  0.37608556615E+04 0.  0.
        3    1    3    3  502    0  0.17366500056E+04  0.25294891736E+03 -0.33563320184E+03  0.17867809191E+04  0.10100000352E+00 0. -1.
       -3    1    3    3    0  502 -0.17366500056E+04 -0.25294891736E+03  0.10384089427E+04  0.20391737393E+04  0.10100000352E+00 0.  1.
</event>
<event>
 5   0  0.5140842E-08  0.3786524E+04  0.7818609E-02  0.8049053E-01
        2   -1    0    0  501    0  0.00000000000E+00  0.00000000000E+00  0.20429083517E+04  0.20429083517E+04  0.25500000920E-02 0.  1.
       -2   -1    0    0    0  501  0.00000000000E+00  0.00000000000E+00 -0.17545774821E+04  0.17545774821E+04  0.25500000920E-02 0. -1.
    10030    2    1    2    0    0  0.00000000000E+00  0.00000000000E+00  0.28833086955E+03  0.37974858338E+04  0.37865239954E+04 0.  0.
        2    1    3    3  502    0 -0.46904368191E+03  0.13901203335E+04  0.13442936236E+04  0.19898647853E+04  0.25500000920E-02 0.  1.
       -2    1    3    3    0  502  0.46904368191E+03 -0.13901203335E+04 -0.10559627541E+04  0.18076210485E+04  0.25500000920E-02 0. -1.
</event>
<event>
 5   0  0.1628250E-08  0.3797421E+04  0.7818609E-02  0.8046709E-01
       -1   -1    0    0    0  501  0.00000000000E+00  0.00000000000E+00  0.13901302197E+04  0.13901302197E+04  0.50400001928E-02 0. -1.
        1   -1    0    0  501    0  0.00000000000E+00  0.00000000000E+00 -0.25933546470E+04  0.25933546470E+04  0.50400001928E-02 0.  1.
    10030    2    1    2    0    0  0.00000000000E+00  0.00000000000E+00 -0.12032244273E+04  0.39834848667E+04  0.37974205273E+04 0.  0.
        1    1    3    3  502    0  0.13244582146E+04  0.13555115855E+04 -0.72349220861E+03  0.20285566782E+04  0.50400001928E-02 0. -1.
       -1    1    3    3    0  502 -0.13244582146E+04 -0.13555115855E+04 -0.47973221873E+03  0.19549281885E+04  0.50400001928E-02 0.  1.
</event>
<event>
 5   0  0.5147582E-08  0.3798628E+04  0.7818609E-02  0.8046449E-01
       -2   -1    0    0    0  501  0.00000000000E+00  0.00000000000E+00  0.16507652087E+04  0.16507652087E+04  0.25500000920E-02 0.  1.
        2   -1    0    0  501    0  0.00000000000E+00  0.00000000000E+00 -0.21852855619E+04  0.21852855619E+04  0.25500000920E-02 0. -1.
    10030    2    1    2    0    0  0.00000000000E+00  0.00000000000E+00 -0.53452035318E+03  0.38360507706E+04  0.37986278453E+04 0.  0.
        1    1    3    3  502    0 -0.76867406311E+03  0.71821929622E+03 -0.18641977068E+04  0.21405447584E+04  0.50400001928E-02 0. -1.
       -1    1    3    3    0  502  0.76867406311E+03 -0.71821929622E+03  0.13296773536E+04  0.16955060122E+04  0.50400001928E-02 0.  1.
</event>
<event>
 5   0  0.1666051E-08  0.3771996E+04  0.7818609E-02  0.8052191E-01
        1   -1    0    0  501    0  0.00000000000E+00  0.00000000000E+00  0.20462167711E+04  0.20462167711E+04  0.50400001928E-02 0.  1.
       -1   -1    0    0    0  501  0.00000000000E+00  0.00000000000E+00 -0.17383247274E+04  0.17383247274E+04  0.50400001928E-02 0. -1.
    10030    2    1    2    0    0  0.00000000000E+00  0.00000000000E+00  0.30789204368E+03  0.37845414985E+04  0.37719964002E+04 0.  0.
        2    1    3    3  502    0  0.34949747413E+03 -0.43353875958E+03 -0.16539583164E+04  0.17451883717E+04  0.25500000920E-02 0. -1.
       -2    1    3    3    0  502 -0.34949747413E+03  0.43353875958E+03  0.19618503600E+04  0.20393531268E+04  0.25500000920E-02 0.  1.
</event>
<event>
 5   0  0.5159761E-08  0.3803617E+04  0.7818609E-02  0.8045379E-01
       -2   -1    0    0    0  501  0.00000000000E+00  0.00000000000E+00  0.26711612681E+04  0.26711612681E+04  0.25500000920E-02 0.  1.
        2   -1    0    0  501    0  0.00000000000E+00  0.00000000000E+00 -0.13540458286E+04  0.13540458286E+04  0.25500000920E-02 0. -1.
    10030    2    1    2    0    0  0.00000000000E+00  0.00000000000E+00  0.13171154395E+04  0.40252070967E+04  0.38036165804E+04 0.  0.
        5    1    3    3  502    0 -0.89531521889E+02  0.11266097185E+04  0.22772381955E+04  0.25422630156E+04  0.46999998093E+01 0.  1.
       -5    1    3    3    0  502  0.89531521889E+02 -0.11266097185E+04 -0.96012275599E+03  0.14829440812E+04  0.46999998093E+01 0. -1.
</event>
<event>
 5   0  0.1666051E-08  0.3807658E+04  0.7818609E-02  0.8044513E-01
        1   -1    0    0  501    0  0.00000000000E+00  0.00000000000E+00  0.23126393749E+04  0.23126393749E+04  0.50400001928E-02 0. -1.
       -1   -1    0    0    0  501  0.00000000000E+00  0.00000000000E+00 -0.15672849184E+04  0.15672849184E+04  0.50400001928E-02 0.  1.
    10030    2    1    2    0    0  0.00000000000E+00  0.00000000000E+00  0.74535445649E+03  0.38799242934E+04  0.38076579752E+04 0.  0.
        2    1    3    3  502    0  0.90294872692E+02 -0.24090349139E+03 -0.15494906247E+04  0.15707032986E+04  0.25500000920E-02 0.  1.
       -2    1    3    3    0  502 -0.90294872692E+02  0.24090349139E+03  0.22948450812E+04  0.23092209948E+04  0.25500000920E-02 0. -1.
</event>
<event>
 5   0  0.1628473E-08  0.3801912E+04  0.7818609E-02  0.8045745E-01
        1   -1    0    0  501    0  0.00000000000E+00  0.00000000000E+00  0.24853349655E+04  0.24853349655E+04  0.50400001928E-02 0. -1.
       -1   -1    0    0    0  501  0.00000000000E+00  0.00000000000E+00 -0.14539828620E+04  0.14539828620E+04  0.50400001928E-02 0.  1.
    10030    2    1    2    0    0  0.00000000000E+00  0.00000000000E+00  0.10313521035E+04  0.39393178275E+04  0.38019123852E+04 0.  0.
        3    1    3    3  502    0 -0.75261311914E+03 -0.13688175047E+03  0.23188210411E+04  0.24417399844E+04  0.10100000352E+00 0. -1.
       -3    1    3    3    0  502  0.75261311914E+03  0.13688175047E+03 -0.12874689376E+04  0.14975778431E+04  0.10100000352E+00 0.  1.
</event>
<event>
 5   0  0.1628250E-08  0.3798913E+04  0.7818609E-02  0.8046388E-01
        3   -1    0    0  501    0  0.00000000000E+00  0.00000000000E+00  0.19003779467E+04  0.19003779494E+04  0.10100000352E+00 0. -1.
       -3   -1    0    0    0  501  0.00000000000E+00  0.00000000000E+00 -0.18985359067E+04  0.18985359094E+04  0.10100000352E+00 0.  1.
    10030    2    1    2    0    0  0.00000000000E+00  0.00000000000E+00  0.18420400398E+01  0.37989138587E+04  0.37989134122E+04 0.  0.
        4    1    3    3  502    0 -0.11893183587E+04 -0.12093727996E+04 -0.85399044347E+03  0.18990423948E+04  0.12699999809E+01 0.  1.
       -4    1    3    3    0  502  0.11893183587E+04  0.12093727996E+04  0.85583248351E+03  0.18998714639E+04  0.12699999809E+01 0. -1.
</event>
<event>
 5   0  0.5147582E-08  0.3772852E+04  0.7818609E-02  0.8052006E-01
        2   -1    0    0  501    0  0.00000000000E+00  0.00000000000E+00  0.21504383059E+04  0.21504383059E+04  0.25500000920E-02 0.  1.
       -2   -1    0    0    0  501  0.00000000000E+00  0.00000000000E+00 -0.16548271798E+04  0.16548271798E+04  0.25500000920E-02 0. -1.
    10030    2    1    2    0    0  0.00000000000E+00  0.00000000000E+00  0.49561112606E+03  0.38052654857E+04  0.37728523730E+04 0.  0.
        1    1    3    3  502    0  0.95628294356E+03  0.12961810614E+04 -0.74248577391E+03  0.17736537251E+04  0.50400001928E-02 0.  1.
       -1    1    3    3    0  502 -0.95628294356E+03 -0.12961810614E+04  0.12380969000E+04  0.20316117606E+04  0.50400001928E-02 0. -1.
</event>
<event>
 5   0  0.1628473E-08  0.3723252E+04  0.7818609E-02  0.8062828E-01
        1   -1    0    0  501    0  0.00000000000E+00  0.00000000000E+00  0.18050358059E+04  0.18050358059E+04  0.50400001928E-02 0. -1.
       -1   -1    0    0    0  501  0.00000000000E+00  0.00000000000E+00 -0.19199901590E+04  0.19199901591E+04  0.50400001928E-02 0.  1.
    10030    2    1    2    0    0  0.00000000000E+00  0.00000000000E+00 -0.11495435316E+03  0.37250259649E+04  0.37232517960E+04 0.  0.
        3    1    3    3  502    0 -0.11816906249E+04  0.84758021339E+03  0.11053442773E+04  0.18266282962E+04  0.10100000352E+00 0. -1.
       -3    1    3    3    0  502  0.11816906249E+04 -0.84758021339E+03 -0.12202986304E+04  0.18983976687E+04  0.10100000352E+00 0.  1.
</event>
<event>
 5   0  0.5140842E-08  0.3817729E+04  0.7818609E-02  0.8042361E-01
        2   -1    0    0  501    0  0.00000000000E+00  0.00000000000E+00  0.21261125704E+04  0.21261125704E+04  0.25500000920E-02 0. -1.
       -2   -1    0    0    0  501  0.00000000000E+00  0.00000000000E+00 -0.17138154004E+04  0.17138154004E+04  0.25500000920E-02 0.  1.
    10030    2    1    2    0    0  0.00000000000E+00  0.00000000000E+00  0.41229716999E+03  0.38399279708E+04  0.38177294122E+04 0.  0.
        2    1    3    3  502    0 -0.28201671509E+03  0.39257740879E+03 -0.16512383402E+04  0.17205343663E+04  0.25500000920E-02 0.  1.
       -2    1    3    3    0  502  0.28201671509E+03 -0.39257740879E+03  0.20635355101E+04  0.21193936046E+04  0.25500000920E-02 0. -1.
</event>
<event>
 5   0  0.1628250E-08  0.3811155E+04  0.7818609E-02  0.8043765E-01
        1   -1    0    0  501    0  0.00000000000E+00  0.00000000000E+00  0.16208100116E+04  0.16208100116E+04  0.50400001928E-02 0.  1.
       -1   -1    0    0    0  501  0.00000000000E+00  0.00000000000E+00 -0.22403774117E+04  0.22403774117E+04  0.50400001928E-02 0. -1.
    10030    2    1    2    0    0  0.00000000000E+00  0.00000000000E+00 -0.61956740004E+03  0.38611874233E+04  0.38111552782E+04 0.  0.
        4    1    3    3  502    0  0.18466877844E+04 -0.39579921563E+03 -0.56671046424E+03  0.19718202645E+04  0.12699999809E+01 0. -1.
       -4    1    3    3    0  502 -0.18466877844E+04  0.39579921563E+03 -0.52856935801E+02  0.18893671588E+04  0.12699999809E+01 0.  1.
</event>
<event>
 5   0  0.1628250E-08  0.3792706E+04  0.7818609E-02  0.8047722E-01
        1   -1    0    0  501    0  0.00000000000E+00  0.00000000000E+00  0.22077662592E+04  0.22077662592E+04  0.50400001928E-02 0.  1.
       -1   -1    0    0    0  501  0.00000000000E+00  0.00000000000E+00 -0.16288653657E+04  0.16288653658E+04  0.50400001928E-02 0. -1.
    10030    2    1    2    0    0  0.00000000000E+00  0.00000000000E+00  0.57890089343E+03  0.38366316249E+04  0.37927056280E+04 0.  0.
        5    1    3    3  502    0  0.12212898656E+04  0.59859510798E+03  0.16262191618E+04  0.21200178989E+04  0.46999998093E+01 0.  1.
       -5    1    3    3    0  502 -0.12212898656E+04 -0.59859510798E+03 -0.10473182684E+04  0.17166137261E+04  0.46999998093E+01 0. -1.
</event>
<event>
 5   0  0.5159761E-08  0.3797869E+04  0.7818609E-02  0.8046612E-01
        2   -1    0    0  501    0  0.00000000000E+00  0.00000000000E+00  0.20566762793E+04  0.20566762793E+04  0.25500000920E-02 0.  1.
       -2   -1    0    0    0  501  0.00000000000E+00  0.00000000000E+00 -0.17532914989E+04  0.17532914989E+04  0.25500000920E-02 0. -1.
    10030    2    1    2    0    0  0.00000000000E+00  0.00000000000E+00  0.30338478038E+03  0.38099677782E+04  0.37978694219E+04 0.  0.
        5    1    3    3  502    0  0.14533022066E+04 -0.11128996240E+04  0.65857225479E+03  0.19453463397E+04  0.46999998093E+01 0.  1.
       -5    1    3    3    0  502 -0.14533022066E+04  0.11128996240E+04 -0.35518747441E+03  0.18646214385E+04  0.46999998093E+01 0. -1.
</event>
<event>
 5   0  0.1628250E-08  0.3793188E+04  0.7818609E-02  0.8047618E-01
       -1   -1    0    0    0  501  0.00000000000E+00  0.00000000000E+00  0.19338648258E+04  0.19338648258E+04  0.50400001928E-02 0.  1.
        1   -1    0    0  501    0  0.00000000000E+00  0.00000000000E+00 -0.18600409982E+04  0.18600409982E+04  0.50400001928E-02 0. -1.
    10030    2    1    2    0    0  0.00000000000E+00  0.00000000000E+00  0.73823827640E+02  0.37939058240E+04  0.37931875045E+04 0.  0.
        5    1    3    3  502    0  0.72579257264E+03 -0.17141124853E+04  0.40042165620E+03  0.19040262770E+04  0.46999998093E+01 0.  1.
       -5    1    3    3    0  502 -0.72579257264E+03  0.17141124853E+04 -0.32659782856E+03  0.18898795470E+04  0.46999998093E+01 0. -1.
</event>
<event>
 5   0  0.1666051E-08  0.3794875E+04  0.7818609E-02  0.8047256E-01
        1   -1    0    0  501    0  0.00000000000E+00  0.00000000000E+00  0.25225125866E+04  0.25225125866E+04  0.50400001928E-02 0.  1.
       -1   -1    0    0    0  501  0.00000000000E+00  0.00000000000E+00 -0.14272550864E+04  0.14272550864E+04  0.50400001928E-02 0. -1.
    10030    2    1    2    0    0  0.00000000000E+00  0.00000000000E+00  0.10952575002E+04  0.39497676730E+04  0.37948749227E+04 0.  0.
        2    1    3    3  502    0 -0.15561686014E+04 -0.24769027432E+03 -0.55251837714E+03  0.16698166801E+04  0.25500000920E-02 0. -1.
       -2    1    3    3    0  502  0.15561686014E+04  0.24769027432E+03  0.16477758773E+04  0.22799509929E+04  0.25500000920E-02 0.  1.
</event>
<event>
 5   0  0.5147582E-08  0.3765334E+04  0.7818609E-02  0.8053635E-01
       -2   -1    0    0    0  501  0.00000000000E+00  0.00000000000E+00  0.13745044955E+04  0.13745044955E+04  0.25500000920E-02 0.  1.
        2   -1    0    0  501    0  0.00000000000E+00  0.00000000000E+00 -0.25787000559E+04  0.25787000559E+04  0.25500000920E-02 0. -1.
    10030    2    1    2    0    0  0.00000000000E+00  0.00000000000E+00 -0.12041955604E+04  0.39532045514E+04  0.37653338866E+04 0.  0.
        1    1    3    3  502    0  0.48996179608E+03  0.61835972257E+03  0.11925786560E+04  0.14299213821E+04  0.50400001928E-02 0.  1.
       -1    1    3    3    0  502 -0.48996179608E+03 -0.61835972257E+03 -0.23967742164E+04  0.25232831693E+04  0.50400001928E-02 0. -1.
</event>
<event>
 5   0  0.1628250E-08  0.3795678E+04  0.7818609E-02  0.8047083E-01
        1   -1    0    0  501    0  0.00000000000E+00  0.00000000000E+00  0.20302769862E+04  0.20302769862E+04  0.50400001928E-02 0.  1.
       -1   -1    0    0    0  501  0.00000000000E+00  0.00000000000E+00 -0.17740402394E+04  0.17740402394E+04  0.50400001928E-02 0. -1.
    10030    2    1    2    0    0  0.00000000000E+00  0.00000000000E+00  0.25623674682E+03  0.38043172256E+04  0.37956781057E+04 0.  0.
        4    1    3    3  502    0  0.83859031674E+03  0.10327361953E+04 -0.12284812938E+04  0.18107859262E+04  0.12699999809E+01 0. -1.
       -4    1    3    3    0  502 -0.83859031674E+03 -0.10327361953E+04  0.14847180406E+04  0.19935312994E+04  0.12699999809E+01 0.  1.
</event>
<event>
 5   0  0.5147582E-08  0.3807306E+04  0.7818609E-02  0.8044589E-01
        2   -1    0    0  501    0  0.00000000000E+00  0.00000000000E+00  0.20549891796E+04  0.20549891796E+04  0.25500000920E-02 0.  1.
       -2   -1    0    0    0  501  0.00000000000E+00  0.00000000000E+00 -0.17634619273E+04  0.17634619273E+04  0.25500000920E-02 0. -1.
    10030    2    1    2    0    0  0.00000000000E+00  0.00000000000E+00  0.29152725235E+03  0.38184511069E+04  0.38073062284E+04 0.  0.
        1    1    3    3  502    0 -0.13339203769E+04  0.89571963862E+03 -0.87812534087E+03  0.18310547117E+04  0.50400001928E-02 0. -1.
       -1    1    3    3    0  502  0.13339203769E+04 -0.89571963862E+03  0.11696525932E+04  0.19873963952E+04  0.50400001928E-02 0.  1.
</event>
<event>
 5   0  0.5147582E-08  0.3803722E+04  0.7818609E-02  0.8045357E-01
       -2   -1    0    0    0  501  0.00000000000E+00  0.00000000000E+00  0.20616988153E+04  0.20616988153E+04  0.25500000920E-02 0. -1.
        2   -1    0    0  501    0  0.00000000000E+00  0.00000000000E+00 -0.17544149718E+04  0.17544149718E+04  0.25500000920E-02 0.  1.
    10030    2    1    2    0    0  0.00000000000E+00  0.00000000000E+00  0.30728384351E+03  0.38161137871E+04  0.38037220029E+04 0.  0.
        1    1    3    3  502    0  0.13110798513E+04  0.13276550350E+04 -0.21562918922E+03  0.18783221810E+04  0.50400001928E-02 0.  1.
       -1    1    3    3    0  502 -0.13110798513E+04 -0.13276550350E+04  0.52291303273E+03  0.19377916060E+04  0.50400001928E-02 0. -1.
</event>
<event>
 5   0  0.1628250E-08  0.3797308E+04  0.7818609E-02  0.8046733E-01
       -1   -1    0    0    0  501  0.00000000000E+00  0.00000000000E+00  0.17122189575E+04  0.17122189575E+04  0.50400001928E-02 0.  1.
        1   -1    0    0  501    0  0.00000000000E+00  0.00000000000E+00 -0.21053887733E+04  0.21053887733E+04  0.50400001928E-02 0. -1.
    10030    2    1    2    0    0  0.00000000000E+00  0.00000000000E+00 -0.39316981577E+03  0.38176077308E+04  0.37973077676E+04 0.  0.
        4    1    3    3  502    0 -0.99506968534E+02 -0.15284552735E+04  0.93137903262E+03  0.17926365151E+04  0.12699999809E+01 0.  1.
       -4    1    3    3    0  502  0.99506968534E+02  0.15284552735E+04 -0.13245488484E+04  0.20249712157E+04  0.12699999809E+01 0. -1.
</event>
<event>
 5   0  0.1628250E-08  0.3797331E+04  0.7818609E-02  0.8046728E-01
        1   -1    0    0  501    0  0.00000000000E+00  0.00000000000E+00  0.20532950564E+04  0.20532950565E+04  0.50400001928E-02 0. -1.
       -1   -1    0    0    0  501  0.00000000000E+00  0.00000000000E+00 -0.17556811149E+04  0.17556811149E+04  0.50400001928E-02 0.  1.
    10030    2    1    2    0    0  0.00000000000E+00  0.00000000000E+00  0.29761394158E+03  0.38089761713E+04  0.37973313545E+04 0.  0.
        5    1    3    3  502    0 -0.10571967832E+04 -0.15496048447E+04 -0.14529695825E+03  0.18815083069E+04  0.46999998093E+01 0. -1.
       -5    1    3    3    0  502  0.10571967832E+04  0.15496048447E+04  0.44291089984E+03  0.19274678644E+04  0.46999998093E+01 0.  1.
</event>
<event>
 5   0  0.5207474E-08  0.3801400E+04  0.7818609E-02  0.8045854E-01
        2   -1    0    0  501    0  0.00000000000E+00  0.00000000000E+00  0.18539965604E+04  0.18539965604E+04  0.25500000920E-02 0. -1.
       -2   -1    0    0    0  501  0.00000000000E+00  0.00000000000E+00 -0.19485800252E+04  0.19485800252E+04  0.25500000920E-02 0.  1.
    10030    2    1    2    0    0  0.00000000000E+00  0.00000000000E+00 -0.94583464846E+02  0.38025765856E+04  0.38014000917E+04 0.  0.
        4    1    3    3  502    0 -0.92160426611E+03  0.16528938237E+04 -0.22411361922E+03  0.19056864755E+04  0.12699999809E+01 0.  1.
       -4    1    3    3    0  502  0.92160426611E+03 -0.16528938237E+04  0.12953015438E+03  0.18968901100E+04  0.12699999809E+01 0. -1.
</event>
<event>
 5   0  0.1628250E-08  0.3798415E+04  0.7818609E-02  0.8046495E-01
        1   -1    0    0  501    0  0.00000000000E+00  0.00000000000E+00  0.19288231433E+04  0.19288231433E+04  0.50400001928E-02 0.  1.
       -1   -1    0    0    0  501  0.00000000000E+00  0.00000000000E+00 -0.18700465680E+04  0.18700465680E+04  0.50400001928E-02 0. -1.
    10030    2    1    2    0    0  0.00000000000E+00  0.00000000000E+00  0.58776575278E+02  0.37988697113E+04  0.37984149849E+04 0.  0.
        4    1    3    3  502    0 -0.34908116924E+03  0.29681604141E+03  0.18727123122E+04  0.19279549897E+04  0.12699999809E+01 0.  1.
       -4    1    3    3    0  502  0.34908116924E+03 -0.29681604141E+03 -0.18139357369E+04  0.18709147216E+04  0.12699999809E+01 0. -1.
</event>
<event>
 5   0  0.1628250E-08  0.3801204E+04  0.7818609E-02  0.8045896E-01
        1   -1    0    0  501    0  0.00000000000E+00  0.00000000000E+00  0.23764799480E+04  0.23764799480E+04  0.50400001928E-02 0. -1.
       -1   -1    0    0    0  501  0.00000000000E+00  0.00000000000E+00 -0.15200164077E+04  0.15200164077E+04  0.50400001928E-02 0.  1.
    10030    2    1    2    0    0  0.00000000000E+00  0.00000000000E+00  0.85646354034E+03  0.38964963557E+04  0.38012042899E+04 0.  0.
        1    1    3    3  502    0  0.47800776603E+03 -0.22067547232E+03 -0.14437751783E+04  0.15367744968E+04  0.50400001928E-02 0.  1.
       -1    1    3    3    0  502 -0.47800776603E+03  0.22067547232E+03  0.23002387186E+04  0.23597218589E+04  0.50400001928E-02 0. -1.
</event>
<event>
 5   0  0.1628250E-08  0.3815220E+04  0.7818609E-02  0.8042897E-01
        1   -1    0    0  501    0  0.00000000000E+00  0.00000000000E+00  0.18770340183E+04  0.18770340183E+04  0.50400001928E-02 0.  1.
       -1   -1    0    0    0  501  0.00000000000E+00  0.00000000000E+00 -0.19386837652E+04  0.19386837652E+04  0.50400001928E-02 0. -1.
    10030    2    1    2    0    0  0.00000000000E+00  0.00000000000E+00 -0.61649746905E+02  0.38157177834E+04  0.38152197200E+04 0.  0.
        5    1    3    3  502    0 -0.29486894813E+03 -0.97323840026E+03 -0.16449787540E+04  0.19339384353E+04  0.46999998093E+01 0. -1.
       -5    1    3    3    0  502  0.29486894813E+03  0.97323840026E+03  0.15833290071E+04  0.18817793481E+04  0.46999998093E+01 0.  1.
</event>
<event>
 5   0  0.5207474E-08  0.3798184E+04  0.7818609E-02  0.8046545E-01
       -2   -1    0    0    0  501  0.00000000000E+00  0.00000000000E+00  0.12987823867E+04  0.12987823867E+04  0.25500000920E-02 0.  1.
        2   -1    0    0  501    0  0.00000000000E+00  0.00000000000E+00 -0.27768703895E+04  0.27768703895E+04  0.25500000920E-02 0. -1.
    10030    2    1    2    0    0  0.00000000000E+00  0.00000000000E+00 -0.14780880028E+04  0.40756527762E+04  0.37981839618E+04 0.  0.
        4    1    3    3  502    0 -0.14239698657E+03  0.11083767089E+04 -0.23867213388E+04  0.26353778083E+04  0.12699999809E+01 0. -1.
       -4    1    3    3    0  502  0.14239698657E+03 -0.11083767089E+04  0.90863333606E+03  0.14402749678E+04  0.12699999809E+01 0.  1.
</event>
<event>
 5   0  0.5140842E-08  0.3804790E+04  0.7818609E-02  0.8045128E-01
       -2   -1    0    0    0  501  0.00000000000E+00  0.00000000000E+00  0.20926044579E+04  0.20926044579E+04  0.25500000920E-02 0.  1.
        2   -1    0    0  501    0  0.00000000000E+00  0.00000000000E+00 -0.17294749717E+04  0.17294749717E+04  0.25500000920E-02 0. -1.
    10030    2    1    2    0    0  0.00000000000E+00  0.00000000000E+00  0.36312948615E+03  0.38220794296E+04  0.38047901575E+04 0.  0.
        2    1    3    3  502    0  0.16260380003E+03 -0.68208990233E+03 -0.15949226566E+04  0.17422585661E+04  0.25500000920E-02 0. -1.
       -2    1    3    3    0  502 -0.16260380003E+03  0.68208990233E+03  0.19580521427E+04  0.20798208635E+04  0.25500000920E-02 0.  1.
</event>
<event>
 5   0  0.1628250E-08  0.3806508E+04  0.7818609E-02  0.8044760E-01
        1   -1    0    0  501    0  0.00000000000E+00  0.00000000000E+00  0.20010484829E+04  0.20010484829E+04  0.50400001928E-02 0. -1.
       -1   -1    0    0    0  501  0.00000000000E+00  0.00000000000E+00 -0.18102388055E+04  0.18102388055E+04  0.50400001928E-02 0.  1.
    10030    2    1    2    0    0  0.00000000000E+00  0.00000000000E+00  0.19080967748E+03  0.38112872884E+04  0.38065079091E+04 0.  0.
        5    1    3    3  502    0 -0.30300686031E+03 -0.15078092555E+04 -0.10271860304E+04  0.18494418453E+04  0.46999998093E+01 0.  1.
       -5    1    3    3    0  502  0.30300686031E+03  0.15078092555E+04  0.12179957079E+04  0.19618454431E+04  0.46999998093E+01 0. -1.
</event>
<event>
 5   0  0.1628250E-08  0.3797120E+04  0.7818609E-02  0.8046773E-01
       -1   -1    0    0    0  501  0.00000000000E+00  0.00000000000E+00  0.12864879870E+04  0.12864879870E+04  0.50400001928E-02 0. -1.
        1   -1    0    0  501    0  0.00000000000E+00  0.00000000000E+00 -0.28018367943E+04  0.28018367943E+04  0.50400001928E-02 0.  1.
    10030    2    1    2    0    0  0.00000000000E+00  0.00000000000E+00 -0.15153488073E+04  0.40883247813E+04  0.37971196333E+04 0.  0.
        1    1    3    3  502    0 -0.12795137515E+04  0.33019417569E+03  0.71008329702E+03  0.15001339682E+04  0.50400001928E-02 0. -1.
       -1    1    3    3    0  502  0.12795137515E+04 -0.33019417569E+03 -0.22254321044E+04  0.25881908131E+04  0.50400001928E-02 0.  1.
</event>
<event>
 5   0  0.5086209E-08  0.3794686E+04  0.7818609E-02  0.8047296E-01
       -2   -1    0    0    0  501  0.00000000000E+00  0.00000000000E+00  0.14899881510E+04  0.14899881510E+04  0.25500000920E-02 0. -1.
        2   -1    0    0  501    0  0.00000000000E+00  0.00000000000E+00 -0.24160665266E+04  0.24160665266E+04  0.25500000920E-02 0.  1.
    10030    2    1    2    0    0  0.00000000000E+00  0.00000000000E+00 -0.92607837561E+03  0.39060546776E+04  0.37946860195E+04 0.  0.
        3    1    3    3  502    0 -0.95753689011E+03  0.12215731979E+04  0.66022139426E+03  0.16867158247E+04  0.10100000352E+00 0. -1.
       -3    1    3    3    0  502  0.95753689011E+03 -0.12215731979E+04 -0.15862997699E+04  0.22193388529E+04  0.10100000352E+00 0.  1.
</event>
<event>
 5   0  0.5207474E-08  0.3800558E+04  0.7818609E-02  0.8046035E-01
        2   -1    0    0  501    0  0.00000000000E+00  0.00000000000E+00  0.19495295017E+04  0.19495295017E+04  0.25500000920E-02 0.  1.
       -2   -1    0    0    0  501  0.00000000000E+00  0.00000000000E+00 -0.18522729354E+04  0.18522729354E+04  0.25500000920E-02 0. -1.
    10030    2    1    2    0    0  0.00000000000E+00  0.00000000000E+00  0.97256566312E+02  0.38018024371E+04  0.38005582394E+04 0.  0.
        4    1    3    3  502    0  0.13848762140E+04  0.54880370650E+03 -0.11315848466E+04  0.18707093613E+04  0.12699999809E+01 0. -1.
       -4    1    3    3    0  502 -0.13848762140E+04 -0.54880370650E+03  0.12288414129E+04  0.19310930758E+04  0.12699999809E+01 0.  1.
</event>
<event>
 5   0  0.5207474E-08  0.3795582E+04  0.7818609E-02  0.8047104E-01
       -2   -1    0    0    0  501  0.00000000000E+00  0.00000000000E+00  0.24268544648E+04  0.24268544648E+04  0.25500000920E-02 0.  1.
        2   -1    0    0  501    0  0.00000000000E+00  0.00000000000E+00 -0.14840656990E+04  0.14840656990E+04  0.25500000920E-02 0. -1.
    10030    2    1    2    0    0  0.00000000000E+00  0.00000000000E+00  0.94278876575E+03  0.39109201638E+04  0.37955824152E+04 0.  0.
        4    1    3    3  502    0  0.73007031492E+03  0.14534331166E+04  0.14789316621E+04  0.21983427765E+04  0.12699999809E+01 0.  1.
       -4    1    3    3    0  502 -0.73007031492E+03 -0.14534331166E+04 -0.53614289635E+03  0.17125773873E+04  0.12699999809E+01 0. -1.
</event>
<event>
 5   0  0.1628473E-08  0.3819743E+04  0.7818609E-02  0.8041931E-01
       -1   -1    0    0    0  501  0.00000000000E+00  0.00000000000E+00  0.25515174477E+04  0.25515174478E+04  0.50400001928E-02 0. -1.
        1   -1    0    0  501    0  0.00000000000E+00  0.00000000000E+00 -0.14295843784E+04  0.14295843784E+04  0.50400001928E-02 0.  1.
    10030    2    1    2    0    0  0.00000000000E+00  0.00000000000E+00  0.11219330694E+04  0.39811018261E+04  0.38197431770E+04 0.  0.
        3    1    3    3  502    0  0.92297018778E+03  0.16276538964E+04  0.95985894048E+03  0.21029646620E+04  0.10100000352E+00 0. -1.
       -3    1    3    3    0  502 -0.92297018778E+03 -0.16276538964E+04  0.16207412888E+03  0.18781371641E+04  0.10100000352E+00 0.  1.
</event>
<event>
 5   0  0.1628250E-08  0.3804062E+04  0.7818609E-02  0.8045284E-01
        1   -1    0    0  501    0  0.00000000000E+00  0.00000000000E+00  0.22845834538E+04  0.22845834538E+04  0.50400001928E-02 0.  1.
       -1   -1    0    0    0  501  0.00000000000E+00  0.00000000000E+00 -0.15835365228E+04  0.15835365228E+04  0.50400001928E-02 0. -1.
    10030    2    1    2    0    0  0.00000000000E+00  0.00000000000E+00  0.70104693100E+03  0.38681199765E+04  0.38040616916E+04 0.  0.
        5    1    3    3  502    0  0.66356880324E+03 -0.11277852494E+04 -0.10531113769E+04  0.16796692495E+04  0.46999998093E+01 0. -1.
       -5    1    3    3    0  502 -0.66356880324E+03  0.11277852494E+04  0.17541583079E+04  0.21884507271E+04  0.46999998093E+01 0.  1.
</event>
<event>
 5   0  0.1628473E-08  0.3813429E+04  0.7818609E-02  0.8043279E-01
       -1   -1    0    0    0  501  0.00000000000E+00  0.00000000000E+00  0.13470455454E+04  0.13470455455E+04  0.50400001928E-02 0. -1.
        1   -1    0    0  501    0  0.00000000000E+00  0.00000000000E+00 -0.26989136813E+04  0.26989136813E+04  0.50400001928E-02 0.  1.
    10030    2    1    2    0    0  0.00000000000E+00  0.00000000000E+00 -0.13518681358E+04  0.40459592267E+04  0.38134287207E+04 0.  0.
        3    1    3    3  502    0 -0.15265726704E+04 -0.12912704076E+03 -0.18802533248E+04  0.24253763597E+04  0.10100000352E+00 0.  1.
       -3    1    3    3    0  502  0.15265726704E+04  0.12912704076E+03  0.52838518896E+03  0.16205828670E+04  0.10100000352E+00 0. -1.
</event>
<event>
 5   0  0.1666051E-08  0.3813883E+04  0.7818609E-02  0.8043182E-01
        1   -1    0    0  501    0  0.00000000000E+00  0.00000000000E+00  0.26019612968E+04  0.26019612968E+04  0.50400001928E-02 0. -1.
       -1   -1    0    0    0  501  0.00000000000E+00  0.00000000000E+00 -0.13975714450E+04  0.13975714450E+04  0.50400001928E-02 0.  1.
    10030    2    1    2    0    0  0.00000000000E+00  0.00000000000E+00  0.12043898518E+04  0.39995327419E+04  0.38138834851E+04 0.  0.
        2    1    3    3  502    0 -0.15637105356E+04 -0.89902794589E+03 -0.46787107562E+02  0.18043366981E+04  0.25500000920E-02 0.  1.
       -2    1    3    3    0  502  0.15637105356E+04  0.89902794589E+03  0.12511769593E+04  0.21951960437E+04  0.25500000920E-02 0. -1.
</event>
<event>
 5   0  0.5086209E-08  0.3800280E+04  0.7818609E-02  0.8046095E-01
        2   -1    0    0  501    0  0.00000000000E+00  0.00000000000E+00  0.18127739897E+04  0.18127739897E+04  0.25500000920E-02 0.  1.
       -2   -1    0    0    0  501  0.00000000000E+00  0.00000000000E+00 -0.19917169434E+04  0.19917169434E+04  0.25500000920E-02 0. -1.
    10030    2    1    2    0    0  0.00000000000E+00  0.00000000000E+00 -0.17894295374E+03  0.38044909331E+04  0.38002803422E+04 0.  0.
        3    1    3    3  502    0  0.27553415116E+03  0.17520140333E+04  0.59323749027E+03  0.18701344795E+04  0.10100000352E+00 0. -1.
       -3    1    3    3    0  502 -0.27553415116E+03 -0.17520140333E+04 -0.77218044401E+03  0.19343564536E+04  0.10100000352E+00 0.  1.
</event>
<event>
 5   0  0.5086209E-08  0.3812010E+04  0.7818609E-02  0.8043582E-01
        2   -1    0    0  501    0  0.00000000000E+00  0.00000000000E+00  0.19647682674E+04  0.19647682674E+04  0.25500000920E-02 0. -1.
       -2   -1    0    0    0  501  0.00000000000E+00  0.00000000000E+00 -0.18489994598E+04  0.18489994598E+04  0.25500000920E-02 0.  1.
    10030    2    1    2    0    0  0.00000000000E+00  0.00000000000E+00  0.11576880758E+03  0.38137677272E+04  0.38120102125E+04 0.  0.
        3    1    3    3  502    0  0.53823605051E+03 -0.12121156705E+04  0.14274322670E+04  0.19484571671E+04  0.10100000352E+00 0. -1.
       -3    1    3    3    0  502 -0.53823605051E+03  0.12121156705E+04 -0.13116634595E+04  0.18653105602E+04  0.10100000352E+00 0.  1.
</event>
<event>
 5   0  0.1628250E-08  0.3801215E+04  0.7818609E-02  0.8045894E-01
        1   -1    0    0  501    0  0.00000000000E+00  0.00000000000E+00  0.23016053771E+04  0.23016053771E+04  0.50400001928E-02 0.  1.
       -1   -1    0    0    0  501  0.00000000000E+00  0.00000000000E+00 -0.15694739818E+04  0.15694739819E+04  0.50400001928E-02 0. -1.
    10030    2    1    2    0    0  0.00000000000E+00  0.00000000000E+00  0.73213139527E+03  0.38710793590E+04  0.38012154666E+04 0.  0.
        5    1    3    3  502    0 -0.37027850237E+03 -0.16212218358E+04  0.13032078274E+04  0.21127799557E+04  0.46999998093E+01 0. -1.
       -5    1    3    3    0  502  0.37027850237E+03  0.16212218358E+04 -0.57107643209E+03  0.17582994032E+04  0.46999998093E+01 0.  1.
</event>
<event>
 5   0  0.5140842E-08  0.3799529E+04  0.7818609E-02  0.8046256E-01
       -2   -1    0    0    0  501  0.00000000000E+00  0.00000000000E+00  0.27810933563E+04  0.27810933563E+04  0.25500000920E-02 0.  1.
        2   -1    0    0  501    0  0.00000000000E+00  0.00000000000E+00 -0.12977285360E+04  0.12977285360E+04  0.25500000920E-02 0. -1.
    10030    2    1    2    0    0  0.00000000000E+00  0.00000000000E+00  0.14833648203E+04  0.40788218923E+04  0.37995285022E+04 0.  0.
        2    1    3    3  502    0  0.12034066206E+04 -0.82641946085E+03  0.20467546495E+04  0.25140328588E+04  0.25500000920E-02 0.  1.
       -2    1    3    3    0  502 -0.12034066206E+04  0.82641946085E+03 -0.56338982920E+03  0.15647890335E+04  0.25500000920E-02 0. -1.
</event>
<event>
 5   0  0.5147582E-08  0.3792882E+04  0.7818609E-02  0.8047684E-01
       -2   -1    0    0    0  501  0.00000000000E+00  0.00000000000E+00  0.14939839490E+04  0.14939839490E+04  0.25500000920E-02 0. -1.
        2   -1    0    0  501    0  0.00000000000E+00  0.00000000000E+00 -0.24073144162E+04  0.24073144162E+04  0.25500000920E-02 0.  1.
    10030    2    1    2    0    0  0.00000000000E+00  0.00000000000E+00 -0.91333046722E+03  0.39012983653E+04  0.37928823331E+04 0.  0.
        1    1    3    3  502    0  0.45086390208E+03 -0.32981825308E+03  0.14074375346E+04  0.15142452748E+04  0.50400001928E-02 0. -1.
       -1    1    3    3    0  502 -0.45086390208E+03  0.32981825308E+03 -0.23207680019E+04  0.23870530905E+04  0.50400001928E-02 0.  1.
</event>
<event>
 5   0  0.5207474E-08  0.3803571E+04  0.7818609E-02  0.8045389E-01
       -2   -1    0    0    0  501  0.00000000000E+00  0.00000000000E+00  0.16158775878E+04  0.16158775878E+04  0.25500000920E-02 0.  1.
        2   -1    0    0  501    0  0.00000000000E+00  0.00000000000E+00 -0.22382804660E+04  0.22382804660E+04  0.25500000920E-02 0. -1.
    10030    2    1    2    0    0  0.00000000000E+00  0.00000000000E+00 -0.62240287816E+03  0.38541580538E+04  0.38035705542E+04 0.  0.
        4    1    3    3  502    0  0.68483237734E+03 -0.17471021979E+04 -0.62421791609E+03  0.19776276431E+04  0.12699999809E+01 0. -1.
       -4    1    3    3    0  502 -0.68483237734E+03  0.17471021979E+04  0.18150379326E+01  0.18765304107E+04  0.12699999809E+01 0.  1.
</event>
<event>
 5   0  0.1628250E-08  0.3787346E+04  0.7818609E-02  0.8048876E-01
        1   -1    0    0  501    0  0.00000000000E+00  0.00000000000E+00  0.26241314255E+04  0.26241314255E+04  0.50400001928E-02 0. -1.
       -1   -1    0    0    0  501  0.00000000000E+00  0.00000000000E+00 -0.13665463493E+04  0.13665463493E+04  0.50400001928E-02 0.  1.
    10030    2    1    2    0    0  0.00000000000E+00  0.00000000000E+00  0.12575850762E+04  0.39906777748E+04  0.37873458884E+04 0.  0.
        5    1    3    3  502    0 -0.90033481582E+03  0.17368176883E+03  0.23746116383E+04  0.25455000806E+04  0.46999998093E+01 0. -1.
       -5    1    3    3    0  502  0.90033481582E+03 -0.17368176883E+03 -0.11170265621E+04  0.14451776942E+04  0.46999998093E+01 0.  1.
</event>
<event>
 5   0  0.5147582E-08  0.3808110E+04  0.7818609E-02  0.8044417E-01
        2   -1    0    0  501    0  0.00000000000E+00  0.00000000000E+00  0.17228746270E+04  0.17228746270E+04  0.25500000920E-02 0.  1.
       -2   -1    0    0    0  501  0.00000000000E+00  0.00000000000E+00 -0.21042887723E+04  0.21042887723E+04  0.25500000920E-02 0. -1.
    10030    2    1    2    0    0  0.00000000000E+00  0.00000000000E+00 -0.38141414537E+03  0.38271633993E+04  0.38081101526E+04 0.  0.
        1    1    3    3  502    0 -0.71163682343E+03 -0.71862610549E+03 -0.18120286149E+04  0.20751621983E+04  0.50400001928E-02 0. -1.
       -1    1    3    3    0  502  0.71163682343E+03  0.71862610549E+03  0.14306144695E+04  0.17520012010E+04  0.50400001928E-02 0.  1.
</event>
<event>
 5   0  0.5086209E-08  0.3809043E+04  0.7818609E-02  0.8044217E-01
       -2   -1    0    0    0  501  0.00000000000E+00  0.00000000000E+00  0.24095596453E+04  0.24095596453E+04  0.25500000920E-02 0. -1.
        2   -1    0    0  501    0  0.00000000000E+00  0.00000000000E+00 -0.15053378829E+04  0.15053378829E+04  0.25500000920E-02 0.  1.
    10030    2    1    2    0    0  0.00000000000E+00  0.00000000000E+00  0.90422176242E+03  0.39148975282E+04  0.38090426173E+04 0.  0.
        3    1    3    3  502    0  0.17954831947E+04 -0.61470987108E+03  0.28775026614E+03  0.19194864818E+04  0.10100000352E+00 0.  1.
       -3    1    3    3    0  502 -0.17954831947E+04  0.61470987108E+03  0.61647149628E+03  0.19954110464E+04  0.10100000352E+00 0. -1.
</event>
<event>
 5   0  0.1628250E-08  0.3842147E+04  0.7818609E-02  0.8037170E-01
       -1   -1    0    0    0  501  0.00000000000E+00  0.00000000000E+00  0.12945581007E+04  0.12945581007E+04  0.50400001928E-02 0.  1.
        1   -1    0    0  501    0  0.00000000000E+00  0.00000000000E+00 -0.28507978383E+04  0.28507978383E+04  0.50400001928E-02 0. -1.
    10030    2    1    2    0    0  0.00000000000E+00  0.00000000000E+00 -0.15562397376E+04  0.41453559390E+04  0.38421470222E+04 0.  0.
        4    1    3    3  502    0  0.18713116491E+04  0.13363028934E+03 -0.12240890478E+04  0.22401026656E+04  0.12699999809E+01 0.  1.
       -4    1    3    3    0  502 -0.18713116491E+04 -0.13363028934E+03 -0.33215068983E+03  0.19052532735E+04  0.12699999809E+01 0. -1.
</event>
<event>
 5   0  0.5159761E-08  0.3799662E+04  0.7818609E-02  0.8046227E-01
       -2   -1    0    0    0  501  0.00000000000E+00  0.00000000000E+00  0.15415111916E+04  0.15415111916E+04  0.25500000920E-02 0.  1.
        2   -1    0    0  501    0  0.00000000000E+00  0.00000000000E+00 -0.23414412693E+04  0.23414412693E+04  0.25500000920E-02 0. -1.
    10030    2    1    2    0    0  0.00000000000E+00  0.00000000000E+00 -0.79993007772E+03  0.38829524609E+04  0.37996620487E+04 0.  0.
        5    1    3    3  502    0 -0.15999657956E+04 -0.80325985187E+03  0.24975372198E+03  0.18076271597E+04  0.46999998093E+01 0.  1.
       -5    1    3    3    0  502  0.15999657956E+04  0.80325985187E+03 -0.10496837997E+04  0.20753253013E+04  0.46999998093E+01 0. -1.
</event>
<event>
 5   0  0.5140842E-08  0.3795336E+04  0.7818609E-02  0.8047156E-01
       -2   -1    0    0    0  501  0.00000000000E+00  0.00000000000E+00  0.21008125663E+04  0.21008125663E+04  0.25500000920E-02 0. -1.
        2   -1    0    0  501    0  0.00000000000E+00  0.00000000000E+00 -0.17141672792E+04  0.17141672792E+04  0.25500000920E-02 0.  1.
    10030    2    1    2    0    0  0.00000000000E+00  0.00000000000E+00  0.38664528712E+03  0.38149798455E+04  0.37953361701E+04 0.  0.
        2    1    3    3  502    0  0.57839937158E+03 -0.81524353705E+03 -0.14280904174E+04  0.17431609502E+04  0.25500000920E-02 0.  1.
       -2    1    3    3    0  502 -0.57839937158E+03  0.81524353705E+03  0.18147357046E+04  0.20718188954E+04  0.25500000920E-02 0. -1.
</event>
<event>
 5   0  0.5140842E-08  0.3804110E+04  0.7818609E-02  0.8045273E-01
        2   -1    0    0  501    0  0.00000000000E+00  0.00000000000E+00  0.26684454725E+04  0.26684454725E+04  0.25500000920E-02 0.  1.
       -2   -1    0    0    0  501  0.00000000000E+00  0.00000000000E+00 -0.13557755579E+04  0.13557755579E+04  0.25500000920E-02 0. -1.
    10030    2    1    2    0    0  0.00000000000E+00  0.00000000000E+00  0.13126699146E+04  0.40242210303E+04  0.38041099611E+04 0.  0.
        2    1    3    3  502    0 -0.16173218735E+04 -0.75270479382E+03 -0.41788318436E+02  0.17843880780E+04  0.25500000920E-02 0. -1.
       -2    1    3    3    0  502  0.16173218735E+04  0.75270479382E+03  0.13544582331E+04  0.22398329523E+04  0.25500000920E-02 0.  1.
</event>
<event>
 5   0  0.1628473E-08  0.3702243E+04  0.7818609E-02  0.8067465E-01
       -1   -1    0    0    0  501  0.00000000000E+00  0.00000000000E+00  0.18169151892E+04  0.18169151892E+04  0.50400001928E-02 0. -1.
        1   -1    0    0  501    0  0.00000000000E+00  0.00000000000E+00 -0.18859713876E+04  0.18859713876E+04  0.50400001928E-02 0.  1.
    10030    2    1    2    0    0  0.00000000000E+00  0.00000000000E+00 -0.69056198406E+02  0.37028865768E+04  0.37022425963E+04 0.  0.
        3    1    3    3  502    0 -0.50005486478E+03  0.15636880722E+04  0.82088366592E+03  0.18354904680E+04  0.10100000352E+00 0.  1.
       -3    1    3    3    0  502  0.50005486478E+03 -0.15636880722E+04 -0.88993986432E+03  0.18673961088E+04  0.10100000352E+00 0. -1.
</event>
<event>
 5   0  0.1666051E-08  0.3801433E+04  0.7818609E-02  0.8045847E-01
       -1   -1    0    0    0  501  0.00000000000E+00  0.00000000000E+00  0.23794194082E+04  0.23794194082E+04  0.50400001928E-02 0. -1.
        1   -1    0    0  501    0  0.00000000000E+00  0.00000000000E+00 -0.15183216745E+04  0.15183216745E+04  0.50400001928E-02 0.  1.
    10030    2    1    2    0    0  0.00000000000E+00  0.00000000000E+00  0.86109773367E+03  0.38977410827E+04  0.38014334455E+04 0.  0.
        2    1    3    3  502    0 -0.15896878528E+03  0.18670031625E+04  0.75761641036E+03  0.20211270393E+04  0.25500000920E-02 0. -1.
       -2    1    3    3    0  502  0.15896878528E+03 -0.18670031625E+04  0.10348132331E+03  0.18766140434E+04  0.25500000920E-02 0.  1.
</event>
<event>
 5   0  0.5147582E-08  0.3797584E+04  0.7818609E-02  0.8046674E-01
        2   -1    0    0  501    0  0.00000000000E+00  0.00000000000E+00  0.26197181167E+04  0.26197181167E+04  0.25500000920E-02 0. -1.
       -2   -1    0    0    0  501  0.00000000000E+00  0.00000000000E+00 -0.13762591376E+04  0.13762591376E+04  0.25500000920E-02 0.  1.
    10030    2    1    2    0    0  0.00000000000E+00  0.00000000000E+00  0.12434589791E+04  0.39959772543E+04  0.37975839667E+04 0.  0.
        1    1    3    3  502    0  0.87139660890E+02  0.66155687733E+03  0.24922831449E+04  0.25800631963E+04  0.50400001928E-02 0. -1.
       -1    1    3    3    0  502 -0.87139660890E+02 -0.66155687733E+03 -0.12488241658E+04  0.14159140580E+04  0.50400001928E-02 0.  1.
</event>
<event>
 5   0  0.1666051E-08  0.3797686E+04  0.7818609E-02  0.8046652E-01
       -1   -1    0    0    0  501  0.00000000000E+00  0.00000000000E+00  0.20482518347E+04  0.20482518347E+04  0.50400001928E-02 0.  1.
        1   -1    0    0  501    0  0.00000000000E+00  0.00000000000E+00 -0.17603331609E+04  0.17603331609E+04  0.50400001928E-02 0. -1.
    10030    2    1    2    0    0  0.00000000000E+00  0.00000000000E+00  0.28791867382E+03  0.38085849956E+04  0.37976864675E+04 0.  0.
        2    1    3    3  502    0 -0.12727934963E+04  0.12903942154E+04 -0.42377933054E+03  0.18613729977E+04  0.25500000920E-02 0. -1.
       -2    1    3    3    0  502  0.12727934963E+04 -0.12903942154E+04  0.71169800436E+03  0.19472119979E+04  0.25500000920E-02 0.  1.
</event>
<event>
 5   0  0.1628250E-08  0.3779423E+04  0.7818609E-02  0.8050585E-01
        1   -1    0    0  501    0  0.00000000000E+00  0.00000000000E+00  0.11655803092E+04  0.11655803093E+04  0.50400001928E-02 0.  1.
       -1   -1    0    0    0  501  0.00000000000E+00  0.00000000000E+00 -0.30637173866E+04  0.30637173866E+04  0.50400001928E-02 0. -1.
    10030    2    1    2    0    0  0.00000000000E+00  0.00000000000E+00 -0.18981370773E+04  0.42292976958E+04  0.37794225267E+04 0.  0.
        5    1    3    3  502    0  0.69875607446E+03 -0.13203143526E+04  0.34606218048E+03  0.15333855237E+04  0.46999998093E+01 0.  1.
       -5    1    3    3    0  502 -0.69875607446E+03  0.13203143526E+04 -0.22441992578E+04  0.26959121722E+04  0.46999998093E+01 0. -1.
</event>
<event>
 5   0  0.5159761E-08  0.3800208E+04  0.7818609E-02  0.8046110E-01
       -2   -1    0    0    0  501  0.00000000000E+00  0.00000000000E+00  0.32256004029E+04  0.32256004029E+04  0.25500000920E-02 0. -1.
        2   -1    0    0  501    0  0.00000000000E+00  0.00000000000E+00 -0.11192937941E+04  0.11192937941E+04  0.25500000920E-02 0.  1.
    10030    2    1    2    0    0  0.00000000000E+00  0.00000000000E+00  0.21063066088E+04  0.43448941970E+04  0.38002076328E+04 0.  0.
        5    1    3    3  502    0 -0.24930997693E+03 -0.19964576908E+03  0.31946818297E+04  0.32106117767E+04  0.46999998093E+01 0. -1.
       -5    1    3    3    0  502  0.24930997693E+03  0.19964576908E+03 -0.10883752208E+04  0.11342824203E+04  0.46999998093E+01 0.  1.
</event>
<event>
 5   0  0.1666051E-08  0.3816987E+04  0.7818609E-02  0.8042519E-01
        1   -1    0    0  501    0  0.00000000000E+00  0.00000000000E+00  0.25333515789E+04  0.25333515789E+04  0.50400001928E-02 0. -1.
       -1   -1    0    0    0  501  0.00000000000E+00  0.00000000000E+00 -0.14377587273E+04  0.14377587273E+04  0.50400001928E-02 0.  1.
    10030    2    1    2    0    0  0.00000000000E+00  0.00000000000E+00  0.10955928516E+04  0.39711103062E+04  0.38169874728E+04 0.  0.
        2    1    3    3  502    0  0.12068733052E+03  0.12823668030E+03  0.25248812422E+04  0.25310146909E+04  0.25500000920E-02 0. -1.
       -2    1    3    3    0  502 -0.12068733052E+03 -0.12823668030E+03 -0.14292883906E+04  0.14400956154E+04  0.25500000920E-02 0.  1.
</event>
<event>
 5   0  0.1628473E-08  0.3799097E+04  0.7818609E-02  0.8046349E-01
        1   -1    0    0  501    0  0.00000000000E+00  0.00000000000E+00  0.24518198892E+04  0.24518198892E+04  0.50400001928E-02 0. -1.
       -1   -1    0    0    0  501  0.00000000000E+00  0.00000000000E+00 -0.14716760215E+04  0.14716760215E+04  0.50400001928E-02 0.  1.
    10030    2    1    2    0    0  0.00000000000E+00  0.00000000000E+00  0.98014386776E+03  0.39234959107E+04  0.37990970190E+04 0.  0.
        3    1    3    3  502    0 -0.15879147598E+04  0.10333328477E+04  0.34758887529E+03  0.19261537049E+04  0.10100000352E+00 0. -1.
       -3    1    3    3    0  502  0.15879147598E+04 -0.10333328477E+04  0.63255499247E+03  0.19973422058E+04  0.10100000352E+00 0.  1.
</event>
<event>
 5   0  0.1628250E-08  0.3789748E+04  0.7818609E-02  0.8048358E-01
       -1   -1    0    0    0  501  0.00000000000E+00  0.00000000000E+00  0.16465976808E+04  0.16465976808E+04  0.50400001928E-02 0. -1.
        1   -1    0    0  501    0  0.00000000000E+00  0.00000000000E+00 -0.21805861166E+04  0.21805861167E+04  0.50400001928E-02 0.  1.
    10030    2    1    2    0    0  0.00000000000E+00  0.00000000000E+00 -0.53398843582E+03  0.38271837975E+04  0.37897482991E+04 0.  0.
        5    1    3    3  502    0 -0.12158188573E+04 -0.42723559243E+03  0.11358933822E+04  0.17178537804E+04  0.46999998093E+01 0. -1.
       -5    1    3    3    0  502  0.12158188573E+04  0.42723559243E+03 -0.16698818180E+04  0.21093300171E+04  0.46999998093E+01 0.  1.
</event>
<event>
 5   0  0.5140842E-08  0.3800451E+04  0.7818609E-02  0.8046058E-01
       -2   -1    0    0    0  501  0.00000000000E+00  0.00000000000E+00  0.22917515445E+04  0.22917515445E+04  0.25500000920E-02 0. -1.
        2   -1    0    0  501    0  0.00000000000E+00  0.00000000000E+00 -0.15755882812E+04  0.15755882812E+04  0.25500000920E-02 0.  1.
    10030    2    1    2    0    0  0.00000000000E+00  0.00000000000E+00  0.71616326335E+03  0.38673398257E+04  0.38004509611E+04 0.  0.
        2    1    3    3  502    0 -0.14841358711E+04  0.67450805841E+03 -0.63544045864E+03  0.17496871095E+04  0.25500000920E-02 0.  1.
       -2    1    3    3    0  502  0.14841358711E+04 -0.67450805841E+03  0.13516037220E+04  0.21176527161E+04  0.25500000920E-02 0. -1.
</event>
<event>
 5   0  0.5147582E-08  0.3745514E+04  0.7818609E-02  0.8057950E-01
        2   -1    0    0  501    0  0.00000000000E+00  0.00000000000E+00  0.19919854792E+04  0.19919854792E+04  0.25500000920E-02 0.  1.
       -2   -1    0    0    0  501  0.00000000000E+00  0.00000000000E+00 -0.17606646374E+04  0.17606646374E+04  0.25500000920E-02 0. -1.
    10030    2    1    2    0    0  0.00000000000E+00  0.00000000000E+00  0.23132084175E+03  0.37526501166E+04  0.37455137920E+04 0.  0.
        1    1    3    3  502    0  0.42716360527E+03  0.17700588918E+04  0.55426289292E+03  0.19033613899E+04  0.50400001928E-02 0.  1.
       -1    1    3    3    0  502 -0.42716360527E+03 -0.17700588918E+04 -0.32294205117E+03  0.18492887267E+04  0.50400001928E-02 0. -1.
</event>
<event>
 5   0  0.1628473E-08  0.3800611E+04  0.7818609E-02  0.8046024E-01
       -1   -1    0    0    0  501  0.00000000000E+00  0.00000000000E+00  0.19309682932E+04  0.19309682932E+04  0.50400001928E-02 0. -1.
        1   -1    0    0  501    0  0.00000000000E+00  0.00000000000E+00 -0.18701291788E+04  0.18701291788E+04  0.50400001928E-02 0.  1.
    10030    2    1    2    0    0  0.00000000000E+00  0.00000000000E+00  0.60839114399E+02  0.38010974721E+04  0.38006105555E+04 0.  0.
        3    1    3    3  502    0 -0.10629982944E+04  0.19136742855E+03 -0.15332938714E+04  0.18755204538E+04  0.10100000352E+00 0.  1.
       -3    1    3    3    0  502  0.10629982944E+04 -0.19136742855E+03  0.15941329858E+04  0.19255770182E+04  0.10100000352E+00 0. -1.
</event>
<event>
 5   0  0.5147582E-08  0.3799175E+04  0.7818609E-02  0.8046332E-01
       -2   -1    0    0    0  501  0.00000000000E+00  0.00000000000E+00  0.15783110402E+04  0.15783110402E+04  0.25500000920E-02 0.  1.
        2   -1    0    0  501    0  0.00000000000E+00  0.00000000000E+00 -0.22862616325E+04  0.22862616325E+04  0.25500000920E-02 0. -1.
    10030    2    1    2    0    0  0.00000000000E+00  0.00000000000E+00 -0.70795059229E+03  0.38645726727E+04  0.37991746342E+04 0.  0.
        1    1    3    3  502    0  0.50353000400E+02 -0.15491426261E+04  0.76313367553E+03  0.17276432813E+04  0.50400001928E-02 0.  1.
       -1    1    3    3    0  502 -0.50353000400E+02  0.15491426261E+04 -0.14710842678E+04  0.21369293914E+04  0.50400001928E-02 0. -1.
</event>
<event>
 5   0  0.5147582E-08  0.3804347E+04  0.7818609E-02  0.8045223E-01
       -2   -1    0    0    0  501  0.00000000000E+00  0.00000000000E+00  0.13988223744E+04  0.13988223744E+04  0.25500000920E-02 0.  1.
        2   -1    0    0  501    0  0.00000000000E+00  0.00000000000E+00 -0.25866507159E+04  0.25866507159E+04  0.25500000920E-02 0. -1.
    10030    2    1    2    0    0  0.00000000000E+00  0.00000000000E+00 -0.11878283415E+04  0.39854730903E+04  0.38043474584E+04 0.  0.
        1    1    3    3  502    0 -0.99268371035E+03  0.22670866309E+03  0.10892687800E+04  0.14910815678E+04  0.50400001928E-02 0.  1.
       -1    1    3    3    0  502  0.99268371035E+03 -0.22670866309E+03 -0.22770971215E+04  0.24943915225E+04  0.50400001928E-02 0. -1.
</event>
<event>
 5   0  0.5159761E-08  0.3795455E+04  0.7818609E-02  0.8047131E-01
       -2   -1    0    0    0  501  0.00000000000E+00  0.00000000000E+00  0.18258091745E+04  0.18258091745E+04  0.25500000920E-02 0. -1.
        2   -1    0    0  501    0  0.00000000000E+00  0.00000000000E+00 -0.19724784013E+04  0.19724784013E+04  0.25500000920E-02 0.  1.
    10030    2    1    2    0    0  0.00000000000E+00  0.00000000000E+00 -0.14666922682E+03  0.37982875758E+04  0.37954547351E+04 0.  0.
        5    1    3    3  502    0 -0.39191018878E+03  0.43750546659E+03  0.17325461067E+04  0.18294104874E+04  0.46999998093E+01 0. -1.
       -5    1    3    3    0  502  0.39191018878E+03 -0.43750546659E+03 -0.18792153336E+04  0.19688770884E+04  0.46999998093E+01 0.  1.
</event>
<event>
 5   0  0.5086209E-08  0.3791494E+04  0.7818609E-02  0.8047983E-01
       -2   -1    0    0    0  501  0.00000000000E+00  0.00000000000E+00  0.15834086337E+04  0.15834086338E+04  0.25500000920E-02 0.  1.
        2   -1    0    0  501    0  0.00000000000E+00  0.00000000000E+00 -0.22696959070E+04  0.22696959070E+04  0.25500000920E-02 0. -1.
    10030    2    1    2    0    0  0.00000000000E+00  0.00000000000E+00 -0.68628727320E+03  0.38531045407E+04  0.37914936872E+04 0.  0.
        3    1    3    3  502    0 -0.50193610939E+03 -0.14611045475E+04  0.77338594069E+03  0.17276840510E+04  0.10100000352E+00 0. -1.
       -3    1    3    3    0  502  0.50193610939E+03  0.14611045475E+04 -0.14596732139E+04  0.21254204897E+04  0.10100000352E+00 0.  1.
</event>
<event>
 5   0  0.1628250E-08  0.3785486E+04  0.7818609E-02  0.8049277E-01
        1   -1    0    0  501    0  0.00000000000E+00  0.00000000000E+00  0.24228185272E+04  0.24228185272E+04  0.50400001928E-02 0. -1.
       -1   -1    0    0    0  501  0.00000000000E+00  0.00000000000E+00 -0.14786396297E+04  0.14786396297E+04  0.50400001928E-02 0.  1.
    10030    2    1    2    0    0  0.00000000000E+00  0.00000000000E+00  0.94417889746E+03  0.39014581569E+04  0.37854856967E+04 0.  0.
        1    1    3    3  502    0 -0.13406045440E+04  0.63118746117E+03 -0.74163817929E+03  0.16569988967E+04  0.50400001928E-02 0.  1.
       -1    1    3    3    0  502  0.13406045440E+04 -0.63118746117E+03  0.16858170767E+04  0.22444592603E+04  0.50400001928E-02 0. -1.
</event>
<event>
 5   0  0.1628250E-08  0.3801485E+04  0.7818609E-02  0.8045836E-01
       -1   -1    0    0    0  501  0.00000000000E+00  0.00000000000E+00  0.15189624119E+04  0.15189624119E+04  0.50400001928E-02 0. -1.
        1   -1    0    0  501    0  0.00000000000E+00  0.00000000000E+00 -0.23784800508E+04  0.23784800509E+04  0.50400001928E-02 0.  1.
    10030    2    1    2    0    0  0.00000000000E+00  0.00000000000E+00 -0.85951763897E+03  0.38974424627E+04  0.38014848650E+04 0.  0.
        1    1    3    3  502    0 -0.46635961611E+03  0.10548027740E+04 -0.19787641845E+04  0.22903292081E+04  0.50400001928E-02 0.  1.
       -1    1    3    3    0  502  0.46635961611E+03 -0.10548027740E+04  0.11192465455E+04  0.16071132546E+04  0.50400001928E-02 0. -1.
</event>
<event>
 5   0  0.1628473E-08  0.3801349E+04  0.7818609E-02  0.8045865E-01
       -1   -1    0    0    0  501  0.00000000000E+00  0.00000000000E+00  0.13644852448E+04  0.13644852448E+04  0.50400001928E-02 0. -1.
        1   -1    0    0  501    0  0.00000000000E+00  0.00000000000E+00 -0.26475657048E+04  0.26475657048E+04  0.50400001928E-02 0.  1.
    10030    2    1    2    0    0  0.00000000000E+00  0.00000000000E+00 -0.12830804600E+04  0.40120509496E+04  0.38013494124E+04 0.  0.
        3    1    3    3  502    0  0.86834495137E+03  0.16375831102E+04 -0.10854013020E+04  0.21479751847E+04  0.10100000352E+00 0.  1.
       -3    1    3    3    0  502 -0.86834495137E+03 -0.16375831102E+04 -0.19767915802E+03  0.18640757649E+04  0.10100000352E+00 0. -1.
</event>
<event>
 5   0  0.5159761E-08  0.3807023E+04  0.7818609E-02  0.8044650E-01
       -2   -1    0    0    0  501  0.00000000000E+00  0.00000000000E+00  0.17590440113E+04  0.17590440113E+04  0.25500000920E-02 0.  1.
        2   -1    0    0  501    0  0.00000000000E+00  0.00000000000E+00 -0.20598435301E+04  0.20598435301E+04  0.25500000920E-02 0. -1.
    10030    2    1    2    0    0  0.00000000000E+00  0.00000000000E+00 -0.30079951875E+03  0.38188875414E+04  0.38070226823E+04 0.  0.
        5    1    3    3  502    0 -0.69132417690E+03  0.16345958932E+04  0.53985851095E+03  0.18550747029E+04  0.46999998093E+01 0.  1.
       -5    1    3    3    0  502  0.69132417690E+03 -0.16345958932E+04 -0.84065802970E+03  0.19638128385E+04  0.46999998093E+01 0. -1.
</event>
<event>
 5   0  0.5147582E-08  0.3837540E+04  0.7818609E-02  0.8038147E-01
        2   -1    0    0  501    0  0.00000000000E+00  0.00000000000E+00  0.23060599174E+04  0.23060599174E+04  0.25500000920E-02 0. -1.
       -2   -1    0    0    0  501  0.00000000000E+00  0.00000000000E+00 -0.15965232596E+04  0.15965232596E+04  0.25500000920E-02 0.  1.
    10030    2    1    2    0    0  0.00000000000E+00  0.00000000000E+00  0.70953665776E+03  0.39025831770E+04  0.38375399913E+04 0.  0.
        1    1    3    3  502    0  0.33065120923E+03 -0.17696470854E+04 -0.32033373007E+03  0.18285498975E+04  0.50400001928E-02 0.  1.
       -1    1    3    3    0  502 -0.33065120923E+03  0.17696470854E+04  0.10298703878E+04  0.20740332796E+04  0.50400001928E-02 0. -1.
</event>
<event>
 5   0  0.1628250E-08  0.3797769E+04  0.7818609E-02  0.8046634E-01
        1   -1    0    0  501    0  0.00000000000E+00  0.00000000000E+00  0.21365638055E+04  0.21365638055E+04  0.50400001928E-02 0.  1.
       -1   -1    0    0    0  501  0.00000000000E+00  0.00000000000E+00 -0.16876459177E+04  0.16876459177E+04  0.50400001928E-02 0. -1.
    10030    2    1    2    0    0  0.00000000000E+00  0.00000000000E+00  0.44891788781E+03  0.38242097233E+04  0.37977694424E+04 0.  0.
        5    1    3    3  502    0 -0.25392457542E+02  0.83695207491E+03  0.19406152321E+04  0.21135617146E+04  0.46999998093E+01 0.  1.
       -5    1    3    3    0  502  0.25392457542E+02 -0.83695207491E+03 -0.14916973443E+04  0.17106480086E+04  0.46999998093E+01 0. -1.
</event>
<event>
 5   0  0.1628250E-08  0.3798719E+04  0.7818609E-02  0.8046430E-01
       -1   -1    0    0    0  501  0.00000000000E+00  0.00000000000E+00  0.12151239163E+04  0.12151239163E+04  0.50400001928E-02 0.  1.
        1   -1    0    0  501    0  0.00000000000E+00  0.00000000000E+00 -0.29688884188E+04  0.29688884188E+04  0.50400001928E-02 0. -1.
    10030    2    1    2    0    0  0.00000000000E+00  0.00000000000E+00 -0.17537645025E+04  0.41840123351E+04  0.37987194277E+04 0.  0.
        5    1    3    3  502    0 -0.16923651425E+04 -0.63915655441E+03 -0.15143072676E+04  0.23591883069E+04  0.46999998093E+01 0. -1.
       -5    1    3    3    0  502  0.16923651425E+04  0.63915655441E+03 -0.23945723491E+03  0.18248240282E+04  0.46999998093E+01 0.  1.
</event>
<event>
 5   0  0.5147582E-08  0.3794709E+04  0.7818609E-02  0.8047291E-01
        2   -1    0    0  501    0  0.00000000000E+00  0.00000000000E+00  0.18913578699E+04  0.18913578699E+04  0.25500000920E-02 0. -1.
       -2   -1    0    0    0  501  0.00000000000E+00  0.00000000000E+00 -0.19033698979E+04  0.19033698979E+04  0.25500000920E-02 0.  1.
    10030    2    1    2    0    0  0.00000000000E+00  0.00000000000E+00 -0.12012027972E+02  0.37947277678E+04  0.37947087560E+04 0.  0.
        1    1    3    3  502    0 -0.13510400546E+04 -0.13255735462E+04  0.12627911586E+03  0.18969451417E+04  0.50400001928E-02 0.  1.
       -1    1    3    3    0  502  0.13510400546E+04  0.13255735462E+04 -0.13829114383E+03  0.18977826261E+04  0.50400001928E-02 0. -1.
</event>
<event>
 5   0  0.1628473E-08  0.3810520E+04  0.7818609E-02  0.8043901E-01
        1   -1    0    0  501    0  0.00000000000E+00  0.00000000000E+00  0.19745322934E+04  0.19745322934E+04  0.50400001928E-02 0.  1.
       -1   -1    0    0    0  501  0.00000000000E+00  0.00000000000E+00 -0.18384175895E+04  0.18384175895E+04  0.50400001928E-02 0. -1.
    10030    2    1    2    0    0  0.00000000000E+00  0.00000000000E+00  0.13611470385E+03  0.38129498829E+04  0.38105195967E+04 0.  0.
        3    1    3    3  502    0  0.36251482509E+03 -0.13184250982E+04  0.13956865604E+04  0.19538686555E+04  0.10100000352E+00 0.  1.
       -3    1    3    3    0  502 -0.36251482509E+03  0.13184250982E+04 -0.12595718566E+04  0.18590812274E+04  0.10100000352E+00 0. -1.
</event>
<event>
 5   0  0.1666051E-08  0.3793933E+04  0.7818609E-02  0.8047458E-01
       -1   -1    0    0    0  501  0.00000000000E+00  0.00000000000E+00  0.28231537665E+04  0.28231537665E+04  0.50400001928E-02 0.  1.
        1   -1    0    0  501    0  0.00000000000E+00  0.00000000000E+00 -0.12746317441E+04  0.12746317441E+04  0.50400001928E-02 0. -1.
    10030    2    1    2    0    0  0.00000000000E+00  0.00000000000E+00  0.15485220225E+04  0.40977855106E+04  0.37939327402E+04 0.  0.
        2    1    3    3  502    0  0.14859859218E+04  0.24553810430E+03 -0.47137646779E+03  0.15781758124E+04  0.25500000920E-02 0. -1.
       -2    1    3    3    0  502 -0.14859859218E+04 -0.24553810430E+03  0.20198984902E+04  0.25196096982E+04  0.25500000920E-02 0.  1.
</event>
<event>
 5   0  0.1628250E-08  0.3802679E+04  0.7818609E-02  0.8045580E-01
       -1   -1    0    0    0  501  0.00000000000E+00  0.00000000000E+00  0.30471390026E+04  0.30471390026E+04  0.50400001928E-02 0. -1.
        1   -1    0    0  501    0  0.00000000000E+00  0.00000000000E+00 -0.11863888229E+04  0.11863888229E+04  0.50400001928E-02 0.  1.
    10030    2    1    2    0    0  0.00000000000E+00  0.00000000000E+00  0.18607501798E+04  0.42335278255E+04  0.38026788739E+04 0.  0.
        4    1    3    3  502    0  0.13435858370E+04 -0.19441435981E+03 -0.55164205351E+03  0.14653772254E+04  0.12699999809E+01 0.  1.
       -4    1    3    3    0  502 -0.13435858370E+04  0.19441435981E+03  0.24123922333E+04  0.27681506001E+04  0.12699999809E+01 0. -1.
</event>
<event>
 5   0  0.1628250E-08  0.3804216E+04  0.7818609E-02  0.8045251E-01
        1   -1    0    0  501    0  0.00000000000E+00  0.00000000000E+00  0.12777150059E+04  0.12777150059E+04  0.50400001928E-02 0.  1.
       -1   -1    0    0    0  501  0.00000000000E+00  0.00000000000E+00 -0.28316283474E+04  0.28316283474E+04  0.50400001928E-02 0. -1.
    10030    2    1    2    0    0  0.00000000000E+00  0.00000000000E+00 -0.15539133415E+04  0.41093433533E+04  0.38042155725E+04 0.  0.
        4    1    3    3  502    0 -0.12372384976E+04  0.67206441169E+03  0.60452004966E+03  0.15322779698E+04  0.12699999809E+01 0.  1.
       -4    1    3    3    0  502  0.12372384976E+04 -0.67206441169E+03 -0.21584333912E+04  0.25770653834E+04  0.12699999809E+01 0. -1.
</event>
<event>
 5   0  0.1628250E-08  0.3800951E+04  0.7818609E-02  0.8045951E-01
        1   -1    0    0  501    0  0.00000000000E+00  0.00000000000E+00  0.26970791655E+04  0.26970791655E+04  0.50400001928E-02 0.  1.
       -1   -1    0    0    0  501  0.00000000000E+00  0.00000000000E+00 -0.13391549030E+04  0.13391549030E+04  0.50400001928E-02 0. -1.
    10030    2    1    2    0    0  0.00000000000E+00  0.00000000000E+00  0.13579242626E+04  0.40362340685E+04  0.38009508222E+04 0.  0.
        1    1    3    3  502    0  0.13882393184E+04 -0.21508690100E+03 -0.68024480274E+03  0.15608343192E+04  0.50400001928E-02 0. -1.
       -1    1    3    3    0  502 -0.13882393184E+04  0.21508690100E+03  0.20381690653E+04  0.24753997493E+04  0.50400001928E-02 0.  1.
</event>
<event>
 5   0  0.1628473E-08  0.3770210E+04  0.7818609E-02  0.8052578E-01
       -1   -1    0    0    0  501  0.00000000000E+00  0.00000000000E+00  0.11855455704E+04  0.11855455704E+04  0.50400001928E-02 0.  1.
        1   -1    0    0  501    0  0.00000000000E+00  0.00000000000E+00 -0.29974561387E+04  0.29974561387E+04  0.50400001928E-02 0. -1.
    10030    2    1    2    0    0  0.00000000000E+00  0.00000000000E+00 -0.18119105683E+04  0.41830017091E+04  0.37702099930E+04 0.  0.
        3    1    3    3  502    0  0.11765284377E+04  0.83262515855E+03  0.44203213087E+03  0.15076061270E+04  0.10100000352E+00 0.  1.
       -3    1    3    3    0  502 -0.11765284377E+04 -0.83262515855E+03 -0.22539426992E+04  0.26753955821E+04  0.10100000352E+00 0. -1.
</event>
<event>
 5   0  0.1628250E-08  0.3796873E+04  0.7818609E-02  0.8046826E-01
       -1   -1    0    0    0  501  0.00000000000E+00  0.00000000000E+00  0.13842613904E+04  0.13842613904E+04  0.50400001928E-02 0.  1.
        1   -1    0    0  501    0  0.00000000000E+00  0.00000000000E+00 -0.26035992042E+04  0.26035992042E+04  0.50400001928E-02 0. -1.
    10030    2    1    2    0    0  0.00000000000E+00  0.00000000000E+00 -0.12193378138E+04  0.39878605945E+04  0.37968733739E+04 0.  0.
        4    1    3    3  502    0 -0.14196172606E+04 -0.10025960399E+04  0.19265963510E+03  0.17486083992E+04  0.12699999809E+01 0. -1.
       -4    1    3    3    0  502  0.14196172606E+04  0.10025960399E+04 -0.14119974489E+04  0.22392521954E+04  0.12699999809E+01 0.  1.
</event>
<event>
 5   0  0.5086209E-08  0.3796469E+04  0.7818609E-02  0.8046913E-01
       -2   -1    0    0    0  501  0.00000000000E+00  0.00000000000E+00  0.14987278460E+04  0.14987278460E+04  0.25500000920E-02 0. -1.
        2   -1    0    0  501    0  0.00000000000E+00  0.00000000000E+00 -0.24042353719E+04  0.24042353719E+04  0.25500000920E-02 0.  1.
    10030    2    1    2    0    0  0.00000000000E+00  0.00000000000E+00 -0.90550752591E+03  0.39029632180E+04  0.37964691493E+04 0.  0.
        3    1    3    3  502    0 -0.18482601858E+04  0.11857929743E+02 -0.89742367184E+03  0.20546473132E+04  0.10100000352E+00 0.  1.
       -3    1    3    3    0  502  0.18482601858E+04 -0.11857929743E+02 -0.80838540634E+01  0.18483159047E+04  0.10100000352E+00 0. -1.
</event>
<event>
 5   0  0.1666051E-08  0.3807398E+04  0.7818609E-02  0.8044569E-01
       -1   -1    0    0    0  501  0.00000000000E+00  0.00000000000E+00  0.13183194668E+04  0.13183194668E+04  0.50400001928E-02 0.  1.
        1   -1    0    0  501    0  0.00000000000E+00  0.00000000000E+00 -0.27490066358E+04  0.27490066358E+04  0.50400001928E-02 0. -1.
    10030    2    1    2    0    0  0.00000000000E+00  0.00000000000E+00 -0.14306871690E+04  0.40673261025E+04  0.38073975165E+04 0.  0.
        2    1    3    3  502    0  0.16811376224E+04  0.29710140533E+02 -0.16690171229E+04  0.23691189406E+04  0.25500000920E-02 0. -1.
       -2    1    3    3    0  502 -0.16811376224E+04 -0.29710140533E+02  0.23832995388E+03  0.16982071620E+04  0.25500000920E-02 0.  1.
</event>
<event>
 5   0  0.1628473E-08  0.3807119E+04  0.7818609E-02  0.8044629E-01
        1   -1    0    0  501    0  0.00000000000E+00  0.00000000000E+00  0.14663812593E+04  0.14663812593E+04  0.50400001928E-02 0. -1.
       -1   -1    0    0    0  501  0.00000000000E+00  0.00000000000E+00 -0.24710755831E+04  0.24710755831E+04  0.50400001928E-02 0.  1.
    10030    2    1    2    0    0  0.00000000000E+00  0.00000000000E+00 -0.10046943238E+04  0.39374568424E+04  0.38071190816E+04 0.  0.
        3    1    3    3  502    0  0.54108187363E+03  0.61115365317E+03 -0.22808892179E+04  0.24225470102E+04  0.10100000352E+00 0.  1.
       -3    1    3    3    0  502 -0.54108187363E+03 -0.61115365317E+03  0.12761948942E+04  0.15149098322E+04  0.10100000352E+00 0. -1.
</event>
<event>
 5   0  0.1666051E-08  0.3770499E+04  0.7818609E-02  0.8052515E-01
        1   -1    0    0  501    0  0.00000000000E+00  0.00000000000E+00  0.19971286227E+04  0.19971286227E+04  0.50400001928E-02 0. -1.
       -1   -1    0    0    0  501  0.00000000000E+00  0.00000000000E+00 -0.17796378833E+04  0.17796378833E+04  0.50400001928E-02 0.  1.
    10030    2    1    2    0    0  0.00000000000E+00  0.00000000000E+00  0.21749073940E+03  0.37767665059E+04  0.37704990410E+04 0.  0.
        2    1    3    3  502    0  0.42493590180E+03 -0.77084492550E+03  0.17786678344E+04  0.19845482319E+04  0.25500000920E-02 0. -1.
       -2    1    3    3    0  502 -0.42493590180E+03  0.77084492550E+03 -0.15611770950E+04  0.17922182740E+04  0.25500000920E-02 0.  1.
</event>
<event>
 5   0  0.5147582E-08  0.3827783E+04  0.7818609E-02  0.8040219E-01
       -2   -1    0    0    0  501  0.00000000000E+00  0.00000000000E+00  0.13496286303E+04  0.13496286303E+04  0.25500000920E-02 0.  1.
        2   -1    0    0  501    0  0.00000000000E+00  0.00000000000E+00 -0.27140660107E+04  0.27140660107E+04  0.25500000920E-02 0. -1.
    10030    2    1    2    0    0  0.00000000000E+00  0.00000000000E+00 -0.13644373804E+04  0.40636946410E+04  0.38277832711E+04 0.  0.
        1    1    3    3  502    0 -0.25213047009E+03  0.18782219432E+04 -0.39795958972E+03  0.19364036967E+04  0.50400001928E-02 0.  1.
       -1    1    3    3    0  502  0.25213047009E+03 -0.18782219432E+04 -0.96647779067E+03  0.21272909443E+04  0.50400001928E-02 0. -1.
</event>
<event>
 5   0  0.1628250E-08  0.3820801E+04  0.7818609E-02  0.8041706E-01
        1   -1    0    0  501    0  0.00000000000E+00  0.00000000000E+00  0.20119627842E+04  0.20119627842E+04  0.50400001928E-02 0.  1.
       -1   -1    0    0    0  501  0.00000000000E+00  0.00000000000E+00 -0.18139653451E+04  0.18139653452E+04  0.50400001928E-02 0. -1.
    10030    2    1    2    0    0  0.00000000000E+00  0.00000000000E+00  0.19799743907E+03  0.38259281294E+04  0.38208013643E+04 0.  0.
        1    1    3    3  502    0 -0.14594224418E+04  0.64695698842E+03 -0.95177272603E+03  0.18585850883E+04  0.50400001928E-02 0. -1.
       -1    1    3    3    0  502  0.14594224418E+04 -0.64695698842E+03  0.11497701651E+04  0.19673430410E+04  0.50400001928E-02 0.  1.
</event>
<event>
 5   0  0.5140842E-08  0.3794470E+04  0.7818609E-02  0.8047343E-01
       -2   -1    0    0    0  501  0.00000000000E+00  0.00000000000E+00  0.26572458606E+04  0.26572458606E+04  0.25500000920E-02 0.  1.
        2   -1    0    0  501    0  0.00000000000E+00  0.00000000000E+00 -0.13545983610E+04  0.13545983610E+04  0.25500000920E-02 0. -1.
    10030    2    1    2    0    0  0.00000000000E+00  0.00000000000E+00  0.13026474996E+04  0.40118442216E+04  0.37944701277E+04 0.  0.
        2    1    3    3  502    0  0.10027678603E+04 -0.11167472928E+04 -0.57569103527E+03  0.16075098960E+04  0.25500000920E-02 0. -1.
       -2    1    3    3    0  502 -0.10027678603E+04  0.11167472928E+04  0.18783385348E+04  0.24043343256E+04  0.25500000920E-02 0.  1.
</event>
<event>
 5   0  0.1628250E-08  0.3807046E+04  0.7818609E-02  0.8044644E-01
        1   -1    0    0  501    0  0.00000000000E+00  0.00000000000E+00  0.14931393871E+04  0.14931393871E+04  0.50400001928E-02 0. -1.
       -1   -1    0    0    0  501  0.00000000000E+00  0.00000000000E+00 -0.24266995308E+04  0.24266995308E+04  0.50400001928E-02 0.  1.
    10030    2    1    2    0    0  0.00000000000E+00  0.00000000000E+00 -0.93356014368E+03  0.39198389179E+04  0.38070464406E+04 0.  0.
        1    1    3    3  502    0  0.16818995685E+04 -0.86831344221E+03 -0.67436237609E+03  0.20093578593E+04  0.50400001928E-02 0. -1.
       -1    1    3    3    0  502 -0.16818995685E+04  0.86831344221E+03 -0.25919776760E+03  0.19104810586E+04  0.50400001928E-02 0.  1.
</event>
<event>
 5   0  0.1628473E-08  0.3797975E+04  0.7818609E-02  0.8046590E-01
       -1   -1    0    0    0  501  0.00000000000E+00  0.00000000000E+00  0.19846047498E+04  0.19846047498E+04  0.50400001928E-02 0. -1.
        1   -1    0    0  501    0  0.00000000000E+00  0.00000000000E+00 -0.18170638225E+04  0.18170638225E+04  0.50400001928E-02 0.  1.
    10030    2    1    2    0    0  0.00000000000E+00  0.00000000000E+00  0.16754092733E+03  0.38016685723E+04  0.37979749829E+04 0.  0.
        3    1    3    3  502    0  0.54464941908E+03 -0.13604276493E+04 -0.11251901608E+04  0.18475549483E+04  0.10100000352E+00 0.  1.
       -3    1    3    3    0  502 -0.54464941908E+03  0.13604276493E+04  0.12927310882E+04  0.19541136239E+04  0.10100000352E+00 0. -1.
</event>
<event>
 5   0  0.5086209E-08  0.3811662E+04  0.7818609E-02  0.8043657E-01
       -2   -1    0    0    0  501  0.00000000000E+00  0.00000000000E+00  0.16389165951E+04  0.16389165951E+04  0.25500000920E-02 0. -1.
        2   -1    0    0  501    0  0.00000000000E+00  0.00000000000E+00 -0.22162148659E+04  0.22162148659E+04  0.25500000920E-02 0.  1.
    10030    2    1    2    0    0  0.00000000000E+00  0.00000000000E+00 -0.57729827085E+03  0.38551314610E+04  0.38116617489E+04 0.  0.
        3    1    3    3  502    0 -0.13119408200E+03 -0.21919455049E+02  0.16342162896E+04  0.16396204564E+04  0.10100000352E+00 0. -1.
       -3    1    3    3    0  502  0.13119408200E+03  0.21919455049E+02 -0.22115145605E+04  0.22155110045E+04  0.10100000352E+00 0.  1.
</event>
<event>
 5   0  0.5207474E-08  0.3798004E+04  0.7818609E-02  0.8046583E-01
        2   -1    0    0  501    0  0.00000000000E+00  0.00000000000E+00  0.30607924775E+04  0.30607924775E+04  0.25500000920E-02 0.  1.
       -2   -1    0    0    0  501  0.00000000000E+00  0.00000000000E+00 -0.11781946832E+04  0.11781946832E+04  0.25500000920E-02 0. -1.
    10030    2    1    2    0    0  0.00000000000E+00  0.00000000000E+00  0.18825977944E+04  0.42389871607E+04  0.37980044356E+04 0.  0.
        4    1    3    3  502    0 -0.17562648794E+04  0.46500155705E+03  0.32438730934E+03  0.18455138888E+04  0.12699999809E+01 0. -1.
       -4    1    3    3    0  502  0.17562648794E+04 -0.46500155705E+03  0.15582104851E+04  0.23934732719E+04  0.12699999809E+01 0.  1.
</event>
<event>
 5   0  0.1628250E-08  0.3799428E+04  0.7818609E-02  0.8046278E-01
        1   -1    0    0  501    0  0.00000000000E+00  0.00000000000E+00  0.25522062389E+04  0.25522062389E+04  0.50400001928E-02 0.  1.
       -1   -1    0    0    0  501  0.00000000000E+00  0.00000000000E+00 -0.14140366010E+04  0.14140366010E+04  0.50400001928E-02 0. -1.
    10030    2    1    2    0    0  0.00000000000E+00  0.00000000000E+00  0.11381696378E+04  0.39662428399E+04  0.37994278702E+04 0.  0.
        1    1    3    3  502    0 -0.74044717091E+03  0.85209895220E+03  0.21641018633E+04  0.24408341837E+04  0.50400001928E-02 0.  1.
       -1    1    3    3    0  502  0.74044717091E+03 -0.85209895220E+03 -0.10259322255E+04  0.15254086563E+04  0.50400001928E-02 0. -1.
</event>
<event>
 5   0  0.1628250E-08  0.3796866E+04  0.7818609E-02  0.8046828E-01
       -1   -1    0    0    0  501  0.00000000000E+00  0.00000000000E+00  0.17255480503E+04  0.17255480503E+04  0.50400001928E-02 0. -1.
        1   -1    0    0  501    0  0.00000000000E+00  0.00000000000E+00 -0.20886391246E+04  0.20886391246E+04  0.50400001928E-02 0.  1.
    10030    2    1    2    0    0  0.00000000000E+00  0.00000000000E+00 -0.36309107428E+03  0.38141871749E+04  0.37968656386E+04 0.  0.
        5    1    3    3  502    0 -0.16899036856E+04  0.86314862301E+03 -0.12449678421E+03  0.19016628385E+04  0.46999998093E+01 0. -1.
       -5    1    3    3    0  502  0.16899036856E+04 -0.86314862301E+03 -0.23859429006E+03  0.19125243364E+04  0.46999998093E+01 0.  1.
</event>
<event>
 5   0  0.5086209E-08  0.3808368E+04  0.7818609E-02  0.8044362E-01
        2   -1    0    0  501    0  0.00000000000E+00  0.00000000000E+00  0.24511167572E+04  0.24511167572E+04  0.25500000920E-02 0. -1.
       -2   -1    0    0    0  501  0.00000000000E+00  0.00000000000E+00 -0.14792913349E+04  0.14792913349E+04  0.25500000920E-02 0.  1.
    10030    2    1    2    0    0  0.00000000000E+00  0.00000000000E+00  0.97182542235E+03  0.39304080921E+04  0.38083675136E+04 0.  0.
        3    1    3    3  502    0  0.14731539308E+04 -0.11585714519E+04  0.83352277962E+03  0.20511534675E+04  0.10100000352E+00 0. -1.
       -3    1    3    3    0  502 -0.14731539308E+04  0.11585714519E+04  0.13830264273E+03  0.18792546246E+04  0.10100000352E+00 0.  1.
</event>
<event>
 5   0  0.1628250E-08  0.3801579E+04  0.7818609E-02  0.8045816E-01
       -1   -1    0    0    0  501  0.00000000000E+00  0.00000000000E+00  0.13439473142E+04  0.13439473142E+04  0.50400001928E-02 0.  1.
        1   -1    0    0  501    0  0.00000000000E+00  0.00000000000E+00 -0.26883493047E+04  0.26883493047E+04  0.50400001928E-02 0. -1.
    10030    2    1    2    0    0  0.00000000000E+00  0.00000000000E+00 -0.13444019905E+04  0.40322966189E+04  0.38015785288E+04 0.  0.
        4    1    3    3  502    0 -0.18619844221E+04  0.30543177966E+03 -0.42864924269E+03  0.19349460836E+04  0.12699999809E+01 0.  1.
       -4    1    3    3    0  502  0.18619844221E+04 -0.30543177966E+03 -0.91575274786E+03  0.20973505354E+04  0.12699999809E+01 0. -1.
</event>
<event>
 5   0  0.5086209E-08  0.3804269E+04  0.7818609E-02  0.8045239E-01
       -2   -1    0    0    0  501  0.00000000000E+00  0.00000000000E+00  0.16975478432E+04  0.16975478432E+04  0.25500000920E-02 0. -1.
        2   -1    0    0  501    0  0.00000000000E+00  0.00000000000E+00 -0.21313778128E+04  0.21313778128E+04  0.25500000920E-02 0.  1.
    10030    2    1    2    0    0  0.00000000000E+00  0.00000000000E+00 -0.43382996962E+03  0.38289256560E+04  0.38042690805E+04 0.  0.
        3    1    3    3  502    0  0.15194748814E+04 -0.75695389333E+03 -0.10805748665E+04  0.20123183556E+04  0.10100000352E+00 0.  1.
       -3    1    3    3    0  502 -0.15194748814E+04  0.75695389333E+03  0.64674489692E+03  0.18166073004E+04  0.10100000352E+00 0. -1.
</event>
<event>
 5   0  0.1628250E-08  0.3800385E+04  0.7818609E-02  0.8046072E-01
       -3   -1    0    0    0  501  0.00000000000E+00  0.00000000000E+00  0.11138709600E+04  0.11138709646E+04  0.10100000352E+00 0.  1.
        3   -1    0    0  501    0  0.00000000000E+00  0.00000000000E+00 -0.32416064100E+04  0.32416064116E+04  0.10100000352E+00 0. -1.
    10030    2    1    2    0    0  0.00000000000E+00  0.00000000000E+00 -0.21277354501E+04  0.43554773762E+04  0.38003848527E+04 0.  0.
        5    1    3    3  502    0  0.42539295668E+03 -0.65325082379E+03 -0.30499023508E+04  0.31479552484E+04  0.46999998093E+01 0. -1.
       -5    1    3    3    0  502 -0.42539295668E+03  0.65325082379E+03  0.92216690072E+03  0.12075221278E+04  0.46999998093E+01 0.  1.
</event>
<event>
 5   0  0.1666051E-08  0.3781476E+04  0.7818609E-02  0.8050142E-01
        1   -1    0    0  501    0  0.00000000000E+00  0.00000000000E+00  0.13233524576E+04  0.13233524576E+04  0.50400001928E-02 0. -1.
       -1   -1    0    0    0  501  0.00000000000E+00  0.00000000000E+00 -0.27013892566E+04  0.27013892566E+04  0.50400001928E-02 0.  1.
    10030    2    1    2    0    0  0.00000000000E+00  0.00000000000E+00 -0.13780367990E+04  0.40247417142E+04  0.37814759613E+04 0.  0.
        2    1    3    3  502    0 -0.12053850058E+04 -0.39541625330E+03  0.80316558411E+03  0.15014599499E+04  0.25500000920E-02 0. -1.
       -2    1    3    3    0  502  0.12053850058E+04  0.39541625330E+03 -0.21812023831E+04  0.25232817643E+04  0.25500000920E-02 0.  1.
</event>
<event>
 5   0  0.5159761E-08  0.3799356E+04  0.7818609E-02  0.8046293E-01
       -2   -1    0    0    0  501  0.00000000000E+00  0.00000000000E+00  0.27221265983E+04  0.27221265983E+04  0.25500000920E-02 0.  1.
        2   -1    0    0  501    0  0.00000000000E+00  0.00000000000E+00 -0.13257194116E+04  0.13257194116E+04  0.25500000920E-02 0. -1.
    10030    2    1    2    0    0  0.00000000000E+00  0.00000000000E+00  0.13964071868E+04  0.40478460099E+04  0.37993557729E+04 0.  0.
        5    1    3    3  502    0 -0.13145659242E+04  0.10135973125E+03 -0.75886794111E+03  0.15212692090E+04  0.46999998093E+01 0. -1.
       -5    1    3    3    0  502  0.13145659242E+04 -0.10135973125E+03  0.21552751279E+04  0.25265768009E+04  0.46999998093E+01 0.  1.
</event>
<event>
 5   0  0.1628250E-08  0.3810402E+04  0.7818609E-02  0.8043926E-01
        1   -1    0    0  501    0  0.00000000000E+00  0.00000000000E+00  0.18800146833E+04  0.18800146833E+04  0.50400001928E-02 0.  1.
       -1   -1    0    0    0  501  0.00000000000E+00  0.00000000000E+00 -0.19307247058E+04  0.19307247058E+04  0.50400001928E-02 0. -1.
    10030    2    1    2    0    0  0.00000000000E+00  0.00000000000E+00 -0.50710022530E+02  0.38107393890E+04  0.38104019716E+04 0.  0.
        1    1    3    3  502    0  0.24745572663E+03 -0.44468648401E+03  0.18107842533E+04  0.18809359419E+04  0.50400001928E-02 0.  1.
       -1    1    3    3    0  502 -0.24745572663E+03  0.44468648401E+03 -0.18614942758E+04  0.19298034471E+04  0.50400001928E-02 0. -1.
</event>
<event>
 5   0  0.1628250E-08  0.3795112E+04  0.7818609E-02  0.8047205E-01
       -1   -1    0    0    0  501  0.00000000000E+00  0.00000000000E+00  0.22287367463E+04  0.22287367463E+04  0.50400001928E-02 0.  1.
        1   -1    0    0  501    0  0.00000000000E+00  0.00000000000E+00 -0.16155875571E+04  0.16155875571E+04  0.50400001928E-02 0. -1.
    10030    2    1    2    0    0  0.00000000000E+00  0.00000000000E+00  0.61314918920E+03  0.38443243033E+04  0.37951123068E+04 0.  0.
        1    1    3    3  502    0  0.79228958364E+03  0.79988975811E+03 -0.12407051879E+04  0.16753792922E+04  0.50400001928E-02 0. -1.
       -1    1    3    3    0  502 -0.79228958364E+03 -0.79988975811E+03  0.18538543771E+04  0.21689450111E+04  0.50400001928E-02 0.  1.
</event>
<event>
 5   0  0.5086209E-08  0.3799319E+04  0.7818609E-02  0.8046301E-01
        2   -1    0    0  501    0  0.00000000000E+00  0.00000000000E+00  0.29205103328E+04  0.29205103328E+04  0.25500000920E-02 0.  1.
       -2   -1    0    0    0  501  0.00000000000E+00  0.00000000000E+00 -0.12356421917E+04  0.12356421917E+04  0.25500000920E-02 0. -1.
    10030    2    1    2    0    0  0.00000000000E+00  0.00000000000E+00  0.16848681411E+04  0.41561525245E+04  0.37993187749E+04 0.  0.
        3    1    3    3  502    0  0.13966606875E+04 -0.37224116359E+03  0.21908796116E+04  0.26247243746E+04  0.10100000352E+00 0.  1.
       -3    1    3    3    0  502 -0.13966606875E+04  0.37224116359E+03 -0.50601147047E+03  0.15314281499E+04  0.10100000352E+00 0. -1.
</event>
<event>
 5   0  0.1628250E-08  0.3793512E+04  0.7818609E-02  0.8047549E-01
        1   -1    0    0  501    0  0.00000000000E+00  0.00000000000E+00  0.18116459038E+04  0.18116459038E+04  0.50400001928E-02 0. -1.
       -1   -1    0    0    0  501  0.00000000000E+00  0.00000000000E+00 -0.19858642601E+04  0.19858642601E+04  0.50400001928E-02 0.  1.
    10030    2    1    2    0    0  0.00000000000E+00  0.00000000000E+00 -0.17421835635E+03  0.37975101639E+04  0.37935117516E+04 0.  0.
        4    1    3    3  502    0  0.11338425183E+04 -0.15090984575E+04 -0.27359624143E+03  0.19073105481E+04  0.12699999809E+01 0.  1.
       -4    1    3    3    0  502 -0.11338425183E+04  0.15090984575E+04  0.99377885083E+02  0.18901996158E+04  0.12699999809E+01 0. -1.
</event>
<event>
 5   0  0.1628250E-08  0.3795005E+04  0.7818609E-02  0.8047228E-01
       -1   -1    0    0    0  501  0.00000000000E+00  0.00000000000E+00  0.13856832571E+04  0.13856832572E+04  0.50400001928E-02 0. -1.
        1   -1    0    0  501    0  0.00000000000E+00  0.00000000000E+00 -0.25983682285E+04  0.25983682285E+04  0.50400001928E-02 0.  1.
    10030    2    1    2    0    0  0.00000000000E+00  0.00000000000E+00 -0.12126849713E+04  0.39840514856E+04  0.37950047958E+04 0.  0.
        1    1    3    3  502    0 -0.98448176352E+03 -0.77510541512E+03  0.88960561674E+03  0.15366817825E+04  0.50400001928E-02 0. -1.
       -1    1    3    3    0  502  0.98448176352E+03  0.77510541512E+03 -0.21022905881E+04  0.24473697032E+04  0.50400001928E-02 0.  1.
</event>
<event>
 5   0  0.5159761E-08  0.3799625E+04  0.7818609E-02  0.8046235E-01
        2   -1    0    0  501    0  0.00000000000E+00  0.00000000000E+00  0.27358747704E+04  0.27358747704E+04  0.25500000920E-02 0. -1.
       -2   -1    0    0    0  501  0.00000000000E+00  0.00000000000E+00 -0.13192440861E+04  0.13192440861E+04  0.25500000920E-02 0.  1.
    10030    2    1    2    0    0  0.00000000000E+00  0.00000000000E+00  0.14166306843E+04  0.40551188565E+04  0.37996245136E+04 0.  0.
        5    1    3    3  502    0  0.13173498107E+04 -0.33719869294E+03  0.21242326003E+04  0.25222013624E+04  0.46999998093E+01 0. -1.
       -5    1    3    3    0  502 -0.13173498107E+04  0.33719869294E+03 -0.70760191604E+03  0.15329174941E+04  0.46999998093E+01 0.  1.
</event>
<event>
 5   0  0.1628250E-08  0.3787426E+04  0.7818609E-02  0.8048859E-01
       -1   -1    0    0    0  501  0.00000000000E+00  0.00000000000E+00  0.28196362353E+04  0.28196362353E+04  0.50400001928E-02 0. -1.
        1   -1    0    0  501    0  0.00000000000E+00  0.00000000000E+00 -0.12718477979E+04  0.12718477979E+04  0.50400001928E-02 0.  1.
    10030    2    1    2    0    0  0.00000000000E+00  0.00000000000E+00  0.15477884374E+04  0.40914840332E+04  0.37874255830E+04 0.  0.
        5    1    3    3  502    0  0.63126216291E+03  0.10022485357E+03  0.26995808763E+04  0.27742198791E+04  0.46999998093E+01 0. -1.
       -5    1    3    3    0  502 -0.63126216291E+03 -0.10022485357E+03 -0.11517924389E+04  0.13172641542E+04  0.46999998093E+01 0.  1.
</event>
<event>
 5   0  0.5086209E-08  0.3808385E+04  0.7818609E-02  0.8044358E-01
       -2   -1    0    0    0  501  0.00000000000E+00  0.00000000000E+00  0.14535582504E+04  0.14535582504E+04  0.25500000920E-02 0.  1.
        2   -1    0    0  501    0  0.00000000000E+00  0.00000000000E+00 -0.24945333879E+04  0.24945333879E+04  0.25500000920E-02 0. -1.
    10030    2    1    2    0    0  0.00000000000E+00  0.00000000000E+00 -0.10409751375E+04  0.39480916383E+04  0.38083852677E+04 0.  0.
        3    1    3    3  502    0  0.56333083388E+03 -0.17712967793E+04 -0.94932356853E+03  0.20871150320E+04  0.10100000352E+00 0. -1.
       -3    1    3    3    0  502 -0.56333083388E+03  0.17712967793E+04 -0.91651569010E+02  0.18609766063E+04  0.10100000352E+00 0.  1.
</event>
<event>
 5   0  0.1666051E-08  0.3802501E+04  0.7818609E-02  0.8045618E-01
        1   -1    0    0  501    0  0.00000000000E+00  0.00000000000E+00  0.14696832949E+04  0.14696832949E+04  0.50400001928E-02 0.  1.
       -1   -1    0    0    0  501  0.00000000000E+00  0.00000000000E+00 -0.24595458552E+04  0.24595458552E+04  0.50400001928E-02 0. -1.
    10030    2    1    2    0    0  0.00000000000E+00  0.00000000000E+00 -0.98986256034E+03  0.39292291501E+04  0.38025009962E+04 0.  0.
        2    1    3    3  502    0  0.15293662768E+04 -0.11116388219E+04 -0.70172947756E+03  0.20167117639E+04  0.25500000920E-02 0.  1.
       -2    1    3    3    0  502 -0.15293662768E+04  0.11116388219E+04 -0.28813308278E+03  0.19125173862E+04  0.25500000920E-02 0. -1.
</event>
<event>
 5   0  0.1628250E-08  0.3799370E+04  0.7818609E-02  0.8046290E-01
       -1   -1    0    0    0  501  0.00000000000E+00  0.00000000000E+00  0.15514669538E+04  0.15514669538E+04  0.50400001928E-02 0.  1.
        1   -1    0    0  501    0  0.00000000000E+00  0.00000000000E+00 -0.23260587303E+04  0.23260587303E+04  0.50400001928E-02 0. -1.
    10030    2    1    2    0    0  0.00000000000E+00  0.00000000000E+00 -0.77459177648E+03  0.38775256840E+04  0.37993700807E+04 0.  0.
        4    1    3    3  502    0 -0.26829062648E+03  0.53365375807E+03 -0.22277318896E+04  0.23064165233E+04  0.12699999809E+01 0. -1.
       -4    1    3    3    0  502  0.26829062648E+03 -0.53365375807E+03  0.14531401131E+04  0.15711091608E+04  0.12699999809E+01 0.  1.
</event>
<event>
 5   0  0.1628250E-08  0.3799319E+04  0.7818609E-02  0.8046301E-01
       -1   -1    0    0    0  501  0.00000000000E+00  0.00000000000E+00  0.16135128624E+04  0.16135128624E+04  0.50400001928E-02 0. -1.
        1   -1    0    0  501    0  0.00000000000E+00  0.00000000000E+00 -0.22365525401E+04  0.22365525401E+04  0.50400001928E-02 0.  1.
    10030    2    1    2    0    0  0.00000000000E+00  0.00000000000E+00 -0.62303967769E+03  0.38500654026E+04  0.37993190395E+04 0.  0.
        1    1    3    3  502    0  0.78010660400E+03  0.10293144552E+04 -0.17231994587E+04  0.21534787985E+04  0.50400001928E-02 0.  1.
       -1    1    3    3    0  502 -0.78010660400E+03 -0.10293144552E+04  0.11001597810E+04  0.16965866040E+04  0.50400001928E-02 0. -1.
</event>
<event>
 5   0  0.1628250E-08  0.3801082E+04  0.7818609E-02  0.8045923E-01
       -1   -1    0    0    0  501  0.00000000000E+00  0.00000000000E+00  0.19079159523E+04  0.19079159523E+04  0.50400001928E-02 0. -1.
        1   -1    0    0  501    0  0.00000000000E+00  0.00000000000E+00 -0.18931947708E+04  0.18931947708E+04  0.50400001928E-02 0.  1.
    10030    2    1    2    0    0  0.00000000000E+00  0.00000000000E+00  0.14721181459E+02  0.38011107231E+04  0.38010822165E+04 0.  0.
        4    1    3    3  502    0  0.46294306862E+03 -0.11579740292E+04  0.14415382664E+04  0.19061097354E+04  0.12699999809E+01 0. -1.
       -4    1    3    3    0  502 -0.46294306862E+03  0.11579740292E+04 -0.14268170849E+04  0.18950009878E+04  0.12699999809E+01 0.  1.
</event>
<event>
 5   0  0.5140842E-08  0.3801616E+04  0.7818609E-02  0.8045808E-01
       -2   -1    0    0    0  501  0.00000000000E+00  0.00000000000E+00  0.20852935276E+04  0.20852935276E+04  0.25500000920E-02 0.  1.
        2   -1    0    0  501    0  0.00000000000E+00  0.00000000000E+00 -0.17326435326E+04  0.17326435326E+04  0.25500000920E-02 0. -1.
    10030    2    1    2    0    0  0.00000000000E+00  0.00000000000E+00  0.35264999500E+03  0.38179370602E+04  0.38016156272E+04 0.  0.
        2    1    3    3  502    0 -0.99519956559E+03  0.15845310338E+04 -0.15964011181E+03  0.18779365638E+04  0.25500000920E-02 0. -1.
       -2    1    3    3    0  502  0.99519956559E+03 -0.15845310338E+04  0.51229010680E+03  0.19400004964E+04  0.25500000920E-02 0.  1.
</event>
<event>
 5   0  0.5147582E-08  0.3799263E+04  0.7818609E-02  0.8046313E-01
       -2   -1    0    0    0  501  0.00000000000E+00  0.00000000000E+00  0.15311314278E+04  0.15311314278E+04  0.25500000920E-02 0.  1.
        2   -1    0    0  501    0  0.00000000000E+00  0.00000000000E+00 -0.23568193189E+04  0.23568193189E+04  0.25500000920E-02 0. -1.
    10030    2    1    2    0    0  0.00000000000E+00  0.00000000000E+00 -0.82568789108E+03  0.38879507467E+04  0.37992631542E+04 0.  0.
        1    1    3    3  502    0  0.58704883926E+03 -0.14052324575E+03 -0.22560631912E+04  0.23354216418E+04  0.50400001928E-02 0. -1.
       -1    1    3    3    0  502 -0.58704883926E+03  0.14052324575E+03  0.14303753001E+04  0.15525291049E+04  0.50400001928E-02 0.  1.
</event>
<event>
 5   0  0.5086209E-08  0.3792031E+04  0.7818609E-02  0.8047867E-01
       -2   -1    0    0    0  501  0.00000000000E+00  0.00000000000E+00  0.15872315497E+04  0.15872315497E+04  0.25500000920E-02 0. -1.
        2   -1    0    0  501    0  0.00000000000E+00  0.00000000000E+00 -0.22648706484E+04  0.22648706484E+04  0.25500000920E-02 0.  1.
    10030    2    1    2    0    0  0.00000000000E+00  0.00000000000E+00 -0.67763909876E+03  0.38521021981E+04  0.37920306693E+04 0.  0.
        3    1    3    3  502    0  0.38516820481E+03 -0.13725312799E+04  0.93105446434E+03  0.17026623524E+04  0.10100000352E+00 0. -1.
       -3    1    3    3    0  502 -0.38516820481E+03  0.13725312799E+04 -0.16086935631E+04  0.21494398458E+04  0.10100000352E+00 0.  1.
</event>
<event>
 5   0  0.5147582E-08  0.3784133E+04  0.7818609E-02  0.8049569E-01
        2   -1    0    0  501    0  0.00000000000E+00  0.00000000000E+00  0.21336146341E+04  0.21336146341E+04  0.25500000920E-02 0.  1.
       -2   -1    0    0    0  501  0.00000000000E+00  0.00000000000E+00 -0.16778639247E+04  0.16778639247E+04  0.25500000920E-02 0. -1.
    10030    2    1    2    0    0  0.00000000000E+00  0.00000000000E+00  0.45575070942E+03  0.38114785587E+04  0.37841326740E+04 0.  0.
        1    1    3    3  502    0 -0.16361201339E+04  0.32908799856E+03 -0.67004148382E+03  0.17983724846E+04  0.50400001928E-02 0.  1.
       -1    1    3    3    0  502  0.16361201339E+04 -0.32908799856E+03  0.11257921932E+04  0.20131060741E+04  0.50400001928E-02 0. -1.
</event>
<event>
 5   0  0.5207474E-08  0.3802223E+04  0.7818609E-02  0.8045678E-01
       -2   -1    0    0    0  501  0.00000000000E+00  0.00000000000E+00  0.21409538201E+04  0.21409538201E+04  0.25500000920E-02 0.  1.
        2   -1    0    0  501    0  0.00000000000E+00  0.00000000000E+00 -0.16881374656E+04  0.16881374656E+04  0.25500000920E-02 0. -1.
    10030    2    1    2    0    0  0.00000000000E+00  0.00000000000E+00  0.45281635445E+03  0.38290912857E+04  0.38022226951E+04 0.  0.
        4    1    3    3  502    0  0.97566699245E+03  0.70303547404E+03 -0.12564226075E+04  0.17391907139E+04  0.12699999809E+01 0. -1.
       -4    1    3    3    0  502 -0.97566699245E+03 -0.70303547404E+03  0.17092389619E+04  0.20899005717E+04  0.12699999809E+01 0.  1.
</event>
<event>
 5   0  0.1628473E-08  0.3809991E+04  0.7818609E-02  0.8044014E-01
       -1   -1    0    0    0  501  0.00000000000E+00  0.00000000000E+00  0.13998098565E+04  0.13998098565E+04  0.50400001928E-02 0. -1.
        1   -1    0    0  501    0  0.00000000000E+00  0.00000000000E+00 -0.25925003032E+04  0.25925003032E+04  0.50400001928E-02 0.  1.
    10030    2    1    2    0    0  0.00000000000E+00  0.00000000000E+00 -0.11926904467E+04  0.39923101597E+04  0.38099908018E+04 0.  0.
        3    1    3    3  502    0  0.13118292756E+04 -0.31154365384E+03  0.81380637294E+03  0.15748766045E+04  0.10100000352E+00 0. -1.
       -3    1    3    3    0  502 -0.13118292756E+04  0.31154365384E+03 -0.20064968196E+04  0.24174335552E+04  0.10100000352E+00 0.  1.
</event>
<event>
 5   0  0.1628250E-08  0.3803692E+04  0.7818609E-02  0.8045363E-01
        1   -1    0    0  501    0  0.00000000000E+00  0.00000000000E+00  0.24524173029E+04  0.24524173029E+04  0.50400001928E-02 0. -1.
       -1   -1    0    0    0  501  0.00000000000E+00  0.00000000000E+00 -0.14748791074E+04  0.14748791074E+04  0.50400001928E-02 0.  1.
    10030    2    1    2    0    0  0.00000000000E+00  0.00000000000E+00  0.97753819545E+03  0.39272964103E+04  0.38036924391E+04 0.  0.
        1    1    3    3  502    0  0.82183019369E+03 -0.51526839890E+02 -0.12812789807E+04  0.15230678609E+04  0.50400001928E-02 0.  1.
       -1    1    3    3    0  502 -0.82183019369E+03  0.51526839890E+02  0.22588171762E+04  0.24042285494E+04  0.50400001928E-02 0. -1.
</event>
<event>
 5   0  0.1628250E-08  0.3705439E+04  0.7818609E-02  0.8066757E-01
       -1   -1    0    0    0  501  0.00000000000E+00  0.00000000000E+00  0.15618040356E+04  0.15618040357E+04  0.50400001928E-02 0.  1.
        1   -1    0    0  501    0  0.00000000000E+00  0.00000000000E+00 -0.21978237790E+04  0.21978237790E+04  0.50400001928E-02 0. -1.
    10030    2    1    2    0    0  0.00000000000E+00  0.00000000000E+00 -0.63601974334E+03  0.37596278146E+04  0.37054392709E+04 0.  0.
        1    1    3    3  502    0 -0.17542676880E+04  0.57525830544E+03 -0.16019486520E+03  0.18531161955E+04  0.50400001928E-02 0. -1.
       -1    1    3    3    0  502  0.17542676880E+04 -0.57525830544E+03 -0.47582487814E+03  0.19065116191E+04  0.50400001928E-02 0.  1.
</event>
<event>
 5   0  0.1628250E-08  0.3806094E+04  0.7818609E-02  0.8044848E-01
       -1   -1    0    0    0  501  0.00000000000E+00  0.00000000000E+00  0.19120373289E+04  0.19120373290E+04  0.50400001928E-02 0.  1.
        1   -1    0    0  501    0  0.00000000000E+00  0.00000000000E+00 -0.18940993694E+04  0.18940993694E+04  0.50400001928E-02 0. -1.
    10030    2    1    2    0    0  0.00000000000E+00  0.00000000000E+00  0.17937959558E+02  0.38061366984E+04  0.38060944282E+04 0.  0.
        4    1    3    3  502    0  0.68792677345E+03 -0.17151170050E+04  0.46363599133E+03  0.19052111515E+04  0.12699999809E+01 0.  1.
       -4    1    3    3    0  502 -0.68792677345E+03  0.17151170050E+04 -0.44569803178E+03  0.19009255469E+04  0.12699999809E+01 0. -1.
</event>
<event>
 5   0  0.1628473E-08  0.3791775E+04  0.7818609E-02  0.8047922E-01
       -1   -1    0    0    0  501  0.00000000000E+00  0.00000000000E+00  0.27324384402E+04  0.27324384402E+04  0.50400001928E-02 0. -1.
        1   -1    0    0  501    0  0.00000000000E+00  0.00000000000E+00 -0.13154513466E+04  0.13154513466E+04  0.50400001928E-02 0.  1.
    10030    2    1    2    0    0  0.00000000000E+00  0.00000000000E+00  0.14169870936E+04  0.40478897868E+04  0.37917752179E+04 0.  0.
        3    1    3    3  502    0  0.25347162715E+03  0.10412458014E+04 -0.96109634167E+03  0.14394953535E+04  0.10100000352E+00 0.  1.
       -3    1    3    3    0  502 -0.25347162715E+03 -0.10412458014E+04  0.23780834352E+04  0.26083944333E+04  0.10100000352E+00 0. -1.
</event>
<event>
 5   0  0.5207474E-08  0.3804686E+04  0.7818609E-02  0.8045150E-01
        2   -1    0    0  501    0  0.00000000000E+00  0.00000000000E+00  0.14810218103E+04  0.14810218103E+04  0.25500000920E-02 0. -1.
       -2   -1    0    0    0  501  0.00000000000E+00  0.00000000000E+00 -0.24435219915E+04  0.24435219915E+04  0.25500000920E-02 0.  1.
    10030    2    1    2    0    0  0.00000000000E+00  0.00000000000E+00 -0.96250018115E+03  0.39245438018E+04  0.38046862490E+04 0.  0.
        4    1    3    3  502    0  0.64211939995E+03  0.14979206588E+04 -0.14933976076E+04  0.22105025788E+04  0.12699999809E+01 0.  1.
       -4    1    3    3    0  502 -0.64211939995E+03 -0.14979206588E+04  0.53089742640E+03  0.17140412230E+04  0.12699999809E+01 0. -1.
</event>
<event>
 5   0  0.1666051E-08  0.3800158E+04  0.7818609E-02  0.8046121E-01
       -1   -1    0    0    0  501  0.00000000000E+00  0.00000000000E+00  0.30323235618E+04  0.30323235618E+04  0.50400001928E-02 0. -1.
        1   -1    0    0  501    0  0.00000000000E+00  0.00000000000E+00 -0.11906050561E+04  0.11906050561E+04  0.50400001928E-02 0.  1.
    10030    2    1    2    0    0  0.00000000000E+00  0.00000000000E+00  0.18417185057E+04  0.42229286179E+04  0.38001577675E+04 0.  0.
        2    1    3    3  502    0  0.98954420989E+03 -0.16193360867E+04  0.10254152606E+04  0.21570636434E+04  0.25500000920E-02 0.  1.
       -2    1    3    3    0  502 -0.98954420989E+03  0.16193360867E+04  0.81630324510E+03  0.20658649745E+04  0.25500000920E-02 0. -1.
</event>
<event>
 5   0  0.1628473E-08  0.3848874E+04  0.7818609E-02  0.8035747E-01
        1   -1    0    0  501    0  0.00000000000E+00  0.00000000000E+00  0.20732985209E+04  0.20732985210E+04  0.50400001928E-02 0. -1.
       -1   -1    0    0    0  501  0.00000000000E+00  0.00000000000E+00 -0.17862635256E+04  0.17862635256E+04  0.50400001928E-02 0.  1.
    10030    2    1    2    0    0  0.00000000000E+00  0.00000000000E+00  0.28703499539E+03  0.38595620465E+04  0.38488738746E+04 0.  0.
        3    1    3    3  502    0 -0.89602861413E+03  0.11379636455E+04  0.14141704397E+04  0.20242792738E+04  0.10100000352E+00 0. -1.
       -3    1    3    3    0  502  0.89602861413E+03 -0.11379636455E+04 -0.11271354443E+04  0.18352827727E+04  0.10100000352E+00 0.  1.
</event>
<event>
 5   0  0.5159761E-08  0.3787175E+04  0.7818609E-02  0.8048913E-01
        2   -1    0    0  501    0  0.00000000000E+00  0.00000000000E+00  0.19341364955E+04  0.19341364955E+04  0.25500000920E-02 0.  1.
       -2   -1    0    0    0  501  0.00000000000E+00  0.00000000000E+00 -0.18538884656E+04  0.18538884656E+04  0.25500000920E-02 0. -1.
    10030    2    1    2    0    0  0.00000000000E+00  0.00000000000E+00  0.80248029941E+02  0.37880249611E+04  0.37871748520E+04 0.  0.
        5    1    3    3  502    0  0.15519991471E+03  0.15497089787E+04 -0.10371350683E+04  0.18711911105E+04  0.46999998093E+01 0. -1.
       -5    1    3    3    0  502 -0.15519991471E+03 -0.15497089787E+04  0.11173830983E+04  0.19168338505E+04  0.46999998093E+01 0.  1.
</event>
<event>
 5   0  0.1666051E-08  0.3802903E+04  0.7818609E-02  0.8045532E-01
        1   -1    0    0  501    0  0.00000000000E+00  0.00000000000E+00  0.21992375346E+04  0.21992375346E+04  0.50400001928E-02 0. -1.
       -1   -1    0    0    0  501  0.00000000000E+00  0.00000000000E+00 -0.16439868207E+04  0.16439868207E+04  0.50400001928E-02 0.  1.
    10030    2    1    2    0    0  0.00000000000E+00  0.00000000000E+00  0.55525071396E+03  0.38432243553E+04  0.38029028504E+04 0.  0.
        2    1    3    3  502    0  0.51699108012E+03 -0.87861426573E+03  0.18997215041E+04  0.21559648879E+04  0.25500000920E-02 0. -1.
       -2    1    3    3    0  502 -0.51699108012E+03  0.87861426573E+03 -0.13444707901E+04  0.16872594674E+04  0.25500000920E-02 0.  1.
</event>
<event>
 5   0  0.1628250E-08  0.3790587E+04  0.7818609E-02  0.8048178E-01
       -1   -1    0    0    0  501  0.00000000000E+00  0.00000000000E+00  0.23234777297E+04  0.23234777297E+04  0.50400001928E-02 0.  1.
        1   -1    0    0  501    0  0.00000000000E+00  0.00000000000E+00 -0.15460175094E+04  0.15460175094E+04  0.50400001928E-02 0. -1.
    10030    2    1    2    0    0  0.00000000000E+00  0.00000000000E+00  0.77746022034E+03  0.38694952391E+04  0.37905868953E+04 0.  0.
        5    1    3    3  502    0 -0.56873609124E+03  0.16880752289E+04  0.10495515438E+04  0.20675200732E+04  0.46999998093E+01 0.  1.
       -5    1    3    3    0  502  0.56873609124E+03 -0.16880752289E+04 -0.27209132350E+03  0.18019751659E+04  0.46999998093E+01 0. -1.
</event>
<event>
 5   0  0.1628250E-08  0.3792571E+04  0.7818609E-02  0.8047751E-01
       -1   -1    0    0    0  501  0.00000000000E+00  0.00000000000E+00  0.19707809371E+04  0.19707809371E+04  0.50400001928E-02 0. -1.
        1   -1    0    0  501    0  0.00000000000E+00  0.00000000000E+00 -0.18246063388E+04  0.18246063388E+04  0.50400001928E-02 0.  1.
    10030    2    1    2    0    0  0.00000000000E+00  0.00000000000E+00  0.14617459835E+03  0.37953872759E+04  0.37925713653E+04 0.  0.
        5    1    3    3  502    0  0.63529682641E+03  0.11949308192E+04  0.14023866038E+04  0.19488899396E+04  0.46999998093E+01 0. -1.
       -5    1    3    3    0  502 -0.63529682641E+03 -0.11949308192E+04 -0.12562120054E+04  0.18464973363E+04  0.46999998093E+01 0.  1.
</event>
<event>
 5   0  0.5140842E-08  0.3789753E+04  0.7818609E-02  0.8048357E-01
       -2   -1    0    0    0  501  0.00000000000E+00  0.00000000000E+00  0.14624115268E+04  0.14624115268E+04  0.25500000920E-02 0. -1.
        2   -1    0    0  501    0  0.00000000000E+00  0.00000000000E+00 -0.24552307340E+04  0.24552307340E+04  0.25500000920E-02 0.  1.
    10030    2    1    2    0    0  0.00000000000E+00  0.00000000000E+00 -0.99281920724E+03  0.39176422608E+04  0.37897534095E+04 0.  0.
        2    1    3    3  502    0  0.87904278337E+03  0.11619491311E+04  0.75596657291E+03  0.16414406653E+04  0.25500000920E-02 0. -1.
       -2    1    3    3    0  502 -0.87904278337E+03 -0.11619491311E+04 -0.17487857802E+04  0.22762015955E+04  0.25500000920E-02 0.  1.
</event>
<event>
 5   0  0.5140842E-08  0.3798280E+04  0.7818609E-02  0.8046524E-01
        2   -1    0    0  501    0  0.00000000000E+00  0.00000000000E+00  0.30186982009E+04  0.30186982009E+04  0.25500000920E-02 0. -1.
       -2   -1    0    0    0  501  0.00000000000E+00  0.00000000000E+00 -0.11947976259E+04  0.11947976259E+04  0.25500000920E-02 0.  1.
    10030    2    1    2    0    0  0.00000000000E+00  0.00000000000E+00  0.18239005750E+04  0.42134958268E+04  0.37982803708E+04 0.  0.
        2    1    3    3  502    0 -0.12548122278E+04  0.13822855283E+03  0.24858797539E+04  0.27880564934E+04  0.25500000920E-02 0. -1.
       -2    1    3    3    0  502  0.12548122278E+04 -0.13822855283E+03 -0.66197917890E+03  0.14254393334E+04  0.25500000920E-02 0.  1.
</event>
<event>
 5   0  0.5086209E-08  0.3802057E+04  0.7818609E-02  0.8045714E-01
       -2   -1    0    0    0  501  0.00000000000E+00  0.00000000000E+00  0.14158347865E+04  0.14158347865E+04  0.25500000920E-02 0. -1.
        2   -1    0    0  501    0  0.00000000000E+00  0.00000000000E+00 -0.25524942020E+04  0.25524942020E+04  0.25500000920E-02 0.  1.
    10030    2    1    2    0    0  0.00000000000E+00  0.00000000000E+00 -0.11366594155E+04  0.39683289885E+04  0.38020573817E+04 0.  0.
        3    1    3    3  502    0 -0.10049634677E+04 -0.19879218280E+03 -0.22397485279E+04  0.24629135961E+04  0.10100000352E+00 0.  1.
       -3    1    3    3    0  502  0.10049634677E+04  0.19879218280E+03  0.11030891124E+04  0.15054153923E+04  0.10100000352E+00 0. -1.
</event>
<event>
 5   0  0.5207474E-08  0.3803380E+04  0.7818609E-02  0.8045430E-01
       -2   -1    0    0    0  501  0.00000000000E+00  0.00000000000E+00  0.27626756712E+04  0.27626756712E+04  0.25500000920E-02 0.  1.
        2   -1    0    0  501    0  0.00000000000E+00  0.00000000000E+00 -0.13090300018E+04  0.13090300018E+04  0.25500000920E-02 0. -1.
    10030    2    1    2    0    0  0.00000000000E+00  0.00000000000E+00  0.14536456694E+04  0.40717056730E+04  0.38033802538E+04 0.  0.
        4    1    3    3  502    0  0.49534925601E+03  0.18107562764E+04  0.40173078339E+03  0.19197912420E+04  0.12699999809E+01 0.  1.
       -4    1    3    3    0  502 -0.49534925601E+03 -0.18107562764E+04  0.10519148860E+04  0.21519144309E+04  0.12699999809E+01 0. -1.
</event>
<event>
 5   0  0.1628250E-08  0.3790360E+04  0.7818609E-02  0.8048227E-01
       -1   -1    0    0    0  501  0.00000000000E+00  0.00000000000E+00  0.16460705161E+04  0.16460705161E+04  0.50400001928E-02 0. -1.
        1   -1    0    0  501    0  0.00000000000E+00  0.00000000000E+00 -0.21819885478E+04  0.21819885478E+04  0.50400001928E-02 0.  1.
    10030    2    1    2    0    0  0.00000000000E+00  0.00000000000E+00 -0.53591803171E+03  0.38280590639E+04  0.37903598853E+04 0.  0.
        1    1    3    3  502    0  0.11137759859E+04  0.81057521637E+03 -0.15825107647E+04  0.20980632613E+04  0.50400001928E-02 0.  1.
       -1    1    3    3    0  502 -0.11137759859E+04 -0.81057521637E+03  0.10465927330E+04  0.17299958026E+04  0.50400001928E-02 0. -1.
</event>
<event>
 5   0  0.5207474E-08  0.3802779E+04  0.7818609E-02  0.8045559E-01
       -2   -1    0    0    0  501  0.00000000000E+00  0.00000000000E+00  0.24354640590E+04  0.24354640590E+04  0.25500000920E-02 0. -1.
        2   -1    0    0  501    0  0.00000000000E+00  0.00000000000E+00 -0.14844322122E+04  0.14844322122E+04  0.25500000920E-02 0.  1.
    10030    2    1    2    0    0  0.00000000000E+00  0.00000000000E+00  0.95103184672E+03  0.39198962712E+04  0.38027786161E+04 0.  0.
        4    1    3    3  502    0  0.12642369033E+04 -0.77435802525E+03 -0.75167676235E+03  0.16622108371E+04  0.12699999809E+01 0.  1.
       -4    1    3    3    0  502 -0.12642369033E+04  0.77435802525E+03  0.17027086091E+04  0.22576854341E+04  0.12699999809E+01 0. -1.
</event>
<event>
 5   0  0.1628250E-08  0.3771084E+04  0.7818609E-02  0.8052389E-01
       -1   -1    0    0    0  501  0.00000000000E+00  0.00000000000E+00  0.31324061034E+04  0.31324061034E+04  0.50400001928E-02 0.  1.
        1   -1    0    0  501    0  0.00000000000E+00  0.00000000000E+00 -0.11349963755E+04  0.11349963755E+04  0.50400001928E-02 0. -1.
    10030    2    1    2    0    0  0.00000000000E+00  0.00000000000E+00  0.19974097279E+04  0.42674024788E+04  0.37710844986E+04 0.  0.
        4    1    3    3  502    0 -0.45485383406E+03  0.18251235460E+04  0.11475450823E+04  0.22033677172E+04  0.12699999809E+01 0. -1.
       -4    1    3    3    0  502  0.45485383406E+03 -0.18251235460E+04  0.84986464555E+03  0.20640347616E+04  0.12699999809E+01 0.  1.
</event>
<event>
 5   0  0.5147582E-08  0.3808716E+04  0.7818609E-02  0.8044287E-01
        2   -1    0    0  501    0  0.00000000000E+00  0.00000000000E+00  0.12958950290E+04  0.12958950290E+04  0.25500000920E-02 0. -1.
       -2   -1    0    0    0  501  0.00000000000E+00  0.00000000000E+00 -0.27985128523E+04  0.27985128523E+04  0.25500000920E-02 0.  1.
    10030    2    1    2    0    0  0.00000000000E+00  0.00000000000E+00 -0.15026178233E+04  0.40944078813E+04  0.38087157383E+04 0.  0.
        1    1    3    3  502    0  0.39549156341E+03 -0.14509802111E+04  0.50457793083E+03  0.15863026313E+04  0.50400001928E-02 0. -1.
       -1    1    3    3    0  502 -0.39549156341E+03  0.14509802111E+04 -0.20071957542E+04  0.25081052500E+04  0.50400001928E-02 0.  1.
</event>
<event>
 5   0  0.1628473E-08  0.3802101E+04  0.7818609E-02  0.8045704E-01
       -1   -1    0    0    0  501  0.00000000000E+00  0.00000000000E+00  0.17403922201E+04  0.17403922201E+04  0.50400001928E-02 0.  1.
        1   -1    0    0  501    0  0.00000000000E+00  0.00000000000E+00 -0.20765398605E+04  0.20765398605E+04  0.50400001928E-02 0. -1.
    10030    2    1    2    0    0  0.00000000000E+00  0.00000000000E+00 -0.33614764038E+03  0.38169320806E+04  0.38021014284E+04 0.  0.
        3    1    3    3  502    0  0.38322554570E+03 -0.20806825128E+03  0.16895058036E+04  0.17448736592E+04  0.10100000352E+00 0.  1.
       -3    1    3    3    0  502 -0.38322554570E+03  0.20806825128E+03 -0.20256534440E+04  0.20720584213E+04  0.10100000352E+00 0. -1.
</event>
<event>
 5   0  0.5086209E-08  0.3801467E+04  0.7818609E-02  0.8045840E-01
        2   -1    0    0  501    0  0.00000000000E+00  0.00000000000E+00  0.21786054654E+04  0.21786054654E+04  0.25500000920E-02 0.  1.
       -2   -1    0    0    0  501  0.00000000000E+00  0.00000000000E+00 -0.16583033493E+04  0.16583033493E+04  0.25500000920E-02 0. -1.
    10030    2    1    2    0    0  0.00000000000E+00  0.00000000000E+00  0.52030211605E+03  0.38369088148E+04  0.38014674746E+04 0.  0.
        3    1    3    3  502    0 -0.17074335359E+04  0.62034654866E+03 -0.30419468532E+03  0.18419265829E+04  0.10100000352E+00 0. -1.
       -3    1    3    3    0  502  0.17074335359E+04 -0.62034654866E+03  0.82449680137E+03  0.19949822319E+04  0.10100000352E+00 0.  1.
</event>
<event>
 5   0  0.1628250E-08  0.3787602E+04  0.7818609E-02  0.8048821E-01
        1   -1    0    0  501    0  0.00000000000E+00  0.00000000000E+00  0.27668548392E+04  0.27668548392E+04  0.50400001928E-02 0. -1.
       -1   -1    0    0    0  501  0.00000000000E+00  0.00000000000E+00 -0.12962307444E+04  0.12962307444E+04  0.50400001928E-02 0.  1.
    10030    2    1    2    0    0  0.00000000000E+00  0.00000000000E+00  0.14706240948E+04  0.40630855836E+04  0.37876020424E+04 0.  0.
        5    1    3    3  502    0 -0.13550335513E+04 -0.11542101625E+04  0.41640080354E+02  0.17804698849E+04  0.46999998093E+01 0.  1.
       -5    1    3    3    0  502  0.13550335513E+04  0.11542101625E+04  0.14289840145E+04  0.22826156988E+04  0.46999998093E+01 0. -1.
</event>
<event>
 5   0  0.5147582E-08  0.3805166E+04  0.7818609E-02  0.8045047E-01
       -2   -1    0    0    0  501  0.00000000000E+00  0.00000000000E+00  0.22270383371E+04  0.22270383371E+04  0.25500000920E-02 0. -1.
        2   -1    0    0  501    0  0.00000000000E+00  0.00000000000E+00 -0.16253969999E+04  0.16253969999E+04  0.25500000920E-02 0.  1.
    10030    2    1    2    0    0  0.00000000000E+00  0.00000000000E+00  0.60164133719E+03  0.38524353369E+04  0.38051656635E+04 0.  0.
        1    1    3    3  502    0  0.66419406090E+03  0.21842876190E+03 -0.14906112565E+04  0.16464467172E+04  0.50400001928E-02 0.  1.
       -1    1    3    3    0  502 -0.66419406090E+03 -0.21842876190E+03  0.20922525937E+04  0.22059886197E+04  0.50400001928E-02 0. -1.
</event>
<event>
 5   0  0.5086209E-08  0.3802470E+04  0.7818609E-02  0.8045625E-01
       -2   -1    0    0    0  501  0.00000000000E+00  0.00000000000E+00  0.14000603508E+04  0.14000603508E+04  0.25500000920E-02 0. -1.
        2   -1    0    0  501    0  0.00000000000E+00  0.00000000000E+00 -0.25818129838E+04  0.25818129838E+04  0.25500000920E-02 0.  1.
    10030    2    1    2    0    0  0.00000000000E+00  0.00000000000E+00 -0.11817526330E+04  0.39818733346E+04  0.38024697194E+04 0.  0.
        3    1    3    3  502    0 -0.15459926555E+03 -0.16138250322E+04 -0.16308917924E+04  0.22995956636E+04  0.10100000352E+00 0.  1.
       -3    1    3    3    0  502  0.15459926555E+03  0.16138250322E+04  0.44913915945E+03  0.16822776710E+04  0.10100000352E+00 0. -1.
</event>
<event>
 5   0  0.1628250E-08  0.3801619E+04  0.7818609E-02  0.8045807E-01
        1   -1    0    0  501    0  0.00000000000E+00  0.00000000000E+00  0.17387993111E+04  0.17387993111E+04  0.50400001928E-02 0.  1.
       -1   -1    0    0    0  501  0.00000000000E+00  0.00000000000E+00 -0.20779151218E+04  0.20779151218E+04  0.50400001928E-02 0. -1.
    10030    2    1    2    0    0  0.00000000000E+00  0.00000000000E+00 -0.33911581068E+03  0.38167144330E+04  0.38016193299E+04 0.  0.
        4    1    3    3  502    0 -0.27420985363E+03 -0.17242517686E+04  0.58498506792E+03  0.18413159283E+04  0.12699999809E+01 0.  1.
       -4    1    3    3    0  502  0.27420985363E+03  0.17242517686E+04 -0.92410087859E+03  0.19753985046E+04  0.12699999809E+01 0. -1.
</event>
<event>
 5   0  0.1666051E-08  0.3792243E+04  0.7818609E-02  0.8047822E-01
       -1   -1    0    0    0  501  0.00000000000E+00  0.00000000000E+00  0.24620496331E+04  0.24620496331E+04  0.50400001928E-02 0. -1.
        1   -1    0    0  501    0  0.00000000000E+00  0.00000000000E+00 -0.14602780883E+04  0.14602780883E+04  0.50400001928E-02 0.  1.
    10030    2    1    2    0    0  0.00000000000E+00  0.00000000000E+00  0.10017715448E+04  0.39223277214E+04  0.37922432050E+04 0.  0.
        2    1    3    3  502    0  0.12366561744E+04 -0.14373024942E+04  0.48954715073E+03  0.19582679506E+04  0.25500000920E-02 0. -1.
       -2    1    3    3    0  502 -0.12366561744E+04  0.14373024942E+04  0.51222439408E+03  0.19640597708E+04  0.25500000920E-02 0.  1.
</event>
<event>
 5   0  0.5207474E-08  0.3796738E+04  0.7818609E-02  0.8046855E-01
       -2   -1    0    0    0  501  0.00000000000E+00  0.00000000000E+00  0.16111015575E+04  0.16111015575E+04  0.25500000920E-02 0. -1.
        2   -1    0    0  501    0  0.00000000000E+00  0.00000000000E+00 -0.22368572601E+04  0.22368572601E+04  0.25500000920E-02 0.  1.
    10030    2    1    2    0    0  0.00000000000E+00  0.00000000000E+00 -0.62575570261E+03  0.38479588177E+04  0.37967376606E+04 0.  0.
        4    1    3    3  502    0  0.16945302139E+04  0.54982633590E+03  0.35175963755E+03  0.18158959499E+04  0.12699999809E+01 0. -1.
       -4    1    3    3    0  502 -0.16945302139E+04 -0.54982633590E+03 -0.97751534017E+03  0.20320628678E+04  0.12699999809E+01 0.  1.
</event>
<event>
 5   0  0.5147582E-08  0.3797973E+04  0.7818609E-02  0.8046590E-01
       -2   -1    0    0    0  501  0.00000000000E+00  0.00000000000E+00  0.16025113482E+04  0.16025113482E+04  0.25500000920E-02 0. -1.
        2   -1    0    0  501    0  0.00000000000E+00  0.00000000000E+00 -0.22503118763E+04  0.22503118763E+04  0.25500000920E-02 0.  1.
    10030    2    1    2    0    0  0.00000000000E+00  0.00000000000E+00 -0.64780052809E+03  0.38528232245E+04  0.37979733115E+04 0.  0.
        1    1    3    3  502    0  0.14568718046E+04 -0.11742152207E+04  0.46496968458E+01  0.18711703448E+04  0.50400001928E-02 0. -1.
       -1    1    3    3    0  502 -0.14568718046E+04  0.11742152207E+04 -0.65245022494E+03  0.19816528797E+04  0.50400001928E-02 0.  1.
</event>
<event>
 5   0  0.1628250E-08  0.3797378E+04  0.7818609E-02  0.8046718E-01
       -1   -1    0    0    0  501  0.00000000000E+00  0.00000000000E+00  0.16921301034E+04  0.16921301034E+04  0.50400001928E-02 0. -1.
        1   -1    0    0  501    0  0.00000000000E+00  0.00000000000E+00 -0.21304625332E+04  0.21304625332E+04  0.50400001928E-02 0.  1.
    10030    2    1    2    0    0  0.00000000000E+00  0.00000000000E+00 -0.43833242978E+03  0.38225926366E+04  0.37973779304E+04 0.  0.
        1    1    3    3  502    0 -0.15775555385E+04 -0.94072002932E+03  0.26505184894E+03  0.18557715736E+04  0.50400001928E-02 0. -1.
       -1    1    3    3    0  502  0.15775555385E+04  0.94072002932E+03 -0.70338427872E+03  0.19668210631E+04  0.50400001928E-02 0.  1.
</event>
<event>
 5   0  0.5159761E-08  0.3741868E+04  0.7818609E-02  0.8058746E-01
       -2   -1    0    0    0  501  0.00000000000E+00  0.00000000000E+00  0.12707756106E+04  0.12707756106E+04  0.25500000920E-02 0.  1.
        2   -1    0    0  501    0  0.00000000000E+00  0.00000000000E+00 -0.27545340551E+04  0.27545340551E+04  0.25500000920E-02 0. -1.
    10030    2    1    2    0    0  0.00000000000E+00  0.00000000000E+00 -0.14837584444E+04  0.40253096657E+04  0.37418683546E+04 0.  0.
        5    1    3    3  502    0 -0.14950494929E+04 -0.55565106808E+03 -0.17939434900E+04  0.24004533803E+04  0.46999998093E+01 0. -1.
       -5    1    3    3    0  502  0.14950494929E+04  0.55565106808E+03  0.31018504556E+03  0.16248562854E+04  0.46999998093E+01 0.  1.
</event>
<event>
 5   0  0.1628250E-08  0.3795435E+04  0.7818609E-02  0.8047135E-01
        1   -1    0    0  501    0  0.00000000000E+00  0.00000000000E+00  0.14168172948E+04  0.14168172948E+04  0.50400001928E-02 0. -1.
       -1   -1    0    0    0  501  0.00000000000E+00  0.00000000000E+00 -0.25418464431E+04  0.25418464431E+04  0.50400001928E-02 0.  1.
    10030    2    1    2    0    0  0.00000000000E+00  0.00000000000E+00 -0.11250291483E+04  0.39586637379E+04  0.37954351537E+04 0.  0.
        4    1    3    3  502    0 -0.84285058743E+03 -0.35295577468E+02 -0.23355298470E+04  0.24832124697E+04  0.12699999809E+01 0.  1.
       -4    1    3    3    0  502  0.84285058743E+03  0.35295577468E+02  0.12105006987E+04  0.14754512682E+04  0.12699999809E+01 0. -1.
</event>
<event>
 5   0  0.1628250E-08  0.3800619E+04  0.7818609E-02  0.8046022E-01
        1   -1    0    0  501    0  0.00000000000E+00  0.00000000000E+00  0.22029487583E+04  0.22029487583E+04  0.50400001928E-02 0. -1.
       -1   -1    0    0    0  501  0.00000000000E+00  0.00000000000E+00 -0.16392462748E+04  0.16392462748E+04  0.50400001928E-02 0.  1.
    10030    2    1    2    0    0  0.00000000000E+00  0.00000000000E+00  0.56370248354E+03  0.38421950331E+04  0.38006186578E+04 0.  0.
        5    1    3    3  502    0  0.28894753406E+03 -0.44472308329E+03  0.21266103904E+04  0.21917488772E+04  0.46999998093E+01 0. -1.
       -5    1    3    3    0  502 -0.28894753406E+03  0.44472308329E+03 -0.15629079068E+04  0.16504461559E+04  0.46999998093E+01 0.  1.
</event>
<event>
 5   0  0.1666051E-08  0.3799534E+04  0.7818609E-02  0.8046255E-01
       -1   -1    0    0    0  501  0.00000000000E+00  0.00000000000E+00  0.17277010077E+04  0.17277010077E+04  0.50400001928E-02 0. -1.
        1   -1    0    0  501    0  0.00000000000E+00  0.00000000000E+00 -0.20889695265E+04  0.20889695265E+04  0.50400001928E-02 0.  1.
    10030    2    1    2    0    0  0.00000000000E+00  0.00000000000E+00 -0.36126851880E+03  0.38166705342E+04  0.37995340535E+04 0.  0.
        2    1    3    3  502    0  0.28533848343E+03  0.35011138591E+03 -0.20342532069E+04  0.20837903308E+04  0.25500000920E-02 0.  1.
       -2    1    3    3    0  502 -0.28533848343E+03 -0.35011138591E+03  0.16729846881E+04  0.17328802034E+04  0.25500000920E-02 0. -1.
</event>
<event>
 5   0  0.5207474E-08  0.3788967E+04  0.7818609E-02  0.8048527E-01
        2   -1    0    0  501    0  0.00000000000E+00  0.00000000000E+00  0.11392751123E+04  0.11392751123E+04  0.25500000920E-02 0. -1.
       -2   -1    0    0    0  501  0.00000000000E+00  0.00000000000E+00 -0.31503078097E+04  0.31503078097E+04  0.25500000920E-02 0.  1.
    10030    2    1    2    0    0  0.00000000000E+00  0.00000000000E+00 -0.20110326974E+04  0.42895829220E+04  0.37889667634E+04 0.  0.
        4    1    3    3  502    0  0.13399705287E+04 -0.12002715452E+04 -0.33298007354E+03  0.18294945046E+04  0.12699999809E+01 0. -1.
       -4    1    3    3    0  502 -0.13399705287E+04  0.12002715452E+04 -0.16780526239E+04  0.24600884174E+04  0.12699999809E+01 0.  1.
</event>
<event>
 5   0  0.1628250E-08  0.3792971E+04  0.7818609E-02  0.8047665E-01
        1   -1    0    0  501    0  0.00000000000E+00  0.00000000000E+00  0.22104896314E+04  0.22104896314E+04  0.50400001928E-02 0. -1.
       -1   -1    0    0    0  501  0.00000000000E+00  0.00000000000E+00 -0.16270859543E+04  0.16270859543E+04  0.50400001928E-02 0.  1.
    10030    2    1    2    0    0  0.00000000000E+00  0.00000000000E+00  0.58340367710E+03  0.38375755858E+04  0.37929706730E+04 0.  0.
        1    1    3    3  502    0 -0.87342417439E+03 -0.71778594332E+03 -0.12488899580E+04  0.16845808310E+04  0.50400001928E-02 0.  1.
       -1    1    3    3    0  502  0.87342417439E+03  0.71778594332E+03  0.18322936351E+04  0.21529947548E+04  0.50400001928E-02 0. -1.
</event>
<event>
 5   0  0.1628473E-08  0.3800061E+04  0.7818609E-02  0.8046142E-01
       -1   -1    0    0    0  501  0.00000000000E+00  0.00000000000E+00  0.12657103671E+04  0.12657103671E+04  0.50400001928E-02 0. -1.
        1   -1    0    0  501    0  0.00000000000E+00  0.00000000000E+00 -0.28522444704E+04  0.28522444704E+04  0.50400001928E-02 0.  1.
    10030    2    1    2    0    0  0.00000000000E+00  0.00000000000E+00 -0.15865341033E+04  0.41179548375E+04  0.38000607341E+04 0.  0.
        3    1    3    3  502    0  0.16745670446E+04 -0.67204664183E+03 -0.14824749098E+03  0.18104692222E+04  0.10100000352E+00 0. -1.
       -3    1    3    3    0  502 -0.16745670446E+04  0.67204664183E+03 -0.14382866123E+04  0.23074856153E+04  0.10100000352E+00 0.  1.
</event>
<event>
 5   0  0.5140842E-08  0.3801178E+04  0.7818609E-02  0.8045902E-01
       -2   -1    0    0    0  501  0.00000000000E+00  0.00000000000E+00  0.15620190865E+04  0.15620190865E+04  0.25500000920E-02 0.  1.
        2   -1    0    0  501    0  0.00000000000E+00  0.00000000000E+00 -0.23125444453E+04  0.23125444453E+04  0.25500000920E-02 0. -1.
    10030    2    1    2    0    0  0.00000000000E+00  0.00000000000E+00 -0.75052535886E+03  0.38745635318E+04  0.38011780079E+04 0.  0.
        2    1    3    3  502    0  0.11037558178E+04  0.15132030993E+04 -0.46265129861E+02  0.18735530383E+04  0.25500000920E-02 0. -1.
       -2    1    3    3    0  502 -0.11037558178E+04 -0.15132030993E+04 -0.70426022900E+03  0.20010104935E+04  0.25500000920E-02 0.  1.
</event>
<event>
 5   0  0.5207474E-08  0.3806892E+04  0.7818609E-02  0.8044678E-01
        2   -1    0    0  501    0  0.00000000000E+00  0.00000000000E+00  0.18808718866E+04  0.18808718866E+04  0.25500000920E-02 0. -1.
       -2   -1    0    0    0  501  0.00000000000E+00  0.00000000000E+00 -0.19262908392E+04  0.19262908392E+04  0.25500000920E-02 0.  1.
    10030    2    1    2    0    0  0.00000000000E+00  0.00000000000E+00 -0.45418952658E+02  0.38071627258E+04  0.38068917951E+04 0.  0.
        4    1    3    3  502    0  0.30931524576E+02  0.11699702448E+04  0.14785027941E+04  0.18856720972E+04  0.12699999809E+01 0. -1.
       -4    1    3    3    0  502 -0.30931524576E+02 -0.11699702448E+04 -0.15239217467E+04  0.19214906287E+04  0.12699999809E+01 0.  1.
</event>
<event>
 5   0  0.1628250E-08  0.3855665E+04  0.7818609E-02  0.8034314E-01
       -1   -1    0    0    0  501  0.00000000000E+00  0.00000000000E+00  0.17907401767E+04  0.17907401767E+04  0.50400001928E-02 0.  1.
        1   -1    0    0  501    0  0.00000000000E+00  0.00000000000E+00 -0.20754200358E+04  0.20754200358E+04  0.50400001928E-02 0. -1.
    10030    2    1    2    0    0  0.00000000000E+00  0.00000000000E+00 -0.28467985906E+03  0.38661602125E+04  0.38556649448E+04 0.  0.
        5    1    3    3  502    0 -0.10618548993E+04  0.16042719452E+04 -0.18343911767E+02  0.19239498150E+04  0.46999998093E+01 0. -1.
       -5    1    3    3    0  502  0.10618548993E+04 -0.16042719452E+04 -0.26633594729E+03  0.19422103975E+04  0.46999998093E+01 0.  1.
</event>
<event>
 5   0  0.5207474E-08  0.3796785E+04  0.7818609E-02  0.8046845E-01
        2   -1    0    0  501    0  0.00000000000E+00  0.00000000000E+00  0.30882778018E+04  0.30882778018E+04  0.25500000920E-02 0. -1.
       -2   -1    0    0    0  501  0.00000000000E+00  0.00000000000E+00 -0.11669590367E+04  0.11669590367E+04  0.25500000920E-02 0.  1.
    10030    2    1    2    0    0  0.00000000000E+00  0.00000000000E+00  0.19213187651E+04  0.42552368384E+04  0.37967847916E+04 0.  0.
        4    1    3    3  502    0  0.12619958019E+03 -0.11099847028E+04  0.26808879451E+04  0.29043336863E+04  0.12699999809E+01 0. -1.
       -4    1    3    3    0  502 -0.12619958019E+03  0.11099847028E+04 -0.75956917995E+03  0.13509031521E+04  0.12699999809E+01 0.  1.
</event>
<event>
 5   0  0.1666051E-08  0.3799270E+04  0.7818609E-02  0.8046312E-01
       -1   -1    0    0    0  501  0.00000000000E+00  0.00000000000E+00  0.18198444175E+04  0.18198444175E+04  0.50400001928E-02 0. -1.
        1   -1    0    0  501    0  0.00000000000E+00  0.00000000000E+00 -0.19829241599E+04  0.19829241599E+04  0.50400001928E-02 0.  1.
    10030    2    1    2    0    0  0.00000000000E+00  0.00000000000E+00 -0.16307974242E+03  0.38027685774E+04  0.37992701734E+04 0.  0.
        2    1    3    3  502    0  0.62610750539E+03 -0.17882142186E+04 -0.21911738404E+03  0.19072842284E+04  0.25500000920E-02 0.  1.
       -2    1    3    3    0  502 -0.62610750539E+03  0.17882142186E+04  0.56037641622E+02  0.18954843490E+04  0.25500000920E-02 0. -1.
</event>
<event>
 5   0  0.5159761E-08  0.3796889E+04  0.7818609E-02  0.8046823E-01
        2   -1    0    0  501    0  0.00000000000E+00  0.00000000000E+00  0.11770065589E+04  0.11770065589E+04  0.25500000920E-02 0.  1.
       -2   -1    0    0    0  501  0.00000000000E+00  0.00000000000E+00 -0.30620823465E+04  0.30620823465E+04  0.25500000920E-02 0. -1.
    10030    2    1    2    0    0  0.00000000000E+00  0.00000000000E+00 -0.18850757876E+04  0.42390889054E+04  0.37968887293E+04 0.  0.
        5    1    3    3  502    0 -0.94597220492E+02 -0.21527261318E+03 -0.30457548291E+04  0.30548216807E+04  0.46999998093E+01 0. -1.
       -5    1    3    3    0  502  0.94597220492E+02  0.21527261318E+03  0.11606790415E+04  0.11842672246E+04  0.46999998093E+01 0.  1.
</event>
<event>
 5   0  0.1628250E-08  0.3808384E+04  0.7818609E-02  0.8044358E-01
       -1   -1    0    0    0  501  0.00000000000E+00  0.00000000000E+00  0.21122221430E+04  0.21122221430E+04  0.50400001928E-02 0. -1.
        1   -1    0    0  501    0  0.00000000000E+00  0.00000000000E+00 -0.17166503033E+04  0.17166503033E+04  0.50400001928E-02 0.  1.
    10030    2    1    2    0    0  0.00000000000E+00  0.00000000000E+00  0.39557183968E+03  0.38288724463E+04  0.38083837950E+04 0.  0.
        4    1    3    3  502    0  0.72433255535E+03  0.15273042762E+04 -0.68364568835E+03  0.18233729852E+04  0.12699999809E+01 0.  1.
       -4    1    3    3    0  502 -0.72433255535E+03 -0.15273042762E+04  0.10792175280E+04  0.20054994612E+04  0.12699999809E+01 0. -1.
</event>
<event>
 5   0  0.5086209E-08  0.3796041E+04  0.7818609E-02  0.8047005E-01
        2   -1    0    0  501    0  0.00000000000E+00  0.00000000000E+00  0.16180285107E+04  0.16180285107E+04  0.25500000920E-02 0.  1.
       -2   -1    0    0    0  501  0.00000000000E+00  0.00000000000E+00 -0.22264642806E+04  0.22264642806E+04  0.25500000920E-02 0. -1.
    10030    2    1    2    0    0  0.00000000000E+00  0.00000000000E+00 -0.60843576989E+03  0.38444927913E+04  0.37960414560E+04 0.  0.
        3    1    3    3  502    0  0.12471052935E+04 -0.11116046424E+04 -0.12165747056E+04  0.20666374908E+04  0.10100000352E+00 0. -1.
       -3    1    3    3    0  502 -0.12471052935E+04  0.11116046424E+04  0.60813893569E+03  0.17778553004E+04  0.10100000352E+00 0.  1.
</event>
<event>
 5   0  0.1666051E-08  0.3803333E+04  0.7818609E-02  0.8045440E-01
       -1   -1    0    0    0  501  0.00000000000E+00  0.00000000000E+00  0.12478070589E+04  0.12478070589E+04  0.50400001928E-02 0.  1.
        1   -1    0    0  501    0  0.00000000000E+00  0.00000000000E+00 -0.28981524807E+04  0.28981524807E+04  0.50400001928E-02 0. -1.
    10030    2    1    2    0    0  0.00000000000E+00  0.00000000000E+00 -0.16503454218E+04  0.41459595396E+04  0.38033328138E+04 0.  0.
        2    1    3    3  502    0  0.81382412477E+03 -0.60132656946E+03 -0.25803233518E+04  0.27716370522E+04  0.25500000920E-02 0. -1.
       -2    1    3    3    0  502 -0.81382412477E+03  0.60132656946E+03  0.92997792996E+03  0.13743224874E+04  0.25500000920E-02 0.  1.
</event>
<event>
 5   0  0.5140842E-08  0.3796068E+04  0.7818609E-02  0.8046999E-01
        2   -1    0    0  501    0  0.00000000000E+00  0.00000000000E+00  0.17108450192E+04  0.17108450192E+04  0.25500000920E-02 0.  1.
       -2   -1    0    0    0  501  0.00000000000E+00  0.00000000000E+00 -0.21057044257E+04  0.21057044257E+04  0.25500000920E-02 0. -1.
    10030    2    1    2    0    0  0.00000000000E+00  0.00000000000E+00 -0.39485940651E+03  0.38165494449E+04  0.37960684549E+04 0.  0.
        2    1    3    3  502    0  0.67122617877E+03  0.11828616988E+04 -0.15285167361E+04  0.20459887082E+04  0.25500000920E-02 0. -1.
       -2    1    3    3    0  502 -0.67122617877E+03 -0.11828616988E+04  0.11336573296E+04  0.17705607367E+04  0.25500000920E-02 0.  1.
</event>
<event>
 5   0  0.5207474E-08  0.3801407E+04  0.7818609E-02  0.8045853E-01
       -2   -1    0    0    0  501  0.00000000000E+00  0.00000000000E+00  0.32068899752E+04  0.32068899752E+04  0.25500000920E-02 0. -1.
        2   -1    0    0  501    0  0.00000000000E+00  0.00000000000E+00 -0.11265351456E+04  0.11265351456E+04  0.25500000920E-02 0.  1.
    10030    2    1    2    0    0  0.00000000000E+00  0.00000000000E+00  0.20803548296E+04  0.43334251208E+04  0.38014072474E+04 0.  0.
        4    1    3    3  502    0 -0.12865001051E+04  0.13991206866E+04  0.10483530520E+04  0.21706374526E+04  0.12699999809E+01 0. -1.
       -4    1    3    3    0  502  0.12865001051E+04 -0.13991206866E+04  0.10320017776E+04  0.21627876682E+04  0.12699999809E+01 0.  1.
</event>
<event>
 5   0  0.5159761E-08  0.3803790E+04  0.7818609E-02  0.8045342E-01
       -2   -1    0    0    0  501  0.00000000000E+00  0.00000000000E+00  0.23802506866E+04  0.23802506866E+04  0.25500000920E-02 0.  1.
        2   -1    0    0  501    0  0.00000000000E+00  0.00000000000E+00 -0.15196734974E+04  0.15196734974E+04  0.25500000920E-02 0. -1.
    10030    2    1    2    0    0  0.00000000000E+00  0.00000000000E+00  0.86057718923E+03  0.38999241840E+04  0.38037896291E+04 0.  0.
        5    1    3    3  502    0 -0.13557672951E+04 -0.11766289943E+04  0.10743537388E+04  0.20920847963E+04  0.46999998093E+01 0.  1.
       -5    1    3    3    0  502  0.13557672951E+04  0.11766289943E+04 -0.21377654952E+03  0.18078393878E+04  0.46999998093E+01 0. -1.
</event>
<event>
 5   0  0.1628250E-08  0.3799787E+04  0.7818609E-02  0.8046201E-01
       -1   -1    0    0    0  501  0.00000000000E+00  0.00000000000E+00  0.27104630178E+04  0.27104630178E+04  0.50400001928E-02 0.  1.
        1   -1    0    0  501    0  0.00000000000E+00  0.00000000000E+00 -0.13317266128E+04  0.13317266128E+04  0.50400001928E-02 0. -1.
    10030    2    1    2    0    0  0.00000000000E+00  0.00000000000E+00  0.13787364051E+04  0.40421896306E+04  0.37997872224E+04 0.  0.
        1    1    3    3  502    0  0.14062472467E+04  0.12858216461E+03 -0.66275124497E+03  0.15599050948E+04  0.50400001928E-02 0. -1.
       -1    1    3    3    0  502 -0.14062472467E+04 -0.12858216461E+03  0.20414876500E+04  0.24822845359E+04  0.50400001928E-02 0.  1.
</event>
<event>
 5   0  0.1666051E-08  0.3799150E+04  0.7818609E-02  0.8046337E-01
        1   -1    0    0  501    0  0.00000000000E+00  0.00000000000E+00  0.21870075704E+04  0.21870075704E+04  0.50400001928E-02 0.  1.
       -1   -1    0    0    0  501  0.00000000000E+00  0.00000000000E+00 -0.16499192976E+04  0.16499192976E+04  0.50400001928E-02 0. -1.
    10030    2    1    2    0    0  0.00000000000E+00  0.00000000000E+00  0.53708827281E+03  0.38369268679E+04  0.37991504283E+04 0.  0.
        2    1    3    3  502    0 -0.99371585741E+03  0.16189183122E+04  0.27286304577E+03  0.19190679896E+04  0.25500000920E-02 0. -1.
       -2    1    3    3    0  502  0.99371585741E+03 -0.16189183122E+04  0.26422522705E+03  0.19178588784E+04  0.25500000920E-02 0.  1.
</event>
<event>
 5   0  0.5159761E-08  0.3760371E+04  0.7818609E-02  0.8054713E-01
       -2   -1    0    0    0  501  0.00000000000E+00  0.00000000000E+00  0.17318558852E+04  0.17318558852E+04  0.25500000920E-02 0.  1.
        2   -1    0    0  501    0  0.00000000000E+00  0.00000000000E+00 -0.20412186841E+04  0.20412186841E+04  0.25500000920E-02 0. -1.
    10030    2    1    2    0    0  0.00000000000E+00  0.00000000000E+00 -0.30936279889E+03  0.37730745692E+04  0.37603705088E+04 0.  0.
        5    1    3    3  502    0  0.16052460690E+04 -0.12747395737E+03  0.81916955738E+03  0.18066890727E+04  0.46999998093E+01 0.  1.
       -5    1    3    3    0  502 -0.16052460690E+04  0.12747395737E+03 -0.11285323563E+04  0.19663854965E+04  0.46999998093E+01 0. -1.
</event>
<event>
 5   0  0.1628473E-08  0.3796874E+04  0.7818609E-02  0.8046826E-01
       -1   -1    0    0    0  501  0.00000000000E+00  0.00000000000E+00  0.19154505468E+04  0.19154505468E+04  0.50400001928E-02 0.  1.
        1   -1    0    0  501    0  0.00000000000E+00  0.00000000000E+00 -0.18815743865E+04  0.18815743865E+04  0.50400001928E-02 0. -1.
    10030    2    1    2    0    0  0.00000000000E+00  0.00000000000E+00  0.33876160300E+02  0.37970249334E+04  0.37968738128E+04 0.  0.
        3    1    3    3  502    0  0.65864837408E+02  0.49947420985E+03  0.18473797504E+04  0.19148432353E+04  0.10100000352E+00 0.  1.
       -3    1    3    3    0  502 -0.65864837408E+02 -0.49947420985E+03 -0.18135035901E+04  0.18821816981E+04  0.10100000352E+00 0. -1.
</event>
<event>
 5   0  0.5147582E-08  0.3762124E+04  0.7818609E-02  0.8054332E-01
        2   -1    0    0  501    0  0.00000000000E+00  0.00000000000E+00  0.12184995899E+04  0.12184995899E+04  0.25500000920E-02 0. -1.
       -2   -1    0    0    0  501  0.00000000000E+00  0.00000000000E+00 -0.29038947381E+04  0.29038947381E+04  0.25500000920E-02 0.  1.
    10030    2    1    2    0    0  0.00000000000E+00  0.00000000000E+00 -0.16853951482E+04  0.41223943279E+04  0.37621241592E+04 0.  0.
        1    1    3    3  502    0  0.16006461555E+04  0.89442557019E+02 -0.19209670411E+04  0.25020356631E+04  0.50400001928E-02 0.  1.
       -1    1    3    3    0  502 -0.16006461555E+04 -0.89442557019E+02  0.23557189297E+03  0.16203586649E+04  0.50400001928E-02 0. -1.
</event>
<event>
 5   0  0.1628250E-08  0.3800123E+04  0.7818609E-02  0.8046129E-01
        1   -1    0    0  501    0  0.00000000000E+00  0.00000000000E+00  0.27568203254E+04  0.27568203254E+04  0.50400001928E-02 0. -1.
       -1   -1    0    0    0  501  0.00000000000E+00  0.00000000000E+00 -0.13095642390E+04  0.13095642390E+04  0.50400001928E-02 0.  1.
    10030    2    1    2    0    0  0.00000000000E+00  0.00000000000E+00  0.14472560864E+04  0.40663845644E+04  0.38001227935E+04 0.  0.
        1    1    3    3  502    0  0.77844363925E+03 -0.10434852836E+04  0.22045775469E+04  0.25602730707E+04  0.50400001928E-02 0. -1.
       -1    1    3    3    0  502 -0.77844363925E+03  0.10434852836E+04 -0.75732146051E+03  0.15061114936E+04  0.50400001928E-02 0.  1.
</event>
<event>
 5   0  0.5147582E-08  0.3800366E+04  0.7818609E-02  0.8046076E-01
       -2   -1    0    0    0  501  0.00000000000E+00  0.00000000000E+00  0.12210561950E+04  0.12210561950E+04  0.25500000920E-02 0. -1.
        2   -1    0    0  501    0  0.00000000000E+00  0.00000000000E+00 -0.29570258104E+04  0.29570258104E+04  0.25500000920E-02 0.  1.
    10030    2    1    2    0    0  0.00000000000E+00  0.00000000000E+00 -0.17359696154E+04  0.41780820054E+04  0.38003656058E+04 0.  0.
        1    1    3    3  502    0 -0.34258852402E+03  0.36382142137E+03  0.11475178101E+04  0.12516109810E+04  0.50400001928E-02 0. -1.
       -1    1    3    3    0  502  0.34258852402E+03 -0.36382142137E+03 -0.28834874255E+04  0.29264710244E+04  0.50400001928E-02 0.  1.
</event>
<event>
 5   0  0.5147582E-08  0.3798350E+04  0.7818609E-02  0.8046509E-01
        2   -1    0    0  501    0  0.00000000000E+00  0.00000000000E+00  0.26510827573E+04  0.26510827573E+04  0.25500000920E-02 0.  1.
       -2   -1    0    0    0  501  0.00000000000E+00  0.00000000000E+00 -0.13605251491E+04  0.13605251491E+04  0.25500000920E-02 0. -1.
    10030    2    1    2    0    0  0.00000000000E+00  0.00000000000E+00  0.12905576082E+04  0.40116079064E+04  0.37983495172E+04 0.  0.
        1    1    3    3  502    0 -0.11672491631E+04  0.10625529707E+04  0.17606876193E+04  0.23646374599E+04  0.50400001928E-02 0.  1.
       -1    1    3    3    0  502  0.11672491631E+04 -0.10625529707E+04 -0.47013001108E+03  0.16469704465E+04  0.50400001928E-02 0. -1.
</event>
<event>
 5   0  0.5159761E-08  0.3778930E+04  0.7818609E-02  0.8050692E-01
       -2   -1    0    0    0  501  0.00000000000E+00  0.00000000000E+00  0.30750478628E+04  0.30750478628E+04  0.25500000920E-02 0.  1.
        2   -1    0    0  501    0  0.00000000000E+00  0.00000000000E+00 -0.11609827785E+04  0.11609827785E+04  0.25500000920E-02 0. -1.
    10030    2    1    2    0    0  0.00000000000E+00  0.00000000000E+00  0.19140650844E+04  0.42360306413E+04  0.37789298018E+04 0.  0.
        5    1    3    3  502    0  0.22143907895E+03 -0.77068865636E+03 -0.96077942955E+03  0.12514453536E+04  0.46999998093E+01 0. -1.
       -5    1    3    3    0  502 -0.22143907895E+03  0.77068865636E+03  0.28748445139E+04  0.29845852877E+04  0.46999998093E+01 0.  1.
</event>
<event>
 5   0  0.5086209E-08  0.3810746E+04  0.7818609E-02  0.8043853E-01
       -2   -1    0    0    0  501  0.00000000000E+00  0.00000000000E+00  0.15624412518E+04  0.15624412518E+04  0.25500000920E-02 0. -1.
        2   -1    0    0  501    0  0.00000000000E+00  0.00000000000E+00 -0.23235726543E+04  0.23235726543E+04  0.25500000920E-02 0.  1.
    10030    2    1    2    0    0  0.00000000000E+00  0.00000000000E+00 -0.76113140249E+03  0.38860139061E+04  0.38107457363E+04 0.  0.
        3    1    3    3  502    0 -0.11530354266E+04 -0.81894109156E+03  0.92148196533E+03  0.16879822953E+04  0.10100000352E+00 0. -1.
       -3    1    3    3    0  502  0.11530354266E+04  0.81894109156E+03 -0.16826133678E+04  0.21980316108E+04  0.10100000352E+00 0.  1.
</event>
<event>
 5   0  0.1628250E-08  0.3804515E+04  0.7818609E-02  0.8045187E-01
       -1   -1    0    0    0  501  0.00000000000E+00  0.00000000000E+00  0.13701360940E+04  0.13701360940E+04  0.50400001928E-02 0. -1.
        1   -1    0    0  501    0  0.00000000000E+00  0.00000000000E+00 -0.26410393101E+04  0.26410393101E+04  0.50400001928E-02 0.  1.
    10030    2    1    2    0    0  0.00000000000E+00  0.00000000000E+00 -0.12709032161E+04  0.40111754041E+04  0.38045148360E+04 0.  0.
        4    1    3    3  502    0  0.99865648768E+03  0.10457783345E+03 -0.23388652049E+04  0.25452982857E+04  0.12699999809E+01 0.  1.
       -4    1    3    3    0  502 -0.99865648768E+03 -0.10457783345E+03  0.10679619888E+04  0.14658771183E+04  0.12699999809E+01 0. -1.
</event>
<event>
 5   0  0.1628473E-08  0.3800179E+04  0.7818609E-02  0.8046116E-01
        1   -1    0    0  501    0  0.00000000000E+00  0.00000000000E+00  0.19518336830E+04  0.19518336830E+04  0.50400001928E-02 0. -1.
       -1   -1    0    0    0  501  0.00000000000E+00  0.00000000000E+00 -0.18497175435E+04  0.18497175435E+04  0.50400001928E-02 0.  1.
    10030    2    1    2    0    0  0.00000000000E+00  0.00000000000E+00  0.10211613949E+03  0.38015512266E+04  0.38001794724E+04 0.  0.
        3    1    3    3  502    0  0.17046925272E+04 -0.15080239745E+03  0.87696072805E+03  0.19229607651E+04  0.10100000352E+00 0. -1.
       -3    1    3    3    0  502 -0.17046925272E+04  0.15080239745E+03 -0.77484458855E+03  0.18785904615E+04  0.10100000352E+00 0.  1.
</event>
<event>
 5   0  0.1666051E-08  0.3801956E+04  0.7818609E-02  0.8045735E-01
        1   -1    0    0  501    0  0.00000000000E+00  0.00000000000E+00  0.19329845042E+04  0.19329845042E+04  0.50400001928E-02 0. -1.
       -1   -1    0    0    0  501  0.00000000000E+00  0.00000000000E+00 -0.18695015607E+04  0.18695015607E+04  0.50400001928E-02 0.  1.
    10030    2    1    2    0    0  0.00000000000E+00  0.00000000000E+00  0.63482943474E+02  0.38024860649E+04  0.38019561005E+04 0.  0.
        2    1    3    3  502    0  0.13751809339E+04 -0.11307164576E+04  0.69822406655E+03  0.19123700363E+04  0.25500000920E-02 0. -1.
       -2    1    3    3    0  502 -0.13751809339E+04  0.11307164576E+04 -0.63474112308E+03  0.18901160287E+04  0.25500000920E-02 0.  1.
</event>
<event>
 5   0  0.1628250E-08  0.3794774E+04  0.7818609E-02  0.8047277E-01
       -1   -1    0    0    0  501  0.00000000000E+00  0.00000000000E+00  0.20977575839E+04  0.20977575839E+04  0.50400001928E-02 0.  1.
        1   -1    0    0  501    0  0.00000000000E+00  0.00000000000E+00 -0.17161555761E+04  0.17161555761E+04  0.50400001928E-02 0. -1.
    10030    2    1    2    0    0  0.00000000000E+00  0.00000000000E+00  0.38160200781E+03  0.38139131600E+04  0.37947744992E+04 0.  0.
        1    1    3    3  502    0 -0.84209125601E+03  0.16844813815E+04 -0.41629638871E+02  0.18837006756E+04  0.50400001928E-02 0. -1.
       -1    1    3    3    0  502  0.84209125601E+03 -0.16844813815E+04  0.42323164668E+03  0.19302124844E+04  0.50400001928E-02 0.  1.
</event>
<event>
 5   0  0.5147582E-08  0.3794530E+04  0.7818609E-02  0.8047330E-01
       -2   -1    0    0    0  501  0.00000000000E+00  0.00000000000E+00  0.11932406880E+04  0.11932406880E+04  0.25500000920E-02 0.  1.
        2   -1    0    0  501    0  0.00000000000E+00  0.00000000000E+00 -0.30166708772E+04  0.30166708772E+04  0.25500000920E-02 0. -1.
    10030    2    1    2    0    0  0.00000000000E+00  0.00000000000E+00 -0.18234301892E+04  0.42099115652E+04  0.37945299752E+04 0.  0.
        1    1    3    3  502    0  0.11819732496E+04 -0.11307247246E+04  0.15476943178E+03  0.16430315708E+04  0.50400001928E-02 0.  1.
       -1    1    3    3    0  502 -0.11819732496E+04  0.11307247246E+04 -0.19781996210E+04  0.25668799945E+04  0.50400001928E-02 0. -1.
</event>
<event>
 5   0  0.1628473E-08  0.3800896E+04  0.7818609E-02  0.8045963E-01
        1   -1    0    0  501    0  0.00000000000E+00  0.00000000000E+00  0.24673596823E+04  0.24673596823E+04  0.50400001928E-02 0. -1.
       -1   -1    0    0    0  501  0.00000000000E+00  0.00000000000E+00 -0.14637926792E+04  0.14637926792E+04  0.50400001928E-02 0.  1.
    10030    2    1    2    0    0  0.00000000000E+00  0.00000000000E+00  0.10035670031E+04  0.39311523616E+04  0.38008962312E+04 0.  0.
        3    1    3    3  502    0  0.85765367778E+03 -0.61616300273E+03 -0.11323878461E+04  0.15483955958E+04  0.10100000352E+00 0.  1.
       -3    1    3    3    0  502 -0.85765367778E+03  0.61616300273E+03  0.21359548492E+04  0.23827567658E+04  0.10100000352E+00 0. -1.
</event>
<event>
 5   0  0.5140842E-08  0.3804773E+04  0.7818609E-02  0.8045131E-01
       -2   -1    0    0    0  501  0.00000000000E+00  0.00000000000E+00  0.13140719840E+04  0.13140719840E+04  0.25500000920E-02 0.  1.
        2   -1    0    0  501    0  0.00000000000E+00  0.00000000000E+00 -0.27540910447E+04  0.27540910447E+04  0.25500000920E-02 0. -1.
    10030    2    1    2    0    0  0.00000000000E+00  0.00000000000E+00 -0.14400190607E+04  0.40681630287E+04  0.38047727308E+04 0.  0.
        2    1    3    3  502    0  0.13748670018E+04 -0.60314325106E+03  0.52921693549E+03  0.15918893236E+04  0.25500000920E-02 0.  1.
       -2    1    3    3    0  502 -0.13748670018E+04  0.60314325106E+03 -0.19692359962E+04  0.24762737051E+04  0.25500000920E-02 0. -1.
</event>
<event>
 5   0  0.1628250E-08  0.3800955E+04  0.7818609E-02  0.8045950E-01
       -1   -1    0    0    0  501  0.00000000000E+00  0.00000000000E+00  0.16824610186E+04  0.16824610186E+04  0.50400001928E-02 0.  1.
        1   -1    0    0  501    0  0.00000000000E+00  0.00000000000E+00 -0.21467445222E+04  0.21467445222E+04  0.50400001928E-02 0. -1.
    10030    2    1    2    0    0  0.00000000000E+00  0.00000000000E+00 -0.46428350357E+03  0.38292055408E+04  0.38009546040E+04 0.  0.
        5    1    3    3  502    0  0.21439427058E+03  0.12488295660E+04  0.11948080797E+04  0.17415879609E+04  0.46999998093E+01 0.  1.
       -5    1    3    3    0  502 -0.21439427058E+03 -0.12488295660E+04 -0.16590915833E+04  0.20876175799E+04  0.46999998093E+01 0. -1.
</event>
<event>
 5   0  0.5207474E-08  0.3808264E+04  0.7818609E-02  0.8044384E-01
       -2   -1    0    0    0  501  0.00000000000E+00  0.00000000000E+00  0.26653899664E+04  0.26653899664E+04  0.25500000920E-02 0. -1.
        2   -1    0    0  501    0  0.00000000000E+00  0.00000000000E+00 -0.13602955914E+04  0.13602955914E+04  0.25500000920E-02 0.  1.
    10030    2    1    2    0    0  0.00000000000E+00  0.00000000000E+00  0.13050943750E+04  0.40256855578E+04  0.38082637622E+04 0.  0.
        4    1    3    3  502    0  0.11109855111E+04  0.13125078933E+03  0.22813614897E+04  0.25408910711E+04  0.12699999809E+01 0. -1.
       -4    1    3    3    0  502 -0.11109855111E+04 -0.13125078933E+03 -0.97626711472E+03  0.14847944867E+04  0.12699999809E+01 0.  1.
</event>
<event>
 5   0  0.5147582E-08  0.3797950E+04  0.7818609E-02  0.8046595E-01
        2   -1    0    0  501    0  0.00000000000E+00  0.00000000000E+00  0.25327579235E+04  0.25327579235E+04  0.25500000920E-02 0.  1.
       -2   -1    0    0    0  501  0.00000000000E+00  0.00000000000E+00 -0.14237865291E+04  0.14237865291E+04  0.25500000920E-02 0. -1.
    10030    2    1    2    0    0  0.00000000000E+00  0.00000000000E+00  0.11089713944E+04  0.39565444526E+04  0.37979502961E+04 0.  0.
        1    1    3    3  502    0  0.41636955975E+03  0.36222013008E+03  0.24473741710E+04  0.25088258939E+04  0.50400001928E-02 0.  1.
       -1    1    3    3    0  502 -0.41636955975E+03 -0.36222013008E+03 -0.13384027765E+04  0.14477185587E+04  0.50400001928E-02 0. -1.
</event>
<event>
 5   0  0.5147582E-08  0.3801107E+04  0.7818609E-02  0.8045917E-01
        2   -1    0    0  501    0  0.00000000000E+00  0.00000000000E+00  0.20328309393E+04  0.20328309393E+04  0.25500000920E-02 0. -1.
       -2   -1    0    0    0  501  0.00000000000E+00  0.00000000000E+00 -0.17768835042E+04  0.17768835042E+04  0.25500000920E-02 0.  1.
    10030    2    1    2    0    0  0.00000000000E+00  0.00000000000E+00  0.25594743507E+03  0.38097144435E+04  0.38011070824E+04 0.  0.
        1    1    3    3  502    0 -0.29105705231E+01 -0.44519239375E+03 -0.17238841702E+04  0.17804441500E+04  0.50400001928E-02 0.  1.
       -1    1    3    3    0  502  0.29105705231E+01  0.44519239375E+03  0.19798316053E+04  0.20292702935E+04  0.50400001928E-02 0. -1.
</event>
<event>
 5   0  0.1628250E-08  0.3792360E+04  0.7818609E-02  0.8047796E-01
       -1   -1    0    0    0  501  0.00000000000E+00  0.00000000000E+00  0.15024782772E+04  0.15024782772E+04  0.50400001928E-02 0. -1.
        1   -1    0    0  501    0  0.00000000000E+00  0.00000000000E+00 -0.23930447055E+04  0.23930447055E+04  0.50400001928E-02 0.  1.
    10030    2    1    2    0    0  0.00000000000E+00  0.00000000000E+00 -0.89056642826E+03  0.38955229827E+04  0.37923595222E+04 0.  0.
        4    1    3    3  502    0  0.13065762262E+04  0.10787923816E+04  0.42908414393E+03  0.17478699188E+04  0.12699999809E+01 0.  1.
       -4    1    3    3    0  502 -0.13065762262E+04 -0.10787923816E+04 -0.13196505722E+04  0.21476530640E+04  0.12699999809E+01 0. -1.
</event>
<event>
 5   0  0.5207474E-08  0.3796577E+04  0.7818609E-02  0.8046890E-01
       -2   -1    0    0    0  501  0.00000000000E+00  0.00000000000E+00  0.15595369031E+04  0.15595369031E+04  0.25500000920E-02 0.  1.
        2   -1    0    0  501    0  0.00000000000E+00  0.00000000000E+00 -0.23106214820E+04  0.23106214820E+04  0.25500000920E-02 0. -1.
    10030    2    1    2    0    0  0.00000000000E+00  0.00000000000E+00 -0.75108457887E+03  0.38701583851E+04  0.37965771270E+04 0.  0.
        4    1    3    3  502    0 -0.86799028734E+03  0.53428858223E+03 -0.20080249179E+04  0.22518963369E+04  0.12699999809E+01 0. -1.
       -4    1    3    3    0  502  0.86799028734E+03 -0.53428858223E+03  0.12569403391E+04  0.16182620483E+04  0.12699999809E+01 0.  1.
</event>
<event>
 5   0  0.5207474E-08  0.3802458E+04  0.7818609E-02  0.8045628E-01
        2   -1    0    0  501    0  0.00000000000E+00  0.00000000000E+00  0.16152073567E+04  0.16152073567E+04  0.25500000920E-02 0. -1.
       -2   -1    0    0    0  501  0.00000000000E+00  0.00000000000E+00 -0.22379000603E+04  0.22379000603E+04  0.25500000920E-02 0.  1.
    10030    2    1    2    0    0  0.00000000000E+00  0.00000000000E+00 -0.62269270356E+03  0.38531074170E+04  0.38024584895E+04 0.  0.
        4    1    3    3  502    0  0.10889122004E+03 -0.13590836617E+03 -0.22298003705E+04  0.22365910862E+04  0.12699999809E+01 0.  1.
       -4    1    3    3    0  502 -0.10889122004E+03  0.13590836617E+03  0.16071076669E+04  0.16165163308E+04  0.12699999809E+01 0. -1.
</event>
<event>
 5   0  0.1666051E-08  0.3774572E+04  0.7818609E-02  0.8051634E-01
       -1   -1    0    0    0  501  0.00000000000E+00  0.00000000000E+00  0.21668736661E+04  0.21668736661E+04  0.50400001928E-02 0. -1.
        1   -1    0    0  501    0  0.00000000000E+00  0.00000000000E+00 -0.16437726606E+04  0.16437726606E+04  0.50400001928E-02 0.  1.
    10030    2    1    2    0    0  0.00000000000E+00  0.00000000000E+00  0.52310100552E+03  0.38106463267E+04  0.37745716002E+04 0.  0.
        2    1    3    3  502    0  0.10180103363E+04  0.29444723796E+03  0.18381427157E+04  0.21217475967E+04  0.25500000920E-02 0. -1.
       -2    1    3    3    0  502 -0.10180103363E+04 -0.29444723796E+03 -0.13150417102E+04  0.16888987300E+04  0.25500000920E-02 0.  1.
</event>
<event>
 5   0  0.5147582E-08  0.3808838E+04  0.7818609E-02  0.8044261E-01
        2   -1    0    0  501    0  0.00000000000E+00  0.00000000000E+00  0.13678535798E+04  0.13678535798E+04  0.25500000920E-02 0.  1.
       -2   -1    0    0    0  501  0.00000000000E+00  0.00000000000E+00 -0.26514626509E+04  0.26514626509E+04  0.25500000920E-02 0. -1.
    10030    2    1    2    0    0  0.00000000000E+00  0.00000000000E+00 -0.12836090710E+04  0.40193162307E+04  0.38088384995E+04 0.  0.
        1    1    3    3  502    0 -0.11256504715E+04  0.11216882557E+04  0.46573589095E+03  0.16559539387E+04  0.50400001928E-02 0.  1.
       -1    1    3    3    0  502  0.11256504715E+04 -0.11216882557E+04 -0.17493449620E+04  0.23633622920E+04  0.50400001928E-02 0. -1.
</event>
<event>
 5   0  0.1628250E-08  0.3812781E+04  0.7818609E-02  0.8043418E-01
        1   -1    0    0  501    0  0.00000000000E+00  0.00000000000E+00  0.19816390319E+04  0.19816390319E+04  0.50400001928E-02 0.  1.
       -1   -1    0    0    0  501  0.00000000000E+00  0.00000000000E+00 -0.18339994197E+04  0.18339994197E+04  0.50400001928E-02 0. -1.
    10030    2    1    2    0    0  0.00000000000E+00  0.00000000000E+00  0.14763961218E+03  0.38156384516E+04  0.38127810504E+04 0.  0.
        5    1    3    3  502    0  0.80022175789E+03  0.90071627593E+02  0.18030716653E+04  0.19747296726E+04  0.46999998093E+01 0.  1.
       -5    1    3    3    0  502 -0.80022175789E+03 -0.90071627593E+02 -0.16554320531E+04  0.18409087789E+04  0.46999998093E+01 0. -1.
</event>
<event>
 5   0  0.1628250E-08  0.3798794E+04  0.7818609E-02  0.8046414E-01
       -1   -1    0    0    0  501  0.00000000000E+00  0.00000000000E+00  0.33047237436E+04  0.33047237436E+04  0.50400001928E-02 0. -1.
        1   -1    0    0  501    0  0.00000000000E+00  0.00000000000E+00 -0.10916826105E+04  0.10916826105E+04  0.50400001928E-02 0.  1.
    10030    2    1    2    0    0  0.00000000000E+00  0.00000000000E+00  0.22130411331E+04  0.43964063541E+04  0.37987942526E+04 0.  0.
        5    1    3    3  502    0  0.13731563921E+04  0.62034918335E+03  0.24448585059E+04  0.28718890630E+04  0.46999998093E+01 0. -1.
       -5    1    3    3    0  502 -0.13731563921E+04 -0.62034918335E+03 -0.23181737284E+03  0.15245172910E+04  0.46999998093E+01 0.  1.
</event>
<event>
 5   0  0.1628250E-08  0.3819348E+04  0.7818609E-02  0.8042016E-01
       -1   -1    0    0    0  501  0.00000000000E+00  0.00000000000E+00  0.23504864798E+04  0.23504864798E+04  0.50400001928E-02 0. -1.
        1   -1    0    0  501    0  0.00000000000E+00  0.00000000000E+00 -0.15515315817E+04  0.15515315817E+04  0.50400001928E-02 0.  1.
    10030    2    1    2    0    0  0.00000000000E+00  0.00000000000E+00  0.79895489803E+03  0.39020180615E+04  0.38193475913E+04 0.  0.
        5    1    3    3  502    0  0.12210298814E+04  0.12406832434E+04  0.12017278868E+04  0.21152732414E+04  0.46999998093E+01 0. -1.
       -5    1    3    3    0  502 -0.12210298814E+04 -0.12406832434E+04 -0.40277298876E+03  0.17867448201E+04  0.46999998093E+01 0.  1.
</event>
<event>
 5   0  0.1666051E-08  0.3792327E+04  0.7818609E-02  0.8047804E-01
        1   -1    0    0  501    0  0.00000000000E+00  0.00000000000E+00  0.21797636611E+04  0.21797636611E+04  0.50400001928E-02 0. -1.
       -1   -1    0    0    0  501  0.00000000000E+00  0.00000000000E+00 -0.16494612714E+04  0.16494612714E+04  0.50400001928E-02 0.  1.
    10030    2    1    2    0    0  0.00000000000E+00  0.00000000000E+00  0.53030238965E+03  0.38292249325E+04  0.37923268529E+04 0.  0.
        2    1    3    3  502    0  0.83688088792E+03 -0.16447756444E+04 -0.17472394824E+03  0.18536949585E+04  0.25500000920E-02 0.  1.
       -2    1    3    3    0  502 -0.83688088792E+03  0.16447756444E+04  0.70502633789E+03  0.19755299740E+04  0.25500000920E-02 0. -1.
</event>
<event>
 5   0  0.5086209E-08  0.3801565E+04  0.7818609E-02  0.8045819E-01
        2   -1    0    0  501    0  0.00000000000E+00  0.00000000000E+00  0.17145741484E+04  0.17145741484E+04  0.25500000920E-02 0. -1.
       -2   -1    0    0    0  501  0.00000000000E+00  0.00000000000E+00 -0.21072132926E+04  0.21072132926E+04  0.25500000920E-02 0.  1.
    10030    2    1    2    0    0  0.00000000000E+00  0.00000000000E+00 -0.39263914414E+03  0.38217874410E+04  0.38015646446E+04 0.  0.
        3    1    3    3  502    0 -0.13027413423E+04  0.19108515319E+03 -0.15744968371E+04  0.20524835787E+04  0.10100000352E+00 0.  1.
       -3    1    3    3    0  502  0.13027413423E+04 -0.19108515319E+03  0.11818576930E+04  0.17693038623E+04  0.10100000352E+00 0. -1.
</event>
<event>
 5   0  0.5159761E-08  0.3802454E+04  0.7818609E-02  0.8045628E-01
        2   -1    0    0  501    0  0.00000000000E+00  0.00000000000E+00  0.12964211529E+04  0.12964211529E+04  0.25500000920E-02 0.  1.
       -2   -1    0    0    0  501  0.00000000000E+00  0.00000000000E+00 -0.27881864111E+04  0.27881864111E+04  0.25500000920E-02 0. -1.
    10030    2    1    2    0    0  0.00000000000E+00  0.00000000000E+00 -0.14917652582E+04  0.40846075640E+04  0.38024538612E+04 0.  0.
        5    1    3    3  502    0 -0.74939562859E+03  0.16595405226E+04 -0.15852513808E+03  0.18277912528E+04  0.46999998093E+01 0.  1.
       -5    1    3    3    0  502  0.74939562859E+03 -0.16595405226E+04 -0.13332401202E+04  0.22568163112E+04  0.46999998093E+01 0. -1.
</event>
<event>
 5   0  0.5140842E-08  0.3803038E+04  0.7818609E-02  0.8045503E-01
        2   -1    0    0  501    0  0.00000000000E+00  0.00000000000E+00  0.16600121685E+04  0.16600121685E+04  0.25500000920E-02 0. -1.
       -2   -1    0    0    0  501  0.00000000000E+00  0.00000000000E+00 -0.21781611901E+04  0.21781611901E+04  0.25500000920E-02 0.  1.
    10030    2    1    2    0    0  0.00000000000E+00  0.00000000000E+00 -0.51814902166E+03  0.38381733586E+04  0.38030377755E+04 0.  0.
        2    1    3    3  502    0  0.10735557373E+04  0.15402727295E+04 -0.56320905739E+03  0.19601444959E+04  0.25500000920E-02 0. -1.
       -2    1    3    3    0  502 -0.10735557373E+04 -0.15402727295E+04  0.45060035726E+02  0.18780288627E+04  0.25500000920E-02 0.  1.
</event>
<event>
 5   0  0.1628250E-08  0.3808545E+04  0.7818609E-02  0.8044324E-01
       -1   -1    0    0    0  501  0.00000000000E+00  0.00000000000E+00  0.24437499701E+04  0.24437499701E+04  0.50400001928E-02 0. -1.
        1   -1    0    0  501    0  0.00000000000E+00  0.00000000000E+00 -0.14838891576E+04  0.14838891576E+04  0.50400001928E-02 0.  1.
    10030    2    1    2    0    0  0.00000000000E+00  0.00000000000E+00  0.95986081250E+03  0.39276391278E+04  0.38085451735E+04 0.  0.
        4    1    3    3  502    0  0.13827151228E+04  0.17574205274E+03 -0.85812671394E+03  0.16368168651E+04  0.12699999809E+01 0.  1.
       -4    1    3    3    0  502 -0.13827151228E+04 -0.17574205274E+03  0.18179875264E+04  0.22908222626E+04  0.12699999809E+01 0. -1.
</event>
<event>
 5   0  0.5147582E-08  0.3806914E+04  0.7818609E-02  0.8044673E-01
       -2   -1    0    0    0  501  0.00000000000E+00  0.00000000000E+00  0.15842579096E+04  0.15842579096E+04  0.25500000920E-02 0. -1.
        2   -1    0    0  501    0  0.00000000000E+00  0.00000000000E+00 -0.22869694145E+04  0.22869694145E+04  0.25500000920E-02 0.  1.
    10030    2    1    2    0    0  0.00000000000E+00  0.00000000000E+00 -0.70271150494E+03  0.38712273241E+04  0.38069144377E+04 0.  0.
        1    1    3    3  502    0  0.58555781864E+03  0.17455724691E+04  0.13976093433E+03  0.18464653592E+04  0.50400001928E-02 0. -1.
       -1    1    3    3    0  502 -0.58555781864E+03 -0.17455724691E+04 -0.84247243927E+03  0.20247619650E+04  0.50400001928E-02 0.  1.
</event>
<event>
 5   0  0.1666051E-08  0.3800741E+04  0.7818609E-02  0.8045996E-01
       -1   -1    0    0    0  501  0.00000000000E+00  0.00000000000E+00  0.24286762469E+04  0.24286762469E+04  0.50400001928E-02 0.  1.
        1   -1    0    0  501    0  0.00000000000E+00  0.00000000000E+00 -0.14869863494E+04  0.14869863494E+04  0.50400001928E-02 0. -1.
    10030    2    1    2    0    0  0.00000000000E+00  0.00000000000E+00  0.94168989748E+03  0.39156625962E+04  0.38007412046E+04 0.  0.
        2    1    3    3  502    0  0.64391397080E+03  0.90438318281E+03  0.20598406016E+04  0.23399738134E+04  0.25500000920E-02 0.  1.
       -2    1    3    3    0  502 -0.64391397080E+03 -0.90438318281E+03 -0.11181507042E+04  0.15756887828E+04  0.25500000920E-02 0. -1.
</event>
<event>
 5   0  0.1628250E-08  0.3801564E+04  0.7818609E-02  0.8045819E-01
        1   -1    0    0  501    0  0.00000000000E+00  0.00000000000E+00  0.12237575312E+04  0.12237575312E+04  0.50400001928E-02 0.  1.
       -1   -1    0    0    0  501  0.00000000000E+00  0.00000000000E+00 -0.29523596385E+04  0.29523596385E+04  0.50400001928E-02 0. -1.
    10030    2    1    2    0    0  0.00000000000E+00  0.00000000000E+00 -0.17286021073E+04  0.41761171697E+04  0.38015640688E+04 0.  0.
        1    1    3    3  502    0  0.55932911025E+03  0.41974514502E+03 -0.28059088871E+04  0.28917399128E+04  0.50400001928E-02 0. -1.
       -1    1    3    3    0  502 -0.55932911025E+03 -0.41974514502E+03  0.10773067798E+04  0.12843772569E+04  0.50400001928E-02 0.  1.
</event>
<event>
 5   0  0.1628473E-08  0.3797656E+04  0.7818609E-02  0.8046658E-01
        1   -1    0    0  501    0  0.00000000000E+00  0.00000000000E+00  0.17191616503E+04  0.17191616503E+04  0.50400001928E-02 0.  1.
       -1   -1    0    0    0  501  0.00000000000E+00  0.00000000000E+00 -0.20972710905E+04  0.20972710905E+04  0.50400001928E-02 0. -1.
    10030    2    1    2    0    0  0.00000000000E+00  0.00000000000E+00 -0.37810944018E+03  0.38164327408E+04  0.37976561346E+04 0.  0.
        3    1    3    3  502    0 -0.13897783097E+04 -0.51891434590E+03 -0.13801541417E+04  0.20262234116E+04  0.10100000352E+00 0. -1.
       -3    1    3    3    0  502  0.13897783097E+04  0.51891434590E+03  0.10020447015E+04  0.17902093293E+04  0.10100000352E+00 0.  1.
</event>
<event>
 5   0  0.1666051E-08  0.3802271E+04  0.7818609E-02  0.8045668E-01
       -1   -1    0    0    0  501  0.00000000000E+00  0.00000000000E+00  0.15446525949E+04  0.15446525949E+04  0.50400001928E-02 0. -1.
        1   -1    0    0  501    0  0.00000000000E+00  0.00000000000E+00 -0.23398893711E+04  0.23398893711E+04  0.50400001928E-02 0.  1.
    10030    2    1    2    0    0  0.00000000000E+00  0.00000000000E+00 -0.79523677622E+03  0.38845419660E+04  0.38022709997E+04 0.  0.
        2    1    3    3  502    0 -0.39070692866E+03 -0.17645379014E+04 -0.10003586761E+04  0.20656629421E+04  0.25500000920E-02 0. -1.
       -2    1    3    3    0  502  0.39070692866E+03  0.17645379014E+04  0.20512189984E+03  0.18188790239E+04  0.25500000920E-02 0.  1.
</event>
<event>
 5   0  0.1628473E-08  0.3763022E+04  0.7818609E-02  0.8054137E-01
       -1   -1    0    0    0  501  0.00000000000E+00  0.00000000000E+00  0.13971370462E+04  0.13971370462E+04  0.50400001928E-02 0. -1.
        1   -1    0    0  501    0  0.00000000000E+00  0.00000000000E+00 -0.25338122998E+04  0.25338122998E+04  0.50400001928E-02 0.  1.
    10030    2    1    2    0    0  0.00000000000E+00  0.00000000000E+00 -0.11366752536E+04  0.39309493460E+04  0.37630216753E+04 0.  0.
        3    1    3    3  502    0 -0.68941336908E+03  0.13890036369E+04 -0.16814701258E+04  0.22873486160E+04  0.10100000352E+00 0.  1.
       -3    1    3    3    0  502  0.68941336908E+03 -0.13890036369E+04  0.54479487217E+03  0.16436007300E+04  0.10100000352E+00 0. -1.
</event>
<event>
 5   0  0.1628250E-08  0.3784019E+04  0.7818609E-02  0.8049593E-01
        1   -1    0    0  501    0  0.00000000000E+00  0.00000000000E+00  0.31229890552E+04  0.31229890552E+04  0.50400001928E-02 0.  1.
       -1   -1    0    0    0  501  0.00000000000E+00  0.00000000000E+00 -0.11462415363E+04  0.11462415363E+04  0.50400001928E-02 0. -1.
    10030    2    1    2    0    0  0.00000000000E+00  0.00000000000E+00  0.19767475189E+04  0.42692305915E+04  0.37840189072E+04 0.  0.
        1    1    3    3  502    0 -0.90358025690E+03 -0.33261056983E+02  0.28634496915E+04  0.30028166302E+04  0.50400001928E-02 0.  1.
       -1    1    3    3    0  502  0.90358025690E+03  0.33261056983E+02 -0.88670217259E+03  0.12664139613E+04  0.50400001928E-02 0. -1.
</event>
<event>
 5   0  0.1666051E-08  0.3796341E+04  0.7818609E-02  0.8046941E-01
       -1   -1    0    0    0  501  0.00000000000E+00  0.00000000000E+00  0.21924742776E+04  0.21924742776E+04  0.50400001928E-02 0. -1.
        1   -1    0    0  501    0  0.00000000000E+00  0.00000000000E+00 -0.16433723198E+04  0.16433723198E+04  0.50400001928E-02 0.  1.
    10030    2    1    2    0    0  0.00000000000E+00  0.00000000000E+00  0.54910195778E+03  0.38358465974E+04  0.37963411541E+04 0.  0.
        2    1    3    3  502    0  0.87506669797E+03 -0.80684618556E+03 -0.12194530670E+04  0.17040564180E+04  0.25500000920E-02 0.  1.
       -2    1    3    3    0  502 -0.87506669797E+03  0.80684618556E+03  0.17685550248E+04  0.21317901794E+04  0.25500000920E-02 0. -1.
</event>
<event>
 5   0  0.5140842E-08  0.3795163E+04  0.7818609E-02  0.8047194E-01
        2   -1    0    0  501    0  0.00000000000E+00  0.00000000000E+00  0.20789869551E+04  0.20789869551E+04  0.25500000920E-02 0. -1.
       -2   -1    0    0    0  501  0.00000000000E+00  0.00000000000E+00 -0.17320052668E+04  0.17320052668E+04  0.25500000920E-02 0.  1.
    10030    2    1    2    0    0  0.00000000000E+00  0.00000000000E+00  0.34698168825E+03  0.38109922219E+04  0.37951634251E+04 0.  0.
        2    1    3    3  502    0 -0.10601321019E+04 -0.11612797150E+04 -0.89318514582E+03  0.18083778241E+04  0.25500000920E-02 0.  1.
       -2    1    3    3    0  502  0.10601321019E+04  0.11612797150E+04  0.12401668341E+04  0.20026143978E+04  0.25500000920E-02 0. -1.
</event>
<event>
 5   0  0.1666051E-08  0.3791837E+04  0.7818609E-02  0.8047909E-01
       -1   -1    0    0    0  501  0.00000000000E+00  0.00000000000E+00  0.13102598321E+04  0.13102598321E+04  0.50400001928E-02 0. -1.
        1   -1    0    0  501    0  0.00000000000E+00  0.00000000000E+00 -0.27433536264E+04  0.27433536264E+04  0.50400001928E-02 0.  1.
    10030    2    1    2    0    0  0.00000000000E+00  0.00000000000E+00 -0.14330937943E+04  0.40536134585E+04  0.37918365270E+04 0.  0.
        2    1    3    3  502    0 -0.38057689507E+03 -0.68580191029E+02 -0.27007452017E+04  0.27282900616E+04  0.25500000920E-02 0.  1.
       -2    1    3    3    0  502  0.38057689507E+03  0.68580191029E+02  0.12676514074E+04  0.13253233969E+04  0.25500000920E-02 0. -1.
</event>
<event>
 5   0  0.1628250E-08  0.3785998E+04  0.7818609E-02  0.8049166E-01
       -1   -1    0    0    0  501  0.00000000000E+00  0.00000000000E+00  0.22539107663E+04  0.22539107663E+04  0.50400001928E-02 0.  1.
        1   -1    0    0  501    0  0.00000000000E+00  0.00000000000E+00 -0.15898792326E+04  0.15898792326E+04  0.50400001928E-02 0. -1.
    10030    2    1    2    0    0  0.00000000000E+00  0.00000000000E+00  0.66403153374E+03  0.38437899989E+04  0.37859983727E+04 0.  0.
        5    1    3    3  502    0 -0.10396063713E+04 -0.15053915239E+04 -0.16165633612E+03  0.18366109845E+04  0.46999998093E+01 0. -1.
       -5    1    3    3    0  502  0.10396063713E+04  0.15053915239E+04  0.82568786986E+03  0.20071790144E+04  0.46999998093E+01 0.  1.
</event>
<event>
 5   0  0.5086209E-08  0.3803312E+04  0.7818609E-02  0.8045445E-01
       -2   -1    0    0    0  501  0.00000000000E+00  0.00000000000E+00  0.16809315172E+04  0.16809315172E+04  0.25500000920E-02 0.  1.
        2   -1    0    0  501    0  0.00000000000E+00  0.00000000000E+00 -0.21513638025E+04  0.21513638025E+04  0.25500000920E-02 0. -1.
    10030    2    1    2    0    0  0.00000000000E+00  0.00000000000E+00 -0.47043228531E+03  0.38322953197E+04  0.38033118308E+04 0.  0.
        3    1    3    3  502    0 -0.12895596143E+04 -0.68746593991E+03 -0.14613383787E+04  0.20666599345E+04  0.10100000352E+00 0. -1.
       -3    1    3    3    0  502  0.12895596143E+04  0.68746593991E+03  0.99090609342E+03  0.17656353852E+04  0.10100000352E+00 0.  1.
</event>
<event>
 5   0  0.5086209E-08  0.3802076E+04  0.7818609E-02  0.8045709E-01
        2   -1    0    0  501    0  0.00000000000E+00  0.00000000000E+00  0.13869048352E+04  0.13869048352E+04  0.25500000920E-02 0. -1.
       -2   -1    0    0    0  501  0.00000000000E+00  0.00000000000E+00 -0.26057633603E+04  0.26057633603E+04  0.25500000920E-02 0.  1.
    10030    2    1    2    0    0  0.00000000000E+00  0.00000000000E+00 -0.12188585251E+04  0.39926681955E+04  0.38020761717E+04 0.  0.
        3    1    3    3  502    0  0.12578780562E+04  0.13235169176E+04 -0.11650966080E+04  0.21659649932E+04  0.10100000352E+00 0.  1.
       -3    1    3    3    0  502 -0.12578780562E+04 -0.13235169176E+04 -0.53761917096E+02  0.18267032023E+04  0.10100000352E+00 0. -1.
</event>
<event>
 5   0  0.5207474E-08  0.3811382E+04  0.7818609E-02  0.8043717E-01
       -2   -1    0    0    0  501  0.00000000000E+00  0.00000000000E+00  0.17552388787E+04  0.17552388788E+04  0.25500000920E-02 0.  1.
        2   -1    0    0  501    0  0.00000000000E+00  0.00000000000E+00 -0.20690397619E+04  0.20690397619E+04  0.25500000920E-02 0. -1.
    10030    2    1    2    0    0  0.00000000000E+00  0.00000000000E+00 -0.31380088310E+03  0.38242786406E+04  0.38113824430E+04 0.  0.
        4    1    3    3  502    0  0.15569969692E+04 -0.21564255435E+03  0.92420343439E+03  0.18234294268E+04  0.12699999809E+01 0.  1.
       -4    1    3    3    0  502 -0.15569969692E+04  0.21564255435E+03 -0.12380043175E+04  0.20008492138E+04  0.12699999809E+01 0. -1.
</event>
<event>
 5   0  0.5086209E-08  0.3804045E+04  0.7818609E-02  0.8045287E-01
       -2   -1    0    0    0  501  0.00000000000E+00  0.00000000000E+00  0.13833051925E+04  0.13833051925E+04  0.25500000920E-02 0. -1.
        2   -1    0    0  501    0  0.00000000000E+00  0.00000000000E+00 -0.26152505492E+04  0.26152505492E+04  0.25500000920E-02 0.  1.
    10030    2    1    2    0    0  0.00000000000E+00  0.00000000000E+00 -0.12319453567E+04  0.39985557417E+04  0.38040450388E+04 0.  0.
        3    1    3    3  502    0  0.11292075492E+04 -0.10809996468E+04 -0.17548978774E+04  0.23501779711E+04  0.10100000352E+00 0.  1.
       -3    1    3    3    0  502 -0.11292075492E+04  0.10809996468E+04  0.52295252069E+03  0.16483777706E+04  0.10100000352E+00 0. -1.
</event>
<event>
 5   0  0.5147582E-08  0.3804333E+04  0.7818609E-02  0.8045226E-01
       -2   -1    0    0    0  501  0.00000000000E+00  0.00000000000E+00  0.12825021903E+04  0.12825021903E+04  0.25500000920E-02 0. -1.
        2   -1    0    0  501    0  0.00000000000E+00  0.00000000000E+00 -0.28212335706E+04  0.28212335706E+04  0.25500000920E-02 0.  1.
    10030    2    1    2    0    0  0.00000000000E+00  0.00000000000E+00 -0.15387313803E+04  0.41037357609E+04  0.38043334415E+04 0.  0.
        1    1    3    3  502    0  0.14806445475E+04  0.19076435387E+02  0.51857091147E+03  0.15689448610E+04  0.50400001928E-02 0. -1.
       -1    1    3    3    0  502 -0.14806445475E+04 -0.19076435387E+02 -0.20573022918E+04  0.25347908999E+04  0.50400001928E-02 0.  1.
</event>
<event>
 5   0  0.5086209E-08  0.3802055E+04  0.7818609E-02  0.8045714E-01
       -2   -1    0    0    0  501  0.00000000000E+00  0.00000000000E+00  0.14271769250E+04  0.14271769250E+04  0.25500000920E-02 0. -1.
        2   -1    0    0  501    0  0.00000000000E+00  0.00000000000E+00 -0.25322050713E+04  0.25322050713E+04  0.25500000920E-02 0.  1.
    10030    2    1    2    0    0  0.00000000000E+00  0.00000000000E+00 -0.11050281463E+04  0.39593819963E+04  0.38020545221E+04 0.  0.
        3    1    3    3  502    0 -0.36700759505E+03 -0.11607719347E+04  0.96797808564E+03  0.15553352191E+04  0.10100000352E+00 0. -1.
       -3    1    3    3    0  502  0.36700759505E+03  0.11607719347E+04 -0.20730062320E+04  0.24040467772E+04  0.10100000352E+00 0.  1.
</event>
<event>
 5   0  0.5159761E-08  0.3775694E+04  0.7818609E-02  0.8051391E-01
        2   -1    0    0  501    0  0.00000000000E+00  0.00000000000E+00  0.24885483205E+04  0.24885483205E+04  0.25500000920E-02 0.  1.
       -2   -1    0    0    0  501  0.00000000000E+00  0.00000000000E+00 -0.14321463387E+04  0.14321463387E+04  0.25500000920E-02 0. -1.
    10030    2    1    2    0    0  0.00000000000E+00  0.00000000000E+00  0.10564019818E+04  0.39206946592E+04  0.37756935077E+04 0.  0.
        5    1    3    3  502    0  0.58256465432E+01 -0.66465762511E+03  0.23630166814E+04  0.24547247551E+04  0.46999998093E+01 0.  1.
       -5    1    3    3    0  502 -0.58256465432E+01  0.66465762511E+03 -0.13066146996E+04  0.14659699042E+04  0.46999998093E+01 0. -1.
</event>
<event>
 5   0  0.1628250E-08  0.3813692E+04  0.7818609E-02  0.8043223E-01
       -1   -1    0    0    0  501  0.00000000000E+00  0.00000000000E+00  0.15219066390E+04  0.15219066390E+04  0.50400001928E-02 0.  1.
        1   -1    0    0  501    0  0.00000000000E+00  0.00000000000E+00 -0.23891489914E+04  0.23891489914E+04  0.50400001928E-02 0. -1.
    10030    2    1    2    0    0  0.00000000000E+00  0.00000000000E+00 -0.86724235236E+03  0.39110556304E+04  0.38136920230E+04 0.  0.
        5    1    3    3  502    0 -0.26610734177E+03 -0.69870449413E+03 -0.22325535705E+04  0.23544253275E+04  0.46999998093E+01 0. -1.
       -5    1    3    3    0  502  0.26610734177E+03  0.69870449413E+03  0.13653112182E+04  0.15566303029E+04  0.46999998093E+01 0.  1.
</event>
<event>
 5   0  0.1628250E-08  0.3762427E+04  0.7818609E-02  0.8054266E-01
       -1   -1    0    0    0  501  0.00000000000E+00  0.00000000000E+00  0.13889587453E+04  0.13889587453E+04  0.50400001928E-02 0. -1.
        1   -1    0    0  501    0  0.00000000000E+00  0.00000000000E+00 -0.25479260860E+04  0.25479260860E+04  0.50400001928E-02 0.  1.
    10030    2    1    2    0    0  0.00000000000E+00  0.00000000000E+00 -0.11589673407E+04  0.39368848313E+04  0.37624269931E+04 0.  0.
        1    1    3    3  502    0 -0.10711603489E+04 -0.14885168510E+04 -0.10183317766E+04  0.20976335514E+04  0.50400001928E-02 0.  1.
       -1    1    3    3    0  502  0.10711603489E+04  0.14885168510E+04 -0.14063556418E+03  0.18392512799E+04  0.50400001928E-02 0. -1.
</event>
<event>
 5   0  0.1628473E-08  0.3811267E+04  0.7818609E-02  0.8043741E-01
        1   -1    0    0  501    0  0.00000000000E+00  0.00000000000E+00  0.20446689649E+04  0.20446689649E+04  0.50400001928E-02 0. -1.
       -1   -1    0    0    0  501  0.00000000000E+00  0.00000000000E+00 -0.17760520029E+04  0.17760520029E+04  0.50400001928E-02 0.  1.
    10030    2    1    2    0    0  0.00000000000E+00  0.00000000000E+00  0.26861696194E+03  0.38207209678E+04  0.38112666716E+04 0.  0.
        3    1    3    3  502    0  0.15872613406E+04  0.80229038465E+03 -0.55176480345E+03  0.18621258908E+04  0.10100000352E+00 0.  1.
       -3    1    3    3    0  502 -0.15872613406E+04 -0.80229038465E+03  0.82038176539E+03  0.19585950770E+04  0.10100000352E+00 0. -1.
</event>
<event>
 5   0  0.1628250E-08  0.3791495E+04  0.7818609E-02  0.8047983E-01
       -1   -1    0    0    0  501  0.00000000000E+00  0.00000000000E+00  0.31906041626E+04  0.31906041626E+04  0.50400001928E-02 0. -1.
        1   -1    0    0  501    0  0.00000000000E+00  0.00000000000E+00 -0.11263879294E+04  0.11263879294E+04  0.50400001928E-02 0.  1.
    10030    2    1    2    0    0  0.00000000000E+00  0.00000000000E+00  0.20642162332E+04  0.43169920920E+04  0.37914947006E+04 0.  0.
        1    1    3    3  502    0  0.15771133823E+04  0.34558781462E+03 -0.99146268581E+02  0.16175745859E+04  0.50400001928E-02 0.  1.
       -1    1    3    3    0  502 -0.15771133823E+04 -0.34558781462E+03  0.21633625018E+04  0.26994175061E+04  0.50400001928E-02 0. -1.
</event>
<event>
 5   0  0.1628250E-08  0.3792926E+04  0.7818609E-02  0.8047675E-01
       -1   -1    0    0    0  501  0.00000000000E+00  0.00000000000E+00  0.15857784172E+04  0.15857784172E+04  0.50400001928E-02 0. -1.
        1   -1    0    0  501    0  0.00000000000E+00  0.00000000000E+00 -0.22680162607E+04  0.22680162607E+04  0.50400001928E-02 0.  1.
    10030    2    1    2    0    0  0.00000000000E+00  0.00000000000E+00 -0.68223784354E+03  0.38537946779E+04  0.37929256444E+04 0.  0.
        4    1    3    3  502    0  0.11791626664E+04 -0.11585875081E+04  0.60321561889E+03  0.17597216551E+04  0.12699999809E+01 0.  1.
       -4    1    3    3    0  502 -0.11791626664E+04  0.11585875081E+04 -0.12854534624E+04  0.20940730228E+04  0.12699999809E+01 0. -1.
</event>
<event>
 5   0  0.5207474E-08  0.3800189E+04  0.7818609E-02  0.8046114E-01
       -2   -1    0    0    0  501  0.00000000000E+00  0.00000000000E+00  0.13346937541E+04  0.13346937541E+04  0.25500000920E-02 0.  1.
        2   -1    0    0  501    0  0.00000000000E+00  0.00000000000E+00 -0.27050097463E+04  0.27050097463E+04  0.25500000920E-02 0. -1.
    10030    2    1    2    0    0  0.00000000000E+00  0.00000000000E+00 -0.13703159923E+04  0.40397035004E+04  0.38001892654E+04 0.  0.
        4    1    3    3  502    0  0.59232223788E+03  0.96511459193E+02 -0.26016153822E+04  0.26699371350E+04  0.12699999809E+01 0. -1.
       -4    1    3    3    0  502 -0.59232223788E+03 -0.96511459193E+02  0.12312993899E+04  0.13697663654E+04  0.12699999809E+01 0.  1.
</event>
<event>
 5   0  0.5159761E-08  0.3800174E+04  0.7818609E-02  0.8046118E-01
       -2   -1    0    0    0  501  0.00000000000E+00  0.00000000000E+00  0.20719317299E+04  0.20719317299E+04  0.25500000920E-02 0.  1.
        2   -1    0    0  501    0  0.00000000000E+00  0.00000000000E+00 -0.17424949793E+04  0.17424949793E+04  0.25500000920E-02 0. -1.
    10030    2    1    2    0    0  0.00000000000E+00  0.00000000000E+00  0.32943675058E+03  0.38144267092E+04  0.38001740154E+04 0.  0.
        5    1    3    3  502    0 -0.97660364948E+02  0.15111308740E+04  0.13167400046E+04  0.20067088466E+04  0.46999998093E+01 0.  1.
       -5    1    3    3    0  502  0.97660364948E+02 -0.15111308740E+04 -0.98730325404E+03  0.18077178626E+04  0.46999998093E+01 0. -1.
</event>
<event>
 5   0  0.1628250E-08  0.3803123E+04  0.7818609E-02  0.8045485E-01
       -1   -1    0    0    0  501  0.00000000000E+00  0.00000000000E+00  0.14441361434E+04  0.14441361434E+04  0.50400001928E-02 0.  1.
        1   -1    0    0  501    0  0.00000000000E+00  0.00000000000E+00 -0.25038742394E+04  0.25038742394E+04  0.50400001928E-02 0. -1.
    10030    2    1    2    0    0  0.00000000000E+00  0.00000000000E+00 -0.10597380960E+04  0.39480103829E+04  0.38031225528E+04 0.  0.
        1    1    3    3  502    0 -0.65624985479E+03  0.15655803370E+04  0.35964726536E+03  0.17352382600E+04  0.50400001928E-02 0.  1.
       -1    1    3    3    0  502  0.65624985479E+03 -0.15655803370E+04 -0.14193853614E+04  0.22127721228E+04  0.50400001928E-02 0. -1.
</event>
<event>
 5   0  0.5086209E-08  0.3804288E+04  0.7818609E-02  0.8045235E-01
       -2   -1    0    0    0  501  0.00000000000E+00  0.00000000000E+00  0.21696260734E+04  0.21696260734E+04  0.25500000920E-02 0. -1.
        2   -1    0    0  501    0  0.00000000000E+00  0.00000000000E+00 -0.16676385934E+04  0.16676385934E+04  0.25500000920E-02 0.  1.
    10030    2    1    2    0    0  0.00000000000E+00  0.00000000000E+00  0.50198747992E+03  0.38372646668E+04  0.38042881980E+04 0.  0.
        3    1    3    3  502    0  0.26748582846E+03  0.52368999383E+03 -0.15736512144E+04  0.16799339370E+04  0.10100000352E+00 0.  1.
       -3    1    3    3    0  502 -0.26748582846E+03 -0.52368999383E+03  0.20756386943E+04  0.21573307298E+04  0.10100000352E+00 0. -1.
</event>
<event>
 5   0  0.5147582E-08  0.3789448E+04  0.7818609E-02  0.8048423E-01
       -2   -1    0    0    0  501  0.00000000000E+00  0.00000000000E+00  0.16177369755E+04  0.16177369755E+04  0.25500000920E-02 0. -1.
        2   -1    0    0  501    0  0.00000000000E+00  0.00000000000E+00 -0.22191361902E+04  0.22191361902E+04  0.25500000920E-02 0.  1.
    10030    2    1    2    0    0  0.00000000000E+00  0.00000000000E+00 -0.60139921470E+03  0.38368731657E+04  0.37894478060E+04 0.  0.
        1    1    3    3  502    0  0.14158339571E+03  0.12966015947E+04  0.10908207688E+04  0.17003268812E+04  0.50400001928E-02 0. -1.
       -1    1    3    3    0  502 -0.14158339571E+03 -0.12966015947E+04 -0.16922199835E+04  0.21365462845E+04  0.50400001928E-02 0.  1.
</event>
<event>
 5   0  0.5140842E-08  0.3809586E+04  0.7818609E-02  0.8044101E-01
        2   -1    0    0  501    0  0.00000000000E+00  0.00000000000E+00  0.20474154417E+04  0.20474154417E+04  0.25500000920E-02 0. -1.
       -2   -1    0    0    0  501  0.00000000000E+00  0.00000000000E+00 -0.17721053189E+04  0.17721053189E+04  0.25500000920E-02 0.  1.
    10030    2    1    2    0    0  0.00000000000E+00  0.00000000000E+00  0.27531012282E+03  0.38195207606E+04  0.38095856962E+04 0.  0.
        2    1    3    3  502    0  0.14922979302E+04 -0.68431309226E+03  0.11060924491E+04  0.19795651105E+04  0.25500000920E-02 0. -1.
       -2    1    3    3    0  502 -0.14922979302E+04  0.68431309226E+03 -0.83078232630E+03  0.18399556501E+04  0.25500000920E-02 0.  1.
</event>
<event>
 5   0  0.1666051E-08  0.3806044E+04  0.7818609E-02  0.8044859E-01
       -1   -1    0    0    0  501  0.00000000000E+00  0.00000000000E+00  0.15143132359E+04  0.15143132359E+04  0.50400001928E-02 0. -1.
        1   -1    0    0  501    0  0.00000000000E+00  0.00000000000E+00 -0.23915084345E+04  0.23915084345E+04  0.50400001928E-02 0.  1.
    10030    2    1    2    0    0  0.00000000000E+00  0.00000000000E+00 -0.87719519865E+03  0.39058216704E+04  0.38060440755E+04 0.  0.
        2    1    3    3  502    0 -0.15310852275E+04 -0.10477502049E+04 -0.87336725229E+03  0.20505542722E+04  0.25500000920E-02 0.  1.
       -2    1    3    3    0  502  0.15310852275E+04  0.10477502049E+04 -0.38279463569E+01  0.18552673982E+04  0.25500000920E-02 0. -1.
</event>
<event>
 5   0  0.1628250E-08  0.3794726E+04  0.7818609E-02  0.8047288E-01
        1   -1    0    0  501    0  0.00000000000E+00  0.00000000000E+00  0.27142186073E+04  0.27142186073E+04  0.50400001928E-02 0.  1.
       -1   -1    0    0    0  501  0.00000000000E+00  0.00000000000E+00 -0.13263434664E+04  0.13263434664E+04  0.50400001928E-02 0. -1.
    10030    2    1    2    0    0  0.00000000000E+00  0.00000000000E+00  0.13878751408E+04  0.40405620737E+04  0.37947258748E+04 0.  0.
        4    1    3    3  502    0 -0.10400199155E+04  0.71321288176E+03 -0.81553004283E+03  0.15018005537E+04  0.12699999809E+01 0. -1.
       -4    1    3    3    0  502  0.10400199155E+04 -0.71321288176E+03  0.22034051836E+04  0.25387615200E+04  0.12699999809E+01 0.  1.
</event>
<event>
 5   0  0.5159761E-08  0.3798147E+04  0.7818609E-02  0.8046553E-01
       -2   -1    0    0    0  501  0.00000000000E+00  0.00000000000E+00  0.20740099918E+04  0.20740099918E+04  0.25500000920E-02 0. -1.
        2   -1    0    0  501    0  0.00000000000E+00  0.00000000000E+00 -0.17388922120E+04  0.17388922120E+04  0.25500000920E-02 0.  1.
    10030    2    1    2    0    0  0.00000000000E+00  0.00000000000E+00  0.33511777986E+03  0.38129022038E+04  0.37981468231E+04 0.  0.
        5    1    3    3  502    0 -0.15336714091E+04  0.10965567709E+04  0.39620012408E+03  0.19265464882E+04  0.46999998093E+01 0. -1.
       -5    1    3    3    0  502  0.15336714091E+04 -0.10965567709E+04 -0.61082344216E+02  0.18863557156E+04  0.46999998093E+01 0.  1.
</event>
<event>
 5   0  0.1666051E-08  0.3796548E+04  0.7818609E-02  0.8046896E-01
        1   -1    0    0  501    0  0.00000000000E+00  0.00000000000E+00  0.10714868733E+04  0.10714868733E+04  0.50400001928E-02 0. -1.
       -1   -1    0    0    0  501  0.00000000000E+00  0.00000000000E+00 -0.33630310317E+04  0.33630310317E+04  0.50400001928E-02 0.  1.
    10030    2    1    2    0    0  0.00000000000E+00  0.00000000000E+00 -0.22915441584E+04  0.44345179050E+04  0.37965476976E+04 0.  0.
        2    1    3    3  502    0  0.93438082884E+01  0.18447952906E+04 -0.16682483748E+04  0.24872494067E+04  0.25500000920E-02 0.  1.
       -2    1    3    3    0  502 -0.93438082884E+01 -0.18447952906E+04 -0.62329578351E+03  0.19472684983E+04  0.25500000920E-02 0. -1.
</event>
<event>
 5   0  0.1628250E-08  0.3788371E+04  0.7818609E-02  0.8048655E-01
       -1   -1    0    0    0  501  0.00000000000E+00  0.00000000000E+00  0.21044649852E+04  0.21044649852E+04  0.50400001928E-02 0. -1.
        1   -1    0    0  501    0  0.00000000000E+00  0.00000000000E+00 -0.17049176268E+04  0.17049176268E+04  0.50400001928E-02 0.  1.
    10030    2    1    2    0    0  0.00000000000E+00  0.00000000000E+00  0.39954735833E+03  0.38093826120E+04  0.37883713906E+04 0.  0.
        5    1    3    3  502    0  0.85273086062E+03  0.71864407330E+03  0.17393822509E+04  0.20661732574E+04  0.46999998093E+01 0. -1.
       -5    1    3    3    0  502 -0.85273086062E+03 -0.71864407330E+03 -0.13398348926E+04  0.17432093546E+04  0.46999998093E+01 0.  1.
</event>
<event>
 5   0  0.1628250E-08  0.3802506E+04  0.7818609E-02  0.8045617E-01
       -1   -1    0    0    0  501  0.00000000000E+00  0.00000000000E+00  0.34716061041E+04  0.34716061041E+04  0.50400001928E-02 0. -1.
        1   -1    0    0  501    0  0.00000000000E+00  0.00000000000E+00 -0.10412364410E+04  0.10412364410E+04  0.50400001928E-02 0.  1.
    10030    2    1    2    0    0  0.00000000000E+00  0.00000000000E+00  0.24303696631E+04  0.45128425451E+04  0.38025059024E+04 0.  0.
        4    1    3    3  502    0  0.12827375495E+04 -0.14032924188E+04  0.12279637264E+04  0.22633032850E+04  0.12699999809E+01 0. -1.
       -4    1    3    3    0  502 -0.12827375495E+04  0.14032924188E+04  0.12024059367E+04  0.22495392602E+04  0.12699999809E+01 0.  1.
</event>
<event>
 5   0  0.1628473E-08  0.3800047E+04  0.7818609E-02  0.8046145E-01
       -1   -1    0    0    0  501  0.00000000000E+00  0.00000000000E+00  0.21728194281E+04  0.21728194281E+04  0.50400001928E-02 0.  1.
        1   -1    0    0  501    0  0.00000000000E+00  0.00000000000E+00 -0.16614767584E+04  0.16614767584E+04  0.50400001928E-02 0. -1.
    10030    2    1    2    0    0  0.00000000000E+00  0.00000000000E+00  0.51134266973E+03  0.38342961865E+04  0.38000468312E+04 0.  0.
        3    1    3    3  502    0  0.10362618639E+04  0.15576159727E+04 -0.79106305465E+02  0.18725020659E+04  0.10100000352E+00 0. -1.
       -3    1    3    3    0  502 -0.10362618639E+04 -0.15576159727E+04  0.59044897520E+03  0.19617941206E+04  0.10100000352E+00 0.  1.
</event>
<event>
 5   0  0.1628250E-08  0.3811794E+04  0.7818609E-02  0.8043629E-01
        1   -1    0    0  501    0  0.00000000000E+00  0.00000000000E+00  0.17100931328E+04  0.17100931328E+04  0.50400001928E-02 0.  1.
       -1   -1    0    0    0  501  0.00000000000E+00  0.00000000000E+00 -0.21241196586E+04  0.21241196586E+04  0.50400001928E-02 0. -1.
    10030    2    1    2    0    0  0.00000000000E+00  0.00000000000E+00 -0.41402652577E+03  0.38342127913E+04  0.38117935103E+04 0.  0.
        5    1    3    3  502    0 -0.17052301237E+04  0.49041627188E+03 -0.90688021847E+03  0.19926795315E+04  0.46999998093E+01 0. -1.
       -5    1    3    3    0  502  0.17052301237E+04 -0.49041627188E+03  0.49285369270E+03  0.18415332598E+04  0.46999998093E+01 0.  1.
</event>
<event>
 5   0  0.1628250E-08  0.3807913E+04  0.7818609E-02  0.8044459E-01
       -1   -1    0    0    0  501  0.00000000000E+00  0.00000000000E+00  0.20491078323E+04  0.20491078324E+04  0.50400001928E-02 0. -1.
        1   -1    0    0  501    0  0.00000000000E+00  0.00000000000E+00 -0.17690871960E+04  0.17690871960E+04  0.50400001928E-02 0.  1.
    10030    2    1    2    0    0  0.00000000000E+00  0.00000000000E+00  0.28002063633E+03  0.38181950284E+04  0.38079130397E+04 0.  0.
        1    1    3    3  502    0 -0.16237505670E+04  0.30984770044E+03  0.10872722215E+04  0.19785682665E+04  0.50400001928E-02 0. -1.
       -1    1    3    3    0  502  0.16237505670E+04 -0.30984770044E+03 -0.80725158517E+03  0.18396267619E+04  0.50400001928E-02 0.  1.
</event>
<event>
 5   0  0.5147582E-08  0.3797722E+04  0.7818609E-02  0.8046644E-01
       -2   -1    0    0    0  501  0.00000000000E+00  0.00000000000E+00  0.11319099672E+04  0.11319099672E+04  0.25500000920E-02 0.  1.
        2   -1    0    0  501    0  0.00000000000E+00  0.00000000000E+00 -0.31854774786E+04  0.31854774786E+04  0.25500000920E-02 0. -1.
    10030    2    1    2    0    0  0.00000000000E+00  0.00000000000E+00 -0.20535675114E+04  0.43173874459E+04  0.37977223219E+04 0.  0.
        1    1    3    3  502    0 -0.91002888378E+03  0.33464287943E+03 -0.28828353086E+04  0.30415255782E+04  0.50400001928E-02 0. -1.
       -1    1    3    3    0  502  0.91002888378E+03 -0.33464287943E+03  0.82926779718E+03  0.12758618677E+04  0.50400001928E-02 0.  1.
</event>
<event>
 5   0  0.1628250E-08  0.3790923E+04  0.7818609E-02  0.8048106E-01
       -1   -1    0    0    0  501  0.00000000000E+00  0.00000000000E+00  0.16323082724E+04  0.16323082724E+04  0.50400001928E-02 0.  1.
        1   -1    0    0  501    0  0.00000000000E+00  0.00000000000E+00 -0.22010391583E+04  0.22010391583E+04  0.50400001928E-02 0. -1.
    10030    2    1    2    0    0  0.00000000000E+00  0.00000000000E+00 -0.56873088593E+03  0.38333474308E+04  0.37909230676E+04 0.  0.
        1    1    3    3  502    0 -0.16034218248E+04  0.26794913310E+03 -0.12699609239E+04  0.20629006362E+04  0.50400001928E-02 0.  1.
       -1    1    3    3    0  502  0.16034218248E+04 -0.26794913310E+03  0.70123003800E+03  0.17704467946E+04  0.50400001928E-02 0. -1.
</event>
<event>
 5   0  0.5207474E-08  0.3799506E+04  0.7818609E-02  0.8046261E-01
        2   -1    0    0  501    0  0.00000000000E+00  0.00000000000E+00  0.22795732747E+04  0.22795732747E+04  0.25500000920E-02 0. -1.
       -2   -1    0    0    0  501  0.00000000000E+00  0.00000000000E+00 -0.15832179342E+04  0.15832179342E+04  0.25500000920E-02 0.  1.
    10030    2    1    2    0    0  0.00000000000E+00  0.00000000000E+00  0.69635534048E+03  0.38627912089E+04  0.37995059104E+04 0.  0.
        4    1    3    3  502    0  0.15183992179E+04  0.49843236042E+03 -0.69610624961E+03  0.17431398471E+04  0.12699999809E+01 0.  1.
       -4    1    3    3    0  502 -0.15183992179E+04 -0.49843236042E+03  0.13924615901E+04  0.21196513618E+04  0.12699999809E+01 0. -1.
</event>
<event>
 5   0  0.5159761E-08  0.3802671E+04  0.7818609E-02  0.8045582E-01
        2   -1    0    0  501    0  0.00000000000E+00  0.00000000000E+00  0.20284772699E+04  0.20284772699E+04  0.25500000920E-02 0. -1.
       -2   -1    0    0    0  501  0.00000000000E+00  0.00000000000E+00 -0.17821623390E+04  0.17821623390E+04  0.25500000920E-02 0.  1.
    10030    2    1    2    0    0  0.00000000000E+00  0.00000000000E+00  0.24631493089E+03  0.38106396089E+04  0.38026705332E+04 0.  0.
        5    1    3    3  502    0 -0.14542487259E+04 -0.12052112697E+04 -0.95657972816E+02  0.18911758509E+04  0.46999998093E+01 0.  1.
       -5    1    3    3    0  502  0.14542487259E+04  0.12052112697E+04  0.34197290371E+03  0.19194637580E+04  0.46999998093E+01 0. -1.
</event>
<event>
 5   0  0.1666051E-08  0.3801358E+04  0.7818609E-02  0.8045863E-01
        1   -1    0    0  501    0  0.00000000000E+00  0.00000000000E+00  0.22115709651E+04  0.22115709651E+04  0.50400001928E-02 0. -1.
       -1   -1    0    0    0  501  0.00000000000E+00  0.00000000000E+00 -0.16334909283E+04  0.16334909283E+04  0.50400001928E-02 0.  1.
    10030    2    1    2    0    0  0.00000000000E+00  0.00000000000E+00  0.57808003683E+03  0.38450618935E+04  0.38013582356E+04 0.  0.
        2    1    3    3  502    0  0.17532432182E+04  0.12902783864E+03 -0.44181188213E+03  0.18126521190E+04  0.25500000920E-02 0. -1.
       -2    1    3    3    0  502 -0.17532432182E+04 -0.12902783864E+03  0.10198919190E+04  0.20324097745E+04  0.25500000920E-02 0.  1.
</event>
<event>
 5   0  0.1628250E-08  0.3728591E+04  0.7818609E-02  0.8061655E-01
        1   -1    0    0  501    0  0.00000000000E+00  0.00000000000E+00  0.18200955626E+04  0.18200955626E+04  0.50400001928E-02 0.  1.
       -1   -1    0    0    0  501  0.00000000000E+00  0.00000000000E+00 -0.19095686665E+04  0.19095686665E+04  0.50400001928E-02 0. -1.
    10030    2    1    2    0    0  0.00000000000E+00  0.00000000000E+00 -0.89473103946E+02  0.37296642291E+04  0.37285908632E+04 0.  0.
        1    1    3    3  502    0 -0.17308899525E+03 -0.16482335975E+04  0.80930292287E+03  0.18443440604E+04  0.50400001928E-02 0.  1.
       -1    1    3    3    0  502  0.17308899525E+03  0.16482335975E+04 -0.89877602681E+03  0.18853201687E+04  0.50400001928E-02 0. -1.
</event>
<event>
 5   0  0.5140842E-08  0.3799198E+04  0.7818609E-02  0.8046327E-01
       -2   -1    0    0    0  501  0.00000000000E+00  0.00000000000E+00  0.23939366926E+04  0.23939366926E+04  0.25500000920E-02 0.  1.
        2   -1    0    0  501    0  0.00000000000E+00  0.00000000000E+00 -0.15073400088E+04  0.15073400088E+04  0.25500000920E-02 0. -1.
    10030    2    1    2    0    0  0.00000000000E+00  0.00000000000E+00  0.88659668377E+03  0.39012767014E+04  0.37991981024E+04 0.  0.
        2    1    3    3  502    0  0.78614636077E+03  0.31121405442E+03  0.21900605298E+04  0.23476041857E+04  0.25500000920E-02 0.  1.
       -2    1    3    3    0  502 -0.78614636077E+03 -0.31121405442E+03 -0.13034638461E+04  0.15536725158E+04  0.25500000920E-02 0. -1.
</event>
<event>
 5   0  0.1628473E-08  0.3806115E+04  0.7818609E-02  0.8044844E-01
       -1   -1    0    0    0  501  0.00000000000E+00  0.00000000000E+00  0.14566462391E+04  0.14566462391E+04  0.50400001928E-02 0.  1.
        1   -1    0    0  501    0  0.00000000000E+00  0.00000000000E+00 -0.24862776760E+04  0.24862776760E+04  0.50400001928E-02 0. -1.
    10030    2    1    2    0    0  0.00000000000E+00  0.00000000000E+00 -0.10296314369E+04  0.39429239151E+04  0.38061145679E+04 0.  0.
        3    1    3    3  502    0  0.11905268222E+03  0.14067593176E+04 -0.18368051424E+04  0.23166783248E+04  0.10100000352E+00 0. -1.
       -3    1    3    3    0  502 -0.11905268222E+03 -0.14067593176E+04  0.80717370555E+03  0.16262455903E+04  0.10100000352E+00 0.  1.
</event>
<event>
 5   0  0.1628473E-08  0.3801708E+04  0.7818609E-02  0.8045788E-01
       -1   -1    0    0    0  501  0.00000000000E+00  0.00000000000E+00  0.17607917848E+04  0.17607917848E+04  0.50400001928E-02 0.  1.
        1   -1    0    0  501    0  0.00000000000E+00  0.00000000000E+00 -0.20520573738E+04  0.20520573738E+04  0.50400001928E-02 0. -1.
    10030    2    1    2    0    0  0.00000000000E+00  0.00000000000E+00 -0.29126558896E+03  0.38128491586E+04  0.38017079140E+04 0.  0.
        3    1    3    3  502    0 -0.15865674788E+04  0.54630647038E+03 -0.10413338325E+04  0.19748476612E+04  0.10100000352E+00 0. -1.
       -3    1    3    3    0  502  0.15865674788E+04 -0.54630647038E+03  0.75006824351E+03  0.18380014974E+04  0.10100000352E+00 0.  1.
</event>
<event>
 5   0  0.5140842E-08  0.3795044E+04  0.7818609E-02  0.8047219E-01
       -2   -1    0    0    0  501  0.00000000000E+00  0.00000000000E+00  0.16568017658E+04  0.16568017658E+04  0.25500000920E-02 0. -1.
        2   -1    0    0  501    0  0.00000000000E+00  0.00000000000E+00 -0.21732172260E+04  0.21732172260E+04  0.25500000920E-02 0.  1.
    10030    2    1    2    0    0  0.00000000000E+00  0.00000000000E+00 -0.51641546024E+03  0.38300189919E+04  0.37950442093E+04 0.  0.
        2    1    3    3  502    0  0.74834983763E+03 -0.87677859067E+03 -0.17793549035E+04  0.21201113294E+04  0.25500000920E-02 0.  1.
       -2    1    3    3    0  502 -0.74834983763E+03  0.87677859067E+03  0.12629394433E+04  0.17099076624E+04  0.25500000920E-02 0. -1.
</event>
<event>
 5   0  0.1628250E-08  0.3812115E+04  0.7818609E-02  0.8043560E-01
        1   -1    0    0  501    0  0.00000000000E+00  0.00000000000E+00  0.16824733067E+04  0.16824733067E+04  0.50400001928E-02 0. -1.
       -1   -1    0    0    0  501  0.00000000000E+00  0.00000000000E+00 -0.21593536602E+04  0.21593536603E+04  0.50400001928E-02 0.  1.
    10030    2    1    2    0    0  0.00000000000E+00  0.00000000000E+00 -0.47688035357E+03  0.38418269669E+04  0.38121148425E+04 0.  0.
        5    1    3    3  502    0  0.38419999921E+03  0.18669008850E+04 -0.24873000713E+03  0.19221907450E+04  0.46999998093E+01 0.  1.
       -5    1    3    3    0  502 -0.38419999921E+03 -0.18669008850E+04 -0.22815034644E+03  0.19196362219E+04  0.46999998093E+01 0. -1.
</event>
<event>
 5   0  0.5086209E-08  0.3787232E+04  0.7818609E-02  0.8048901E-01
        2   -1    0    0  501    0  0.00000000000E+00  0.00000000000E+00  0.24717177230E+04  0.24717177230E+04  0.25500000920E-02 0. -1.
       -2   -1    0    0    0  501  0.00000000000E+00  0.00000000000E+00 -0.14507241713E+04  0.14507241713E+04  0.25500000920E-02 0.  1.
    10030    2    1    2    0    0  0.00000000000E+00  0.00000000000E+00  0.10209935518E+04  0.39224418943E+04  0.37872315194E+04 0.  0.
        3    1    3    3  502    0  0.10744442616E+04 -0.41521667551E+03  0.20671343844E+04  0.23664065442E+04  0.10100000352E+00 0. -1.
       -3    1    3    3    0  502 -0.10744442616E+04  0.41521667551E+03 -0.10461408327E+04  0.15560353501E+04  0.10100000352E+00 0.  1.
</event>
<event>
 5   0  0.5086209E-08  0.3802037E+04  0.7818609E-02  0.8045718E-01
       -2   -1    0    0    0  501  0.00000000000E+00  0.00000000000E+00  0.23530146617E+04  0.23530146617E+04  0.25500000920E-02 0. -1.
        2   -1    0    0  501    0  0.00000000000E+00  0.00000000000E+00 -0.15358471728E+04  0.15358471728E+04  0.25500000920E-02 0.  1.
    10030    2    1    2    0    0  0.00000000000E+00  0.00000000000E+00  0.81716748889E+03  0.38888618344E+04  0.38020367781E+04 0.  0.
        3    1    3    3  502    0  0.65953285017E+03 -0.17167835177E+04 -0.83592659132E+02  0.18410097691E+04  0.10100000352E+00 0. -1.
       -3    1    3    3    0  502 -0.65953285017E+03  0.17167835177E+04  0.90076014802E+03  0.20478520653E+04  0.10100000352E+00 0.  1.
</event>
<event>
 5   0  0.5140842E-08  0.3797018E+04  0.7818609E-02  0.8046795E-01
       -2   -1    0    0    0  501  0.00000000000E+00  0.00000000000E+00  0.18266647307E+04  0.18266647307E+04  0.25500000920E-02 0.  1.
        2   -1    0    0  501    0  0.00000000000E+00  0.00000000000E+00 -0.19731786224E+04  0.19731786224E+04  0.25500000920E-02 0. -1.
    10030    2    1    2    0    0  0.00000000000E+00  0.00000000000E+00 -0.14651389170E+03  0.37998433532E+04  0.37970176703E+04 0.  0.
        2    1    3    3  502    0 -0.40195064112E+03 -0.61827111140E+03 -0.18239908436E+04  0.19674262585E+04  0.25500000920E-02 0. -1.
       -2    1    3    3    0  502  0.40195064112E+03  0.61827111140E+03  0.16774769519E+04  0.18324170947E+04  0.25500000920E-02 0.  1.
</event>
<event>
 5   0  0.1628250E-08  0.3800904E+04  0.7818609E-02  0.8045961E-01
       -1   -1    0    0    0  501  0.00000000000E+00  0.00000000000E+00  0.16254330931E+04  0.16254330931E+04  0.50400001928E-02 0.  1.
        1   -1    0    0  501    0  0.00000000000E+00  0.00000000000E+00 -0.22220031574E+04  0.22220031574E+04  0.50400001928E-02 0. -1.
    10030    2    1    2    0    0  0.00000000000E+00  0.00000000000E+00 -0.59657006430E+03  0.38474362506E+04  0.38009038215E+04 0.  0.
        4    1    3    3  502    0 -0.60008833813E+03  0.13819346169E+04 -0.14708562138E+04  0.21055329286E+04  0.12699999809E+01 0.  1.
       -4    1    3    3    0  502  0.60008833813E+03 -0.13819346169E+04  0.87428614952E+03  0.17419033219E+04  0.12699999809E+01 0. -1.
</event>
<event>
 5   0  0.5147582E-08  0.3856908E+04  0.7818609E-02  0.8034052E-01
       -2   -1    0    0    0  501  0.00000000000E+00  0.00000000000E+00  0.23837185824E+04  0.23837185824E+04  0.25500000920E-02 0.  1.
        2   -1    0    0  501    0  0.00000000000E+00  0.00000000000E+00 -0.15601400904E+04  0.15601400904E+04  0.25500000920E-02 0. -1.
    10030    2    1    2    0    0  0.00000000000E+00  0.00000000000E+00  0.82357849201E+03  0.39438586729E+04  0.38569080491E+04 0.  0.
        1    1    3    3  502    0  0.29219285172E+03  0.35638061085E+03 -0.15030051423E+04  0.15720713279E+04  0.50400001928E-02 0. -1.
       -1    1    3    3    0  502 -0.29219285172E+03 -0.35638061085E+03  0.23265836343E+04  0.23717873450E+04  0.50400001928E-02 0.  1.
</event>
<event>
 5   0  0.5140842E-08  0.3808921E+04  0.7818609E-02  0.8044243E-01
        2   -1    0    0  501    0  0.00000000000E+00  0.00000000000E+00  0.18588996132E+04  0.18588996132E+04  0.25500000920E-02 0.  1.
       -2   -1    0    0    0  501  0.00000000000E+00  0.00000000000E+00 -0.19511384239E+04  0.19511384239E+04  0.25500000920E-02 0. -1.
    10030    2    1    2    0    0  0.00000000000E+00  0.00000000000E+00 -0.92238810720E+02  0.38100380371E+04  0.38089213494E+04 0.  0.
        2    1    3    3  502    0 -0.44880751851E+03 -0.79072640423E+03  0.16277791071E+04  0.18644949066E+04  0.25500000920E-02 0.  1.
       -2    1    3    3    0  502  0.44880751851E+03  0.79072640423E+03 -0.17200179178E+04  0.19455431305E+04  0.25500000920E-02 0. -1.
</event>
<event>
 5   0  0.5147582E-08  0.3795069E+04  0.7818609E-02  0.8047214E-01
       -2   -1    0    0    0  501  0.00000000000E+00  0.00000000000E+00  0.27715134522E+04  0.27715134522E+04  0.25500000920E-02 0. -1.
        2   -1    0    0  501    0  0.00000000000E+00  0.00000000000E+00 -0.12991591978E+04  0.12991591978E+04  0.25500000920E-02 0.  1.
    10030    2    1    2    0    0  0.00000000000E+00  0.00000000000E+00  0.14723542544E+04  0.40706726500E+04  0.37950690076E+04 0.  0.
        1    1    3    3  502    0  0.61093489988E+03 -0.15445725167E+04 -0.24788602019E+03  0.16794026289E+04  0.50400001928E-02 0.  1.
       -1    1    3    3    0  502 -0.61093489988E+03  0.15445725167E+04  0.17202402746E+04  0.23912700210E+04  0.50400001928E-02 0. -1.
</event>
<event>
 5   0  0.5086209E-08  0.3801021E+04  0.7818609E-02  0.8045936E-01
       -2   -1    0    0    0  501  0.00000000000E+00  0.00000000000E+00  0.14507236275E+04  0.14507236275E+04  0.25500000920E-02 0.  1.
        2   -1    0    0  501    0  0.00000000000E+00  0.00000000000E+00 -0.24897511915E+04  0.24897511915E+04  0.25500000920E-02 0. -1.
    10030    2    1    2    0    0  0.00000000000E+00  0.00000000000E+00 -0.10390275639E+04  0.39404748190E+04  0.38010213786E+04 0.  0.
        3    1    3    3  502    0  0.12513739957E+03 -0.18846774119E+04 -0.73764384973E+03  0.20277541209E+04  0.10100000352E+00 0. -1.
       -3    1    3    3    0  502 -0.12513739957E+03  0.18846774119E+04 -0.30138371421E+03  0.19127206981E+04  0.10100000352E+00 0.  1.
</event>
<event>
 5   0  0.1666051E-08  0.3797764E+04  0.7818609E-02  0.8046635E-01
       -1   -1    0    0    0  501  0.00000000000E+00  0.00000000000E+00  0.22822552527E+04  0.22822552527E+04  0.50400001928E-02 0.  1.
        1   -1    0    0  501    0  0.00000000000E+00  0.00000000000E+00 -0.15799076804E+04  0.15799076804E+04  0.50400001928E-02 0. -1.
    10030    2    1    2    0    0  0.00000000000E+00  0.00000000000E+00  0.70234757230E+03  0.38621629331E+04  0.37977638696E+04 0.  0.
        2    1    3    3  502    0 -0.17944701179E+04  0.61253852590E+03  0.24733378717E+03  0.19121978067E+04  0.25500000920E-02 0. -1.
       -2    1    3    3    0  502  0.17944701179E+04 -0.61253852590E+03  0.45501378513E+03  0.19499651264E+04  0.25500000920E-02 0.  1.
</event>
<event>
 5   0  0.5147582E-08  0.3801596E+04  0.7818609E-02  0.8045812E-01
       -2   -1    0    0    0  501  0.00000000000E+00  0.00000000000E+00  0.11959176322E+04  0.11959176322E+04  0.25500000920E-02 0. -1.
        2   -1    0    0  501    0  0.00000000000E+00  0.00000000000E+00 -0.30211385301E+04  0.30211385301E+04  0.25500000920E-02 0.  1.
    10030    2    1    2    0    0  0.00000000000E+00  0.00000000000E+00 -0.18252208979E+04  0.42170561623E+04  0.38015958952E+04 0.  0.
        1    1    3    3  502    0 -0.16232753945E+04  0.52592762018E+03  0.16418831877E+02  0.17064268065E+04  0.50400001928E-02 0. -1.
       -1    1    3    3    0  502  0.16232753945E+04 -0.52592762018E+03 -0.18416397298E+04  0.25106293558E+04  0.50400001928E-02 0.  1.
</event>
<event>
 5   0  0.5207474E-08  0.3799820E+04  0.7818609E-02  0.8046194E-01
       -2   -1    0    0    0  501  0.00000000000E+00  0.00000000000E+00  0.20709303106E+04  0.20709303106E+04  0.25500000920E-02 0.  1.
        2   -1    0    0  501    0  0.00000000000E+00  0.00000000000E+00 -0.17430123937E+04  0.17430123937E+04  0.25500000920E-02 0. -1.
    10030    2    1    2    0    0  0.00000000000E+00  0.00000000000E+00  0.32791791691E+03  0.38139427044E+04  0.37998195736E+04 0.  0.
        4    1    3    3  502    0 -0.42735282211E+03 -0.18070193232E+04 -0.23966290278E+03  0.18722684607E+04  0.12699999809E+01 0.  1.
       -4    1    3    3    0  502  0.42735282211E+03  0.18070193232E+04  0.56758081969E+03  0.19416742437E+04  0.12699999809E+01 0. -1.
</event>
<event>
 5   0  0.1628250E-08  0.3797718E+04  0.7818609E-02  0.8046645E-01
       -1   -1    0    0    0  501  0.00000000000E+00  0.00000000000E+00  0.12217903252E+04  0.12217903252E+04  0.50400001928E-02 0. -1.
        1   -1    0    0  501    0  0.00000000000E+00  0.00000000000E+00 -0.29511329046E+04  0.29511329046E+04  0.50400001928E-02 0.  1.
    10030    2    1    2    0    0  0.00000000000E+00  0.00000000000E+00 -0.17293425794E+04  0.41729232298E+04  0.37977180681E+04 0.  0.
        1    1    3    3  502    0 -0.10874732597E+04 -0.10351146367E+04  0.41277487252E+03  0.15570624576E+04  0.50400001928E-02 0. -1.
       -1    1    3    3    0  502  0.10874732597E+04  0.10351146367E+04 -0.21421174519E+04  0.26158607722E+04  0.50400001928E-02 0.  1.
</event>
<event>
 5   0  0.1666051E-08  0.3802115E+04  0.7818609E-02  0.8045701E-01
        1   -1    0    0  501    0  0.00000000000E+00  0.00000000000E+00  0.20428028115E+04  0.20428028115E+04  0.50400001928E-02 0.  1.
       -1   -1    0    0    0  501  0.00000000000E+00  0.00000000000E+00 -0.17691474330E+04  0.17691474330E+04  0.50400001928E-02 0. -1.
    10030    2    1    2    0    0  0.00000000000E+00  0.00000000000E+00  0.27365537847E+03  0.38119502445E+04  0.38021148589E+04 0.  0.
        2    1    3    3  502    0 -0.42937943427E+03 -0.38520113709E+03  0.19529418967E+04  0.20363518032E+04  0.25500000920E-02 0.  1.
       -2    1    3    3    0  502  0.42937943427E+03  0.38520113709E+03 -0.16792865182E+04  0.17755984413E+04  0.25500000920E-02 0. -1.
</event>
<event>
 5   0  0.1628250E-08  0.3801157E+04  0.7818609E-02  0.8045907E-01
        1   -1    0    0  501    0  0.00000000000E+00  0.00000000000E+00  0.28720694055E+04  0.28720694055E+04  0.50400001928E-02 0.  1.
       -1   -1    0    0    0  501  0.00000000000E+00  0.00000000000E+00 -0.12576990784E+04  0.12576990784E+04  0.50400001928E-02 0. -1.
    10030    2    1    2    0    0  0.00000000000E+00  0.00000000000E+00  0.16143703271E+04  0.41297684839E+04  0.38011572156E+04 0.  0.
        5    1    3    3  502    0  0.60692788648E+03  0.99856747630E+03  0.24356573184E+04  0.27014712893E+04  0.46999998093E+01 0.  1.
       -5    1    3    3    0  502 -0.60692788648E+03 -0.99856747630E+03 -0.82128699127E+03  0.14282971946E+04  0.46999998093E+01 0. -1.
</event>
<event>
 5   0  0.1628473E-08  0.3800673E+04  0.7818609E-02  0.8046011E-01
       -1   -1    0    0    0  501  0.00000000000E+00  0.00000000000E+00  0.15672027912E+04  0.15672027912E+04  0.50400001928E-02 0.  1.
        1   -1    0    0  501    0  0.00000000000E+00  0.00000000000E+00 -0.23042827398E+04  0.23042827398E+04  0.50400001928E-02 0. -1.
    10030    2    1    2    0    0  0.00000000000E+00  0.00000000000E+00 -0.73707994862E+03  0.38714855310E+04  0.38006727518E+04 0.  0.
        3    1    3    3  502    0 -0.11862866071E+04  0.57870312147E+03  0.10240845091E+04  0.16706053720E+04  0.10100000352E+00 0.  1.
       -3    1    3    3    0  502  0.11862866071E+04 -0.57870312147E+03 -0.17611644577E+04  0.22008801590E+04  0.10100000352E+00 0. -1.
</event>
<event>
 5   0  0.5207474E-08  0.3798362E+04  0.7818609E-02  0.8046506E-01
       -2   -1    0    0    0  501  0.00000000000E+00  0.00000000000E+00  0.14205916744E+04  0.14205916744E+04  0.25500000920E-02 0.  1.
        2   -1    0    0  501    0  0.00000000000E+00  0.00000000000E+00 -0.25390045379E+04  0.25390045379E+04  0.25500000920E-02 0. -1.
    10030    2    1    2    0    0  0.00000000000E+00  0.00000000000E+00 -0.11184128635E+04  0.39595962123E+04  0.37983621248E+04 0.  0.
        4    1    3    3  502    0  0.18758794665E+04 -0.64213821100E+02 -0.25736425207E+03  0.18945408833E+04  0.12699999809E+01 0.  1.
       -4    1    3    3    0  502 -0.18758794665E+04  0.64213821100E+02 -0.86104861140E+03  0.20650553289E+04  0.12699999809E+01 0. -1.
</event>
<event>
 5   0  0.1628250E-08  0.3805035E+04  0.7818609E-02  0.8045075E-01
       -1   -1    0    0    0  501  0.00000000000E+00  0.00000000000E+00  0.19526003940E+04  0.19526003940E+04  0.50400001928E-02 0. -1.
        1   -1    0    0  501    0  0.00000000000E+00  0.00000000000E+00 -0.18537193165E+04  0.18537193165E+04  0.50400001928E-02 0.  1.
    10030    2    1    2    0    0  0.00000000000E+00  0.00000000000E+00  0.98881077512E+02  0.38063197105E+04  0.38050351209E+04 0.  0.
        1    1    3    3  502    0  0.66097320140E+03  0.87561804240E+02  0.18319007984E+04  0.19494648439E+04  0.50400001928E-02 0. -1.
       -1    1    3    3    0  502 -0.66097320140E+03 -0.87561804240E+02 -0.17330197209E+04  0.18568548666E+04  0.50400001928E-02 0.  1.
</event>
<event>
 5   0  0.5159761E-08  0.3800525E+04  0.7818609E-02  0.8046042E-01
        2   -1    0    0  501    0  0.00000000000E+00  0.00000000000E+00  0.25963801373E+04  0.25963801373E+04  0.25500000920E-02 0. -1.
       -2   -1    0    0    0  501  0.00000000000E+00  0.00000000000E+00 -0.13907815887E+04  0.13907815887E+04  0.25500000920E-02 0.  1.
    10030    2    1    2    0    0  0.00000000000E+00  0.00000000000E+00  0.12055985485E+04  0.39871617260E+04  0.38005250649E+04 0.  0.
        5    1    3    3  502    0  0.33310588561E+03 -0.44837590800E+02  0.25649415935E+04  0.25868740612E+04  0.46999998093E+01 0. -1.
       -5    1    3    3    0  502 -0.33310588561E+03  0.44837590800E+02 -0.13593430449E+04  0.14002876649E+04  0.46999998093E+01 0.  1.
</event>
<event>
 5   0  0.5159761E-08  0.3793219E+04  0.7818609E-02  0.8047612E-01
       -2   -1    0    0    0  501  0.00000000000E+00  0.00000000000E+00  0.15735753004E+04  0.15735753004E+04  0.25500000920E-02 0.  1.
        2   -1    0    0  501    0  0.00000000000E+00  0.00000000000E+00 -0.22859582304E+04  0.22859582304E+04  0.25500000920E-02 0. -1.
    10030    2    1    2    0    0  0.00000000000E+00  0.00000000000E+00 -0.71238293009E+03  0.38595335308E+04  0.37932189017E+04 0.  0.
        5    1    3    3  502    0  0.85785059566E+03  0.26002092548E+02 -0.20770672578E+04  0.22474016635E+04  0.46999998093E+01 0. -1.
       -5    1    3    3    0  502 -0.85785059566E+03 -0.26002092548E+02  0.13646843278E+04  0.16121318673E+04  0.46999998093E+01 0.  1.
</event>
<event>
 5   0  0.5159761E-08  0.3805458E+04  0.7818609E-02  0.8044985E-01
       -2   -1    0    0    0  501  0.00000000000E+00  0.00000000000E+00  0.27731292525E+04  0.27731292525E+04  0.25500000920E-02 0. -1.
        2   -1    0    0  501    0  0.00000000000E+00  0.00000000000E+00 -0.13055204198E+04  0.13055204198E+04  0.25500000920E-02 0.  1.
    10030    2    1    2    0    0  0.00000000000E+00  0.00000000000E+00  0.14676088327E+04  0.40786496722E+04  0.38054575892E+04 0.  0.
        5    1    3    3  502    0  0.16918704731E+04 -0.22808644613E+03 -0.16669377959E+03  0.17153011488E+04  0.46999998093E+01 0.  1.
       -5    1    3    3    0  502 -0.16918704731E+04  0.22808644613E+03  0.16343026123E+04  0.23633485235E+04  0.46999998093E+01 0. -1.
</event>
<event>
 5   0  0.5140842E-08  0.3797970E+04  0.7818609E-02  0.8046591E-01
       -2   -1    0    0    0  501  0.00000000000E+00  0.00000000000E+00  0.17053423898E+04  0.17053423898E+04  0.25500000920E-02 0.  1.
        2   -1    0    0  501    0  0.00000000000E+00  0.00000000000E+00 -0.21146153619E+04  0.21146153619E+04  0.25500000920E-02 0. -1.
    10030    2    1    2    0    0  0.00000000000E+00  0.00000000000E+00 -0.40927297202E+03  0.38199577517E+04  0.37979695706E+04 0.  0.
        2    1    3    3  502    0 -0.12606239505E+04 -0.69289140056E+03  0.10422471485E+04  0.17763868824E+04  0.25500000920E-02 0.  1.
       -2    1    3    3    0  502  0.12606239505E+04  0.69289140056E+03 -0.14515201205E+04  0.20435708693E+04  0.25500000920E-02 0. -1.
</event>
<event>
 5   0  0.1628250E-08  0.3804225E+04  0.7818609E-02  0.8045249E-01
        1   -1    0    0  501    0  0.00000000000E+00  0.00000000000E+00  0.17495890779E+04  0.17495890779E+04  0.50400001928E-02 0.  1.
       -1   -1    0    0    0  501  0.00000000000E+00  0.00000000000E+00 -0.20679324983E+04  0.20679324983E+04  0.50400001928E-02 0. -1.
    10030    2    1    2    0    0  0.00000000000E+00  0.00000000000E+00 -0.31834342035E+03  0.38175215762E+04  0.38042250790E+04 0.  0.
        4    1    3    3  502    0  0.12127756989E+04  0.10164490485E+04 -0.12183402952E+04  0.19970849386E+04  0.12699999809E+01 0. -1.
       -4    1    3    3    0  502 -0.12127756989E+04 -0.10164490485E+04  0.89999687483E+03  0.18204366376E+04  0.12699999809E+01 0.  1.
</event>
<event>
 5   0  0.5147582E-08  0.3788870E+04  0.7818609E-02  0.8048547E-01
       -2   -1    0    0    0  501  0.00000000000E+00  0.00000000000E+00  0.13245761348E+04  0.13245761348E+04  0.25500000920E-02 0.  1.
        2   -1    0    0  501    0  0.00000000000E+00  0.00000000000E+00 -0.27094591331E+04  0.27094591331E+04  0.25500000920E-02 0. -1.
    10030    2    1    2    0    0  0.00000000000E+00  0.00000000000E+00 -0.13848829983E+04  0.40340352679E+04  0.37888704944E+04 0.  0.
        1    1    3    3  502    0 -0.79320915945E+01  0.17465990075E+04  0.88659840010E+02  0.17488657977E+04  0.50400001928E-02 0. -1.
       -1    1    3    3    0  502  0.79320915945E+01 -0.17465990075E+04 -0.14735428384E+04  0.22851694702E+04  0.50400001928E-02 0.  1.
</event>
<event>
 5   0  0.5159761E-08  0.3802478E+04  0.7818609E-02  0.8045623E-01
        2   -1    0    0  501    0  0.00000000000E+00  0.00000000000E+00  0.21742286197E+04  0.21742286197E+04  0.25500000920E-02 0. -1.
       -2   -1    0    0    0  501  0.00000000000E+00  0.00000000000E+00 -0.16625251205E+04  0.16625251205E+04  0.25500000920E-02 0.  1.
    10030    2    1    2    0    0  0.00000000000E+00  0.00000000000E+00  0.51170349915E+03  0.38367537402E+04  0.38024779805E+04 0.  0.
        5    1    3    3  502    0 -0.18141394985E+04 -0.56883046426E+03  0.25164392540E+03  0.19178156774E+04  0.46999998093E+01 0. -1.
       -5    1    3    3    0  502  0.18141394985E+04  0.56883046426E+03  0.26005957375E+03  0.19189380628E+04  0.46999998093E+01 0.  1.
</event>
<event>
 5   0  0.5207474E-08  0.3801535E+04  0.7818609E-02  0.8045826E-01
        2   -1    0    0  501    0  0.00000000000E+00  0.00000000000E+00  0.20465748380E+04  0.20465748380E+04  0.25500000920E-02 0.  1.
       -2   -1    0    0    0  501  0.00000000000E+00  0.00000000000E+00 -0.17653478342E+04  0.17653478342E+04  0.25500000920E-02 0. -1.
    10030    2    1    2    0    0  0.00000000000E+00  0.00000000000E+00  0.28122700383E+03  0.38119226722E+04  0.38015346679E+04 0.  0.
        4    1    3    3  502    0  0.13214610420E+04 -0.13398614934E+04  0.40860161745E+03  0.19257323287E+04  0.12699999809E+01 0.  1.
       -4    1    3    3    0  502 -0.13214610420E+04  0.13398614934E+04 -0.12737461362E+03  0.18861903435E+04  0.12699999809E+01 0. -1.
</event>
<event>
 5   0  0.5086209E-08  0.3803307E+04  0.7818609E-02  0.8045446E-01
        2   -1    0    0  501    0  0.00000000000E+00  0.00000000000E+00  0.16897988050E+04  0.16897988050E+04  0.25500000920E-02 0. -1.
       -2   -1    0    0    0  501  0.00000000000E+00  0.00000000000E+00 -0.21400692343E+04  0.21400692343E+04  0.25500000920E-02 0.  1.
    10030    2    1    2    0    0  0.00000000000E+00  0.00000000000E+00 -0.45027042930E+03  0.38298680394E+04  0.38033072108E+04 0.  0.
        3    1    3    3  502    0 -0.13458784561E+04  0.86934416241E+03 -0.12565628924E+04  0.20361970446E+04  0.10100000352E+00 0.  1.
       -3    1    3    3    0  502  0.13458784561E+04 -0.86934416241E+03  0.80629246313E+03  0.17936709948E+04  0.10100000352E+00 0. -1.
</event>
<event>
 5   0  0.5159761E-08  0.3830656E+04  0.7818609E-02  0.8039608E-01
       -2   -1    0    0    0  501  0.00000000000E+00  0.00000000000E+00  0.20487148579E+04  0.20487148579E+04  0.25500000920E-02 0. -1.
        2   -1    0    0  501    0  0.00000000000E+00  0.00000000000E+00 -0.17906253965E+04  0.17906253965E+04  0.25500000920E-02 0.  1.
    10030    2    1    2    0    0  0.00000000000E+00  0.00000000000E+00  0.25808946137E+03  0.38393402544E+04  0.38306557427E+04 0.  0.
        5    1    3    3  502    0 -0.35014291677E+03  0.12604477563E+04 -0.12731015769E+04  0.18254145621E+04  0.46999998093E+01 0.  1.
       -5    1    3    3    0  502  0.35014291677E+03 -0.12604477563E+04  0.15311910382E+04  0.20139256923E+04  0.46999998093E+01 0. -1.
</event>
<event>
 5   0  0.1628250E-08  0.3793218E+04  0.7818609E-02  0.8047612E-01
        1   -1    0    0  501    0  0.00000000000E+00  0.00000000000E+00  0.20420854181E+04  0.20420854181E+04  0.50400001928E-02 0.  1.
       -1   -1    0    0    0  501  0.00000000000E+00  0.00000000000E+00 -0.17614957622E+04  0.17614957622E+04  0.50400001928E-02 0. -1.
    10030    2    1    2    0    0  0.00000000000E+00  0.00000000000E+00  0.28058965584E+03  0.38035811803E+04  0.37932175314E+04 0.  0.
        4    1    3    3  502    0  0.86656734995E+03 -0.23347685758E+03  0.18156897583E+04  0.20253842417E+04  0.12699999809E+01 0.  1.
       -4    1    3    3    0  502 -0.86656734995E+03  0.23347685758E+03 -0.15351001025E+04  0.17781969386E+04  0.12699999809E+01 0. -1.
</event>
<event>
 5   0  0.1628473E-08  0.3805283E+04  0.7818609E-02  0.8045022E-01
       -1   -1    0    0    0  501  0.00000000000E+00  0.00000000000E+00  0.20249083998E+04  0.20249083998E+04  0.50400001928E-02 0. -1.
        1   -1    0    0  501    0  0.00000000000E+00  0.00000000000E+00 -0.17877577005E+04  0.17877577005E+04  0.50400001928E-02 0.  1.
    10030    2    1    2    0    0  0.00000000000E+00  0.00000000000E+00  0.23715069932E+03  0.38126661003E+04  0.38052834767E+04 0.  0.
        3    1    3    3  502    0  0.14267989068E+03  0.75638887077E+03  0.18619407266E+04  0.20147716879E+04  0.10100000352E+00 0. -1.
       -3    1    3    3    0  502 -0.14267989068E+03 -0.75638887077E+03 -0.16247900273E+04  0.17978944123E+04  0.10100000352E+00 0.  1.
</event>
<event>
 5   0  0.1628250E-08  0.3792279E+04  0.7818609E-02  0.8047814E-01
       -1   -1    0    0    0  501  0.00000000000E+00  0.00000000000E+00  0.18635021806E+04  0.18635021807E+04  0.50400001928E-02 0.  1.
        1   -1    0    0  501    0  0.00000000000E+00  0.00000000000E+00 -0.19293489032E+04  0.19293489032E+04  0.50400001928E-02 0. -1.
    10030    2    1    2    0    0  0.00000000000E+00  0.00000000000E+00 -0.65846722557E+02  0.37928510839E+04  0.37922794667E+04 0.  0.
        5    1    3    3  502    0 -0.34580990503E+03  0.11788625581E+04  0.14116012264E+04  0.18713475181E+04  0.46999998093E+01 0.  1.
       -5    1    3    3    0  502  0.34580990503E+03 -0.11788625581E+04 -0.14774479489E+04  0.19215035657E+04  0.46999998093E+01 0. -1.
</event>
<event>
 5   0  0.5147582E-08  0.3802054E+04  0.7818609E-02  0.8045714E-01
        2   -1    0    0  501    0  0.00000000000E+00  0.00000000000E+00  0.21877841890E+04  0.21877841890E+04  0.25500000920E-02 0.  1.
       -2   -1    0    0    0  501  0.00000000000E+00  0.00000000000E+00 -0.16518554480E+04  0.16518554480E+04  0.25500000920E-02 0. -1.
    10030    2    1    2    0    0  0.00000000000E+00  0.00000000000E+00  0.53592874104E+03  0.38396396370E+04  0.38020537775E+04 0.  0.
        1    1    3    3  502    0  0.11657254598E+03  0.59093181717E+03  0.20888735589E+04  0.21739784535E+04  0.50400001928E-02 0.  1.
       -1    1    3    3    0  502 -0.11657254598E+03 -0.59093181717E+03 -0.15529448179E+04  0.16656611836E+04  0.50400001928E-02 0. -1.
</event>
<event>
 5   0  0.5159761E-08  0.3773273E+04  0.7818609E-02  0.8051915E-01
        2   -1    0    0  501    0  0.00000000000E+00  0.00000000000E+00  0.22056129453E+04  0.22056129453E+04  0.25500000920E-02 0.  1.
       -2   -1    0    0    0  501  0.00000000000E+00  0.00000000000E+00 -0.16137901700E+04  0.16137901700E+04  0.25500000920E-02 0. -1.
    10030    2    1    2    0    0  0.00000000000E+00  0.00000000000E+00  0.59182277531E+03  0.38194031153E+04  0.37732725796E+04 0.  0.
        5    1    3    3  502    0  0.16872704787E+02  0.18700212481E+04  0.54817751133E+03  0.19487906071E+04  0.46999998093E+01 0.  1.
       -5    1    3    3    0  502 -0.16872704787E+02 -0.18700212481E+04  0.43645263982E+02  0.18706125082E+04  0.46999998093E+01 0. -1.
</event>
<event>
 5   0  0.1628250E-08  0.3783870E+04  0.7818609E-02  0.8049625E-01
        3   -1    0    0  501    0  0.00000000000E+00  0.00000000000E+00  0.19275319786E+04  0.19275319812E+04  0.10100000352E+00 0. -1.
       -3   -1    0    0    0  501  0.00000000000E+00  0.00000000000E+00 -0.18569952909E+04  0.18569952936E+04  0.10100000352E+00 0.  1.
    10030    2    1    2    0    0  0.00000000000E+00  0.00000000000E+00  0.70536687692E+02  0.37845272748E+04  0.37838698801E+04 0.  0.
        2    1    3    3  502    0  0.13276409526E+04 -0.12196917840E+04 -0.53853793624E+03  0.18815689346E+04  0.25500000920E-02 0.  1.
       -2    1    3    3    0  502 -0.13276409526E+04  0.12196917840E+04  0.60907462393E+03  0.19029583402E+04  0.25500000920E-02 0. -1.
</event>
<event>
 5   0  0.1628250E-08  0.3795647E+04  0.7818609E-02  0.8047090E-01
        1   -1    0    0  501    0  0.00000000000E+00  0.00000000000E+00  0.21206656543E+04  0.21206656543E+04  0.50400001928E-02 0. -1.
       -1   -1    0    0    0  501  0.00000000000E+00  0.00000000000E+00 -0.16983978564E+04  0.16983978564E+04  0.50400001928E-02 0.  1.
    10030    2    1    2    0    0  0.00000000000E+00  0.00000000000E+00  0.42226779784E+03  0.38190635107E+04  0.37956469812E+04 0.  0.
        1    1    3    3  502    0  0.33238623868E+03 -0.83610482037E+03  0.18924250916E+04  0.20954294571E+04  0.50400001928E-02 0. -1.
       -1    1    3    3    0  502 -0.33238623868E+03  0.83610482037E+03 -0.14701572938E+04  0.17236340536E+04  0.50400001928E-02 0.  1.
</event>
<event>
 5   0  0.5207474E-08  0.3792660E+04  0.7818609E-02  0.8047732E-01
       -2   -1    0    0    0  501  0.00000000000E+00  0.00000000000E+00  0.18164655390E+04  0.18164655390E+04  0.25500000920E-02 0.  1.
        2   -1    0    0  501    0  0.00000000000E+00  0.00000000000E+00 -0.19797056102E+04  0.19797056102E+04  0.25500000920E-02 0. -1.
    10030    2    1    2    0    0  0.00000000000E+00  0.00000000000E+00 -0.16324007118E+03  0.37961711492E+04  0.37926597624E+04 0.  0.
        4    1    3    3  502    0  0.42879864304E+03 -0.20539693787E+03 -0.19190781379E+04  0.19770985536E+04  0.12699999809E+01 0. -1.
       -4    1    3    3    0  502 -0.42879864304E+03  0.20539693787E+03  0.17558380668E+04  0.18190725956E+04  0.12699999809E+01 0.  1.
</event>
<event>
 5   0  0.1628250E-08  0.3796463E+04  0.7818609E-02  0.8046914E-01
       -1   -1    0    0    0  501  0.00000000000E+00  0.00000000000E+00  0.19315273729E+04  0.19315273729E+04  0.50400001928E-02 0.  1.
        1   -1    0    0  501    0  0.00000000000E+00  0.00000000000E+00 -0.18655092277E+04  0.18655092277E+04  0.50400001928E-02 0. -1.
    10030    2    1    2    0    0  0.00000000000E+00  0.00000000000E+00  0.66018145148E+02  0.37970366006E+04  0.37964626366E+04 0.  0.
        1    1    3    3  502    0  0.11990038035E+03 -0.14560490206E+04 -0.11791260048E+04  0.18774432047E+04  0.50400001928E-02 0. -1.
       -1    1    3    3    0  502 -0.11990038035E+03  0.14560490206E+04  0.12451441500E+04  0.19195933960E+04  0.50400001928E-02 0.  1.
</event>
<event>
 5   0  0.5207474E-08  0.3789621E+04  0.7818609E-02  0.8048386E-01
        2   -1    0    0  501    0  0.00000000000E+00  0.00000000000E+00  0.27161986110E+04  0.27161986110E+04  0.25500000920E-02 0. -1.
       -2   -1    0    0    0  501  0.00000000000E+00  0.00000000000E+00 -0.13218131031E+04  0.13218131031E+04  0.25500000920E-02 0.  1.
    10030    2    1    2    0    0  0.00000000000E+00  0.00000000000E+00  0.13943855079E+04  0.40380117141E+04  0.37896210442E+04 0.  0.
        4    1    3    3  502    0  0.10264129885E+04  0.94257374303E+03  0.20652199086E+04  0.24914059821E+04  0.12699999809E+01 0. -1.
       -4    1    3    3    0  502 -0.10264129885E+04 -0.94257374303E+03 -0.67083440074E+03  0.15466057320E+04  0.12699999809E+01 0.  1.
</event>
<event>
 5   0  0.5147582E-08  0.3807289E+04  0.7818609E-02  0.8044592E-01
       -2   -1    0    0    0  501  0.00000000000E+00  0.00000000000E+00  0.14730425903E+04  0.14730425903E+04  0.25500000920E-02 0.  1.
        2   -1    0    0  501    0  0.00000000000E+00  0.00000000000E+00 -0.24601209856E+04  0.24601209856E+04  0.25500000920E-02 0. -1.
    10030    2    1    2    0    0  0.00000000000E+00  0.00000000000E+00 -0.98707839534E+03  0.39331635759E+04  0.38072893187E+04 0.  0.
        1    1    3    3  502    0 -0.14652492890E+04 -0.42575012815E+03  0.68235711627E+03  0.16714753617E+04  0.50400001928E-02 0.  1.
       -1    1    3    3    0  502  0.14652492890E+04  0.42575012815E+03 -0.16694355116E+04  0.22616882142E+04  0.50400001928E-02 0. -1.
</event>
<event>
 5   0  0.1628250E-08  0.3800044E+04  0.7818609E-02  0.8046145E-01
       -4   -1    0    0    0  501  0.00000000000E+00  0.00000000000E+00  0.26902298335E+04  0.26902301333E+04  0.12699999809E+01 0.  1.
        4   -1    0    0  501    0  0.00000000000E+00  0.00000000000E+00 -0.13419229915E+04  0.13419235925E+04  0.12699999809E+01 0. -1.
    10030    2    1    2    0    0  0.00000000000E+00  0.00000000000E+00  0.13483068420E+04  0.40321537257E+04  0.38000437271E+04 0.  0.
        1    1    3    3  502    0  0.18327805105E+04  0.32568234715E+03  0.10781030098E+04  0.21511530607E+04  0.50400001928E-02 0.  1.
       -1    1    3    3    0  502 -0.18327805105E+04 -0.32568234715E+03  0.27020383217E+03  0.18810006650E+04  0.50400001928E-02 0. -1.
</event>
<event>
 5   0  0.1628250E-08  0.3799818E+04  0.7818609E-02  0.8046194E-01
        1   -1    0    0  501    0  0.00000000000E+00  0.00000000000E+00  0.23198782086E+04  0.23198782086E+04  0.50400001928E-02 0. -1.
       -1   -1    0    0    0  501  0.00000000000E+00  0.00000000000E+00 -0.15559673854E+04  0.15559673854E+04  0.50400001928E-02 0.  1.
    10030    2    1    2    0    0  0.00000000000E+00  0.00000000000E+00  0.76391082323E+03  0.38758455940E+04  0.37998183276E+04 0.  0.
        1    1    3    3  502    0  0.21302589567E+03 -0.74885215008E+03 -0.13857793789E+04  0.15895106360E+04  0.50400001928E-02 0.  1.
       -1    1    3    3    0  502 -0.21302589567E+03  0.74885215008E+03  0.21496902022E+04  0.22863349580E+04  0.50400001928E-02 0. -1.
</event>
<event>
 5   0  0.5207474E-08  0.3805066E+04  0.7818609E-02  0.8045069E-01
        2   -1    0    0  501    0  0.00000000000E+00  0.00000000000E+00  0.20290095577E+04  0.20290095577E+04  0.25500000920E-02 0. -1.
       -2   -1    0    0    0  501  0.00000000000E+00  0.00000000000E+00 -0.17839400837E+04  0.17839400837E+04  0.25500000920E-02 0.  1.
    10030    2    1    2    0    0  0.00000000000E+00  0.00000000000E+00  0.24506947400E+03  0.38129496413E+04  0.38050658234E+04 0.  0.
        4    1    3    3  502    0 -0.11126929768E+04 -0.78650572288E+03 -0.12079786758E+04  0.18209588152E+04  0.12699999809E+01 0.  1.
       -4    1    3    3    0  502  0.11126929768E+04  0.78650572288E+03  0.14530481498E+04  0.19919908261E+04  0.12699999809E+01 0. -1.
</event>
<event>
 5   0  0.1628250E-08  0.3800865E+04  0.7818609E-02  0.8045969E-01
       -1   -1    0    0    0  501  0.00000000000E+00  0.00000000000E+00  0.19318820922E+04  0.19318820922E+04  0.50400001928E-02 0. -1.
        1   -1    0    0  501    0  0.00000000000E+00  0.00000000000E+00 -0.18694946376E+04  0.18694946376E+04  0.50400001928E-02 0.  1.
    10030    2    1    2    0    0  0.00000000000E+00  0.00000000000E+00  0.62387454592E+02  0.38013767298E+04  0.38008647500E+04 0.  0.
        4    1    3    3  502    0  0.93505766295E+02 -0.13113571691E+04 -0.13413032775E+04  0.18781632114E+04  0.12699999809E+01 0.  1.
       -4    1    3    3    0  502 -0.93505766295E+02  0.13113571691E+04  0.14036907321E+04  0.19232135185E+04  0.12699999809E+01 0. -1.
</event>
<event>
 5   0  0.5207474E-08  0.3794012E+04  0.7818609E-02  0.8047441E-01
        2   -1    0    0  501    0  0.00000000000E+00  0.00000000000E+00  0.16893439735E+04  0.16893439735E+04  0.25500000920E-02 0.  1.
       -2   -1    0    0    0  501  0.00000000000E+00  0.00000000000E+00 -0.21301951435E+04  0.21301951435E+04  0.25500000920E-02 0. -1.
    10030    2    1    2    0    0  0.00000000000E+00  0.00000000000E+00 -0.44085117005E+03  0.38195391170E+04  0.37940122973E+04 0.  0.
        4    1    3    3  502    0 -0.18254461711E+04 -0.28176692766E+03  0.21490071332E+03  0.18595242011E+04  0.12699999809E+01 0.  1.
       -4    1    3    3    0  502  0.18254461711E+04  0.28176692766E+03 -0.65575188338E+03  0.19600149159E+04  0.12699999809E+01 0. -1.
</event>
<event>
 5   0  0.1666051E-08  0.3724011E+04  0.7818609E-02  0.8062661E-01
       -1   -1    0    0    0  501  0.00000000000E+00  0.00000000000E+00  0.18781198812E+04  0.18781198812E+04  0.50400001928E-02 0.  1.
        1   -1    0    0  501    0  0.00000000000E+00  0.00000000000E+00 -0.18460296260E+04  0.18460296260E+04  0.50400001928E-02 0. -1.
    10030    2    1    2    0    0  0.00000000000E+00  0.00000000000E+00  0.32090255208E+02  0.37241495073E+04  0.37240112470E+04 0.  0.
        2    1    3    3  502    0  0.11591591006E+03  0.13790952076E+04 -0.12296836049E+04  0.18513405570E+04  0.25500000920E-02 0. -1.
       -2    1    3    3    0  502 -0.11591591006E+03 -0.13790952076E+04  0.12617738602E+04  0.18728089502E+04  0.25500000920E-02 0.  1.
</event>
<event>
 5   0  0.5147582E-08  0.3805330E+04  0.7818609E-02  0.8045012E-01
       -2   -1    0    0    0  501  0.00000000000E+00  0.00000000000E+00  0.16506378372E+04  0.16506378372E+04  0.25500000920E-02 0.  1.
        2   -1    0    0  501    0  0.00000000000E+00  0.00000000000E+00 -0.21931723322E+04  0.21931723322E+04  0.25500000920E-02 0. -1.
    10030    2    1    2    0    0  0.00000000000E+00  0.00000000000E+00 -0.54253449501E+03  0.38438101694E+04  0.38053295442E+04 0.  0.
        1    1    3    3  502    0 -0.61606315726E+03 -0.15474329570E+04  0.65784427065E+03  0.17907656616E+04  0.50400001928E-02 0.  1.
       -1    1    3    3    0  502  0.61606315726E+03  0.15474329570E+04 -0.12003787657E+04  0.20530445079E+04  0.50400001928E-02 0. -1.
</event>
<event>
 5   0  0.1628473E-08  0.3802145E+04  0.7818609E-02  0.8045695E-01
        1   -1    0    0  501    0  0.00000000000E+00  0.00000000000E+00  0.18231407701E+04  0.18231407701E+04  0.50400001928E-02 0. -1.
       -1   -1    0    0    0  501  0.00000000000E+00  0.00000000000E+00 -0.19823354189E+04  0.19823354189E+04  0.50400001928E-02 0.  1.
    10030    2    1    2    0    0  0.00000000000E+00  0.00000000000E+00 -0.15919464882E+03  0.38054761891E+04  0.38021449327E+04 0.  0.
        3    1    3    3  502    0  0.24588292979E+03 -0.43429738407E+03 -0.19155992229E+04  0.19795436408E+04  0.10100000352E+00 0.  1.
       -3    1    3    3    0  502 -0.24588292979E+03  0.43429738407E+03  0.17564045740E+04  0.18259325483E+04  0.10100000352E+00 0. -1.
</event>
<event>
 5   0  0.1628250E-08  0.3802521E+04  0.7818609E-02  0.8045614E-01
        1   -1    0    0  501    0  0.00000000000E+00  0.00000000000E+00  0.14988162762E+04  0.14988162762E+04  0.50400001928E-02 0.  1.
       -1   -1    0    0    0  501  0.00000000000E+00  0.00000000000E+00 -0.24117645412E+04  0.24117645412E+04  0.50400001928E-02 0. -1.
    10030    2    1    2    0    0  0.00000000000E+00  0.00000000000E+00 -0.91294826502E+03  0.39105808174E+04  0.38025212419E+04 0.  0.
        1    1    3    3  502    0  0.18100872681E+04 -0.46105020974E+03 -0.82124908852E+03  0.20404492838E+04  0.50400001928E-02 0. -1.
       -1    1    3    3    0  502 -0.18100872681E+04  0.46105020974E+03 -0.91699176494E+02  0.18701315337E+04  0.50400001928E-02 0.  1.
</event>
<event>
 5   0  0.1628473E-08  0.3805960E+04  0.7818609E-02  0.8044877E-01
        1   -1    0    0  501    0  0.00000000000E+00  0.00000000000E+00  0.17160420696E+04  0.17160420696E+04  0.50400001928E-02 0.  1.
       -1   -1    0    0    0  501  0.00000000000E+00  0.00000000000E+00 -0.21102821907E+04  0.21102821907E+04  0.50400001928E-02 0. -1.
    10030    2    1    2    0    0  0.00000000000E+00  0.00000000000E+00 -0.39424012108E+03  0.38263242604E+04  0.38059600724E+04 0.  0.
        3    1    3    3  502    0  0.37966028782E+03 -0.10098106949E+04 -0.17731409129E+04  0.20755452973E+04  0.10100000352E+00 0. -1.
       -3    1    3    3    0  502 -0.37966028782E+03  0.10098106949E+04  0.13789007918E+04  0.17507789631E+04  0.10100000352E+00 0.  1.
</event>
<event>
 5   0  0.5086209E-08  0.3811057E+04  0.7818609E-02  0.8043786E-01
        2   -1    0    0  501    0  0.00000000000E+00  0.00000000000E+00  0.22044446553E+04  0.22044446553E+04  0.25500000920E-02 0. -1.
       -2   -1    0    0    0  501  0.00000000000E+00  0.00000000000E+00 -0.16471442282E+04  0.16471442282E+04  0.25500000920E-02 0.  1.
    10030    2    1    2    0    0  0.00000000000E+00  0.00000000000E+00  0.55730042713E+03  0.38515888835E+04  0.38110566988E+04 0.  0.
        3    1    3    3  502    0  0.18686318107E+04 -0.99450322708E+02 -0.84845815500E+02  0.18731988771E+04  0.10100000352E+00 0.  1.
       -3    1    3    3    0  502 -0.18686318107E+04  0.99450322708E+02  0.64214624263E+03  0.19783900064E+04  0.10100000352E+00 0. -1.
</event>
<event>
 5   0  0.5140842E-08  0.3800399E+04  0.7818609E-02  0.8046069E-01
       -2   -1    0    0    0  501  0.00000000000E+00  0.00000000000E+00  0.20661843578E+04  0.20661843578E+04  0.25500000920E-02 0.  1.
        2   -1    0    0  501    0  0.00000000000E+00  0.00000000000E+00 -0.17475488044E+04  0.17475488044E+04  0.25500000920E-02 0. -1.
    10030    2    1    2    0    0  0.00000000000E+00  0.00000000000E+00  0.31863555341E+03  0.38137331622E+04  0.38003989286E+04 0.  0.
        2    1    3    3  502    0  0.63563849211E+03  0.62763163667E+03  0.18423427548E+04  0.20474825006E+04  0.25500000920E-02 0.  1.
       -2    1    3    3    0  502 -0.63563849211E+03 -0.62763163667E+03 -0.15237072014E+04  0.17662506616E+04  0.25500000920E-02 0. -1.
</event>
<event>
 5   0  0.1628250E-08  0.3787410E+04  0.7818609E-02  0.8048862E-01
        1   -1    0    0  501    0  0.00000000000E+00  0.00000000000E+00  0.11215089654E+04  0.11215089654E+04  0.50400001928E-02 0.  1.
       -1   -1    0    0    0  501  0.00000000000E+00  0.00000000000E+00 -0.31975840603E+04  0.31975840603E+04  0.50400001928E-02 0. -1.
    10030    2    1    2    0    0  0.00000000000E+00  0.00000000000E+00 -0.20760750949E+04  0.43190930257E+04  0.37874102979E+04 0.  0.
        4    1    3    3  502    0 -0.53957581495E+02  0.13773929042E+04  0.44270084372E+03  0.14477942821E+04  0.12699999809E+01 0.  1.
       -4    1    3    3    0  502  0.53957581495E+02 -0.13773929042E+04 -0.25187759386E+04  0.28712987436E+04  0.12699999809E+01 0. -1.
</event>
<event>
 5   0  0.5147582E-08  0.3802028E+04  0.7818609E-02  0.8045720E-01
        2   -1    0    0  501    0  0.00000000000E+00  0.00000000000E+00  0.19927552920E+04  0.19927552920E+04  0.25500000920E-02 0. -1.
       -2   -1    0    0    0  501  0.00000000000E+00  0.00000000000E+00 -0.18134957883E+04  0.18134957883E+04  0.25500000920E-02 0.  1.
    10030    2    1    2    0    0  0.00000000000E+00  0.00000000000E+00  0.17925950376E+03  0.38062510803E+04  0.38020275271E+04 0.  0.
        1    1    3    3  502    0 -0.68520310198E+03 -0.17411605280E+04  0.42572587672E+03  0.19189543500E+04  0.50400001928E-02 0.  1.
       -1    1    3    3    0  502  0.68520310198E+03  0.17411605280E+04 -0.24646637296E+03  0.18872967303E+04  0.50400001928E-02 0. -1.
</event>
<event>
 5   0  0.5159761E-08  0.3806424E+04  0.7818609E-02  0.8044778E-01
        2   -1    0    0  501    0  0.00000000000E+00  0.00000000000E+00  0.11447532746E+04  0.11447532746E+04  0.25500000920E-02 0. -1.
       -2   -1    0    0    0  501  0.00000000000E+00  0.00000000000E+00 -0.31641885518E+04  0.31641885518E+04  0.25500000920E-02 0.  1.
    10030    2    1    2    0    0  0.00000000000E+00  0.00000000000E+00 -0.20194352772E+04  0.43089418265E+04  0.38064236266E+04 0.  0.
        5    1    3    3  502    0 -0.62656049970E+03  0.30696559502E+03 -0.30141855103E+04  0.30938878966E+04  0.46999998093E+01 0.  1.
       -5    1    3    3    0  502  0.62656049970E+03 -0.30696559502E+03  0.99475023308E+03  0.12150539299E+04  0.46999998093E+01 0. -1.
</event>
<event>
 5   0  0.1628250E-08  0.3790322E+04  0.7818609E-02  0.8048235E-01
        1   -1    0    0  501    0  0.00000000000E+00  0.00000000000E+00  0.27467368695E+04  0.27467368695E+04  0.50400001928E-02 0. -1.
       -1   -1    0    0    0  501  0.00000000000E+00  0.00000000000E+00 -0.13076007129E+04  0.13076007129E+04  0.50400001928E-02 0.  1.
    10030    2    1    2    0    0  0.00000000000E+00  0.00000000000E+00  0.14391361566E+04  0.40543375824E+04  0.37903219329E+04 0.  0.
        4    1    3    3  502    0 -0.15385990694E+02 -0.88707080007E+03  0.25108819817E+04  0.26630173247E+04  0.12699999809E+01 0. -1.
       -4    1    3    3    0  502  0.15385990694E+02  0.88707080007E+03 -0.10717458251E+04  0.13913202577E+04  0.12699999809E+01 0.  1.
</event>
<event>
 5   0  0.5147582E-08  0.3798178E+04  0.7818609E-02  0.8046546E-01
        2   -1    0    0  501    0  0.00000000000E+00  0.00000000000E+00  0.21505723438E+04  0.21505723438E+04  0.25500000920E-02 0.  1.
       -2   -1    0    0    0  501  0.00000000000E+00  0.00000000000E+00 -0.16770136773E+04  0.16770136773E+04  0.25500000920E-02 0. -1.
    10030    2    1    2    0    0  0.00000000000E+00  0.00000000000E+00  0.47355866649E+03  0.38275860212E+04  0.37981781078E+04 0.  0.
        1    1    3    3  502    0  0.44094904696E+02 -0.18972117178E+04  0.16423185876E+03  0.19048172527E+04  0.50400001928E-02 0.  1.
       -1    1    3    3    0  502 -0.44094904696E+02  0.18972117178E+04  0.30932680773E+03  0.19227687684E+04  0.50400001928E-02 0. -1.
</event>
<event>
 5   0  0.1628250E-08  0.3793495E+04  0.7818609E-02  0.8047552E-01
        1   -1    0    0  501    0  0.00000000000E+00  0.00000000000E+00  0.23582311958E+04  0.23582311958E+04  0.50400001928E-02 0. -1.
       -1   -1    0    0    0  501  0.00000000000E+00  0.00000000000E+00 -0.15255720584E+04  0.15255720584E+04  0.50400001928E-02 0.  1.
    10030    2    1    2    0    0  0.00000000000E+00  0.00000000000E+00  0.83265913737E+03  0.38838032542E+04  0.37934952852E+04 0.  0.
        1    1    3    3  502    0 -0.11160088823E+04  0.71349054672E+03  0.18062596397E+04  0.22398925134E+04  0.50400001928E-02 0. -1.
       -1    1    3    3    0  502  0.11160088823E+04 -0.71349054672E+03 -0.97360050232E+03  0.16439107408E+04  0.50400001928E-02 0.  1.
</event>
<event>
 5   0  0.5147582E-08  0.3800408E+04  0.7818609E-02  0.8046067E-01
        2   -1    0    0  501    0  0.00000000000E+00  0.00000000000E+00  0.24021233334E+04  0.24021233334E+04  0.25500000920E-02 0. -1.
       -2   -1    0    0    0  501  0.00000000000E+00  0.00000000000E+00 -0.15031595749E+04  0.15031595749E+04  0.25500000920E-02 0.  1.
    10030    2    1    2    0    0  0.00000000000E+00  0.00000000000E+00  0.89896375850E+03  0.39052829083E+04  0.38004077090E+04 0.  0.
        1    1    3    3  502    0  0.86183646939E+03  0.73485633292E+03 -0.11184012337E+04  0.15917277561E+04  0.50400001928E-02 0.  1.
       -1    1    3    3    0  502 -0.86183646939E+03 -0.73485633292E+03  0.20173649922E+04  0.23135551521E+04  0.50400001928E-02 0. -1.
</event>
<event>
 5   0  0.1628250E-08  0.3801525E+04  0.7818609E-02  0.8045828E-01
        1   -1    0    0  501    0  0.00000000000E+00  0.00000000000E+00  0.11517239722E+04  0.11517239722E+04  0.50400001928E-02 0.  1.
       -1   -1    0    0    0  501  0.00000000000E+00  0.00000000000E+00 -0.31369483219E+04  0.31369483219E+04  0.50400001928E-02 0. -1.
    10030    2    1    2    0    0  0.00000000000E+00  0.00000000000E+00 -0.19852243497E+04  0.42886722942E+04  0.38015252634E+04 0.  0.
        4    1    3    3  502    0  0.95827255293E+03 -0.39172015742E+03 -0.27909923210E+04  0.29768054549E+04  0.12699999809E+01 0. -1.
       -4    1    3    3    0  502 -0.95827255293E+03  0.39172015742E+03  0.80576797134E+03  0.13118668393E+04  0.12699999809E+01 0.  1.
</event>
<event>
 5   0  0.5140842E-08  0.3780360E+04  0.7818609E-02  0.8050383E-01
       -2   -1    0    0    0  501  0.00000000000E+00  0.00000000000E+00  0.15924934245E+04  0.15924934245E+04  0.25500000920E-02 0. -1.
        2   -1    0    0  501    0  0.00000000000E+00  0.00000000000E+00 -0.22435129124E+04  0.22435129124E+04  0.25500000920E-02 0.  1.
    10030    2    1    2    0    0  0.00000000000E+00  0.00000000000E+00 -0.65101948788E+03  0.38360063369E+04  0.37803595389E+04 0.  0.
        2    1    3    3  502    0  0.12508043348E+04 -0.58076365950E+03  0.98618279982E+03  0.16953921160E+04  0.25500000920E-02 0. -1.
       -2    1    3    3    0  502 -0.12508043348E+04  0.58076365950E+03 -0.16372022877E+04  0.21406142210E+04  0.25500000920E-02 0.  1.
</event>
<event>
 5   0  0.5140842E-08  0.3799397E+04  0.7818609E-02  0.8046284E-01
        2   -1    0    0  501    0  0.00000000000E+00  0.00000000000E+00  0.21823556484E+04  0.21823556484E+04  0.25500000920E-02 0. -1.
       -2   -1    0    0    0  501  0.00000000000E+00  0.00000000000E+00 -0.16536512780E+04  0.16536512780E+04  0.25500000920E-02 0.  1.
    10030    2    1    2    0    0  0.00000000000E+00  0.00000000000E+00  0.52870437038E+03  0.38360069264E+04  0.37993974296E+04 0.  0.
        2    1    3    3  502    0  0.16195180612E+04  0.94080995486E+03 -0.56345156438E+02  0.18738027906E+04  0.25500000920E-02 0.  1.
       -2    1    3    3    0  502 -0.16195180612E+04 -0.94080995486E+03  0.58504952682E+03  0.19622041358E+04  0.25500000920E-02 0. -1.
</event>
<event>
 5   0  0.1628250E-08  0.3799873E+04  0.7818609E-02  0.8046182E-01
        1   -1    0    0  501    0  0.00000000000E+00  0.00000000000E+00  0.16370164367E+04  0.16370164367E+04  0.50400001928E-02 0.  1.
       -1   -1    0    0    0  501  0.00000000000E+00  0.00000000000E+00 -0.22050835229E+04  0.22050835230E+04  0.50400001928E-02 0. -1.
    10030    2    1    2    0    0  0.00000000000E+00  0.00000000000E+00 -0.56806708624E+03  0.38420999597E+04  0.37998726144E+04 0.  0.
        4    1    3    3  502    0  0.26627645308E+03  0.60778709559E+03 -0.20841120283E+04  0.21871974905E+04  0.12699999809E+01 0. -1.
       -4    1    3    3    0  502 -0.26627645308E+03 -0.60778709559E+03  0.15160449421E+04  0.16549024691E+04  0.12699999809E+01 0.  1.
</event>
<event>
 5   0  0.1628250E-08  0.3792506E+04  0.7818609E-02  0.8047765E-01
        1   -1    0    0  501    0  0.00000000000E+00  0.00000000000E+00  0.24881650785E+04  0.24881650785E+04  0.50400001928E-02 0.  1.
       -1   -1    0    0    0  501  0.00000000000E+00  0.00000000000E+00 -0.14451512873E+04  0.14451512873E+04  0.50400001928E-02 0. -1.
    10030    2    1    2    0    0  0.00000000000E+00  0.00000000000E+00  0.10430137912E+04  0.39333163657E+04  0.37925057501E+04 0.  0.
        5    1    3    3  502    0  0.40670843891E+02  0.36953365106E+03  0.24499927886E+04  0.24780427743E+04  0.46999998093E+01 0.  1.
       -5    1    3    3    0  502 -0.40670843891E+02 -0.36953365106E+03 -0.14069789974E+04  0.14552735915E+04  0.46999998093E+01 0. -1.
</event>
<event>
 5   0  0.1666051E-08  0.3802578E+04  0.7818609E-02  0.8045602E-01
       -1   -1    0    0    0  501  0.00000000000E+00  0.00000000000E+00  0.13050721285E+04  0.13050721286E+04  0.50400001928E-02 0. -1.
        1   -1    0    0  501    0  0.00000000000E+00  0.00000000000E+00 -0.27698851517E+04  0.27698851517E+04  0.50400001928E-02 0.  1.
    10030    2    1    2    0    0  0.00000000000E+00  0.00000000000E+00 -0.14648130231E+04  0.40749572802E+04  0.38025780259E+04 0.  0.
        2    1    3    3  502    0 -0.57338998435E+03  0.16747077751E+04 -0.14759956145E+04  0.23047744488E+04  0.25500000920E-02 0.  1.
       -2    1    3    3    0  502  0.57338998435E+03 -0.16747077751E+04  0.11182591335E+02  0.17701828314E+04  0.25500000920E-02 0. -1.
</event>
<event>
 5   0  0.5086209E-08  0.3805851E+04  0.7818609E-02  0.8044901E-01
       -2   -1    0    0    0  501  0.00000000000E+00  0.00000000000E+00  0.16131524429E+04  0.16131524430E+04  0.25500000920E-02 0. -1.
        2   -1    0    0  501    0  0.00000000000E+00  0.00000000000E+00 -0.22447505637E+04  0.22447505637E+04  0.25500000920E-02 0.  1.
    10030    2    1    2    0    0  0.00000000000E+00  0.00000000000E+00 -0.63159812074E+03  0.38579030066E+04  0.38058506832E+04 0.  0.
        3    1    3    3  502    0 -0.37718436660E+03  0.95911706439E+03 -0.19373498868E+04  0.21944243400E+04  0.10100000352E+00 0.  1.
       -3    1    3    3    0  502  0.37718436660E+03 -0.95911706439E+03  0.13057517661E+04  0.16634786667E+04  0.10100000352E+00 0. -1.
</event>
<event>
 5   0  0.1666051E-08  0.3794989E+04  0.7818609E-02  0.8047231E-01
       -1   -1    0    0    0  501  0.00000000000E+00  0.00000000000E+00  0.25138581279E+04  0.25138581279E+04  0.50400001928E-02 0.  1.
        1   -1    0    0  501    0  0.00000000000E+00  0.00000000000E+00 -0.14322549489E+04  0.14322549489E+04  0.50400001928E-02 0. -1.
    10030    2    1    2    0    0  0.00000000000E+00  0.00000000000E+00  0.10816031791E+04  0.39461130768E+04  0.37949891934E+04 0.  0.
        2    1    3    3  502    0 -0.72070728317E+03 -0.15669925543E+04  0.13632482304E+04  0.21984836572E+04  0.25500000920E-02 0.  1.
       -2    1    3    3    0  502  0.72070728317E+03  0.15669925543E+04 -0.28164505136E+03  0.17476294196E+04  0.25500000920E-02 0. -1.
</event>
<event>
 5   0  0.1628250E-08  0.3793512E+04  0.7818609E-02  0.8047549E-01
       -1   -1    0    0    0  501  0.00000000000E+00  0.00000000000E+00  0.28596077705E+04  0.28596077705E+04  0.50400001928E-02 0. -1.
        1   -1    0    0  501    0  0.00000000000E+00  0.00000000000E+00 -0.12581035468E+04  0.12581035468E+04  0.50400001928E-02 0.  1.
    10030    2    1    2    0    0  0.00000000000E+00  0.00000000000E+00  0.16015042237E+04  0.41177113173E+04  0.37935116599E+04 0.  0.
        1    1    3    3  502    0 -0.18768668973E+03  0.11703155304E+04  0.24081217514E+04  0.26840110103E+04  0.50400001928E-02 0. -1.
       -1    1    3    3    0  502  0.18768668973E+03 -0.11703155304E+04 -0.80661752765E+03  0.14337003070E+04  0.50400001928E-02 0.  1.
</event>
<event>
 5   0  0.5147582E-08  0.3795883E+04  0.7818609E-02  0.8047039E-01
       -2   -1    0    0    0  501  0.00000000000E+00  0.00000000000E+00  0.13288898936E+04  0.13288898936E+04  0.25500000920E-02 0.  1.
        2   -1    0    0  501    0  0.00000000000E+00  0.00000000000E+00 -0.27106695371E+04  0.27106695371E+04  0.25500000920E-02 0. -1.
    10030    2    1    2    0    0  0.00000000000E+00  0.00000000000E+00 -0.13817796435E+04  0.40395594307E+04  0.37958826919E+04 0.  0.
        1    1    3    3  502    0 -0.59160216805E+03  0.69919789599E+03 -0.24599233552E+04  0.26248988050E+04  0.50400001928E-02 0. -1.
       -1    1    3    3    0  502  0.59160216805E+03 -0.69919789599E+03  0.10781437116E+04  0.14146606257E+04  0.50400001928E-02 0.  1.
</event>
<event>
 5   0  0.1628250E-08  0.3799633E+04  0.7818609E-02  0.8046234E-01
       -3   -1    0    0    0  501  0.00000000000E+00  0.00000000000E+00  0.20897257243E+04  0.20897257268E+04  0.10100000352E+00 0.  1.
        3   -1    0    0  501    0  0.00000000000E+00  0.00000000000E+00 -0.17271658880E+04  0.17271658910E+04  0.10100000352E+00 0. -1.
    10030    2    1    2    0    0  0.00000000000E+00  0.00000000000E+00  0.36255983630E+03  0.38168916178E+04  0.37996331385E+04 0.  0.
        5    1    3    3  502    0  0.63104919661E+03  0.30500545771E+03  0.19550947035E+04  0.20769373624E+04  0.46999998093E+01 0.  1.
       -5    1    3    3    0  502 -0.63104919661E+03 -0.30500545771E+03 -0.15925348672E+04  0.17399542554E+04  0.46999998093E+01 0. -1.
</event>
<event>
 5   0  0.1628250E-08  0.3790289E+04  0.7818609E-02  0.8048242E-01
       -1   -1    0    0    0  501  0.00000000000E+00  0.00000000000E+00  0.17217108254E+04  0.17217108254E+04  0.50400001928E-02 0. -1.
        1   -1    0    0  501    0  0.00000000000E+00  0.00000000000E+00 -0.20860487940E+04  0.20860487940E+04  0.50400001928E-02 0.  1.
    10030    2    1    2    0    0  0.00000000000E+00  0.00000000000E+00 -0.36433796862E+03  0.38077596195E+04  0.37902890608E+04 0.  0.
        5    1    3    3  502    0 -0.10462325794E+04 -0.15486291937E+04 -0.49777577043E+03  0.19340780225E+04  0.46999998093E+01 0. -1.
       -5    1    3    3    0  502  0.10462325794E+04  0.15486291937E+04  0.13343780181E+03  0.18736815969E+04  0.46999998093E+01 0.  1.
</event>
<event>
 5   0  0.5140842E-08  0.3799114E+04  0.7818609E-02  0.8046345E-01
       -2   -1    0    0    0  501  0.00000000000E+00  0.00000000000E+00  0.20231353690E+04  0.20231353690E+04  0.25500000920E-02 0.  1.
        2   -1    0    0  501    0  0.00000000000E+00  0.00000000000E+00 -0.17835274625E+04  0.17835274625E+04  0.25500000920E-02 0. -1.
    10030    2    1    2    0    0  0.00000000000E+00  0.00000000000E+00  0.23960790657E+03  0.38066628315E+04  0.37991143657E+04 0.  0.
        2    1    3    3  502    0  0.68875972811E+03 -0.17701564433E+04  0.97996191804E+02  0.19019587404E+04  0.25500000920E-02 0. -1.
       -2    1    3    3    0  502 -0.68875972811E+03  0.17701564433E+04  0.14161171477E+03  0.19047040911E+04  0.25500000920E-02 0.  1.
</event>
<event>
 5   0  0.5140842E-08  0.3797377E+04  0.7818609E-02  0.8046718E-01
        2   -1    0    0  501    0  0.00000000000E+00  0.00000000000E+00  0.17003934825E+04  0.17003934825E+04  0.25500000920E-02 0.  1.
       -2   -1    0    0    0  501  0.00000000000E+00  0.00000000000E+00 -0.21201083118E+04  0.21201083118E+04  0.25500000920E-02 0. -1.
    10030    2    1    2    0    0  0.00000000000E+00  0.00000000000E+00 -0.41971482930E+03  0.38205017943E+04  0.37973771767E+04 0.  0.
        2    1    3    3  502    0  0.84610775362E+03 -0.13849434393E+04 -0.12012778066E+04  0.20191669147E+04  0.25500000920E-02 0. -1.
       -2    1    3    3    0  502 -0.84610775362E+03  0.13849434393E+04  0.78156297730E+03  0.18013348796E+04  0.25500000920E-02 0.  1.
</event>
<event>
 5   0  0.1628473E-08  0.3730479E+04  0.7818609E-02  0.8061241E-01
        1   -1    0    0  501    0  0.00000000000E+00  0.00000000000E+00  0.20051567709E+04  0.20051567710E+04  0.50400001928E-02 0.  1.
       -1   -1    0    0    0  501  0.00000000000E+00  0.00000000000E+00 -0.17350858867E+04  0.17350858867E+04  0.50400001928E-02 0. -1.
    10030    2    1    2    0    0  0.00000000000E+00  0.00000000000E+00  0.27007088423E+03  0.37402426577E+04  0.37304794405E+04 0.  0.
        3    1    3    3  502    0 -0.87330129731E+03 -0.14348802252E+04 -0.67800162608E+03  0.18114145389E+04  0.10100000352E+00 0. -1.
       -3    1    3    3    0  502  0.87330129731E+03  0.14348802252E+04  0.94807251031E+03  0.19288281187E+04  0.10100000352E+00 0.  1.
</event>
<event>
 5   0  0.5159761E-08  0.3797576E+04  0.7818609E-02  0.8046675E-01
       -2   -1    0    0    0  501  0.00000000000E+00  0.00000000000E+00  0.11883979259E+04  0.11883979259E+04  0.25500000920E-02 0.  1.
        2   -1    0    0  501    0  0.00000000000E+00  0.00000000000E+00 -0.30338287949E+04  0.30338287949E+04  0.25500000920E-02 0. -1.
    10030    2    1    2    0    0  0.00000000000E+00  0.00000000000E+00 -0.18454308690E+04  0.42222267208E+04  0.37975759887E+04 0.  0.
        5    1    3    3  502    0  0.15116267645E+03  0.55486488865E+03 -0.29346665566E+04  0.29904874332E+04  0.46999998093E+01 0. -1.
       -5    1    3    3    0  502 -0.15116267645E+03 -0.55486488865E+03  0.10892356877E+04  0.12317392876E+04  0.46999998093E+01 0.  1.
</event>
<event>
 5   0  0.1628250E-08  0.3801253E+04  0.7818609E-02  0.8045886E-01
        1   -1    0    0  501    0  0.00000000000E+00  0.00000000000E+00  0.28226825226E+04  0.28226825226E+04  0.50400001928E-02 0. -1.
       -1   -1    0    0    0  501  0.00000000000E+00  0.00000000000E+00 -0.12797686927E+04  0.12797686927E+04  0.50400001928E-02 0.  1.
    10030    2    1    2    0    0  0.00000000000E+00  0.00000000000E+00  0.15429138299E+04  0.41024512152E+04  0.38012528049E+04 0.  0.
        4    1    3    3  502    0  0.78016883525E+03 -0.16928876192E+04  0.11721535133E+04  0.22019258331E+04  0.12699999809E+01 0. -1.
       -4    1    3    3    0  502 -0.78016883525E+03  0.16928876192E+04  0.37076031654E+03  0.19005253821E+04  0.12699999809E+01 0.  1.
</event>
<event>
 5   0  0.5140842E-08  0.3809108E+04  0.7818609E-02  0.8044203E-01
       -2   -1    0    0    0  501  0.00000000000E+00  0.00000000000E+00  0.18421240784E+04  0.18421240784E+04  0.25500000920E-02 0. -1.
        2   -1    0    0  501    0  0.00000000000E+00  0.00000000000E+00 -0.19690998886E+04  0.19690998886E+04  0.25500000920E-02 0.  1.
    10030    2    1    2    0    0  0.00000000000E+00  0.00000000000E+00 -0.12697581019E+03  0.38112239670E+04  0.38091081988E+04 0.  0.
        2    1    3    3  502    0 -0.25808486773E+03 -0.71135059371E+03 -0.18122283825E+04  0.19638735133E+04  0.25500000920E-02 0.  1.
       -2    1    3    3    0  502  0.25808486773E+03  0.71135059371E+03  0.16852525723E+04  0.18473504536E+04  0.25500000920E-02 0. -1.
</event>
<event>
 5   0  0.1628250E-08  0.3797112E+04  0.7818609E-02  0.8046775E-01
       -1   -1    0    0    0  501  0.00000000000E+00  0.00000000000E+00  0.18278463381E+04  0.18278463381E+04  0.50400001928E-02 0. -1.
        1   -1    0    0  501    0  0.00000000000E+00  0.00000000000E+00 -0.19720006034E+04  0.19720006034E+04  0.50400001928E-02 0.  1.
    10030    2    1    2    0    0  0.00000000000E+00  0.00000000000E+00 -0.14415426523E+03  0.37998469415E+04  0.37971115768E+04 0.  0.
        5    1    3    3  502    0 -0.22929854885E+03  0.18641666509E+04 -0.34939923901E+03  0.19104442009E+04  0.46999998093E+01 0.  1.
       -5    1    3    3    0  502  0.22929854885E+03 -0.18641666509E+04  0.20524497378E+03  0.18894027405E+04  0.46999998093E+01 0. -1.
</event>
<event>
 5   0  0.1628250E-08  0.3783661E+04  0.7818609E-02  0.8049670E-01
       -3   -1    0    0    0  501  0.00000000000E+00  0.00000000000E+00  0.17471509933E+04  0.17471509962E+04  0.10100000352E+00 0.  1.
        3   -1    0    0  501    0  0.00000000000E+00  0.00000000000E+00 -0.20484912519E+04  0.20484912544E+04  0.10100000352E+00 0. -1.
    10030    2    1    2    0    0  0.00000000000E+00  0.00000000000E+00 -0.30134025856E+03  0.37956422506E+04  0.37836614731E+04 0.  0.
        5    1    3    3  502    0  0.11415238032E+04 -0.14851739103E+04  0.11509005615E+03  0.18767221287E+04  0.46999998093E+01 0. -1.
       -5    1    3    3    0  502 -0.11415238032E+04  0.14851739103E+04 -0.41643031471E+03  0.19189201219E+04  0.46999998093E+01 0.  1.
</event>
<event>
 5   0  0.1666051E-08  0.3799741E+04  0.7818609E-02  0.8046211E-01
        1   -1    0    0  501    0  0.00000000000E+00  0.00000000000E+00  0.24945799139E+04  0.24945799139E+04  0.50400001928E-02 0. -1.
       -1   -1    0    0    0  501  0.00000000000E+00  0.00000000000E+00 -0.14469399375E+04  0.14469399375E+04  0.50400001928E-02 0.  1.
    10030    2    1    2    0    0  0.00000000000E+00  0.00000000000E+00  0.10476399764E+04  0.39415198514E+04  0.37997406778E+04 0.  0.
        2    1    3    3  502    0 -0.16580928229E+04  0.46292364417E+03  0.13575105918E+04  0.21923515039E+04  0.25500000920E-02 0. -1.
       -2    1    3    3    0  502  0.16580928229E+04 -0.46292364417E+03 -0.30987061543E+03  0.17491683475E+04  0.25500000920E-02 0.  1.
</event>
<event>
 5   0  0.1628250E-08  0.3800607E+04  0.7818609E-02  0.8046025E-01
       -1   -1    0    0    0  501  0.00000000000E+00  0.00000000000E+00  0.13237810509E+04  0.13237810509E+04  0.50400001928E-02 0.  1.
        1   -1    0    0  501    0  0.00000000000E+00  0.00000000000E+00 -0.27279079119E+04  0.27279079119E+04  0.50400001928E-02 0. -1.
    10030    2    1    2    0    0  0.00000000000E+00  0.00000000000E+00 -0.14041268610E+04  0.40516889628E+04  0.38006066897E+04 0.  0.
        5    1    3    3  502    0 -0.13830745754E+04 -0.11128880896E+04 -0.14248794319E+04  0.22763388734E+04  0.46999998093E+01 0. -1.
       -5    1    3    3    0  502  0.13830745754E+04  0.11128880896E+04  0.20752570949E+02  0.17753500894E+04  0.46999998093E+01 0.  1.
</event>
<event>
 5   0  0.5140842E-08  0.3800131E+04  0.7818609E-02  0.8046127E-01
       -2   -1    0    0    0  501  0.00000000000E+00  0.00000000000E+00  0.16078359546E+04  0.16078359546E+04  0.25500000920E-02 0.  1.
        2   -1    0    0  501    0  0.00000000000E+00  0.00000000000E+00 -0.22454081805E+04  0.22454081805E+04  0.25500000920E-02 0. -1.
    10030    2    1    2    0    0  0.00000000000E+00  0.00000000000E+00 -0.63757222587E+03  0.38532441352E+04  0.38001305270E+04 0.  0.
        2    1    3    3  502    0  0.10694749448E+04  0.11699257040E+04 -0.13811634177E+04  0.21024070008E+04  0.25500000920E-02 0. -1.
       -2    1    3    3    0  502 -0.10694749448E+04 -0.11699257040E+04  0.74359119186E+03  0.17508371344E+04  0.25500000920E-02 0.  1.
</event>
<event>
 5   0  0.5140842E-08  0.3799565E+04  0.7818609E-02  0.8046248E-01
        2   -1    0    0  501    0  0.00000000000E+00  0.00000000000E+00  0.13083814063E+04  0.13083814063E+04  0.25500000920E-02 0. -1.
       -2   -1    0    0    0  501  0.00000000000E+00  0.00000000000E+00 -0.27585024778E+04  0.27585024778E+04  0.25500000920E-02 0.  1.
    10030    2    1    2    0    0  0.00000000000E+00  0.00000000000E+00 -0.14501210715E+04  0.40668838841E+04  0.37995648968E+04 0.  0.
        2    1    3    3  502    0 -0.19174768555E+03  0.34368014066E+03  0.12642716646E+04  0.13241095332E+04  0.25500000920E-02 0. -1.
       -2    1    3    3    0  502  0.19174768555E+03 -0.34368014066E+03 -0.27143927361E+04  0.27427743509E+04  0.25500000920E-02 0.  1.
</event>
<event>
 5   0  0.1628250E-08  0.3805575E+04  0.7818609E-02  0.8044960E-01
       -1   -1    0    0    0  501  0.00000000000E+00  0.00000000000E+00  0.18008831315E+04  0.18008831315E+04  0.50400001928E-02 0. -1.
        1   -1    0    0  501    0  0.00000000000E+00  0.00000000000E+00 -0.20104577161E+04  0.20104577161E+04  0.50400001928E-02 0.  1.
    10030    2    1    2    0    0  0.00000000000E+00  0.00000000000E+00 -0.20957458461E+03  0.38113408477E+04  0.38055745362E+04 0.  0.
        4    1    3    3  502    0  0.53129227178E+03 -0.46830132340E+02  0.17244887659E+04  0.18050838362E+04  0.12699999809E+01 0. -1.
       -4    1    3    3    0  502 -0.53129227178E+03  0.46830132340E+02 -0.19340633505E+04  0.20062570114E+04  0.12699999809E+01 0.  1.
</event>
<event>
 5   0  0.5207474E-08  0.3798959E+04  0.7818609E-02  0.8046378E-01
        2   -1    0    0  501    0  0.00000000000E+00  0.00000000000E+00  0.21128578245E+04  0.21128578245E+04  0.25500000920E-02 0.  1.
       -2   -1    0    0    0  501  0.00000000000E+00  0.00000000000E+00 -0.17076502862E+04  0.17076502862E+04  0.25500000920E-02 0. -1.
    10030    2    1    2    0    0  0.00000000000E+00  0.00000000000E+00  0.40520753833E+03  0.38205081107E+04  0.37989589462E+04 0.  0.
        4    1    3    3  502    0  0.14457074284E+04  0.83501533293E+03 -0.70845997413E+03  0.18136255740E+04  0.12699999809E+01 0. -1.
       -4    1    3    3    0  502 -0.14457074284E+04 -0.83501533293E+03  0.11136675125E+04  0.20068825367E+04  0.12699999809E+01 0.  1.
</event>
<event>
 5   0  0.1628250E-08  0.3794028E+04  0.7818609E-02  0.8047438E-01
        3   -1    0    0  501    0  0.00000000000E+00  0.00000000000E+00  0.19355572809E+04  0.19355572836E+04  0.10100000352E+00 0. -1.
       -3   -1    0    0    0  501  0.00000000000E+00  0.00000000000E+00 -0.18592379514E+04  0.18592379542E+04  0.10100000352E+00 0.  1.
    10030    2    1    2    0    0  0.00000000000E+00  0.00000000000E+00  0.76319329481E+02  0.37947952377E+04  0.37940277090E+04 0.  0.
        5    1    3    3  502    0 -0.41829618108E+03 -0.82097367084E+03 -0.16203886871E+04  0.18640415904E+04  0.46999998093E+01 0.  1.
       -5    1    3    3    0  502  0.41829618108E+03  0.82097367084E+03  0.16967080166E+04  0.19307536474E+04  0.46999998093E+01 0. -1.
</event>
<event>
 5   0  0.1628250E-08  0.3807438E+04  0.7818609E-02  0.8044561E-01
        1   -1    0    0  501    0  0.00000000000E+00  0.00000000000E+00  0.23077166932E+04  0.23077166932E+04  0.50400001928E-02 0. -1.
       -1   -1    0    0    0  501  0.00000000000E+00  0.00000000000E+00 -0.15704465034E+04  0.15704465034E+04  0.50400001928E-02 0.  1.
    10030    2    1    2    0    0  0.00000000000E+00  0.00000000000E+00  0.73727018980E+03  0.38781631965E+04  0.38074377797E+04 0.  0.
        5    1    3    3  502    0  0.40429283295E+03  0.28649830432E+02 -0.15259839644E+04  0.15788991916E+04  0.46999998093E+01 0.  1.
       -5    1    3    3    0  502 -0.40429283295E+03 -0.28649830432E+02  0.22632541542E+04  0.22992640049E+04  0.46999998093E+01 0. -1.
</event>
<event>
 5   0  0.5140842E-08  0.3800623E+04  0.7818609E-02  0.8046021E-01
       -2   -1    0    0    0  501  0.00000000000E+00  0.00000000000E+00  0.18961247646E+04  0.18961247646E+04  0.25500000920E-02 0. -1.
        2   -1    0    0  501    0  0.00000000000E+00  0.00000000000E+00 -0.19045069940E+04  0.19045069940E+04  0.25500000920E-02 0.  1.
    10030    2    1    2    0    0  0.00000000000E+00  0.00000000000E+00 -0.83822294326E+01  0.38006317587E+04  0.38006225152E+04 0.  0.
        2    1    3    3  502    0  0.14097856837E+04  0.29405843313E+03  0.12356573909E+04  0.18975814143E+04  0.25500000920E-02 0. -1.
       -2    1    3    3    0  502 -0.14097856837E+04 -0.29405843313E+03 -0.12440396204E+04  0.19030503444E+04  0.25500000920E-02 0.  1.
</event>
<event>
 5   0  0.1628250E-08  0.3794451E+04  0.7818609E-02  0.8047347E-01
       -1   -1    0    0    0  501  0.00000000000E+00  0.00000000000E+00  0.16268524209E+04  0.16268524209E+04  0.50400001928E-02 0.  1.
        1   -1    0    0  501    0  0.00000000000E+00  0.00000000000E+00 -0.22125324007E+04  0.22125324007E+04  0.50400001928E-02 0. -1.
    10030    2    1    2    0    0  0.00000000000E+00  0.00000000000E+00 -0.58567997979E+03  0.38393848216E+04  0.37944505227E+04 0.  0.
        1    1    3    3  502    0  0.97648031183E+03 -0.15863149299E+04  0.71359693356E+02  0.18641354731E+04  0.50400001928E-02 0. -1.
       -1    1    3    3    0  502 -0.97648031183E+03  0.15863149299E+04 -0.65703967314E+03  0.19752493484E+04  0.50400001928E-02 0.  1.
</event>
<event>
 5   0  0.5140842E-08  0.3796877E+04  0.7818609E-02  0.8046825E-01
       -2   -1    0    0    0  501  0.00000000000E+00  0.00000000000E+00  0.13381602376E+04  0.13381602376E+04  0.25500000920E-02 0.  1.
        2   -1    0    0  501    0  0.00000000000E+00  0.00000000000E+00 -0.26933010115E+04  0.26933010115E+04  0.25500000920E-02 0. -1.
    10030    2    1    2    0    0  0.00000000000E+00  0.00000000000E+00 -0.13551407739E+04  0.40314612490E+04  0.37968767804E+04 0.  0.
        2    1    3    3  502    0  0.15080484570E+01 -0.16167956110E+04 -0.17340519400E+04  0.23708577462E+04  0.25500000920E-02 0. -1.
       -2    1    3    3    0  502 -0.15080484570E+01  0.16167956110E+04  0.37891116611E+03  0.16606035028E+04  0.25500000920E-02 0.  1.
</event>
<event>
 5   0  0.5140842E-08  0.3800598E+04  0.7818609E-02  0.8046027E-01
       -2   -1    0    0    0  501  0.00000000000E+00  0.00000000000E+00  0.16289206325E+04  0.16289206325E+04  0.25500000920E-02 0. -1.
        2   -1    0    0  501    0  0.00000000000E+00  0.00000000000E+00 -0.22168887026E+04  0.22168887026E+04  0.25500000920E-02 0.  1.
    10030    2    1    2    0    0  0.00000000000E+00  0.00000000000E+00 -0.58796807016E+03  0.38458093351E+04  0.38005977149E+04 0.  0.
        2    1    3    3  502    0  0.10179905665E+04  0.79163552924E+03 -0.17063472244E+04  0.21388343683E+04  0.25500000920E-02 0.  1.
       -2    1    3    3    0  502 -0.10179905665E+04 -0.79163552924E+03  0.11183791543E+04  0.17069749668E+04  0.25500000920E-02 0. -1.
</event>
<event>
 5   0  0.1628473E-08  0.3760949E+04  0.7818609E-02  0.8054587E-01
       -1   -1    0    0    0  501  0.00000000000E+00  0.00000000000E+00  0.30528644002E+04  0.30528644002E+04  0.50400001928E-02 0.  1.
        1   -1    0    0  501    0  0.00000000000E+00  0.00000000000E+00 -0.11583168818E+04  0.11583168818E+04  0.50400001928E-02 0. -1.
    10030    2    1    2    0    0  0.00000000000E+00  0.00000000000E+00  0.18945475184E+04  0.42111812821E+04  0.37609490146E+04 0.  0.
        3    1    3    3  502    0 -0.18449984613E+04  0.30010098934E+03  0.71751587672E+03  0.20022260037E+04  0.10100000352E+00 0. -1.
       -3    1    3    3    0  502  0.18449984613E+04 -0.30010098934E+03  0.11770316417E+04  0.22089552784E+04  0.10100000352E+00 0.  1.
</event>
<event>
 5   0  0.1628250E-08  0.3802261E+04  0.7818609E-02  0.8045670E-01
       -1   -1    0    0    0  501  0.00000000000E+00  0.00000000000E+00  0.19246114310E+04  0.19246114310E+04  0.50400001928E-02 0. -1.
        1   -1    0    0  501    0  0.00000000000E+00  0.00000000000E+00 -0.18779356418E+04  0.18779356418E+04  0.50400001928E-02 0.  1.
    10030    2    1    2    0    0  0.00000000000E+00  0.00000000000E+00  0.46675789161E+02  0.38025470728E+04  0.38022605923E+04 0.  0.
        1    1    3    3  502    0 -0.14663492313E+03  0.79172157819E+03 -0.16989914882E+04  0.18801321589E+04  0.50400001928E-02 0.  1.
       -1    1    3    3    0  502  0.14663492313E+03 -0.79172157819E+03  0.17456672773E+04  0.19224149139E+04  0.50400001928E-02 0. -1.
</event>
<event>
 5   0  0.1628473E-08  0.3822730E+04  0.7818609E-02  0.8041295E-01
        1   -1    0    0  501    0  0.00000000000E+00  0.00000000000E+00  0.22738306946E+04  0.22738306946E+04  0.50400001928E-02 0.  1.
       -1   -1    0    0    0  501  0.00000000000E+00  0.00000000000E+00 -0.16066793393E+04  0.16066793393E+04  0.50400001928E-02 0. -1.
    10030    2    1    2    0    0  0.00000000000E+00  0.00000000000E+00  0.66715135525E+03  0.38805100339E+04  0.38227303322E+04 0.  0.
        3    1    3    3  502    0 -0.13638094557E+04 -0.27060480888E+03 -0.99777882748E+03  0.17113637231E+04  0.10100000352E+00 0. -1.
       -3    1    3    3    0  502  0.13638094557E+04  0.27060480888E+03  0.16649301827E+04  0.21691463108E+04  0.10100000352E+00 0.  1.
</event>
<event>
 5   0  0.1628250E-08  0.3804120E+04  0.7818609E-02  0.8045271E-01
       -1   -1    0    0    0  501  0.00000000000E+00  0.00000000000E+00  0.31560383784E+04  0.31560383784E+04  0.50400001928E-02 0. -1.
        1   -1    0    0  501    0  0.00000000000E+00  0.00000000000E+00 -0.11463205076E+04  0.11463205076E+04  0.50400001928E-02 0.  1.
    10030    2    1    2    0    0  0.00000000000E+00  0.00000000000E+00  0.20097178708E+04  0.43023588860E+04  0.38041196174E+04 0.  0.
        4    1    3    3  502    0  0.11256663363E+04  0.12166722312E+04  0.20600117826E+04  0.26440624380E+04  0.12699999809E+01 0. -1.
       -4    1    3    3    0  502 -0.11256663363E+04 -0.12166722312E+04 -0.50293911752E+02  0.16582964480E+04  0.12699999809E+01 0.  1.
</event>
<event>
 5   0  0.1628250E-08  0.3764798E+04  0.7818609E-02  0.8053752E-01
       -1   -1    0    0    0  501  0.00000000000E+00  0.00000000000E+00  0.19455945697E+04  0.19455945697E+04  0.50400001928E-02 0. -1.
        1   -1    0    0  501    0  0.00000000000E+00  0.00000000000E+00 -0.18212561405E+04  0.18212561405E+04  0.50400001928E-02 0.  1.
    10030    2    1    2    0    0  0.00000000000E+00  0.00000000000E+00  0.12433842922E+03  0.37668507102E+04  0.37647980329E+04 0.  0.
        4    1    3    3  502    0  0.97370153223E+03 -0.16024989810E+04 -0.10322907105E+03  0.18779657910E+04  0.12699999809E+01 0. -1.
       -4    1    3    3    0  502 -0.97370153223E+03  0.16024989810E+04  0.22756750027E+03  0.18888849192E+04  0.12699999809E+01 0.  1.
</event>
<event>
 5   0  0.5147582E-08  0.3802219E+04  0.7818609E-02  0.8045679E-01
       -2   -1    0    0    0  501  0.00000000000E+00  0.00000000000E+00  0.23029253532E+04  0.23029253532E+04  0.25500000920E-02 0.  1.
        2   -1    0    0  501    0  0.00000000000E+00  0.00000000000E+00 -0.15694028394E+04  0.15694028394E+04  0.25500000920E-02 0. -1.
    10030    2    1    2    0    0  0.00000000000E+00  0.00000000000E+00  0.73352251374E+03  0.38723281926E+04  0.38022191354E+04 0.  0.
        1    1    3    3  502    0 -0.27156123680E+03  0.31918700795E+03  0.22552974942E+04  0.22939033630E+04  0.50400001928E-02 0.  1.
       -1    1    3    3    0  502  0.27156123680E+03 -0.31918700795E+03 -0.15217749805E+04  0.15784248296E+04  0.50400001928E-02 0. -1.
</event>
<event>
 5   0  0.5086209E-08  0.3795266E+04  0.7818609E-02  0.8047171E-01
       -2   -1    0    0    0  501  0.00000000000E+00  0.00000000000E+00  0.17424790468E+04  0.17424790468E+04  0.25500000920E-02 0. -1.
        2   -1    0    0  501    0  0.00000000000E+00  0.00000000000E+00 -0.20666025123E+04  0.20666025123E+04  0.25500000920E-02 0.  1.
    10030    2    1    2    0    0  0.00000000000E+00  0.00000000000E+00 -0.32412346551E+03  0.38090815592E+04  0.37952663021E+04 0.  0.
        3    1    3    3  502    0  0.18864081565E+04 -0.17824400750E+03 -0.58220589849E+02  0.18957046991E+04  0.10100000352E+00 0. -1.
       -3    1    3    3    0  502 -0.18864081565E+04  0.17824400750E+03 -0.26590287566E+03  0.19133768600E+04  0.10100000352E+00 0.  1.
</event>
<event>
 5   0  0.1628250E-08  0.3792839E+04  0.7818609E-02  0.8047693E-01
       -3   -1    0    0    0  501  0.00000000000E+00  0.00000000000E+00  0.22795693733E+04  0.22795693756E+04  0.10100000352E+00 0. -1.
        3   -1    0    0  501    0  0.00000000000E+00  0.00000000000E+00 -0.15776691111E+04  0.15776691144E+04  0.10100000352E+00 0.  1.
    10030    2    1    2    0    0  0.00000000000E+00  0.00000000000E+00  0.70190026220E+03  0.38572384900E+04  0.37928386191E+04 0.  0.
        5    1    3    3  502    0  0.81081005796E+02  0.70956354658E+03 -0.14356743312E+04  0.16035078520E+04  0.46999998093E+01 0.  1.
       -5    1    3    3    0  502 -0.81081005796E+02 -0.70956354658E+03  0.21375745934E+04  0.22537306380E+04  0.46999998093E+01 0. -1.
</event>
<event>
 5   0  0.5140842E-08  0.3879504E+04  0.7818609E-02  0.8029305E-01
        2   -1    0    0  501    0  0.00000000000E+00  0.00000000000E+00  0.16912655554E+04  0.16912655554E+04  0.25500000920E-02 0.  1.
       -2   -1    0    0    0  501  0.00000000000E+00  0.00000000000E+00 -0.22247474601E+04  0.22247474601E+04  0.25500000920E-02 0. -1.
    10030    2    1    2    0    0  0.00000000000E+00  0.00000000000E+00 -0.53348190467E+03  0.39160130156E+04  0.38795044781E+04 0.  0.
        2    1    3    3  502    0 -0.14290191471E+04  0.24242426192E+03  0.10344881986E+04  0.17807389136E+04  0.25500000920E-02 0.  1.
       -2    1    3    3    0  502  0.14290191471E+04 -0.24242426192E+03 -0.15679701033E+04  0.21352741019E+04  0.25500000920E-02 0. -1.
</event>
<event>
 5   0  0.5207474E-08  0.3804533E+04  0.7818609E-02  0.8045183E-01
        2   -1    0    0  501    0  0.00000000000E+00  0.00000000000E+00  0.16665057919E+04  0.16665057919E+04  0.25500000920E-02 0.  1.
       -2   -1    0    0    0  501  0.00000000000E+00  0.00000000000E+00 -0.21713805046E+04  0.21713805046E+04  0.25500000920E-02 0. -1.
    10030    2    1    2    0    0  0.00000000000E+00  0.00000000000E+00 -0.50487471270E+03  0.38378862965E+04  0.38045331842E+04 0.  0.
        4    1    3    3  502    0 -0.16067244858E+04 -0.87551525248E+03  0.27224355991E+03  0.18499212684E+04  0.12699999809E+01 0.  1.
       -4    1    3    3    0  502  0.16067244858E+04  0.87551525248E+03 -0.77711827261E+03  0.19879650281E+04  0.12699999809E+01 0. -1.
</event>
<event>
 5   0  0.1628250E-08  0.3786806E+04  0.7818609E-02  0.8048992E-01
       -1   -1    0    0    0  501  0.00000000000E+00  0.00000000000E+00  0.12884124526E+04  0.12884124526E+04  0.50400001928E-02 0. -1.
        1   -1    0    0  501    0  0.00000000000E+00  0.00000000000E+00 -0.27824747897E+04  0.27824747897E+04  0.50400001928E-02 0.  1.
    10030    2    1    2    0    0  0.00000000000E+00  0.00000000000E+00 -0.14940623371E+04  0.40708872423E+04  0.37868061308E+04 0.  0.
        4    1    3    3  502    0  0.16233951051E+04  0.76278766022E+03 -0.95143477032E+02  0.17961933570E+04  0.12699999809E+01 0. -1.
       -4    1    3    3    0  502 -0.16233951051E+04 -0.76278766022E+03 -0.13989188601E+04  0.22746938853E+04  0.12699999809E+01 0.  1.
</event>
<event>
 5   0  0.5159761E-08  0.3803502E+04  0.7818609E-02  0.8045404E-01
        2   -1    0    0  501    0  0.00000000000E+00  0.00000000000E+00  0.27886805720E+04  0.27886805720E+04  0.25500000920E-02 0. -1.
       -2   -1    0    0    0  501  0.00000000000E+00  0.00000000000E+00 -0.12969064368E+04  0.12969064368E+04  0.25500000920E-02 0.  1.
    10030    2    1    2    0    0  0.00000000000E+00  0.00000000000E+00  0.14917741352E+04  0.40855870087E+04  0.38035024827E+04 0.  0.
        5    1    3    3  502    0  0.84799855687E+03 -0.11817266927E+03  0.25699338008E+04  0.27088093626E+04  0.46999998093E+01 0. -1.
       -5    1    3    3    0  502 -0.84799855687E+03  0.11817266927E+03 -0.10781596657E+04  0.13767776461E+04  0.46999998093E+01 0.  1.
</event>
<event>
 5   0  0.5147582E-08  0.3813923E+04  0.7818609E-02  0.8043174E-01
        2   -1    0    0  501    0  0.00000000000E+00  0.00000000000E+00  0.24405279933E+04  0.24405279933E+04  0.25500000920E-02 0.  1.
       -2   -1    0    0    0  501  0.00000000000E+00  0.00000000000E+00 -0.14900470774E+04  0.14900470774E+04  0.25500000920E-02 0. -1.
    10030    2    1    2    0    0  0.00000000000E+00  0.00000000000E+00  0.95048091592E+03  0.39305750707E+04  0.38139227070E+04 0.  0.
        1    1    3    3  502    0  0.11688772509E+03 -0.10305794837E+04  0.21244177907E+04  0.23640870885E+04  0.50400001928E-02 0.  1.
       -1    1    3    3    0  502 -0.11688772509E+03  0.10305794837E+04 -0.11739368747E+04  0.15664879822E+04  0.50400001928E-02 0. -1.
</event>
<event>
 5   0  0.1628250E-08  0.3814567E+04  0.7818609E-02  0.8043036E-01
        1   -1    0    0  501    0  0.00000000000E+00  0.00000000000E+00  0.24738115280E+04  0.24738115280E+04  0.50400001928E-02 0.  1.
       -1   -1    0    0    0  501  0.00000000000E+00  0.00000000000E+00 -0.14704957769E+04  0.14704957769E+04  0.50400001928E-02 0. -1.
    10030    2    1    2    0    0  0.00000000000E+00  0.00000000000E+00  0.10033157511E+04  0.39443073049E+04  0.38145665047E+04 0.  0.
        4    1    3    3  502    0  0.37905575572E+03 -0.12133264744E+04 -0.96863416257E+03  0.15981546086E+04  0.12699999809E+01 0. -1.
       -4    1    3    3    0  502 -0.37905575572E+03  0.12133264744E+04  0.19719499137E+04  0.23461526963E+04  0.12699999809E+01 0.  1.
</event>
<event>
 5   0  0.1628473E-08  0.3813206E+04  0.7818609E-02  0.8043327E-01
        1   -1    0    0  501    0  0.00000000000E+00  0.00000000000E+00  0.20578510419E+04  0.20578510419E+04  0.50400001928E-02 0.  1.
       -1   -1    0    0    0  501  0.00000000000E+00  0.00000000000E+00 -0.17664713055E+04  0.17664713055E+04  0.50400001928E-02 0. -1.
    10030    2    1    2    0    0  0.00000000000E+00  0.00000000000E+00  0.29137973636E+03  0.38243223474E+04  0.38132059039E+04 0.  0.
        3    1    3    3  502    0  0.10707108210E+04 -0.64267557176E+03  0.15906124087E+04  0.20222515663E+04  0.10100000352E+00 0.  1.
       -3    1    3    3    0  502 -0.10707108210E+04  0.64267557176E+03 -0.12992326723E+04  0.18020707810E+04  0.10100000352E+00 0. -1.
</event>
<event>
 5   0  0.5207474E-08  0.3801791E+04  0.7818609E-02  0.8045771E-01
       -2   -1    0    0    0  501  0.00000000000E+00  0.00000000000E+00  0.15161200757E+04  0.15161200757E+04  0.25500000920E-02 0. -1.
        2   -1    0    0  501    0  0.00000000000E+00  0.00000000000E+00 -0.23833229774E+04  0.23833229774E+04  0.25500000920E-02 0.  1.
    10030    2    1    2    0    0  0.00000000000E+00  0.00000000000E+00 -0.86720290168E+03  0.38994430532E+04  0.38017910584E+04 0.  0.
        4    1    3    3  502    0 -0.22519721970E+03  0.60044960579E+03  0.14018169616E+04  0.15415401142E+04  0.12699999809E+01 0. -1.
       -4    1    3    3    0  502  0.22519721970E+03 -0.60044960579E+03 -0.22690198633E+04  0.23579029390E+04  0.12699999809E+01 0.  1.
</event>
<event>
 5   0  0.5086209E-08  0.3796952E+04  0.7818609E-02  0.8046809E-01
        2   -1    0    0  501    0  0.00000000000E+00  0.00000000000E+00  0.21458525711E+04  0.21458525711E+04  0.25500000920E-02 0.  1.
       -2   -1    0    0    0  501  0.00000000000E+00  0.00000000000E+00 -0.16796170456E+04  0.16796170456E+04  0.25500000920E-02 0. -1.
    10030    2    1    2    0    0  0.00000000000E+00  0.00000000000E+00  0.46623552547E+03  0.38254696167E+04  0.37969517014E+04 0.  0.
        3    1    3    3  502    0 -0.94026661224E+03 -0.45514580645E+03 -0.13640176560E+04  0.17180812505E+04  0.10100000352E+00 0. -1.
       -3    1    3    3    0  502  0.94026661224E+03  0.45514580645E+03  0.18302531815E+04  0.21073883662E+04  0.10100000352E+00 0.  1.
</event>
<event>
 5   0  0.5140842E-08  0.3799592E+04  0.7818609E-02  0.8046242E-01
        2   -1    0    0  501    0  0.00000000000E+00  0.00000000000E+00  0.25269779923E+04  0.25269779923E+04  0.25500000920E-02 0.  1.
       -2   -1    0    0    0  501  0.00000000000E+00  0.00000000000E+00 -0.14282772484E+04  0.14282772484E+04  0.25500000920E-02 0. -1.
    10030    2    1    2    0    0  0.00000000000E+00  0.00000000000E+00  0.10987007439E+04  0.39552552408E+04  0.37995921748E+04 0.  0.
        2    1    3    3  502    0 -0.43714900792E+03  0.67456900479E+03  0.23412323743E+04  0.24753811076E+04  0.25500000920E-02 0.  1.
       -2    1    3    3    0  502  0.43714900792E+03 -0.67456900479E+03 -0.12425316304E+04  0.14798741332E+04  0.25500000920E-02 0. -1.
</event>
<event>
 5   0  0.5140842E-08  0.3797505E+04  0.7818609E-02  0.8046690E-01
       -2   -1    0    0    0  501  0.00000000000E+00  0.00000000000E+00  0.32034801223E+04  0.32034801223E+04  0.25500000920E-02 0.  1.
        2   -1    0    0  501    0  0.00000000000E+00  0.00000000000E+00 -0.11254204222E+04  0.11254204222E+04  0.25500000920E-02 0. -1.
    10030    2    1    2    0    0  0.00000000000E+00  0.00000000000E+00  0.20780597000E+04  0.43289005445E+04  0.37975054717E+04 0.  0.
        2    1    3    3  502    0  0.76828524095E+03 -0.12336531029E+04  0.24319416354E+04  0.28331082414E+04  0.25500000920E-02 0.  1.
       -2    1    3    3    0  502 -0.76828524095E+03  0.12336531029E+04 -0.35388193533E+03  0.14957923031E+04  0.25500000920E-02 0. -1.
</event>
<event>
 5   0  0.5207474E-08  0.3793825E+04  0.7818609E-02  0.8047481E-01
        2   -1    0    0  501    0  0.00000000000E+00  0.00000000000E+00  0.19833090206E+04  0.19833090206E+04  0.25500000920E-02 0. -1.
       -2   -1    0    0    0  501  0.00000000000E+00  0.00000000000E+00 -0.18142800328E+04  0.18142800329E+04  0.25500000920E-02 0.  1.
    10030    2    1    2    0    0  0.00000000000E+00  0.00000000000E+00  0.16902898773E+03  0.37975890534E+04  0.37938254862E+04 0.  0.
        4    1    3    3  502    0  0.10150314432E+04  0.94826551242E+03 -0.12085797071E+04  0.18412394830E+04  0.12699999809E+01 0.  1.
       -4    1    3    3    0  502 -0.10150314432E+04 -0.94826551242E+03  0.13776086948E+04  0.19563495704E+04  0.12699999809E+01 0. -1.
</event>
<event>
 5   0  0.5159761E-08  0.3798421E+04  0.7818609E-02  0.8046494E-01
        2   -1    0    0  501    0  0.00000000000E+00  0.00000000000E+00  0.26698804242E+04  0.26698804242E+04  0.25500000920E-02 0.  1.
       -2   -1    0    0    0  501  0.00000000000E+00  0.00000000000E+00 -0.13509972917E+04  0.13509972917E+04  0.25500000920E-02 0. -1.
    10030    2    1    2    0    0  0.00000000000E+00  0.00000000000E+00  0.13188831325E+04  0.40208777159E+04  0.37984213680E+04 0.  0.
        5    1    3    3  502    0  0.82139205749E+01 -0.98237419299E+03  0.23800102625E+04  0.25748004705E+04  0.46999998093E+01 0.  1.
       -5    1    3    3    0  502 -0.82139205749E+01  0.98237419299E+03 -0.10611271300E+04  0.14460772454E+04  0.46999998093E+01 0. -1.
</event>
<event>
 5   0  0.5159761E-08  0.3798571E+04  0.7818609E-02  0.8046462E-01
        2   -1    0    0  501    0  0.00000000000E+00  0.00000000000E+00  0.29141591476E+04  0.29141591476E+04  0.25500000920E-02 0. -1.
       -2   -1    0    0    0  501  0.00000000000E+00  0.00000000000E+00 -0.12378476019E+04  0.12378476019E+04  0.25500000920E-02 0.  1.
    10030    2    1    2    0    0  0.00000000000E+00  0.00000000000E+00  0.16763115457E+04  0.41520067495E+04  0.37985707377E+04 0.  0.
        5    1    3    3  502    0 -0.62420776328E+03  0.15674231558E+03 -0.11150199929E+04  0.12874374392E+04  0.46999998093E+01 0.  1.
       -5    1    3    3    0  502  0.62420776328E+03 -0.15674231558E+03  0.27913315386E+04  0.28645693103E+04  0.46999998093E+01 0. -1.
</event>
<event>
 5   0  0.5086209E-08  0.3760579E+04  0.7818609E-02  0.8054668E-01
       -2   -1    0    0    0  501  0.00000000000E+00  0.00000000000E+00  0.19551622561E+04  0.19551622561E+04  0.25500000920E-02 0.  1.
        2   -1    0    0  501    0  0.00000000000E+00  0.00000000000E+00 -0.18082843218E+04  0.18082843218E+04  0.25500000920E-02 0. -1.
    10030    2    1    2    0    0  0.00000000000E+00  0.00000000000E+00  0.14687793430E+03  0.37634465779E+04  0.37605793460E+04 0.  0.
        3    1    3    3  502    0  0.16282249061E+04 -0.79755591326E+03  0.57209336095E+03  0.19011845264E+04  0.10100000352E+00 0. -1.
       -3    1    3    3    0  502 -0.16282249061E+04  0.79755591326E+03 -0.42521542666E+03  0.18622620516E+04  0.10100000352E+00 0.  1.
</event>
<event>
 5   0  0.1628250E-08  0.3806292E+04  0.7818609E-02  0.8044806E-01
        1   -1    0    0  501    0  0.00000000000E+00  0.00000000000E+00  0.25922401806E+04  0.25922401806E+04  0.50400001928E-02 0. -1.
       -1   -1    0    0    0  501  0.00000000000E+00  0.00000000000E+00 -0.13972334039E+04  0.13972334040E+04  0.50400001928E-02 0.  1.
    10030    2    1    2    0    0  0.00000000000E+00  0.00000000000E+00  0.11950067767E+04  0.39894735846E+04  0.38062919339E+04 0.  0.
        1    1    3    3  502    0  0.15318159569E+04 -0.77464153206E+02  0.17784506224E+04  0.23484776851E+04  0.50400001928E-02 0. -1.
       -1    1    3    3    0  502 -0.15318159569E+04  0.77464153206E+02 -0.58344384574E+03  0.16409958995E+04  0.50400001928E-02 0.  1.
</event>
<event>
 5   0  0.1628250E-08  0.3806627E+04  0.7818609E-02  0.8044734E-01
        1   -1    0    0  501    0  0.00000000000E+00  0.00000000000E+00  0.10181248979E+04  0.10181248979E+04  0.50400001928E-02 0.  1.
       -1   -1    0    0    0  501  0.00000000000E+00  0.00000000000E+00 -0.35581122039E+04  0.35581122039E+04  0.50400001928E-02 0. -1.
    10030    2    1    2    0    0  0.00000000000E+00  0.00000000000E+00 -0.25399873061E+04  0.45762371018E+04  0.38066271813E+04 0.  0.
        1    1    3    3  502    0 -0.24906695931E+03  0.58815359701E+02  0.99734693178E+03  0.10296574669E+04  0.50400001928E-02 0.  1.
       -1    1    3    3    0  502  0.24906695931E+03 -0.58815359701E+02 -0.35373342378E+04  0.35465796349E+04  0.50400001928E-02 0. -1.
</event>
<event>
 5   0  0.5140842E-08  0.3803229E+04  0.7818609E-02  0.8045462E-01
        2   -1    0    0  501    0  0.00000000000E+00  0.00000000000E+00  0.24717710136E+04  0.24717710136E+04  0.25500000920E-02 0. -1.
       -2   -1    0    0    0  501  0.00000000000E+00  0.00000000000E+00 -0.14629743314E+04  0.14629743314E+04  0.25500000920E-02 0.  1.
    10030    2    1    2    0    0  0.00000000000E+00  0.00000000000E+00  0.10087966822E+04  0.39347453451E+04  0.38032289156E+04 0.  0.
        2    1    3    3  502    0  0.17933914827E+04  0.49426651180E+03  0.91248109119E+03  0.20719976198E+04  0.25500000920E-02 0.  1.
       -2    1    3    3    0  502 -0.17933914827E+04 -0.49426651180E+03  0.96315591035E+02  0.18627477252E+04  0.25500000920E-02 0. -1.
</event>
<event>
 5   0  0.5207474E-08  0.3805053E+04  0.7818609E-02  0.8045071E-01
        2   -1    0    0  501    0  0.00000000000E+00  0.00000000000E+00  0.20276604498E+04  0.20276604498E+04  0.25500000920E-02 0. -1.
       -2   -1    0    0    0  501  0.00000000000E+00  0.00000000000E+00 -0.17851151114E+04  0.17851151114E+04  0.25500000920E-02 0.  1.
    10030    2    1    2    0    0  0.00000000000E+00  0.00000000000E+00  0.24254533836E+03  0.38127755612E+04  0.38050531191E+04 0.  0.
        4    1    3    3  502    0  0.11846791340E+04 -0.51735482816E+03 -0.12774417560E+04  0.18174101689E+04  0.12699999809E+01 0.  1.
       -4    1    3    3    0  502 -0.11846791340E+04  0.51735482816E+03  0.15199870944E+04  0.19953653923E+04  0.12699999809E+01 0. -1.
</event>
<event>
 5   0  0.1628250E-08  0.3799272E+04  0.7818609E-02  0.8046311E-01
        1   -1    0    0  501    0  0.00000000000E+00  0.00000000000E+00  0.11785737494E+04  0.11785737494E+04  0.50400001928E-02 0.  1.
       -1   -1    0    0    0  501  0.00000000000E+00  0.00000000000E+00 -0.30618510592E+04  0.30618510592E+04  0.50400001928E-02 0. -1.
    10030    2    1    2    0    0  0.00000000000E+00  0.00000000000E+00 -0.18832773098E+04  0.42404248086E+04  0.37992721845E+04 0.  0.
        5    1    3    3  502    0 -0.17323470829E+04 -0.74791165006E+03 -0.69660897287E+03  0.20113886753E+04  0.46999998093E+01 0.  1.
       -5    1    3    3    0  502  0.17323470829E+04  0.74791165006E+03 -0.11866683369E+04  0.22290361333E+04  0.46999998093E+01 0. -1.
</event>
<event>
 5   0  0.5147582E-08  0.3796718E+04  0.7818609E-02  0.8046859E-01
        2   -1    0    0  501    0  0.00000000000E+00  0.00000000000E+00  0.21396006469E+04  0.21396006469E+04  0.25500000920E-02 0. -1.
       -2   -1    0    0    0  501  0.00000000000E+00  0.00000000000E+00 -0.16843179615E+04  0.16843179615E+04  0.25500000920E-02 0.  1.
    10030    2    1    2    0    0  0.00000000000E+00  0.00000000000E+00  0.45528268534E+03  0.38239186084E+04  0.37967184779E+04 0.  0.
        1    1    3    3  502    0 -0.11498875186E+04  0.36350788961E+03 -0.12489411174E+04  0.17361547183E+04  0.50400001928E-02 0.  1.
       -1    1    3    3    0  502  0.11498875186E+04 -0.36350788961E+03  0.17042238027E+04  0.20877638901E+04  0.50400001928E-02 0. -1.
</event>
<event>
 5   0  0.1628250E-08  0.3793083E+04  0.7818609E-02  0.8047641E-01
       -1   -1    0    0    0  501  0.00000000000E+00  0.00000000000E+00  0.14245036374E+04  0.14245036374E+04  0.50400001928E-02 0.  1.
        1   -1    0    0  501    0  0.00000000000E+00  0.00000000000E+00 -0.25249981509E+04  0.25249981509E+04  0.50400001928E-02 0. -1.
    10030    2    1    2    0    0  0.00000000000E+00  0.00000000000E+00 -0.11004945135E+04  0.39495017884E+04  0.37930826780E+04 0.  0.
        5    1    3    3  502    0 -0.89138313574E+03 -0.90666646283E+03  0.91499288956E+03  0.15664744005E+04  0.46999998093E+01 0.  1.
       -5    1    3    3    0  502  0.89138313574E+03  0.90666646283E+03 -0.20154874030E+04  0.23830273879E+04  0.46999998093E+01 0. -1.
</event>
<event>
 5   0  0.1628250E-08  0.3794390E+04  0.7818609E-02  0.8047360E-01
        1   -1    0    0  501    0  0.00000000000E+00  0.00000000000E+00  0.12516077485E+04  0.12516077485E+04  0.50400001928E-02 0.  1.
       -1   -1    0    0    0  501  0.00000000000E+00  0.00000000000E+00 -0.28757807753E+04  0.28757807753E+04  0.50400001928E-02 0. -1.
    10030    2    1    2    0    0  0.00000000000E+00  0.00000000000E+00 -0.16241730268E+04  0.41273885238E+04  0.37943903338E+04 0.  0.
        4    1    3    3  502    0  0.15406548290E+04 -0.64368070942E+03 -0.17919202359E+04  0.24492696672E+04  0.12699999809E+01 0. -1.
       -4    1    3    3    0  502 -0.15406548290E+04  0.64368070942E+03  0.16774720909E+03  0.16781188566E+04  0.12699999809E+01 0.  1.
</event>
<event>
 5   0  0.1628250E-08  0.3797578E+04  0.7818609E-02  0.8046675E-01
       -1   -1    0    0    0  501  0.00000000000E+00  0.00000000000E+00  0.18561366682E+04  0.18561366682E+04  0.50400001928E-02 0. -1.
        1   -1    0    0  501    0  0.00000000000E+00  0.00000000000E+00 -0.19424219269E+04  0.19424219269E+04  0.50400001928E-02 0.  1.
    10030    2    1    2    0    0  0.00000000000E+00  0.00000000000E+00 -0.86285258728E+02  0.37985585952E+04  0.37975784725E+04 0.  0.
        1    1    3    3  502    0 -0.60889022607E+03 -0.75821353480E+03 -0.16744422937E+04  0.19363346990E+04  0.50400001928E-02 0.  1.
       -1    1    3    3    0  502  0.60889022607E+03  0.75821353480E+03  0.15881570349E+04  0.18622238961E+04  0.50400001928E-02 0. -1.
</event>
<event>
 5   0  0.1628250E-08  0.3799014E+04  0.7818609E-02  0.8046367E-01
       -1   -1    0    0    0  501  0.00000000000E+00  0.00000000000E+00  0.18336170218E+04  0.18336170218E+04  0.50400001928E-02 0.  1.
        1   -1    0    0  501    0  0.00000000000E+00  0.00000000000E+00 -0.19677641848E+04  0.19677641848E+04  0.50400001928E-02 0. -1.
    10030    2    1    2    0    0  0.00000000000E+00  0.00000000000E+00 -0.13414716296E+03  0.38013812066E+04  0.37990135057E+04 0.  0.
        1    1    3    3  502    0  0.29508658417E+03 -0.11327997852E+04  0.14297913835E+04  0.18478676483E+04  0.50400001928E-02 0.  1.
       -1    1    3    3    0  502 -0.29508658417E+03  0.11327997852E+04 -0.15639385464E+04  0.19535135583E+04  0.50400001928E-02 0. -1.
</event>
<event>
 5   0  0.1628250E-08  0.3799062E+04  0.7818609E-02  0.8046356E-01
       -1   -1    0    0    0  501  0.00000000000E+00  0.00000000000E+00  0.28138968101E+04  0.28138968101E+04  0.50400001928E-02 0. -1.
        1   -1    0    0  501    0  0.00000000000E+00  0.00000000000E+00 -0.12822847968E+04  0.12822847968E+04  0.50400001928E-02 0.  1.
    10030    2    1    2    0    0  0.00000000000E+00  0.00000000000E+00  0.15316120133E+04  0.40961816069E+04  0.37990615153E+04 0.  0.
        1    1    3    3  502    0 -0.11559583430E+04  0.44889377114E+03 -0.78564310911E+03  0.14679851510E+04  0.50400001928E-02 0.  1.
       -1    1    3    3    0  502  0.11559583430E+04 -0.44889377114E+03  0.23172551224E+04  0.26281964559E+04  0.50400001928E-02 0. -1.
</event>
<event>
 5   0  0.1666051E-08  0.3802906E+04  0.7818609E-02  0.8045532E-01
       -1   -1    0    0    0  501  0.00000000000E+00  0.00000000000E+00  0.19912879190E+04  0.19912879190E+04  0.50400001928E-02 0.  1.
        1   -1    0    0  501    0  0.00000000000E+00  0.00000000000E+00 -0.18156707525E+04  0.18156707526E+04  0.50400001928E-02 0. -1.
    10030    2    1    2    0    0  0.00000000000E+00  0.00000000000E+00  0.17561716649E+03  0.38069586716E+04  0.38029058545E+04 0.  0.
        2    1    3    3  502    0 -0.56582055003E+03  0.14149000472E+03  0.18995303679E+04  0.19870550911E+04  0.25500000920E-02 0.  1.
       -2    1    3    3    0  502  0.56582055003E+03 -0.14149000472E+03 -0.17239132014E+04  0.18199035805E+04  0.25500000920E-02 0. -1.
</event>
<event>
 5   0  0.1628250E-08  0.3804270E+04  0.7818609E-02  0.8045239E-01
       -1   -1    0    0    0  501  0.00000000000E+00  0.00000000000E+00  0.14191457442E+04  0.14191457442E+04  0.50400001928E-02 0.  1.
        1   -1    0    0  501    0  0.00000000000E+00  0.00000000000E+00 -0.25495033511E+04  0.25495033511E+04  0.50400001928E-02 0. -1.
    10030    2    1    2    0    0  0.00000000000E+00  0.00000000000E+00 -0.11303576069E+04  0.39686490954E+04  0.38042696175E+04 0.  0.
        5    1    3    3  502    0 -0.44128424512E+03  0.14756016211E+04 -0.17296371330E+04  0.23159876147E+04  0.46999998093E+01 0. -1.
       -5    1    3    3    0  502  0.44128424512E+03 -0.14756016211E+04  0.59927952615E+03  0.16526614807E+04  0.46999998093E+01 0.  1.
</event>
<event>
 5   0  0.5086209E-08  0.3829563E+04  0.7818609E-02  0.8039840E-01
        2   -1    0    0  501    0  0.00000000000E+00  0.00000000000E+00  0.17155547770E+04  0.17155547770E+04  0.25500000920E-02 0. -1.
       -2   -1    0    0    0  501  0.00000000000E+00  0.00000000000E+00 -0.21371445142E+04  0.21371445142E+04  0.25500000920E-02 0.  1.
    10030    2    1    2    0    0  0.00000000000E+00  0.00000000000E+00 -0.42158973713E+03  0.38526992912E+04  0.38295631503E+04 0.  0.
        3    1    3    3  502    0 -0.10331366377E+04  0.15577198680E+04 -0.62866672037E+03  0.19720761534E+04  0.10100000352E+00 0. -1.
       -3    1    3    3    0  502  0.10331366377E+04 -0.15577198680E+04  0.20707698324E+03  0.18806231378E+04  0.10100000352E+00 0.  1.
</event>
<event>
 5   0  0.1628473E-08  0.3798583E+04  0.7818609E-02  0.8046459E-01
       -1   -1    0    0    0  501  0.00000000000E+00  0.00000000000E+00  0.11897892935E+04  0.11897892935E+04  0.50400001928E-02 0. -1.
        1   -1    0    0  501    0  0.00000000000E+00  0.00000000000E+00 -0.30318887529E+04  0.30318887529E+04  0.50400001928E-02 0.  1.
    10030    2    1    2    0    0  0.00000000000E+00  0.00000000000E+00 -0.18420994594E+04  0.42216780464E+04  0.37985833029E+04 0.  0.
        3    1    3    3  502    0  0.17277742280E+04  0.78840930275E+03 -0.94628949538E+03  0.21218522170E+04  0.10100000352E+00 0. -1.
       -3    1    3    3    0  502 -0.17277742280E+04 -0.78840930275E+03 -0.89580996405E+03  0.20998258294E+04  0.10100000352E+00 0.  1.
</event>
<event>
 5   0  0.1666051E-08  0.3776265E+04  0.7818609E-02  0.8051268E-01
       -1   -1    0    0    0  501  0.00000000000E+00  0.00000000000E+00  0.27318111690E+04  0.27318111690E+04  0.50400001928E-02 0. -1.
        1   -1    0    0  501    0  0.00000000000E+00  0.00000000000E+00 -0.13050115397E+04  0.13050115397E+04  0.50400001928E-02 0.  1.
    10030    2    1    2    0    0  0.00000000000E+00  0.00000000000E+00  0.14267996293E+04  0.40368227087E+04  0.37762654037E+04 0.  0.
        2    1    3    3  502    0 -0.70774406788E+01  0.17216264673E+04  0.15421305253E+04  0.23113230713E+04  0.25500000920E-02 0. -1.
       -2    1    3    3    0  502  0.70774406788E+01 -0.17216264673E+04 -0.11533089596E+03  0.17254996374E+04  0.25500000920E-02 0.  1.
</event>
<event>
 5   0  0.5159761E-08  0.3806821E+04  0.7818609E-02  0.8044693E-01
        2   -1    0    0  501    0  0.00000000000E+00  0.00000000000E+00  0.25198386892E+04  0.25198386892E+04  0.25500000920E-02 0.  1.
       -2   -1    0    0    0  501  0.00000000000E+00  0.00000000000E+00 -0.14377788260E+04  0.14377788260E+04  0.25500000920E-02 0. -1.
    10030    2    1    2    0    0  0.00000000000E+00  0.00000000000E+00  0.10820598632E+04  0.39576175153E+04  0.38068205696E+04 0.  0.
        5    1    3    3  502    0 -0.13018534468E+04 -0.50597643603E+03  0.18853552035E+04  0.23463633316E+04  0.46999998093E+01 0.  1.
       -5    1    3    3    0  502  0.13018534468E+04  0.50597643603E+03 -0.80329534022E+03  0.16112541837E+04  0.46999998093E+01 0. -1.
</event>
<event>
 5   0  0.5086209E-08  0.3793467E+04  0.7818609E-02  0.8047558E-01
        2   -1    0    0  501    0  0.00000000000E+00  0.00000000000E+00  0.20953988945E+04  0.20953988945E+04  0.25500000920E-02 0. -1.
       -2   -1    0    0    0  501  0.00000000000E+00  0.00000000000E+00 -0.17169038710E+04  0.17169038710E+04  0.25500000920E-02 0.  1.
    10030    2    1    2    0    0  0.00000000000E+00  0.00000000000E+00  0.37849502349E+03  0.38123027654E+04  0.37934672652E+04 0.  0.
        3    1    3    3  502    0 -0.13738818977E+03  0.17629576780E+04  0.87873216933E+03  0.19746051566E+04  0.10100000352E+00 0. -1.
       -3    1    3    3    0  502  0.13738818977E+03 -0.17629576780E+04 -0.50023714584E+03  0.18376976088E+04  0.10100000352E+00 0.  1.
</event>
<event>
 5   0  0.1628250E-08  0.3796062E+04  0.7818609E-02  0.8047000E-01
        1   -1    0    0  501    0  0.00000000000E+00  0.00000000000E+00  0.17399319890E+04  0.17399319890E+04  0.50400001928E-02 0.  1.
       -1   -1    0    0    0  501  0.00000000000E+00  0.00000000000E+00 -0.20704961892E+04  0.20704961892E+04  0.50400001928E-02 0. -1.
    10030    2    1    2    0    0  0.00000000000E+00  0.00000000000E+00 -0.33056420019E+03  0.38104281783E+04  0.37960624615E+04 0.  0.
        1    1    3    3  502    0 -0.13494869578E+04  0.11575207515E+04  0.50172730116E+03  0.18473493509E+04  0.50400001928E-02 0. -1.
       -1    1    3    3    0  502  0.13494869578E+04 -0.11575207515E+04 -0.83229150136E+03  0.19630788274E+04  0.50400001928E-02 0.  1.
</event>
<event>
 5   0  0.5207474E-08  0.3799228E+04  0.7818609E-02  0.8046321E-01
        2   -1    0    0  501    0  0.00000000000E+00  0.00000000000E+00  0.27035340877E+04  0.27035340877E+04  0.25500000920E-02 0.  1.
       -2   -1    0    0    0  501  0.00000000000E+00  0.00000000000E+00 -0.13347464819E+04  0.13347464819E+04  0.25500000920E-02 0. -1.
    10030    2    1    2    0    0  0.00000000000E+00  0.00000000000E+00  0.13687876058E+04  0.40382805696E+04  0.37992276122E+04 0.  0.
        4    1    3    3  502    0  0.18835191978E+04  0.15461355317E+03  0.47998905828E+03  0.19498566686E+04  0.12699999809E+01 0. -1.
       -4    1    3    3    0  502 -0.18835191978E+04 -0.15461355317E+03  0.88879854747E+03  0.20884239010E+04  0.12699999809E+01 0.  1.
</event>
<event>
 5   0  0.5147582E-08  0.3810928E+04  0.7818609E-02  0.8043814E-01
        2   -1    0    0  501    0  0.00000000000E+00  0.00000000000E+00  0.17778834454E+04  0.17778834454E+04  0.25500000920E-02 0.  1.
       -2   -1    0    0    0  501  0.00000000000E+00  0.00000000000E+00 -0.20421991954E+04  0.20421991954E+04  0.25500000920E-02 0. -1.
    10030    2    1    2    0    0  0.00000000000E+00  0.00000000000E+00 -0.26431575000E+03  0.38200826409E+04  0.38109275206E+04 0.  0.
        1    1    3    3  502    0 -0.68472768701E+03  0.56327611628E+03 -0.18228217142E+04  0.20270202245E+04  0.50400001928E-02 0. -1.
       -1    1    3    3    0  502  0.68472768701E+03 -0.56327611628E+03  0.15585059642E+04  0.17930624164E+04  0.50400001928E-02 0.  1.
</event>
<event>
 5   0  0.5086209E-08  0.3798802E+04  0.7818609E-02  0.8046412E-01
        2   -1    0    0  501    0  0.00000000000E+00  0.00000000000E+00  0.21939263935E+04  0.21939263935E+04  0.25500000920E-02 0.  1.
       -2   -1    0    0    0  501  0.00000000000E+00  0.00000000000E+00 -0.16444146750E+04  0.16444146750E+04  0.25500000920E-02 0. -1.
    10030    2    1    2    0    0  0.00000000000E+00  0.00000000000E+00  0.54951171845E+03  0.38383410685E+04  0.37988023152E+04 0.  0.
        3    1    3    3  502    0 -0.13744753378E+04 -0.13108069989E+04  0.25647599186E+03  0.19165535179E+04  0.10100000352E+00 0.  1.
       -3    1    3    3    0  502  0.13744753378E+04  0.13108069989E+04  0.29303572660E+03  0.19217875506E+04  0.10100000352E+00 0. -1.
</event>
<event>
 5   0  0.1628250E-08  0.3800662E+04  0.7818609E-02  0.8046013E-01
        1   -1    0    0  501    0  0.00000000000E+00  0.00000000000E+00  0.20999951257E+04  0.20999951258E+04  0.50400001928E-02 0.  1.
       -1   -1    0    0    0  501  0.00000000000E+00  0.00000000000E+00 -0.17196506216E+04  0.17196506216E+04  0.50400001928E-02 0. -1.
    10030    2    1    2    0    0  0.00000000000E+00  0.00000000000E+00  0.38034450414E+03  0.38196457474E+04  0.38006620073E+04 0.  0.
        5    1    3    3  502    0  0.98930717049E+03  0.15751683601E+04 -0.20081052063E+03  0.18708904285E+04  0.46999998093E+01 0. -1.
       -5    1    3    3    0  502 -0.98930717049E+03 -0.15751683601E+04  0.58115502477E+03  0.19487553189E+04  0.46999998093E+01 0.  1.
</event>
<event>
 5   0  0.1666051E-08  0.3794035E+04  0.7818609E-02  0.8047436E-01
        1   -1    0    0  501    0  0.00000000000E+00  0.00000000000E+00  0.25576826055E+04  0.25576826055E+04  0.50400001928E-02 0.  1.
       -1   -1    0    0    0  501  0.00000000000E+00  0.00000000000E+00 -0.14070062002E+04  0.14070062002E+04  0.50400001928E-02 0. -1.
    10030    2    1    2    0    0  0.00000000000E+00  0.00000000000E+00  0.11506764053E+04  0.39646888057E+04  0.37940349413E+04 0.  0.
        2    1    3    3  502    0  0.14626890886E+04 -0.50936952752E+03  0.17199407653E+04  0.23145437826E+04  0.25500000920E-02 0.  1.
       -2    1    3    3    0  502 -0.14626890886E+04  0.50936952752E+03 -0.56926436000E+03  0.16501450231E+04  0.25500000920E-02 0. -1.
</event>
<event>
 5   0  0.1628473E-08  0.3809228E+04  0.7818609E-02  0.8044177E-01
        1   -1    0    0  501    0  0.00000000000E+00  0.00000000000E+00  0.19678331283E+04  0.19678331283E+04  0.50400001928E-02 0. -1.
       -1   -1    0    0    0  501  0.00000000000E+00  0.00000000000E+00 -0.18434261548E+04  0.18434261548E+04  0.50400001928E-02 0.  1.
    10030    2    1    2    0    0  0.00000000000E+00  0.00000000000E+00  0.12440697353E+03  0.38112592831E+04  0.38092282982E+04 0.  0.
        3    1    3    3  502    0  0.16235856321E+04  0.99045462966E+03 -0.40439555932E+02  0.19022791715E+04  0.10100000352E+00 0.  1.
       -3    1    3    3    0  502 -0.16235856321E+04 -0.99045462966E+03  0.16484652946E+03  0.19089801117E+04  0.10100000352E+00 0. -1.
</event>
<event>
 5   0  0.5140842E-08  0.3810229E+04  0.7818609E-02  0.8043963E-01
       -2   -1    0    0    0  501  0.00000000000E+00  0.00000000000E+00  0.23196889082E+04  0.23196889082E+04  0.25500000920E-02 0.  1.
        2   -1    0    0  501    0  0.00000000000E+00  0.00000000000E+00 -0.15646327354E+04  0.15646327354E+04  0.25500000920E-02 0. -1.
    10030    2    1    2    0    0  0.00000000000E+00  0.00000000000E+00  0.75505617282E+03  0.38843216436E+04  0.38102289704E+04 0.  0.
        2    1    3    3  502    0 -0.15304080092E+04  0.11345068745E+04  0.36287220283E+03  0.19393119291E+04  0.25500000920E-02 0. -1.
       -2    1    3    3    0  502  0.15304080092E+04 -0.11345068745E+04  0.39218396999E+03  0.19450097144E+04  0.25500000920E-02 0.  1.
</event>
<event>
 5   0  0.5207474E-08  0.3797175E+04  0.7818609E-02  0.8046761E-01
       -2   -1    0    0    0  501  0.00000000000E+00  0.00000000000E+00  0.17770148250E+04  0.17770148250E+04  0.25500000920E-02 0.  1.
        2   -1    0    0  501    0  0.00000000000E+00  0.00000000000E+00 -0.20284772198E+04  0.20284772198E+04  0.25500000920E-02 0. -1.
    10030    2    1    2    0    0  0.00000000000E+00  0.00000000000E+00 -0.25146239488E+03  0.38054920448E+04  0.37971747875E+04 0.  0.
        4    1    3    3  502    0  0.74032194134E+03 -0.17458490123E+04 -0.32969676403E+02  0.18966164513E+04  0.12699999809E+01 0.  1.
       -4    1    3    3    0  502 -0.74032194134E+03  0.17458490123E+04 -0.21849271848E+03  0.19088755935E+04  0.12699999809E+01 0. -1.
</event>
<event>
 5   0  0.1666051E-08  0.3794455E+04  0.7818609E-02  0.8047346E-01
        1   -1    0    0  501    0  0.00000000000E+00  0.00000000000E+00  0.16712643701E+04  0.16712643701E+04  0.50400001928E-02 0. -1.
       -1   -1    0    0    0  501  0.00000000000E+00  0.00000000000E+00 -0.21537418571E+04  0.21537418571E+04  0.50400001928E-02 0.  1.
    10030    2    1    2    0    0  0.00000000000E+00  0.00000000000E+00 -0.48247748700E+03  0.38250062271E+04  0.37944549164E+04 0.  0.
        2    1    3    3  502    0 -0.56249880997E+03 -0.77194445537E+02  0.15836153050E+04  0.16823202215E+04  0.25500000920E-02 0. -1.
       -2    1    3    3    0  502  0.56249880997E+03  0.77194445537E+02 -0.20660927920E+04  0.21426860056E+04  0.25500000920E-02 0.  1.
</event>
<event>
 5   0  0.1628250E-08  0.3805273E+04  0.7818609E-02  0.8045024E-01
       -1   -1    0    0    0  501  0.00000000000E+00  0.00000000000E+00  0.16826854977E+04  0.16826854977E+04  0.50400001928E-02 0. -1.
        1   -1    0    0  501    0  0.00000000000E+00  0.00000000000E+00 -0.21513383449E+04  0.21513383449E+04  0.50400001928E-02 0.  1.
    10030    2    1    2    0    0  0.00000000000E+00  0.00000000000E+00 -0.46865284717E+03  0.38340238426E+04  0.38052730959E+04 0.  0.
        5    1    3    3  502    0 -0.12944277156E+04 -0.41368408937E+03 -0.15760507151E+04  0.20810179200E+04  0.46999998093E+01 0.  1.
       -5    1    3    3    0  502  0.12944277156E+04  0.41368408937E+03  0.11073978680E+04  0.17530059226E+04  0.46999998093E+01 0. -1.
</event>
<event>
 5   0  0.1666051E-08  0.3803705E+04  0.7818609E-02  0.8045360E-01
        1   -1    0    0  501    0  0.00000000000E+00  0.00000000000E+00  0.12098959876E+04  0.12098959876E+04  0.50400001928E-02 0. -1.
       -1   -1    0    0    0  501  0.00000000000E+00  0.00000000000E+00 -0.29895494256E+04  0.29895494256E+04  0.50400001928E-02 0.  1.
    10030    2    1    2    0    0  0.00000000000E+00  0.00000000000E+00 -0.17796534380E+04  0.41994454132E+04  0.38037054853E+04 0.  0.
        2    1    3    3  502    0 -0.46544086798E+03 -0.51888069986E+03 -0.28434394796E+04  0.29276305191E+04  0.25500000920E-02 0.  1.
       -2    1    3    3    0  502  0.46544086798E+03  0.51888069986E+03  0.10637860417E+04  0.12718148941E+04  0.25500000920E-02 0. -1.
</event>
<event>
 5   0  0.5140842E-08  0.3787878E+04  0.7818609E-02  0.8048761E-01
       -2   -1    0    0    0  501  0.00000000000E+00  0.00000000000E+00  0.15949233307E+04  0.15949233307E+04  0.25500000920E-02 0.  1.
        2   -1    0    0  501    0  0.00000000000E+00  0.00000000000E+00 -0.22490136621E+04  0.22490136621E+04  0.25500000920E-02 0. -1.
    10030    2    1    2    0    0  0.00000000000E+00  0.00000000000E+00 -0.65409033136E+03  0.38439369928E+04  0.37878776965E+04 0.  0.
        2    1    3    3  502    0  0.55149146462E+03 -0.11093808630E+04  0.11266834603E+04  0.16745997595E+04  0.25500000920E-02 0.  1.
       -2    1    3    3    0  502 -0.55149146462E+03  0.11093808630E+04 -0.17807737917E+04  0.21693372333E+04  0.25500000920E-02 0. -1.
</event>
<event>
 5   0  0.5086209E-08  0.3792596E+04  0.7818609E-02  0.8047746E-01
       -2   -1    0    0    0  501  0.00000000000E+00  0.00000000000E+00  0.21751035460E+04  0.21751035460E+04  0.25500000920E-02 0.  1.
        2   -1    0    0  501    0  0.00000000000E+00  0.00000000000E+00 -0.16532297936E+04  0.16532297936E+04  0.25500000920E-02 0. -1.
    10030    2    1    2    0    0  0.00000000000E+00  0.00000000000E+00  0.52187375239E+03  0.38283333396E+04  0.37925959376E+04 0.  0.
        3    1    3    3  502    0  0.11251528932E+04 -0.43859135639E+03 -0.12148983427E+04  0.17129826048E+04  0.10100000352E+00 0. -1.
       -3    1    3    3    0  502 -0.11251528932E+04  0.43859135639E+03  0.17367720950E+04  0.21153507348E+04  0.10100000352E+00 0.  1.
</event>
<event>
 5   0  0.5140842E-08  0.3813391E+04  0.7818609E-02  0.8043287E-01
        2   -1    0    0  501    0  0.00000000000E+00  0.00000000000E+00  0.19807163272E+04  0.19807163272E+04  0.25500000920E-02 0. -1.
       -2   -1    0    0    0  501  0.00000000000E+00  0.00000000000E+00 -0.18354406919E+04  0.18354406919E+04  0.25500000920E-02 0.  1.
    10030    2    1    2    0    0  0.00000000000E+00  0.00000000000E+00  0.14527563531E+03  0.38161570191E+04  0.38133907988E+04 0.  0.
        2    1    3    3  502    0  0.54885146073E+03  0.13917873601E+04 -0.11102421910E+04  0.18630479608E+04  0.25500000920E-02 0.  1.
       -2    1    3    3    0  502 -0.54885146073E+03 -0.13917873601E+04  0.12555178263E+04  0.19531090583E+04  0.25500000920E-02 0. -1.
</event>
<event>
 5   0  0.1628473E-08  0.3785877E+04  0.7818609E-02  0.8049192E-01
       -1   -1    0    0    0  501  0.00000000000E+00  0.00000000000E+00  0.24056363537E+04  0.24056363537E+04  0.50400001928E-02 0.  1.
        1   -1    0    0  501    0  0.00000000000E+00  0.00000000000E+00 -0.14895085651E+04  0.14895085651E+04  0.50400001928E-02 0. -1.
    10030    2    1    2    0    0  0.00000000000E+00  0.00000000000E+00  0.91612778860E+03  0.38951449188E+04  0.37858768883E+04 0.  0.
        3    1    3    3  502    0  0.53171421243E+03  0.21030960669E+02  0.23270997477E+04  0.23871647516E+04  0.10100000352E+00 0.  1.
       -3    1    3    3    0  502 -0.53171421243E+03 -0.21030960669E+02 -0.14109719591E+04  0.15079801672E+04  0.10100000352E+00 0. -1.
</event>
<event>
 5   0  0.1628250E-08  0.3794731E+04  0.7818609E-02  0.8047287E-01
       -1   -1    0    0    0  501  0.00000000000E+00  0.00000000000E+00  0.12420825312E+04  0.12420825312E+04  0.50400001928E-02 0. -1.
        1   -1    0    0  501    0  0.00000000000E+00  0.00000000000E+00 -0.28983549973E+04  0.28983549973E+04  0.50400001928E-02 0.  1.
    10030    2    1    2    0    0  0.00000000000E+00  0.00000000000E+00 -0.16562724661E+04  0.41404375285E+04  0.37947311427E+04 0.  0.
        5    1    3    3  502    0  0.18167773929E+04  0.54706914671E+03 -0.83145911233E+03  0.20715479942E+04  0.46999998093E+01 0. -1.
       -5    1    3    3    0  502 -0.18167773929E+04 -0.54706914671E+03 -0.82481335380E+03  0.20688895343E+04  0.46999998093E+01 0.  1.
</event>
<event>
 5   0  0.5159761E-08  0.3803292E+04  0.7818609E-02  0.8045449E-01
       -2   -1    0    0    0  501  0.00000000000E+00  0.00000000000E+00  0.18499062524E+04  0.18499062524E+04  0.25500000920E-02 0. -1.
        2   -1    0    0  501    0  0.00000000000E+00  0.00000000000E+00 -0.19548326701E+04  0.19548326701E+04  0.25500000920E-02 0.  1.
    10030    2    1    2    0    0  0.00000000000E+00  0.00000000000E+00 -0.10492641773E+03  0.38047389225E+04  0.38032918262E+04 0.  0.
        5    1    3    3  502    0  0.14491878594E+04 -0.63098010871E+03  0.10052724060E+04  0.18731994153E+04  0.46999998093E+01 0. -1.
       -5    1    3    3    0  502 -0.14491878594E+04  0.63098010871E+03 -0.11101988237E+04  0.19315395071E+04  0.46999998093E+01 0.  1.
</event>
<event>
 5   0  0.1628250E-08  0.3811719E+04  0.7818609E-02  0.8043645E-01
        1   -1    0    0  501    0  0.00000000000E+00  0.00000000000E+00  0.30335951217E+04  0.30335951217E+04  0.50400001928E-02 0. -1.
       -1   -1    0    0    0  501  0.00000000000E+00  0.00000000000E+00 -0.11973582054E+04  0.11973582055E+04  0.50400001928E-02 0.  1.
    10030    2    1    2    0    0  0.00000000000E+00  0.00000000000E+00  0.18362369162E+04  0.42309533271E+04  0.38117187782E+04 0.  0.
        5    1    3    3  502    0 -0.49616846943E+03 -0.17757035331E+04  0.14538768699E+04  0.23479962160E+04  0.46999998093E+01 0. -1.
       -5    1    3    3    0  502  0.49616846943E+03  0.17757035331E+04  0.38236004633E+03  0.18829571112E+04  0.46999998093E+01 0.  1.
</event>
<event>
 5   0  0.1666051E-08  0.3801889E+04  0.7818609E-02  0.8045750E-01
        1   -1    0    0  501    0  0.00000000000E+00  0.00000000000E+00  0.26390016385E+04  0.26390016385E+04  0.50400001928E-02 0. -1.
       -1   -1    0    0    0  501  0.00000000000E+00  0.00000000000E+00 -0.13693018651E+04  0.13693018652E+04  0.50400001928E-02 0.  1.
    10030    2    1    2    0    0  0.00000000000E+00  0.00000000000E+00  0.12696997733E+04  0.40083035036E+04  0.38018889335E+04 0.  0.
        2    1    3    3  502    0 -0.11395660705E+04 -0.11659433698E+04 -0.39574750545E+03  0.16776921227E+04  0.25500000920E-02 0.  1.
       -2    1    3    3    0  502  0.11395660705E+04  0.11659433698E+04  0.16654472788E+04  0.23306113809E+04  0.25500000920E-02 0. -1.
</event>
<event>
 5   0  0.5159761E-08  0.3803663E+04  0.7818609E-02  0.8045369E-01
       -2   -1    0    0    0  501  0.00000000000E+00  0.00000000000E+00  0.12053518033E+04  0.12053518034E+04  0.25500000920E-02 0. -1.
        2   -1    0    0  501    0  0.00000000000E+00  0.00000000000E+00 -0.30007534890E+04  0.30007534890E+04  0.25500000920E-02 0.  1.
    10030    2    1    2    0    0  0.00000000000E+00  0.00000000000E+00 -0.17954016857E+04  0.42061052924E+04  0.38036633023E+04 0.  0.
        5    1    3    3  502    0 -0.14343401009E+04  0.12227818338E+04 -0.61704748989E+03  0.19832540515E+04  0.46999998093E+01 0.  1.
       -5    1    3    3    0  502  0.14343401009E+04 -0.12227818338E+04 -0.11783541958E+04  0.22228512408E+04  0.46999998093E+01 0. -1.
</event>
<event>
 5   0  0.1628250E-08  0.3819949E+04  0.7818609E-02  0.8041887E-01
       -1   -1    0    0    0  501  0.00000000000E+00  0.00000000000E+00  0.25799208729E+04  0.25799208730E+04  0.50400001928E-02 0. -1.
        1   -1    0    0  501    0  0.00000000000E+00  0.00000000000E+00 -0.14139976876E+04  0.14139976876E+04  0.50400001928E-02 0.  1.
    10030    2    1    2    0    0  0.00000000000E+00  0.00000000000E+00  0.11659231853E+04  0.39939185606E+04  0.38199487685E+04 0.  0.
        1    1    3    3  502    0  0.11504285022E+04 -0.14917614483E+04  0.25371665677E+03  0.19008445752E+04  0.50400001928E-02 0. -1.
       -1    1    3    3    0  502 -0.11504285022E+04  0.14917614483E+04  0.91220652857E+03  0.20930739853E+04  0.50400001928E-02 0.  1.
</event>
<event>
 5   0  0.5086209E-08  0.3799724E+04  0.7818609E-02  0.8046214E-01
        2   -1    0    0  501    0  0.00000000000E+00  0.00000000000E+00  0.26151396414E+04  0.26151396414E+04  0.25500000920E-02 0. -1.
       -2   -1    0    0    0  501  0.00000000000E+00  0.00000000000E+00 -0.13802226269E+04  0.13802226269E+04  0.25500000920E-02 0.  1.
    10030    2    1    2    0    0  0.00000000000E+00  0.00000000000E+00  0.12349170146E+04  0.39953622683E+04  0.37997236244E+04 0.  0.
        3    1    3    3  502    0  0.38786112473E+02  0.47905672154E+03  0.25501588419E+04  0.25950548808E+04  0.10100000352E+00 0. -1.
       -3    1    3    3    0  502 -0.38786112473E+02 -0.47905672154E+03 -0.13152418273E+04  0.14003073875E+04  0.10100000352E+00 0.  1.
</event>
<event>
 5   0  0.5147582E-08  0.3799543E+04  0.7818609E-02  0.8046253E-01
        2   -1    0    0  501    0  0.00000000000E+00  0.00000000000E+00  0.22291517653E+04  0.22291517653E+04  0.25500000920E-02 0. -1.
       -2   -1    0    0    0  501  0.00000000000E+00  0.00000000000E+00 -0.16190609610E+04  0.16190609610E+04  0.25500000920E-02 0.  1.
    10030    2    1    2    0    0  0.00000000000E+00  0.00000000000E+00  0.61009080428E+03  0.38482127263E+04  0.37995434459E+04 0.  0.
        1    1    3    3  502    0 -0.17632343153E+04  0.59326344607E+03  0.69491228377E+03  0.19859153681E+04  0.50400001928E-02 0. -1.
       -1    1    3    3    0  502  0.17632343153E+04 -0.59326344607E+03 -0.84821479487E+02  0.18622973582E+04  0.50400001928E-02 0.  1.
</event>
<event>
 5   0  0.5086209E-08  0.3803962E+04  0.7818609E-02  0.8045305E-01
        2   -1    0    0  501    0  0.00000000000E+00  0.00000000000E+00  0.29342772285E+04  0.29342772285E+04  0.25500000920E-02 0.  1.
       -2   -1    0    0    0  501  0.00000000000E+00  0.00000000000E+00 -0.12328529402E+04  0.12328529402E+04  0.25500000920E-02 0. -1.
    10030    2    1    2    0    0  0.00000000000E+00  0.00000000000E+00  0.17014242883E+04  0.41671301687E+04  0.38039623071E+04 0.  0.
        3    1    3    3  502    0  0.18248542290E+04 -0.87061240886E+02  0.27118867355E+03  0.18469477317E+04  0.10100000352E+00 0.  1.
       -3    1    3    3    0  502 -0.18248542290E+04  0.87061240886E+02  0.14302356148E+04  0.23201824370E+04  0.10100000352E+00 0. -1.
</event>
<event>
 5   0  0.1666051E-08  0.3793492E+04  0.7818609E-02  0.8047553E-01
        1   -1    0    0  501    0  0.00000000000E+00  0.00000000000E+00  0.23381437330E+04  0.23381437330E+04  0.50400001928E-02 0. -1.
       -1   -1    0    0    0  501  0.00000000000E+00  0.00000000000E+00 -0.15386755450E+04  0.15386755450E+04  0.50400001928E-02 0.  1.
    10030    2    1    2    0    0  0.00000000000E+00  0.00000000000E+00  0.79946818795E+03  0.38768192780E+04  0.37934915752E+04 0.  0.
        2    1    3    3  502    0  0.55397157293E+03  0.17735206874E+04  0.10065493288E+02  0.18580531334E+04  0.25500000920E-02 0.  1.
       -2    1    3    3    0  502 -0.55397157293E+03 -0.17735206874E+04  0.78940269466E+03  0.20187661446E+04  0.25500000920E-02 0. -1.
</event>
<event>
 5   0  0.5207474E-08  0.3805179E+04  0.7818609E-02  0.8045044E-01
        2   -1    0    0  501    0  0.00000000000E+00  0.00000000000E+00  0.22273469370E+04  0.22273469370E+04  0.25500000920E-02 0.  1.
       -2   -1    0    0    0  501  0.00000000000E+00  0.00000000000E+00 -0.16251831628E+04  0.16251831628E+04  0.25500000920E-02 0. -1.
    10030    2    1    2    0    0  0.00000000000E+00  0.00000000000E+00  0.60216377425E+03  0.38525300998E+04  0.38051789654E+04 0.  0.
        4    1    3    3  502    0  0.17152589549E+04  0.73947429151E+03 -0.65234821626E+02  0.18690084818E+04  0.12699999809E+01 0. -1.
       -4    1    3    3    0  502 -0.17152589549E+04 -0.73947429151E+03  0.66739859587E+03  0.19835216180E+04  0.12699999809E+01 0.  1.
</event>
<event>
 5   0  0.1628250E-08  0.3799685E+04  0.7818609E-02  0.8046222E-01
       -1   -1    0    0    0  501  0.00000000000E+00  0.00000000000E+00  0.22326785301E+04  0.22326785301E+04  0.50400001928E-02 0. -1.
        1   -1    0    0  501    0  0.00000000000E+00  0.00000000000E+00 -0.16166240871E+04  0.16166240871E+04  0.50400001928E-02 0.  1.
    10030    2    1    2    0    0  0.00000000000E+00  0.00000000000E+00  0.61605444293E+03  0.38493026172E+04  0.37996851925E+04 0.  0.
        5    1    3    3  502    0 -0.30477711105E+03 -0.16402796790E+04  0.12287257303E+04  0.20720027806E+04  0.46999998093E+01 0. -1.
       -5    1    3    3    0  502  0.30477711105E+03  0.16402796790E+04 -0.61267128734E+03  0.17772998366E+04  0.46999998093E+01 0.  1.
</event>
<event>
 5   0  0.1666051E-08  0.3800690E+04  0.7818609E-02  0.8046007E-01
       -1   -1    0    0    0  501  0.00000000000E+00  0.00000000000E+00  0.14345534901E+04  0.14345534901E+04  0.50400001928E-02 0. -1.
        1   -1    0    0  501    0  0.00000000000E+00  0.00000000000E+00 -0.25173760549E+04  0.25173760549E+04  0.50400001928E-02 0.  1.
    10030    2    1    2    0    0  0.00000000000E+00  0.00000000000E+00 -0.10828225649E+04  0.39519295450E+04  0.38006897298E+04 0.  0.
        2    1    3    3  502    0  0.55759229542E+03  0.16004946454E+04  0.35233779449E+03  0.17310789119E+04  0.25500000920E-02 0. -1.
       -2    1    3    3    0  502 -0.55759229542E+03 -0.16004946454E+04 -0.14351603593E+04  0.22208506331E+04  0.25500000920E-02 0.  1.
</event>
<event>
 5   0  0.1666051E-08  0.3788240E+04  0.7818609E-02  0.8048683E-01
       -1   -1    0    0    0  501  0.00000000000E+00  0.00000000000E+00  0.17974959469E+04  0.17974959470E+04  0.50400001928E-02 0. -1.
        1   -1    0    0  501    0  0.00000000000E+00  0.00000000000E+00 -0.19959380006E+04  0.19959380006E+04  0.50400001928E-02 0.  1.
    10030    2    1    2    0    0  0.00000000000E+00  0.00000000000E+00 -0.19844205366E+03  0.37934339476E+04  0.37882399430E+04 0.  0.
        2    1    3    3  502    0  0.65113550832E+03  0.17785654128E+04 -0.78745772008E+02  0.18956458726E+04  0.25500000920E-02 0.  1.
       -2    1    3    3    0  502 -0.65113550832E+03 -0.17785654128E+04 -0.11969628165E+03  0.18977880750E+04  0.25500000920E-02 0. -1.
</event>
<event>
 5   0  0.1628473E-08  0.3798444E+04  0.7818609E-02  0.8046489E-01
        1   -1    0    0  501    0  0.00000000000E+00  0.00000000000E+00  0.26275146454E+04  0.26275146454E+04  0.50400001928E-02 0. -1.
       -1   -1    0    0    0  501  0.00000000000E+00  0.00000000000E+00 -0.13727966727E+04  0.13727966727E+04  0.50400001928E-02 0.  1.
    10030    2    1    2    0    0  0.00000000000E+00  0.00000000000E+00  0.12547179728E+04  0.40003113181E+04  0.37984435563E+04 0.  0.
        3    1    3    3  502    0  0.14305937016E+04 -0.35705893745E+03  0.18880371411E+04  0.23955737685E+04  0.10100000352E+00 0. -1.
       -3    1    3    3    0  502 -0.14305937016E+04  0.35705893745E+03 -0.63331916835E+03  0.16047375496E+04  0.10100000352E+00 0.  1.
</event>
<event>
 5   0  0.1628250E-08  0.3790952E+04  0.7818609E-02  0.8048099E-01
        1   -1    0    0  501    0  0.00000000000E+00  0.00000000000E+00  0.22579625521E+04  0.22579625521E+04  0.50400001928E-02 0.  1.
       -1   -1    0    0    0  501  0.00000000000E+00  0.00000000000E+00 -0.15911823032E+04  0.15911823032E+04  0.50400001928E-02 0. -1.
    10030    2    1    2    0    0  0.00000000000E+00  0.00000000000E+00  0.66678024898E+03  0.38491448553E+04  0.37909524155E+04 0.  0.
        5    1    3    3  502    0 -0.17697179873E+04  0.67798852940E+03  0.29766820657E+03  0.19183843858E+04  0.46999998093E+01 0.  1.
       -5    1    3    3    0  502  0.17697179873E+04 -0.67798852940E+03  0.36911204240E+03  0.19307604695E+04  0.46999998093E+01 0. -1.
</event>
<event>
 5   0  0.5159761E-08  0.3795686E+04  0.7818609E-02  0.8047081E-01
        2   -1    0    0  501    0  0.00000000000E+00  0.00000000000E+00  0.99550764763E+03  0.99550764763E+03  0.25500000920E-02 0. -1.
       -2   -1    0    0    0  501  0.00000000000E+00  0.00000000000E+00 -0.36180611235E+04  0.36180611235E+04  0.25500000920E-02 0.  1.
    10030    2    1    2    0    0  0.00000000000E+00  0.00000000000E+00 -0.26225534759E+04  0.46135687712E+04  0.37956857183E+04 0.  0.
        5    1    3    3  502    0  0.81505490039E+03 -0.56354936594E+03  0.65610078556E+03  0.11884412940E+04  0.46999998093E+01 0. -1.
       -5    1    3    3    0  502 -0.81505490039E+03  0.56354936594E+03 -0.32786542615E+04  0.34251274772E+04  0.46999998093E+01 0.  1.
</event>
<event>
 5   0  0.1628473E-08  0.3803561E+04  0.7818609E-02  0.8045391E-01
        1   -1    0    0  501    0  0.00000000000E+00  0.00000000000E+00  0.24092328292E+04  0.24092328292E+04  0.50400001928E-02 0.  1.
       -1   -1    0    0    0  501  0.00000000000E+00  0.00000000000E+00 -0.15012121528E+04  0.15012121528E+04  0.50400001928E-02 0. -1.
    10030    2    1    2    0    0  0.00000000000E+00  0.00000000000E+00  0.90802067643E+03  0.39104449820E+04  0.38035612797E+04 0.  0.
        3    1    3    3  502    0  0.15907719543E+04 -0.99967838220E+03  0.15101289863E+03  0.18848652960E+04  0.10100000352E+00 0.  1.
       -3    1    3    3    0  502 -0.15907719543E+04  0.99967838220E+03  0.75700777780E+03  0.20255796860E+04  0.10100000352E+00 0. -1.
</event>
<event>
 5   0  0.1628250E-08  0.3799043E+04  0.7818609E-02  0.8046360E-01
       -1   -1    0    0    0  501  0.00000000000E+00  0.00000000000E+00  0.14718261365E+04  0.14718261365E+04  0.50400001928E-02 0. -1.
        1   -1    0    0  501    0  0.00000000000E+00  0.00000000000E+00 -0.24515000140E+04  0.24515000140E+04  0.50400001928E-02 0.  1.
    10030    2    1    2    0    0  0.00000000000E+00  0.00000000000E+00 -0.97967387746E+03  0.39233261505E+04  0.37990429290E+04 0.  0.
        5    1    3    3  502    0  0.38943026770E+03  0.10132916481E+04 -0.20995944263E+04  0.23636274542E+04  0.46999998093E+01 0.  1.
       -5    1    3    3    0  502 -0.38943026770E+03 -0.10132916481E+04  0.11199205488E+04  0.15596986963E+04  0.46999998093E+01 0. -1.
</event>
<event>
 5   0  0.1628250E-08  0.3807719E+04  0.7818609E-02  0.8044500E-01
        1   -1    0    0  501    0  0.00000000000E+00  0.00000000000E+00  0.28262245992E+04  0.28262245992E+04  0.50400001928E-02 0.  1.
       -1   -1    0    0    0  501  0.00000000000E+00  0.00000000000E+00 -0.12825168240E+04  0.12825168241E+04  0.50400001928E-02 0. -1.
    10030    2    1    2    0    0  0.00000000000E+00  0.00000000000E+00  0.15437077751E+04  0.41087414232E+04  0.38077187906E+04 0.  0.
        4    1    3    3  502    0 -0.75248079349E+03 -0.80313689078E+02  0.26569621811E+04  0.27626304997E+04  0.12699999809E+01 0.  1.
       -4    1    3    3    0  502  0.75248079349E+03  0.80313689078E+02 -0.11132544059E+04  0.13461109235E+04  0.12699999809E+01 0. -1.
</event>
<event>
 5   0  0.1666051E-08  0.3746126E+04  0.7818609E-02  0.8057816E-01
        1   -1    0    0  501    0  0.00000000000E+00  0.00000000000E+00  0.25587053129E+04  0.25587053129E+04  0.50400001928E-02 0. -1.
       -1   -1    0    0    0  501  0.00000000000E+00  0.00000000000E+00 -0.13711483766E+04  0.13711483766E+04  0.50400001928E-02 0.  1.
    10030    2    1    2    0    0  0.00000000000E+00  0.00000000000E+00  0.11875569363E+04  0.39298536895E+04  0.37461258046E+04 0.  0.
        2    1    3    3  502    0  0.74315518236E+03 -0.29312278343E+03  0.23710238052E+04  0.25019901032E+04  0.25500000920E-02 0. -1.
       -2    1    3    3    0  502 -0.74315518236E+03  0.29312278343E+03 -0.11834668690E+04  0.14278635863E+04  0.25500000920E-02 0.  1.
</event>
<event>
 5   0  0.5140842E-08  0.3802638E+04  0.7818609E-02  0.8045589E-01
       -2   -1    0    0    0  501  0.00000000000E+00  0.00000000000E+00  0.15462646381E+04  0.15462646381E+04  0.25500000920E-02 0.  1.
        2   -1    0    0  501    0  0.00000000000E+00  0.00000000000E+00 -0.23379010740E+04  0.23379010740E+04  0.25500000920E-02 0. -1.
    10030    2    1    2    0    0  0.00000000000E+00  0.00000000000E+00 -0.79163643584E+03  0.38841657121E+04  0.38026379044E+04 0.  0.
        2    1    3    3  502    0  0.21474376208E+03 -0.18852904109E+04 -0.27248621918E+03  0.19169464146E+04  0.25500000920E-02 0. -1.
       -2    1    3    3    0  502 -0.21474376208E+03  0.18852904109E+04 -0.51915021666E+03  0.19672192975E+04  0.25500000920E-02 0.  1.
</event>
<event>
 5   0  0.5086209E-08  0.3808189E+04  0.7818609E-02  0.8044400E-01
        2   -1    0    0  501    0  0.00000000000E+00  0.00000000000E+00  0.19116967556E+04  0.19116967556E+04  0.25500000920E-02 0.  1.
       -2   -1    0    0    0  501  0.00000000000E+00  0.00000000000E+00 -0.18965223839E+04  0.18965223839E+04  0.25500000920E-02 0. -1.
    10030    2    1    2    0    0  0.00000000000E+00  0.00000000000E+00  0.15174371723E+02  0.38082191394E+04  0.38081889071E+04 0.  0.
        3    1    3    3  502    0 -0.14532332957E+04  0.60114719861E+00 -0.12227429887E+04  0.18992071503E+04  0.10100000352E+00 0. -1.
       -3    1    3    3    0  502  0.14532332957E+04 -0.60114719861E+00  0.12379173604E+04  0.19090119891E+04  0.10100000352E+00 0.  1.
</event>
<event>
 5   0  0.5207474E-08  0.3793688E+04  0.7818609E-02  0.8047511E-01
        2   -1    0    0  501    0  0.00000000000E+00  0.00000000000E+00  0.29724303128E+04  0.29724303128E+04  0.25500000920E-02 0.  1.
       -2   -1    0    0    0  501  0.00000000000E+00  0.00000000000E+00 -0.12104630912E+04  0.12104630912E+04  0.25500000920E-02 0. -1.
    10030    2    1    2    0    0  0.00000000000E+00  0.00000000000E+00  0.17619672216E+04  0.41828934039E+04  0.37936880128E+04 0.  0.
        4    1    3    3  502    0 -0.15028910548E+04 -0.27695693046E+03  0.21199315256E+04  0.26133308153E+04  0.12699999809E+01 0.  1.
       -4    1    3    3    0  502  0.15028910548E+04  0.27695693046E+03 -0.35796430402E+03  0.15695625887E+04  0.12699999809E+01 0. -1.
</event>
<event>
 5   0  0.1628250E-08  0.3801056E+04  0.7818609E-02  0.8045928E-01
        1   -1    0    0  501    0  0.00000000000E+00  0.00000000000E+00  0.16102295010E+04  0.16102295010E+04  0.50400001928E-02 0.  1.
       -1   -1    0    0    0  501  0.00000000000E+00  0.00000000000E+00 -0.22431624454E+04  0.22431624454E+04  0.50400001928E-02 0. -1.
    10030    2    1    2    0    0  0.00000000000E+00  0.00000000000E+00 -0.63293294436E+03  0.38533919464E+04  0.38010558245E+04 0.  0.
        5    1    3    3  502    0 -0.18138312851E+04 -0.40031762946E+03 -0.72418070570E+03  0.19936644451E+04  0.46999998093E+01 0. -1.
       -5    1    3    3    0  502  0.18138312851E+04  0.40031762946E+03  0.91247761346E+02  0.18597275013E+04  0.46999998093E+01 0.  1.
</event>
<event>
 5   0  0.5147582E-08  0.3801646E+04  0.7818609E-02  0.8045802E-01
       -2   -1    0    0    0  501  0.00000000000E+00  0.00000000000E+00  0.19645324120E+04  0.19645324120E+04  0.25500000920E-02 0. -1.
        2   -1    0    0  501    0  0.00000000000E+00  0.00000000000E+00 -0.18391795328E+04  0.18391795328E+04  0.25500000920E-02 0.  1.
    10030    2    1    2    0    0  0.00000000000E+00  0.00000000000E+00  0.12535287916E+03  0.38037119448E+04  0.38016458560E+04 0.  0.
        1    1    3    3  502    0 -0.13806794822E+02 -0.18483407223E+04  0.50628378086E+03  0.19164752333E+04  0.50400001928E-02 0. -1.
       -1    1    3    3    0  502  0.13806794822E+02  0.18483407223E+04 -0.38093090171E+03  0.18872367115E+04  0.50400001928E-02 0.  1.
</event>
<event>
 5   0  0.5159761E-08  0.3793133E+04  0.7818609E-02  0.8047630E-01
        2   -1    0    0  501    0  0.00000000000E+00  0.00000000000E+00  0.15942231069E+04  0.15942231070E+04  0.25500000920E-02 0. -1.
       -2   -1    0    0    0  501  0.00000000000E+00  0.00000000000E+00 -0.22562485657E+04  0.22562485657E+04  0.25500000920E-02 0.  1.
    10030    2    1    2    0    0  0.00000000000E+00  0.00000000000E+00 -0.66202545879E+03  0.38504716727E+04  0.37931325305E+04 0.  0.
        5    1    3    3  502    0  0.52234560081E+03 -0.93902770731E+03 -0.19174303096E+04  0.21979943230E+04  0.46999998093E+01 0.  1.
       -5    1    3    3    0  502 -0.52234560081E+03  0.93902770731E+03  0.12554048508E+04  0.16524773497E+04  0.46999998093E+01 0. -1.
</event>
<event>
 5   0  0.1628250E-08  0.3778180E+04  0.7818609E-02  0.8050854E-01
        1   -1    0    0  501    0  0.00000000000E+00  0.00000000000E+00  0.16210256745E+04  0.16210256745E+04  0.50400001928E-02 0. -1.
       -1   -1    0    0    0  501  0.00000000000E+00  0.00000000000E+00 -0.22014835777E+04  0.22014835777E+04  0.50400001928E-02 0.  1.
    10030    2    1    2    0    0  0.00000000000E+00  0.00000000000E+00 -0.58045790323E+03  0.38225092522E+04  0.37781801976E+04 0.  0.
        4    1    3    3  502    0  0.55139339369E+03 -0.62652645862E+03  0.14243791773E+04  0.16508869530E+04  0.12699999809E+01 0. -1.
       -4    1    3    3    0  502 -0.55139339369E+03  0.62652645862E+03 -0.20048370805E+04  0.21716222992E+04  0.12699999809E+01 0.  1.
</event>
<event>
 5   0  0.1666051E-08  0.3809046E+04  0.7818609E-02  0.8044216E-01
        1   -1    0    0  501    0  0.00000000000E+00  0.00000000000E+00  0.21079612935E+04  0.21079612935E+04  0.50400001928E-02 0. -1.
       -1   -1    0    0    0  501  0.00000000000E+00  0.00000000000E+00 -0.17207186193E+04  0.17207186193E+04  0.50400001928E-02 0.  1.
    10030    2    1    2    0    0  0.00000000000E+00  0.00000000000E+00  0.38724267421E+03  0.38286799128E+04  0.38090462042E+04 0.  0.
        2    1    3    3  502    0 -0.11367916928E+04  0.69571411775E+03 -0.11738671603E+04  0.17760286024E+04  0.25500000920E-02 0.  1.
       -2    1    3    3    0  502  0.11367916928E+04 -0.69571411775E+03  0.15611098345E+04  0.20526513104E+04  0.25500000920E-02 0. -1.
</event>
<event>
 5   0  0.1666051E-08  0.3799283E+04  0.7818609E-02  0.8046309E-01
       -1   -1    0    0    0  501  0.00000000000E+00  0.00000000000E+00  0.15238452016E+04  0.15238452016E+04  0.50400001928E-02 0.  1.
        1   -1    0    0  501    0  0.00000000000E+00  0.00000000000E+00 -0.23681136006E+04  0.23681136006E+04  0.50400001928E-02 0. -1.
    10030    2    1    2    0    0  0.00000000000E+00  0.00000000000E+00 -0.84426839903E+03  0.38919588022E+04  0.37992833783E+04 0.  0.
        2    1    3    3  502    0 -0.13964763234E+04  0.72346643482E+03  0.66925953232E+03  0.17092273476E+04  0.25500000920E-02 0.  1.
       -2    1    3    3    0  502  0.13964763234E+04 -0.72346643482E+03 -0.15135279314E+04  0.21827314547E+04  0.25500000920E-02 0. -1.
</event>
<event>
 5   0  0.1628250E-08  0.3811114E+04  0.7818609E-02  0.8043774E-01
       -1   -1    0    0    0  501  0.00000000000E+00  0.00000000000E+00  0.28403317780E+04  0.28403317781E+04  0.50400001928E-02 0.  1.
        1   -1    0    0  501    0  0.00000000000E+00  0.00000000000E+00 -0.12784237520E+04  0.12784237520E+04  0.50400001928E-02 0. -1.
    10030    2    1    2    0    0  0.00000000000E+00  0.00000000000E+00  0.15619080260E+04  0.41187555301E+04  0.38111140674E+04 0.  0.
        5    1    3    3  502    0  0.74516045701E+03 -0.54481594313E+03  0.25825658727E+04  0.27425821949E+04  0.46999998093E+01 0.  1.
       -5    1    3    3    0  502 -0.74516045701E+03  0.54481594313E+03 -0.10206578467E+04  0.13761733352E+04  0.46999998093E+01 0. -1.
</event>
<event>
 5   0  0.1666051E-08  0.3793689E+04  0.7818609E-02  0.8047510E-01
        1   -1    0    0  501    0  0.00000000000E+00  0.00000000000E+00  0.17667587320E+04  0.17667587320E+04  0.50400001928E-02 0. -1.
       -1   -1    0    0    0  501  0.00000000000E+00  0.00000000000E+00 -0.20365087869E+04  0.20365087869E+04  0.50400001928E-02 0.  1.
    10030    2    1    2    0    0  0.00000000000E+00  0.00000000000E+00 -0.26975005488E+03  0.38032675189E+04  0.37936893294E+04 0.  0.
        2    1    3    3  502    0 -0.13968335872E+04  0.11921134155E+04 -0.61119691885E+03  0.19354173037E+04  0.25500000920E-02 0.  1.
       -2    1    3    3    0  502  0.13968335872E+04 -0.11921134155E+04  0.34144686397E+03  0.18678502152E+04  0.25500000920E-02 0. -1.
</event>
<event>
 5   0  0.5140842E-08  0.3797060E+04  0.7818609E-02  0.8046786E-01
       -2   -1    0    0    0  501  0.00000000000E+00  0.00000000000E+00  0.15449062749E+04  0.15449062749E+04  0.25500000920E-02 0.  1.
        2   -1    0    0  501    0  0.00000000000E+00  0.00000000000E+00 -0.23330967058E+04  0.23330967058E+04  0.25500000920E-02 0. -1.
    10030    2    1    2    0    0  0.00000000000E+00  0.00000000000E+00 -0.78819043093E+03  0.38780029807E+04  0.37970597787E+04 0.  0.
        2    1    3    3  502    0  0.62174512597E+03 -0.23343991458E+02 -0.22260162099E+04  0.23113329726E+04  0.25500000920E-02 0. -1.
       -2    1    3    3    0  502 -0.62174512597E+03  0.23343991458E+02  0.14378257790E+04  0.15666700081E+04  0.25500000920E-02 0.  1.
</event>
<event>
 5   0  0.5140842E-08  0.3808367E+04  0.7818609E-02  0.8044362E-01
        2   -1    0    0  501    0  0.00000000000E+00  0.00000000000E+00  0.13046313828E+04  0.13046313828E+04  0.25500000920E-02 0.  1.
       -2   -1    0    0    0  501  0.00000000000E+00  0.00000000000E+00 -0.27792642886E+04  0.27792642886E+04  0.25500000920E-02 0. -1.
    10030    2    1    2    0    0  0.00000000000E+00  0.00000000000E+00 -0.14746329058E+04  0.40838956713E+04  0.38083673205E+04 0.  0.
        2    1    3    3  502    0  0.71999450563E+03  0.11503229641E+04 -0.21697265106E+04  0.25591694240E+04  0.25500000920E-02 0. -1.
       -2    1    3    3    0  502 -0.71999450563E+03 -0.11503229641E+04  0.69509360478E+03  0.15247262474E+04  0.25500000920E-02 0.  1.
</event>
<event>
 5   0  0.5086209E-08  0.3806145E+04  0.7818609E-02  0.8044837E-01
       -2   -1    0    0    0  501  0.00000000000E+00  0.00000000000E+00  0.11774020107E+04  0.11774020107E+04  0.25500000920E-02 0.  1.
        2   -1    0    0  501    0  0.00000000000E+00  0.00000000000E+00 -0.30759971165E+04  0.30759971165E+04  0.25500000920E-02 0. -1.
    10030    2    1    2    0    0  0.00000000000E+00  0.00000000000E+00 -0.18985951058E+04  0.42533991272E+04  0.38061451311E+04 0.  0.
        3    1    3    3  502    0  0.13725005953E+04  0.90736804196E+03  0.11943464195E+03  0.16496482327E+04  0.10100000352E+00 0.  1.
       -3    1    3    3    0  502 -0.13725005953E+04 -0.90736804196E+03 -0.20180297478E+04  0.26037508945E+04  0.10100000352E+00 0. -1.
</event>
<event>
 5   0  0.1628250E-08  0.3796089E+04  0.7818609E-02  0.8046995E-01
       -1   -1    0    0    0  501  0.00000000000E+00  0.00000000000E+00  0.17849066060E+04  0.17849066060E+04  0.50400001928E-02 0. -1.
        1   -1    0    0  501    0  0.00000000000E+00  0.00000000000E+00 -0.20183535677E+04  0.20183535677E+04  0.50400001928E-02 0.  1.
    10030    2    1    2    0    0  0.00000000000E+00  0.00000000000E+00 -0.23344696166E+03  0.38032601737E+04  0.37960888379E+04 0.  0.
        1    1    3    3  502    0  0.16449462950E+04  0.90181348332E+03  0.17271107926E+03  0.18838643765E+04  0.50400001928E-02 0.  1.
       -1    1    3    3    0  502 -0.16449462950E+04 -0.90181348332E+03 -0.40615804091E+03  0.19193957972E+04  0.50400001928E-02 0. -1.
</event>
<event>
 5   0  0.1666051E-08  0.3803425E+04  0.7818609E-02  0.8045420E-01
       -1   -1    0    0    0  501  0.00000000000E+00  0.00000000000E+00  0.18647226519E+04  0.18647226519E+04  0.50400001928E-02 0.  1.
        1   -1    0    0  501    0  0.00000000000E+00  0.00000000000E+00 -0.19394360858E+04  0.19394360858E+04  0.50400001928E-02 0. -1.
    10030    2    1    2    0    0  0.00000000000E+00  0.00000000000E+00 -0.74713433881E+02  0.38041587377E+04  0.38034249834E+04 0.  0.
        2    1    3    3  502    0 -0.59926138851E+03  0.67897556314E+03  0.16352064158E+04  0.18692303361E+04  0.25500000920E-02 0.  1.
       -2    1    3    3    0  502  0.59926138851E+03 -0.67897556314E+03 -0.17099198497E+04  0.19349284016E+04  0.25500000920E-02 0. -1.
</event>
<event>
 5   0  0.1666051E-08  0.3815074E+04  0.7818609E-02  0.8042928E-01
       -1   -1    0    0    0  501  0.00000000000E+00  0.00000000000E+00  0.14672783770E+04  0.14672783771E+04  0.50400001928E-02 0. -1.
        1   -1    0    0  501    0  0.00000000000E+00  0.00000000000E+00 -0.24798958044E+04  0.24798958044E+04  0.50400001928E-02 0.  1.
    10030    2    1    2    0    0  0.00000000000E+00  0.00000000000E+00 -0.10126174274E+04  0.39471741815E+04  0.38150740445E+04 0.  0.
        2    1    3    3  502    0  0.11307913261E+04  0.10673628207E+04  0.63682178229E+03  0.16803256817E+04  0.25500000920E-02 0. -1.
       -2    1    3    3    0  502 -0.11307913261E+04 -0.10673628207E+04 -0.16494392097E+04  0.22668484997E+04  0.25500000920E-02 0.  1.
</event>
<event>
 5   0  0.5086209E-08  0.3799703E+04  0.7818609E-02  0.8046219E-01
        2   -1    0    0  501    0  0.00000000000E+00  0.00000000000E+00  0.25410812315E+04  0.25410812315E+04  0.25500000920E-02 0.  1.
       -2   -1    0    0    0  501  0.00000000000E+00  0.00000000000E+00 -0.14204328346E+04  0.14204328346E+04  0.25500000920E-02 0. -1.
    10030    2    1    2    0    0  0.00000000000E+00  0.00000000000E+00  0.11206483969E+04  0.39615140661E+04  0.37997027339E+04 0.  0.
        3    1    3    3  502    0  0.33048717685E+03 -0.79936026020E+03  0.23238770008E+04  0.24796376600E+04  0.10100000352E+00 0.  1.
       -3    1    3    3    0  502 -0.33048717685E+03  0.79936026020E+03 -0.12032286038E+04  0.14818764061E+04  0.10100000352E+00 0. -1.
</event>
<event>
 5   0  0.5140842E-08  0.3803451E+04  0.7818609E-02  0.8045415E-01
       -2   -1    0    0    0  501  0.00000000000E+00  0.00000000000E+00  0.25876318395E+04  0.25876318395E+04  0.25500000920E-02 0. -1.
        2   -1    0    0  501    0  0.00000000000E+00  0.00000000000E+00 -0.13976327678E+04  0.13976327678E+04  0.25500000920E-02 0.  1.
    10030    2    1    2    0    0  0.00000000000E+00  0.00000000000E+00  0.11899990717E+04  0.39852646073E+04  0.38034505649E+04 0.  0.
        2    1    3    3  502    0 -0.38902798835E+03 -0.88141190693E+03  0.23129894942E+04  0.25056237000E+04  0.25500000920E-02 0. -1.
       -2    1    3    3    0  502  0.38902798835E+03  0.88141190693E+03 -0.11229904226E+04  0.14796409073E+04  0.25500000920E-02 0.  1.
</event>
<event>
 5   0  0.5140842E-08  0.3801630E+04  0.7818609E-02  0.8045805E-01
        2   -1    0    0  501    0  0.00000000000E+00  0.00000000000E+00  0.22524185664E+04  0.22524185664E+04  0.25500000920E-02 0.  1.
       -2   -1    0    0    0  501  0.00000000000E+00  0.00000000000E+00 -0.16040970303E+04  0.16040970303E+04  0.25500000920E-02 0. -1.
    10030    2    1    2    0    0  0.00000000000E+00  0.00000000000E+00  0.64832153610E+03  0.38565155967E+04  0.38016301416E+04 0.  0.
        2    1    3    3  502    0 -0.21126095332E+03  0.17469837815E+04  0.10532261059E+04  0.20508214826E+04  0.25500000920E-02 0.  1.
       -2    1    3    3    0  502  0.21126095332E+03 -0.17469837815E+04 -0.40490456978E+03  0.18056941142E+04  0.25500000920E-02 0. -1.
</event>
<event>
 5   0  0.1628250E-08  0.3800943E+04  0.7818609E-02  0.8045952E-01
        1   -1    0    0  501    0  0.00000000000E+00  0.00000000000E+00  0.19918587537E+04  0.19918587537E+04  0.50400001928E-02 0. -1.
       -1   -1    0    0    0  501  0.00000000000E+00  0.00000000000E+00 -0.18132775471E+04  0.18132775471E+04  0.50400001928E-02 0.  1.
    10030    2    1    2    0    0  0.00000000000E+00  0.00000000000E+00  0.17858120662E+03  0.38051363008E+04  0.38009434381E+04 0.  0.
        4    1    3    3  502    0 -0.18987378978E+04  0.56346791881E+00  0.17052948986E+03  0.19063808228E+04  0.12699999809E+01 0. -1.
       -4    1    3    3    0  502  0.18987378978E+04 -0.56346791881E+00  0.80517167603E+01  0.18987554779E+04  0.12699999809E+01 0.  1.
</event>
<event>
 5   0  0.5147582E-08  0.3802093E+04  0.7818609E-02  0.8045706E-01
       -2   -1    0    0    0  501  0.00000000000E+00  0.00000000000E+00  0.17463152891E+04  0.17463152891E+04  0.25500000920E-02 0.  1.
        2   -1    0    0  501    0  0.00000000000E+00  0.00000000000E+00 -0.20694873513E+04  0.20694873513E+04  0.25500000920E-02 0. -1.
    10030    2    1    2    0    0  0.00000000000E+00  0.00000000000E+00 -0.32317206217E+03  0.38158026403E+04  0.38020927932E+04 0.  0.
        1    1    3    3  502    0  0.10836456454E+04 -0.14110560742E+04  0.51061287181E+03  0.18509707275E+04  0.50400001928E-02 0.  1.
       -1    1    3    3    0  502 -0.10836456454E+04  0.14110560742E+04 -0.83378493398E+03  0.19648319128E+04  0.50400001928E-02 0. -1.
</event>
<event>
 5   0  0.5086209E-08  0.3799624E+04  0.7818609E-02  0.8046236E-01
       -2   -1    0    0    0  501  0.00000000000E+00  0.00000000000E+00  0.13830115389E+04  0.13830115389E+04  0.25500000920E-02 0.  1.
        2   -1    0    0  501    0  0.00000000000E+00  0.00000000000E+00 -0.26097288361E+04  0.26097288361E+04  0.25500000920E-02 0. -1.
    10030    2    1    2    0    0  0.00000000000E+00  0.00000000000E+00 -0.12267172972E+04  0.39927403750E+04  0.37996237150E+04 0.  0.
        3    1    3    3  502    0  0.23036779353E+03  0.14625600816E+04  0.63757969784E+03  0.16120357297E+04  0.10100000352E+00 0.  1.
       -3    1    3    3    0  502 -0.23036779353E+03 -0.14625600816E+04 -0.18642969950E+04  0.23807046453E+04  0.10100000352E+00 0. -1.
</event>
<event>
 5   0  0.1666051E-08  0.3790459E+04  0.7818609E-02  0.8048205E-01
        1   -1    0    0  501    0  0.00000000000E+00  0.00000000000E+00  0.17560712046E+04  0.17560712046E+04  0.50400001928E-02 0. -1.
       -1   -1    0    0    0  501  0.00000000000E+00  0.00000000000E+00 -0.20454157014E+04  0.20454157014E+04  0.50400001928E-02 0.  1.
    10030    2    1    2    0    0  0.00000000000E+00  0.00000000000E+00 -0.28934449687E+03  0.38014869060E+04  0.37904593994E+04 0.  0.
        2    1    3    3  502    0  0.87256694174E+03 -0.14705558133E+03  0.15361801283E+04  0.17728078853E+04  0.25500000920E-02 0. -1.
       -2    1    3    3    0  502 -0.87256694174E+03  0.14705558133E+03 -0.18255246251E+04  0.20286790207E+04  0.25500000920E-02 0.  1.
</event>
<event>
 5   0  0.5086209E-08  0.3799550E+04  0.7818609E-02  0.8046251E-01
       -2   -1    0    0    0  501  0.00000000000E+00  0.00000000000E+00  0.18245685580E+04  0.18245685580E+04  0.25500000920E-02 0.  1.
        2   -1    0    0  501    0  0.00000000000E+00  0.00000000000E+00 -0.19780812132E+04  0.19780812132E+04  0.25500000920E-02 0. -1.
    10030    2    1    2    0    0  0.00000000000E+00  0.00000000000E+00 -0.15351265522E+03  0.38026497712E+04  0.37995498611E+04 0.  0.
        3    1    3    3  502    0 -0.18604871661E+04 -0.82504277817E+02  0.29895016800E+03  0.18861576456E+04  0.10100000352E+00 0. -1.
       -3    1    3    3    0  502  0.18604871661E+04  0.82504277817E+02 -0.45246282322E+03  0.19164921256E+04  0.10100000352E+00 0.  1.
</event>
<event>
 5   0  0.5140842E-08  0.3789997E+04  0.7818609E-02  0.8048305E-01
       -2   -1    0    0    0  501  0.00000000000E+00  0.00000000000E+00  0.25789187894E+04  0.25789187894E+04  0.25500000920E-02 0.  1.
        2   -1    0    0  501    0  0.00000000000E+00  0.00000000000E+00 -0.13924518053E+04  0.13924518053E+04  0.25500000920E-02 0. -1.
    10030    2    1    2    0    0  0.00000000000E+00  0.00000000000E+00  0.11864669841E+04  0.39713705948E+04  0.37899974270E+04 0.  0.
        2    1    3    3  502    0 -0.13961477066E+03  0.66490716294E+03 -0.12604426703E+04  0.14318901999E+04  0.25500000920E-02 0. -1.
       -2    1    3    3    0  502  0.13961477066E+03 -0.66490716294E+03  0.24469096543E+04  0.25394803949E+04  0.25500000920E-02 0.  1.
</event>
<event>
 5   0  0.5086209E-08  0.3799638E+04  0.7818609E-02  0.8046233E-01
        2   -1    0    0  501    0  0.00000000000E+00  0.00000000000E+00  0.20713957945E+04  0.20713957945E+04  0.25500000920E-02 0. -1.
       -2   -1    0    0    0  501  0.00000000000E+00  0.00000000000E+00 -0.17424541426E+04  0.17424541426E+04  0.25500000920E-02 0.  1.
    10030    2    1    2    0    0  0.00000000000E+00  0.00000000000E+00  0.32894165194E+03  0.38138499371E+04  0.37996379739E+04 0.  0.
        3    1    3    3  502    0 -0.72771345942E+03 -0.37459300626E+03  0.18853588051E+04  0.20553502459E+04  0.10100000352E+00 0. -1.
       -3    1    3    3    0  502  0.72771345942E+03  0.37459300626E+03 -0.15564171531E+04  0.17584996912E+04  0.10100000352E+00 0.  1.
</event>
<event>
 5   0  0.1628250E-08  0.3786168E+04  0.7818609E-02  0.8049130E-01
       -1   -1    0    0    0  501  0.00000000000E+00  0.00000000000E+00  0.16014195369E+04  0.16014195369E+04  0.50400001928E-02 0.  1.
        1   -1    0    0  501    0  0.00000000000E+00  0.00000000000E+00 -0.22378688506E+04  0.22378688506E+04  0.50400001928E-02 0. -1.
    10030    2    1    2    0    0  0.00000000000E+00  0.00000000000E+00 -0.63644931371E+03  0.38392883875E+04  0.37861679299E+04 0.  0.
        5    1    3    3  502    0  0.12974083163E+04  0.13458686760E+04 -0.62093257010E+03  0.19698249106E+04  0.46999998093E+01 0.  1.
       -5    1    3    3    0  502 -0.12974083163E+04 -0.13458686760E+04 -0.15516743615E+02  0.18694634769E+04  0.46999998093E+01 0. -1.
</event>
<event>
 5   0  0.1628250E-08  0.3802551E+04  0.7818609E-02  0.8045608E-01
       -3   -1    0    0    0  501  0.00000000000E+00  0.00000000000E+00  0.13551374378E+04  0.13551374416E+04  0.10100000352E+00 0.  1.
        3   -1    0    0  501    0  0.00000000000E+00  0.00000000000E+00 -0.26675141574E+04  0.26675141593E+04  0.10100000352E+00 0. -1.
    10030    2    1    2    0    0  0.00000000000E+00  0.00000000000E+00 -0.13123767196E+04  0.40226516009E+04  0.38025508870E+04 0.  0.
        2    1    3    3  502    0  0.56049772946E+03  0.14549004547E+04  0.49489038332E+03  0.16357901850E+04  0.25500000920E-02 0.  1.
       -2    1    3    3    0  502 -0.56049772946E+03 -0.14549004547E+04 -0.18072671029E+04  0.23868614159E+04  0.25500000920E-02 0. -1.
</event>
<event>
 5   0  0.5147582E-08  0.3778717E+04  0.7818609E-02  0.8050738E-01
       -2   -1    0    0    0  501  0.00000000000E+00  0.00000000000E+00  0.24730020848E+04  0.24730020848E+04  0.25500000920E-02 0.  1.
        2   -1    0    0  501    0  0.00000000000E+00  0.00000000000E+00 -0.14434582755E+04  0.14434582755E+04  0.25500000920E-02 0. -1.
    10030    2    1    2    0    0  0.00000000000E+00  0.00000000000E+00  0.10295438093E+04  0.39164603603E+04  0.37787168852E+04 0.  0.
        1    1    3    3  502    0 -0.87911064178E+03  0.12080489170E+04 -0.68386983117E+03  0.16431359203E+04  0.50400001928E-02 0. -1.
       -1    1    3    3    0  502  0.87911064178E+03 -0.12080489170E+04  0.17134136405E+04  0.22733244401E+04  0.50400001928E-02 0.  1.
</event>
<event>
 5   0  0.1628250E-08  0.3795501E+04  0.7818609E-02  0.8047121E-01
       -1   -1    0    0    0  501  0.00000000000E+00  0.00000000000E+00  0.12700172374E+04  0.12700172374E+04  0.50400001928E-02 0.  1.
        1   -1    0    0  501    0  0.00000000000E+00  0.00000000000E+00 -0.28357550584E+04  0.28357550584E+04  0.50400001928E-02 0. -1.
    10030    2    1    2    0    0  0.00000000000E+00  0.00000000000E+00 -0.15657378210E+04  0.41057722958E+04  0.37955014452E+04 0.  0.
        4    1    3    3  502    0  0.11094805734E+04 -0.10781544708E+04 -0.19718520624E+04  0.25063053235E+04  0.12699999809E+01 0. -1.
       -4    1    3    3    0  502 -0.11094805734E+04  0.10781544708E+04  0.40611424138E+03  0.15994669723E+04  0.12699999809E+01 0.  1.
</event>
<event>
 5   0  0.5140842E-08  0.3797728E+04  0.7818609E-02  0.8046643E-01
        2   -1    0    0  501    0  0.00000000000E+00  0.00000000000E+00  0.24624884987E+04  0.24624884987E+04  0.25500000920E-02 0. -1.
       -2   -1    0    0    0  501  0.00000000000E+00  0.00000000000E+00 -0.14642438610E+04  0.14642438610E+04  0.25500000920E-02 0.  1.
    10030    2    1    2    0    0  0.00000000000E+00  0.00000000000E+00  0.99824463768E+03  0.39267323598E+04  0.37977275664E+04 0.  0.
        2    1    3    3  502    0  0.41241263210E+02 -0.86346466106E+03  0.22472368287E+04  0.24077677269E+04  0.25500000920E-02 0. -1.
       -2    1    3    3    0  502 -0.41241263210E+02  0.86346466106E+03 -0.12489921910E+04  0.15189646328E+04  0.25500000920E-02 0.  1.
</event>
<event>
 5   0  0.1628250E-08  0.3781297E+04  0.7818609E-02  0.8050180E-01
       -1   -1    0    0    0  501  0.00000000000E+00  0.00000000000E+00  0.18217008129E+04  0.18217008129E+04  0.50400001928E-02 0. -1.
        1   -1    0    0  501    0  0.00000000000E+00  0.00000000000E+00 -0.19622056161E+04  0.19622056161E+04  0.50400001928E-02 0.  1.
    10030    2    1    2    0    0  0.00000000000E+00  0.00000000000E+00 -0.14050480314E+03  0.37839064290E+04  0.37812969024E+04 0.  0.
        1    1    3    3  502    0 -0.13742765908E+04  0.10063313824E+04 -0.89131395503E+03  0.19224410434E+04  0.50400001928E-02 0. -1.
       -1    1    3    3    0  502  0.13742765908E+04 -0.10063313824E+04  0.75080915190E+03  0.18614653856E+04  0.50400001928E-02 0.  1.
</event>
<event>
 5   0  0.5207474E-08  0.3802351E+04  0.7818609E-02  0.8045651E-01
       -2   -1    0    0    0  501  0.00000000000E+00  0.00000000000E+00  0.15555176423E+04  0.15555176423E+04  0.25500000920E-02 0. -1.
        2   -1    0    0  501    0  0.00000000000E+00  0.00000000000E+00 -0.23236431260E+04  0.23236431260E+04  0.25500000920E-02 0.  1.
    10030    2    1    2    0    0  0.00000000000E+00  0.00000000000E+00 -0.76812548372E+03  0.38791607682E+04  0.38023507869E+04 0.  0.
        4    1    3    3  502    0  0.11658790854E+04  0.56091115412E+03  0.10371214097E+04  0.16581669988E+04  0.12699999809E+01 0. -1.
       -4    1    3    3    0  502 -0.11658790854E+04 -0.56091115412E+03 -0.18052468934E+04  0.22209937694E+04  0.12699999809E+01 0.  1.
</event>
<event>
 5   0  0.1628250E-08  0.3797818E+04  0.7818609E-02  0.8046623E-01
        1   -1    0    0  501    0  0.00000000000E+00  0.00000000000E+00  0.13720944554E+04  0.13720944554E+04  0.50400001928E-02 0. -1.
       -1   -1    0    0    0  501  0.00000000000E+00  0.00000000000E+00 -0.26279935593E+04  0.26279935593E+04  0.50400001928E-02 0.  1.
    10030    2    1    2    0    0  0.00000000000E+00  0.00000000000E+00 -0.12558991039E+04  0.40000880147E+04  0.37978180007E+04 0.  0.
        4    1    3    3  502    0  0.63877903726E+03  0.17402958025E+04 -0.10611781808E+04  0.21360638761E+04  0.12699999809E+01 0.  1.
       -4    1    3    3    0  502 -0.63877903726E+03 -0.17402958025E+04 -0.19472092311E+03  0.18640241386E+04  0.12699999809E+01 0. -1.
</event>
<event>
 5   0  0.5159761E-08  0.3795235E+04  0.7818609E-02  0.8047178E-01
        2   -1    0    0  501    0  0.00000000000E+00  0.00000000000E+00  0.32826129510E+04  0.32826129510E+04  0.25500000920E-02 0.  1.
       -2   -1    0    0    0  501  0.00000000000E+00  0.00000000000E+00 -0.10969775226E+04  0.10969775226E+04  0.25500000920E-02 0. -1.
    10030    2    1    2    0    0  0.00000000000E+00  0.00000000000E+00  0.21856354284E+04  0.43795904736E+04  0.37952352352E+04 0.  0.
        5    1    3    3  502    0  0.16986473133E+04  0.82935864127E+03  0.90078615620E+03  0.20939618526E+04  0.46999998093E+01 0.  1.
       -5    1    3    3    0  502 -0.16986473133E+04 -0.82935864127E+03  0.12848492722E+04  0.22856286210E+04  0.46999998093E+01 0. -1.
</event>
<event>
 5   0  0.1628250E-08  0.3766146E+04  0.7818609E-02  0.8053459E-01
        1   -1    0    0  501    0  0.00000000000E+00  0.00000000000E+00  0.21121023854E+04  0.21121023854E+04  0.50400001928E-02 0. -1.
       -1   -1    0    0    0  501  0.00000000000E+00  0.00000000000E+00 -0.16788785803E+04  0.16788785803E+04  0.50400001928E-02 0.  1.
    10030    2    1    2    0    0  0.00000000000E+00  0.00000000000E+00  0.43322380511E+03  0.37909809658E+04  0.37661457510E+04 0.  0.
        4    1    3    3  502    0 -0.12907448481E+04 -0.64930550198E+03 -0.99896982707E+03  0.17565768489E+04  0.12699999809E+01 0.  1.
       -4    1    3    3    0  502  0.12907448481E+04  0.64930550198E+03  0.14321936322E+04  0.20344041169E+04  0.12699999809E+01 0. -1.
</event>
<event>
 5   0  0.1628250E-08  0.3803431E+04  0.7818609E-02  0.8045419E-01
        1   -1    0    0  501    0  0.00000000000E+00  0.00000000000E+00  0.14798783551E+04  0.14798783551E+04  0.50400001928E-02 0. -1.
       -1   -1    0    0    0  501  0.00000000000E+00  0.00000000000E+00 -0.24437971215E+04  0.24437971215E+04  0.50400001928E-02 0.  1.
    10030    2    1    2    0    0  0.00000000000E+00  0.00000000000E+00 -0.96391876637E+03  0.39236754766E+04  0.38034313267E+04 0.  0.
        5    1    3    3  502    0  0.73483109434E+03  0.13828594721E+04  0.63114437099E+03  0.16883845427E+04  0.46999998093E+01 0. -1.
       -5    1    3    3    0  502 -0.73483109434E+03 -0.13828594721E+04 -0.15950631374E+04  0.22352909339E+04  0.46999998093E+01 0.  1.
</event>
<event>
 5   0  0.5147582E-08  0.3799231E+04  0.7818609E-02  0.8046320E-01
        2   -1    0    0  501    0  0.00000000000E+00  0.00000000000E+00  0.12491573266E+04  0.12491573266E+04  0.25500000920E-02 0.  1.
       -2   -1    0    0    0  501  0.00000000000E+00  0.00000000000E+00 -0.28887791801E+04  0.28887791801E+04  0.25500000920E-02 0. -1.
    10030    2    1    2    0    0  0.00000000000E+00  0.00000000000E+00 -0.16396218535E+04  0.41379365067E+04  0.37992313316E+04 0.  0.
        1    1    3    3  502    0  0.17281376075E+04 -0.78124888497E+03 -0.70184895212E+03  0.20222268325E+04  0.50400001928E-02 0. -1.
       -1    1    3    3    0  502 -0.17281376075E+04  0.78124888497E+03 -0.93777290138E+03  0.21157096741E+04  0.50400001928E-02 0.  1.
</event>
<event>
 5   0  0.1628250E-08  0.3799630E+04  0.7818609E-02  0.8046234E-01
        1   -1    0    0  501    0  0.00000000000E+00  0.00000000000E+00  0.24954328476E+04  0.24954328476E+04  0.50400001928E-02 0. -1.
       -1   -1    0    0    0  501  0.00000000000E+00  0.00000000000E+00 -0.14463613563E+04  0.14463613563E+04  0.50400001928E-02 0.  1.
    10030    2    1    2    0    0  0.00000000000E+00  0.00000000000E+00  0.10490714913E+04  0.39417942039E+04  0.37996303178E+04 0.  0.
        5    1    3    3  502    0 -0.18191522086E+04 -0.19698407082E+03 -0.56210394330E+01  0.18298008548E+04  0.46999998093E+01 0.  1.
       -5    1    3    3    0  502  0.18191522086E+04  0.19698407082E+03  0.10546925307E+04  0.21119933491E+04  0.46999998093E+01 0. -1.
</event>
<event>
 5   0  0.5147582E-08  0.3800087E+04  0.7818609E-02  0.8046136E-01
       -2   -1    0    0    0  501  0.00000000000E+00  0.00000000000E+00  0.14086090852E+04  0.14086090852E+04  0.25500000920E-02 0. -1.
        2   -1    0    0  501    0  0.00000000000E+00  0.00000000000E+00 -0.25629295922E+04  0.25629295922E+04  0.25500000920E-02 0.  1.
    10030    2    1    2    0    0  0.00000000000E+00  0.00000000000E+00 -0.11543205070E+04  0.39715386774E+04  0.38000873192E+04 0.  0.
        1    1    3    3  502    0 -0.14570485638E+04  0.27782577208E+03  0.66384312613E+03  0.16250739593E+04  0.50400001928E-02 0. -1.
       -1    1    3    3    0  502  0.14570485638E+04 -0.27782577208E+03 -0.18181636331E+04  0.23464647182E+04  0.50400001928E-02 0.  1.
</event>
<event>
 5   0  0.1628473E-08  0.3804030E+04  0.7818609E-02  0.8045291E-01
       -1   -1    0    0    0  501  0.00000000000E+00  0.00000000000E+00  0.20553791839E+04  0.20553791839E+04  0.50400001928E-02 0. -1.
        1   -1    0    0  501    0  0.00000000000E+00  0.00000000000E+00 -0.17600944978E+04  0.17600944978E+04  0.50400001928E-02 0.  1.
    10030    2    1    2    0    0  0.00000000000E+00  0.00000000000E+00  0.29528468607E+03  0.38154736817E+04  0.38040302798E+04 0.  0.
        3    1    3    3  502    0 -0.96709363252E+03  0.15826166242E+04 -0.27518970322E+03  0.18750132950E+04  0.10100000352E+00 0.  1.
       -3    1    3    3    0  502  0.96709363252E+03 -0.15826166242E+04  0.57047438928E+03  0.19404603867E+04  0.10100000352E+00 0. -1.
</event>
<event>
 5   0  0.1628250E-08  0.3803423E+04  0.7818609E-02  0.8045421E-01
       -1   -1    0    0    0  501  0.00000000000E+00  0.00000000000E+00  0.15561627609E+04  0.15561627610E+04  0.50400001928E-02 0.  1.
        1   -1    0    0  501    0  0.00000000000E+00  0.00000000000E+00 -0.23239900328E+04  0.23239900328E+04  0.50400001928E-02 0. -1.
    10030    2    1    2    0    0  0.00000000000E+00  0.00000000000E+00 -0.76782727185E+03  0.38801527938E+04  0.38034230613E+04 0.  0.
        5    1    3    3  502    0 -0.15512833714E+04 -0.64902474044E+03  0.52213139293E+03  0.17607829207E+04  0.46999998093E+01 0.  1.
       -5    1    3    3    0  502  0.15512833714E+04  0.64902474044E+03 -0.12899586648E+04  0.21193698731E+04  0.46999998093E+01 0. -1.
</event>
<event>
 5   0  0.5207474E-08  0.3806146E+04  0.7818609E-02  0.8044837E-01
        2   -1    0    0  501    0  0.00000000000E+00  0.00000000000E+00  0.29295689385E+04  0.29295689385E+04  0.25500000920E-02 0. -1.
       -2   -1    0    0    0  501  0.00000000000E+00  0.00000000000E+00 -0.12362527181E+04  0.12362527181E+04  0.25500000920E-02 0.  1.
    10030    2    1    2    0    0  0.00000000000E+00  0.00000000000E+00  0.16933162205E+04  0.41658216566E+04  0.38061463782E+04 0.  0.
        4    1    3    3  502    0 -0.10347636060E+04 -0.15559642768E+04  0.45214429469E+03  0.19225495123E+04  0.12699999809E+01 0.  1.
       -4    1    3    3    0  502  0.10347636060E+04  0.15559642768E+04  0.12411719258E+04  0.22432721443E+04  0.12699999809E+01 0. -1.
</event>
<event>
 5   0  0.5140842E-08  0.3772887E+04  0.7818609E-02  0.8051998E-01
        2   -1    0    0  501    0  0.00000000000E+00  0.00000000000E+00  0.23481421237E+04  0.23481421238E+04  0.25500000920E-02 0. -1.
       -2   -1    0    0    0  501  0.00000000000E+00  0.00000000000E+00 -0.15155251330E+04  0.15155251330E+04  0.25500000920E-02 0.  1.
    10030    2    1    2    0    0  0.00000000000E+00  0.00000000000E+00  0.83261699074E+03  0.38636672568E+04  0.37728866426E+04 0.  0.
        2    1    3    3  502    0 -0.18437704333E+04  0.21454452572E+01  0.82487481125E+03  0.20198793202E+04  0.25500000920E-02 0.  1.
       -2    1    3    3    0  502  0.18437704333E+04 -0.21454452572E+01  0.77421794914E+01  0.18437879366E+04  0.25500000920E-02 0. -1.
</event>
<event>
 5   0  0.1628250E-08  0.3799500E+04  0.7818609E-02  0.8046262E-01
        1   -1    0    0  501    0  0.00000000000E+00  0.00000000000E+00  0.22878265476E+04  0.22878265476E+04  0.50400001928E-02 0.  1.
       -1   -1    0    0    0  501  0.00000000000E+00  0.00000000000E+00 -0.15775019434E+04  0.15775019434E+04  0.50400001928E-02 0. -1.
    10030    2    1    2    0    0  0.00000000000E+00  0.00000000000E+00  0.71032460422E+03  0.38653284909E+04  0.37995004013E+04 0.  0.
        4    1    3    3  502    0 -0.85536157678E+03 -0.76855341042E+03  0.18935560089E+04  0.22153721456E+04  0.12699999809E+01 0.  1.
       -4    1    3    3    0  502  0.85536157678E+03  0.76855341042E+03 -0.11832314047E+04  0.16499563454E+04  0.12699999809E+01 0. -1.
</event>
<event>
 5   0  0.5159761E-08  0.3801740E+04  0.7818609E-02  0.8045782E-01
        2   -1    0    0  501    0  0.00000000000E+00  0.00000000000E+00  0.14371052530E+04  0.14371052530E+04  0.25500000920E-02 0.  1.
       -2   -1    0    0    0  501  0.00000000000E+00  0.00000000000E+00 -0.25142949129E+04  0.25142949129E+04  0.25500000920E-02 0. -1.
    10030    2    1    2    0    0  0.00000000000E+00  0.00000000000E+00 -0.10771896599E+04  0.39514001659E+04  0.38017398264E+04 0.  0.
        5    1    3    3  502    0 -0.12384048892E+04 -0.12212117496E+04  0.25859268729E+03  0.17583791044E+04  0.46999998093E+01 0.  1.
       -5    1    3    3    0  502  0.12384048892E+04  0.12212117496E+04 -0.13357823472E+04  0.21930210615E+04  0.46999998093E+01 0. -1.
</event>
<event>
 5   0  0.1628250E-08  0.3802552E+04  0.7818609E-02  0.8045607E-01
        1   -1    0    0  501    0  0.00000000000E+00  0.00000000000E+00  0.16579604541E+04  0.16579604541E+04  0.50400001928E-02 0. -1.
       -1   -1    0    0    0  501  0.00000000000E+00  0.00000000000E+00 -0.21802999783E+04  0.21802999783E+04  0.50400001928E-02 0.  1.
    10030    2    1    2    0    0  0.00000000000E+00  0.00000000000E+00 -0.52233952418E+03  0.38382604324E+04  0.38025523755E+04 0.  0.
        1    1    3    3  502    0  0.14550321742E+04 -0.39193693009E+03 -0.14314178117E+04  0.20783864262E+04  0.50400001928E-02 0.  1.
       -1    1    3    3    0  502 -0.14550321742E+04  0.39193693009E+03  0.90907828748E+03  0.17598740062E+04  0.50400001928E-02 0. -1.
</event>
<event>
 5   0  0.5207474E-08  0.3802502E+04  0.7818609E-02  0.8045618E-01
        2   -1    0    0  501    0  0.00000000000E+00  0.00000000000E+00  0.23105057688E+04  0.23105057688E+04  0.25500000920E-02 0.  1.
       -2   -1    0    0    0  501  0.00000000000E+00  0.00000000000E+00 -0.15644862632E+04  0.15644862632E+04  0.25500000920E-02 0. -1.
    10030    2    1    2    0    0  0.00000000000E+00  0.00000000000E+00  0.74601950559E+03  0.38749920319E+04  0.38025015641E+04 0.  0.
        4    1    3    3  502    0 -0.14033836905E+04  0.12824849291E+04  0.35023310916E+03  0.19331110210E+04  0.12699999809E+01 0.  1.
       -4    1    3    3    0  502  0.14033836905E+04 -0.12824849291E+04  0.39578639643E+03  0.19418810109E+04  0.12699999809E+01 0. -1.
</event>
<event>
 5   0  0.1666051E-08  0.3797142E+04  0.7818609E-02  0.8046768E-01
        1   -1    0    0  501    0  0.00000000000E+00  0.00000000000E+00  0.14101731750E+04  0.14101731750E+04  0.50400001928E-02 0.  1.
       -1   -1    0    0    0  501  0.00000000000E+00  0.00000000000E+00 -0.25561206417E+04  0.25561206417E+04  0.50400001928E-02 0. -1.
    10030    2    1    2    0    0  0.00000000000E+00  0.00000000000E+00 -0.11459474667E+04  0.39662938168E+04  0.37971424841E+04 0.  0.
        2    1    3    3  502    0 -0.93631346833E+03  0.24404518424E+03 -0.22792443220E+04  0.24761251266E+04  0.25500000920E-02 0. -1.
       -2    1    3    3    0  502  0.93631346833E+03 -0.24404518424E+03  0.11332968553E+04  0.14901686902E+04  0.25500000920E-02 0.  1.
</event>
<event>
 5   0  0.1666051E-08  0.3799629E+04  0.7818609E-02  0.8046234E-01
       -1   -1    0    0    0  501  0.00000000000E+00  0.00000000000E+00  0.20029848118E+04  0.20029848118E+04  0.50400001928E-02 0.  1.
        1   -1    0    0  501    0  0.00000000000E+00  0.00000000000E+00 -0.18019585290E+04  0.18019585290E+04  0.50400001928E-02 0. -1.
    10030    2    1    2    0    0  0.00000000000E+00  0.00000000000E+00  0.20102628282E+03  0.38049433408E+04  0.37996292267E+04 0.  0.
        2    1    3    3  502    0  0.12502714860E+04 -0.29089207044E+03  0.15030070171E+04  0.19765695229E+04  0.25500000920E-02 0.  1.
       -2    1    3    3    0  502 -0.12502714860E+04  0.29089207044E+03 -0.13019807343E+04  0.18283738179E+04  0.25500000920E-02 0. -1.
</event>
<event>
 5   0  0.5140842E-08  0.3802172E+04  0.7818609E-02  0.8045689E-01
        2   -1    0    0  501    0  0.00000000000E+00  0.00000000000E+00  0.20616491165E+04  0.20616491166E+04  0.25500000920E-02 0.  1.
       -2   -1    0    0    0  501  0.00000000000E+00  0.00000000000E+00 -0.17530275494E+04  0.17530275494E+04  0.25500000920E-02 0. -1.
    10030    2    1    2    0    0  0.00000000000E+00  0.00000000000E+00  0.30862156714E+03  0.38146766660E+04  0.38021718523E+04 0.  0.
        2    1    3    3  502    0 -0.10265833749E+04  0.15912391497E+04 -0.14206630218E+02  0.18937046458E+04  0.25500000920E-02 0. -1.
       -2    1    3    3    0  502  0.10265833749E+04 -0.15912391497E+04  0.32282819736E+03  0.19209720202E+04  0.25500000920E-02 0.  1.
</event>
<event>
 5   0  0.1628250E-08  0.3714831E+04  0.7818609E-02  0.8064683E-01
        3   -1    0    0  501    0  0.00000000000E+00  0.00000000000E+00  0.14789754967E+04  0.14789755002E+04  0.10100000352E+00 0. -1.
       -3   -1    0    0    0  501  0.00000000000E+00  0.00000000000E+00 -0.23326905539E+04  0.23326905560E+04  0.10100000352E+00 0.  1.
    10030    2    1    2    0    0  0.00000000000E+00  0.00000000000E+00 -0.85371505711E+03  0.38116660562E+04  0.37148309148E+04 0.  0.
        4    1    3    3  502    0  0.17260167001E+04 -0.26028429671E+03 -0.10783164609E+04  0.20517430558E+04  0.12699999809E+01 0.  1.
       -4    1    3    3    0  502 -0.17260167001E+04  0.26028429671E+03  0.22460140382E+03  0.17599230005E+04  0.12699999809E+01 0. -1.
</event>
<event>
 5   0  0.1628250E-08  0.3799687E+04  0.7818609E-02  0.8046222E-01
       -1   -1    0    0    0  501  0.00000000000E+00  0.00000000000E+00  0.16264103102E+04  0.16264103102E+04  0.50400001928E-02 0.  1.
        1   -1    0    0  501    0  0.00000000000E+00  0.00000000000E+00 -0.22192464208E+04  0.22192464208E+04  0.50400001928E-02 0. -1.
    10030    2    1    2    0    0  0.00000000000E+00  0.00000000000E+00 -0.59283611060E+03  0.38456567310E+04  0.37996869659E+04 0.  0.
        1    1    3    3  502    0 -0.10080113827E+04  0.73605301823E+03 -0.17460679986E+04  0.21463025064E+04  0.50400001928E-02 0. -1.
       -1    1    3    3    0  502  0.10080113827E+04 -0.73605301823E+03  0.11532318880E+04  0.16993542246E+04  0.50400001928E-02 0.  1.
</event>
<event>
 5   0  0.1628250E-08  0.3794652E+04  0.7818609E-02  0.8047303E-01
       -1   -1    0    0    0  501  0.00000000000E+00  0.00000000000E+00  0.15979792933E+04  0.15979792933E+04  0.50400001928E-02 0.  1.
        1   -1    0    0  501    0  0.00000000000E+00  0.00000000000E+00 -0.22527492654E+04  0.22527492654E+04  0.50400001928E-02 0. -1.
    10030    2    1    2    0    0  0.00000000000E+00  0.00000000000E+00 -0.65476997210E+03  0.38507285587E+04  0.37946523841E+04 0.  0.
        5    1    3    3  502    0  0.11333268624E+03 -0.10802382411E+04 -0.19060299933E+04  0.21937938327E+04  0.46999998093E+01 0. -1.
       -5    1    3    3    0  502 -0.11333268624E+03  0.10802382411E+04  0.12512600212E+04  0.16569347259E+04  0.46999998093E+01 0.  1.
</event>
<event>
 5   0  0.5140842E-08  0.3786471E+04  0.7818609E-02  0.8049064E-01
       -2   -1    0    0    0  501  0.00000000000E+00  0.00000000000E+00  0.17662081085E+04  0.17662081085E+04  0.25500000920E-02 0.  1.
        2   -1    0    0  501    0  0.00000000000E+00  0.00000000000E+00 -0.20293984356E+04  0.20293984356E+04  0.25500000920E-02 0. -1.
    10030    2    1    2    0    0  0.00000000000E+00  0.00000000000E+00 -0.26319032707E+03  0.37956065440E+04  0.37864706375E+04 0.  0.
        2    1    3    3  502    0 -0.47481082081E+03 -0.16992023667E+04 -0.81998784115E+03  0.19455369588E+04  0.25500000920E-02 0. -1.
       -2    1    3    3    0  502  0.47481082081E+03  0.16992023667E+04  0.55679751408E+03  0.18500695852E+04  0.25500000920E-02 0.  1.
</event>
<event>
 5   0  0.5140842E-08  0.3797309E+04  0.7818609E-02  0.8046733E-01
        2   -1    0    0  501    0  0.00000000000E+00  0.00000000000E+00  0.20046568408E+04  0.20046568408E+04  0.25500000920E-02 0. -1.
       -2   -1    0    0    0  501  0.00000000000E+00  0.00000000000E+00 -0.17982575053E+04  0.17982575053E+04  0.25500000920E-02 0.  1.
    10030    2    1    2    0    0  0.00000000000E+00  0.00000000000E+00  0.20639933554E+03  0.38029143461E+04  0.37973091576E+04 0.  0.
        2    1    3    3  502    0 -0.19464811551E+02 -0.81463085709E+03 -0.16142331144E+04  0.18082452433E+04  0.25500000920E-02 0.  1.
       -2    1    3    3    0  502  0.19464811551E+02  0.81463085709E+03  0.18206324499E+04  0.19946691029E+04  0.25500000920E-02 0. -1.
</event>
<event>
 5   0  0.1628250E-08  0.3804542E+04  0.7818609E-02  0.8045181E-01
       -1   -1    0    0    0  501  0.00000000000E+00  0.00000000000E+00  0.26871264881E+04  0.26871264881E+04  0.50400001928E-02 0.  1.
        1   -1    0    0  501    0  0.00000000000E+00  0.00000000000E+00 -0.13466559650E+04  0.13466559650E+04  0.50400001928E-02 0. -1.
    10030    2    1    2    0    0  0.00000000000E+00  0.00000000000E+00  0.13404705231E+04  0.40337824531E+04  0.38045419771E+04 0.  0.
        1    1    3    3  502    0  0.82999149690E+03  0.14550864489E+04 -0.28544895905E+03  0.16993067901E+04  0.50400001928E-02 0. -1.
       -1    1    3    3    0  502 -0.82999149690E+03 -0.14550864489E+04  0.16259194822E+04  0.23344756630E+04  0.50400001928E-02 0.  1.
</event>
<event>
 5   0  0.5086209E-08  0.3796548E+04  0.7818609E-02  0.8046896E-01
       -2   -1    0    0    0  501  0.00000000000E+00  0.00000000000E+00  0.15591721636E+04  0.15591721636E+04  0.25500000920E-02 0.  1.
        2   -1    0    0  501    0  0.00000000000E+00  0.00000000000E+00 -0.23111261626E+04  0.23111261626E+04  0.25500000920E-02 0. -1.
    10030    2    1    2    0    0  0.00000000000E+00  0.00000000000E+00 -0.75195399908E+03  0.38702983262E+04  0.37965476840E+04 0.  0.
        3    1    3    3  502    0 -0.65970464359E+03 -0.11609617138E+04 -0.17514090684E+04  0.22023796341E+04  0.10100000352E+00 0. -1.
       -3    1    3    3    0  502  0.65970464359E+03  0.11609617138E+04  0.99945506931E+03  0.16679186921E+04  0.10100000352E+00 0.  1.
</event>
<event>
 5   0  0.5086209E-08  0.3790830E+04  0.7818609E-02  0.8048126E-01
        2   -1    0    0  501    0  0.00000000000E+00  0.00000000000E+00  0.27987143908E+04  0.27987143908E+04  0.25500000920E-02 0. -1.
       -2   -1    0    0    0  501  0.00000000000E+00  0.00000000000E+00 -0.12836598560E+04  0.12836598560E+04  0.25500000920E-02 0.  1.
    10030    2    1    2    0    0  0.00000000000E+00  0.00000000000E+00  0.15150545348E+04  0.40823742469E+04  0.37908296253E+04 0.  0.
        3    1    3    3  502    0 -0.11020179130E+04  0.12932717104E+04  0.16621312249E+04  0.23769045871E+04  0.10100000352E+00 0. -1.
       -3    1    3    3    0  502  0.11020179130E+04 -0.12932717104E+04 -0.14707669005E+03  0.17054696598E+04  0.10100000352E+00 0.  1.
</event>
<event>
 5   0  0.5207474E-08  0.3799482E+04  0.7818609E-02  0.8046266E-01
       -2   -1    0    0    0  501  0.00000000000E+00  0.00000000000E+00  0.17725216064E+04  0.17725216064E+04  0.25500000920E-02 0.  1.
        2   -1    0    0  501    0  0.00000000000E+00  0.00000000000E+00 -0.20360918312E+04  0.20360918312E+04  0.25500000920E-02 0. -1.
    10030    2    1    2    0    0  0.00000000000E+00  0.00000000000E+00 -0.26357022484E+03  0.38086134376E+04  0.37994824718E+04 0.  0.
        4    1    3    3  502    0  0.70633399702E+03 -0.81857758823E+03 -0.16976012327E+04  0.20126670220E+04  0.12699999809E+01 0. -1.
       -4    1    3    3    0  502 -0.70633399702E+03  0.81857758823E+03  0.14340310079E+04  0.17959464156E+04  0.12699999809E+01 0.  1.
</event>
<event>
 5   0  0.1628250E-08  0.3789202E+04  0.7818609E-02  0.8048476E-01
       -1   -1    0    0    0  501  0.00000000000E+00  0.00000000000E+00  0.14827758348E+04  0.14827758348E+04  0.50400001928E-02 0. -1.
        1   -1    0    0  501    0  0.00000000000E+00  0.00000000000E+00 -0.24208058932E+04  0.24208058932E+04  0.50400001928E-02 0.  1.
    10030    2    1    2    0    0  0.00000000000E+00  0.00000000000E+00 -0.93803005840E+03  0.39035817279E+04  0.37892017518E+04 0.  0.
        4    1    3    3  502    0 -0.58568388974E+03  0.55799696021E+03  0.12959203999E+04  0.15276771656E+04  0.12699999809E+01 0. -1.
       -4    1    3    3    0  502  0.58568388974E+03 -0.55799696021E+03 -0.22339504583E+04  0.23759045624E+04  0.12699999809E+01 0.  1.
</event>
<event>
 5   0  0.1628250E-08  0.3796631E+04  0.7818609E-02  0.8046878E-01
       -1   -1    0    0    0  501  0.00000000000E+00  0.00000000000E+00  0.16732122684E+04  0.16732122684E+04  0.50400001928E-02 0.  1.
        1   -1    0    0  501    0  0.00000000000E+00  0.00000000000E+00 -0.21537024584E+04  0.21537024584E+04  0.50400001928E-02 0. -1.
    10030    2    1    2    0    0  0.00000000000E+00  0.00000000000E+00 -0.48049019000E+03  0.38269147268E+04  0.37966308094E+04 0.  0.
        4    1    3    3  502    0  0.28028803748E+03 -0.71209601231E+02 -0.21313679736E+04  0.21508982410E+04  0.12699999809E+01 0. -1.
       -4    1    3    3    0  502 -0.28028803748E+03  0.71209601231E+02  0.16508777836E+04  0.16760164858E+04  0.12699999809E+01 0.  1.
</event>
<event>
 5   0  0.5159761E-08  0.3799552E+04  0.7818609E-02  0.8046251E-01
        2   -1    0    0  501    0  0.00000000000E+00  0.00000000000E+00  0.16374380216E+04  0.16374380216E+04  0.25500000920E-02 0.  1.
       -2   -1    0    0    0  501  0.00000000000E+00  0.00000000000E+00 -0.22041442214E+04  0.22041442214E+04  0.25500000920E-02 0. -1.
    10030    2    1    2    0    0  0.00000000000E+00  0.00000000000E+00 -0.56670619987E+03  0.38415822430E+04  0.37995523701E+04 0.  0.
        5    1    3    3  502    0  0.30149836234E+03  0.16604875320E+03 -0.21723493797E+04  0.21994538796E+04  0.46999998093E+01 0. -1.
       -5    1    3    3    0  502 -0.30149836234E+03 -0.16604875320E+03  0.16056431798E+04  0.16421283634E+04  0.46999998093E+01 0.  1.
</event>
<event>
 5   0  0.1628250E-08  0.3799644E+04  0.7818609E-02  0.8046231E-01
       -1   -1    0    0    0  501  0.00000000000E+00  0.00000000000E+00  0.14520814297E+04  0.14520814297E+04  0.50400001928E-02 0.  1.
        1   -1    0    0  501    0  0.00000000000E+00  0.00000000000E+00 -0.24856202755E+04  0.24856202755E+04  0.50400001928E-02 0. -1.
    10030    2    1    2    0    0  0.00000000000E+00  0.00000000000E+00 -0.10335388459E+04  0.39377017052E+04  0.37996436903E+04 0.  0.
        4    1    3    3  502    0  0.48926448928E+03 -0.63779636346E+03  0.12671585197E+04  0.15006186286E+04  0.12699999809E+01 0.  1.
       -4    1    3    3    0  502 -0.48926448928E+03  0.63779636346E+03 -0.23006973655E+04  0.24370830766E+04  0.12699999809E+01 0. -1.
</event>
<event>
 5   0  0.5086209E-08  0.3785899E+04  0.7818609E-02  0.8049188E-01
       -2   -1    0    0    0  501  0.00000000000E+00  0.00000000000E+00  0.22673774161E+04  0.22673774161E+04  0.25500000920E-02 0.  1.
        2   -1    0    0  501    0  0.00000000000E+00  0.00000000000E+00 -0.15803533744E+04  0.15803533744E+04  0.25500000920E-02 0. -1.
    10030    2    1    2    0    0  0.00000000000E+00  0.00000000000E+00  0.68702404166E+03  0.38477307905E+04  0.37858988632E+04 0.  0.
        3    1    3    3  502    0  0.19032992236E+03  0.18999812815E+03 -0.15608386686E+04  0.15838377845E+04  0.10100000352E+00 0. -1.
       -3    1    3    3    0  502 -0.19032992236E+03 -0.18999812815E+03  0.22478627103E+04  0.22638930060E+04  0.10100000352E+00 0.  1.
</event>
<event>
 5   0  0.5086209E-08  0.3799993E+04  0.7818609E-02  0.8046156E-01
       -2   -1    0    0    0  501  0.00000000000E+00  0.00000000000E+00  0.18648767955E+04  0.18648767955E+04  0.25500000920E-02 0. -1.
        2   -1    0    0  501    0  0.00000000000E+00  0.00000000000E+00 -0.19357772495E+04  0.19357772495E+04  0.25500000920E-02 0.  1.
    10030    2    1    2    0    0  0.00000000000E+00  0.00000000000E+00 -0.70900453948E+02  0.38006540450E+04  0.37999926705E+04 0.  0.
        3    1    3    3  502    0  0.12632287763E+03  0.17603903224E+04  0.66827333169E+03  0.18871991979E+04  0.10100000352E+00 0. -1.
       -3    1    3    3    0  502 -0.12632287763E+03 -0.17603903224E+04 -0.73917378564E+03  0.19134548471E+04  0.10100000352E+00 0.  1.
</event>
<event>
 5   0  0.1628250E-08  0.3799144E+04  0.7818609E-02  0.8046339E-01
        1   -1    0    0  501    0  0.00000000000E+00  0.00000000000E+00  0.16125454818E+04  0.16125454819E+04  0.50400001928E-02 0. -1.
       -1   -1    0    0    0  501  0.00000000000E+00  0.00000000000E+00 -0.22376881065E+04  0.22376881065E+04  0.50400001928E-02 0.  1.
    10030    2    1    2    0    0  0.00000000000E+00  0.00000000000E+00 -0.62514262470E+03  0.38502335884E+04  0.37991440331E+04 0.  0.
        4    1    3    3  502    0  0.18321059200E+04 -0.19147316450E+03 -0.78259491340E+03  0.20014321088E+04  0.12699999809E+01 0.  1.
       -4    1    3    3    0  502 -0.18321059200E+04  0.19147316450E+03  0.15745228870E+03  0.18488014796E+04  0.12699999809E+01 0. -1.
</event>
<event>
 5   0  0.1628473E-08  0.3803118E+04  0.7818609E-02  0.8045486E-01
       -1   -1    0    0    0  501  0.00000000000E+00  0.00000000000E+00  0.15315821257E+04  0.15315821257E+04  0.50400001928E-02 0.  1.
        1   -1    0    0  501    0  0.00000000000E+00  0.00000000000E+00 -0.23609097637E+04  0.23609097637E+04  0.50400001928E-02 0. -1.
    10030    2    1    2    0    0  0.00000000000E+00  0.00000000000E+00 -0.82932763797E+03  0.38924918895E+04  0.38031182967E+04 0.  0.
        3    1    3    3  502    0  0.10676779477E+04  0.29011812380E+03 -0.19975597097E+04  0.22834950251E+04  0.10100000352E+00 0. -1.
       -3    1    3    3    0  502 -0.10676779477E+04 -0.29011812380E+03  0.11682320717E+04  0.16089968643E+04  0.10100000352E+00 0.  1.
</event>
<event>
 5   0  0.1628250E-08  0.3803912E+04  0.7818609E-02  0.8045316E-01
        1   -1    0    0  501    0  0.00000000000E+00  0.00000000000E+00  0.18650520014E+04  0.18650520014E+04  0.50400001928E-02 0. -1.
       -1   -1    0    0    0  501  0.00000000000E+00  0.00000000000E+00 -0.19395906668E+04  0.19395906668E+04  0.50400001928E-02 0.  1.
    10030    2    1    2    0    0  0.00000000000E+00  0.00000000000E+00 -0.74538665374E+02  0.38046426682E+04  0.38039124359E+04 0.  0.
        4    1    3    3  502    0  0.23587900511E+03 -0.67061332430E+03  0.17271766606E+04  0.18677531865E+04  0.12699999809E+01 0. -1.
       -4    1    3    3    0  502 -0.23587900511E+03  0.67061332430E+03 -0.18017153260E+04  0.19368894818E+04  0.12699999809E+01 0.  1.
</event>
<event>
 5   0  0.5159761E-08  0.3798289E+04  0.7818609E-02  0.8046522E-01
       -2   -1    0    0    0  501  0.00000000000E+00  0.00000000000E+00  0.27260765317E+04  0.27260765317E+04  0.25500000920E-02 0. -1.
        2   -1    0    0  501    0  0.00000000000E+00  0.00000000000E+00 -0.13230555662E+04  0.13230555662E+04  0.25500000920E-02 0.  1.
    10030    2    1    2    0    0  0.00000000000E+00  0.00000000000E+00  0.14030209656E+04  0.40491320979E+04  0.37982894724E+04 0.  0.
        5    1    3    3  502    0  0.28305970332E+03 -0.19404940978E+02 -0.13003285814E+04  0.13309304478E+04  0.46999998093E+01 0.  1.
       -5    1    3    3    0  502 -0.28305970332E+03  0.19404940978E+02  0.27033495470E+04  0.27182016501E+04  0.46999998093E+01 0. -1.
</event>
<event>
 5   0  0.1628250E-08  0.3813908E+04  0.7818609E-02  0.8043177E-01
        1   -1    0    0  501    0  0.00000000000E+00  0.00000000000E+00  0.17008126699E+04  0.17008126699E+04  0.50400001928E-02 0. -1.
       -1   -1    0    0    0  501  0.00000000000E+00  0.00000000000E+00 -0.21380799079E+04  0.21380799079E+04  0.50400001928E-02 0.  1.
    10030    2    1    2    0    0  0.00000000000E+00  0.00000000000E+00 -0.43726723802E+03  0.38388925778E+04  0.38139079153E+04 0.  0.
        4    1    3    3  502    0 -0.66537163821E+03 -0.10875817750E+04 -0.16459917859E+04  0.20820288438E+04  0.12699999809E+01 0.  1.
       -4    1    3    3    0  502  0.66537163821E+03  0.10875817750E+04  0.12087245479E+04  0.17568637340E+04  0.12699999809E+01 0. -1.
</event>
<event>
 5   0  0.1666051E-08  0.3803654E+04  0.7818609E-02  0.8045371E-01
       -1   -1    0    0    0  501  0.00000000000E+00  0.00000000000E+00  0.18440060189E+04  0.18440060190E+04  0.50400001928E-02 0.  1.
        1   -1    0    0  501    0  0.00000000000E+00  0.00000000000E+00 -0.19614611761E+04  0.19614611761E+04  0.50400001928E-02 0. -1.
    10030    2    1    2    0    0  0.00000000000E+00  0.00000000000E+00 -0.11745515713E+03  0.38054671950E+04  0.38036541455E+04 0.  0.
        2    1    3    3  502    0 -0.99705231426E+03  0.72565292277E+03 -0.15072646393E+04  0.19474424701E+04  0.25500000920E-02 0. -1.
       -2    1    3    3    0  502  0.99705231426E+03 -0.72565292277E+03  0.13898094821E+04  0.18580247249E+04  0.25500000920E-02 0.  1.
</event>
<event>
 5   0  0.1628250E-08  0.3805467E+04  0.7818609E-02  0.8044983E-01
       -3   -1    0    0    0  501  0.00000000000E+00  0.00000000000E+00  0.16651380493E+04  0.16651380523E+04  0.10100000352E+00 0.  1.
        3   -1    0    0  501    0  0.00000000000E+00  0.00000000000E+00 -0.21742306261E+04  0.21742306285E+04  0.10100000352E+00 0. -1.
    10030    2    1    2    0    0  0.00000000000E+00  0.00000000000E+00 -0.50909257684E+03  0.38393686808E+04  0.38054666751E+04 0.  0.
        4    1    3    3  502    0  0.10406600723E+04 -0.90829366788E+03  0.10657070205E+04  0.17446214030E+04  0.12699999809E+01 0.  1.
       -4    1    3    3    0  502 -0.10406600723E+04  0.90829366788E+03 -0.15747995974E+04  0.20947472778E+04  0.12699999809E+01 0. -1.
</event>
<event>
 5   0  0.5140842E-08  0.3805123E+04  0.7818609E-02  0.8045056E-01
       -2   -1    0    0    0  501  0.00000000000E+00  0.00000000000E+00  0.12361068896E+04  0.12361068896E+04  0.25500000920E-02 0.  1.
        2   -1    0    0  501    0  0.00000000000E+00  0.00000000000E+00 -0.29283384931E+04  0.29283384931E+04  0.25500000920E-02 0. -1.
    10030    2    1    2    0    0  0.00000000000E+00  0.00000000000E+00 -0.16922316035E+04  0.41644453826E+04  0.38051225401E+04 0.  0.
        2    1    3    3  502    0 -0.15707663635E+04 -0.91270969178E+03 -0.14646326249E+04  0.23335583721E+04  0.25500000920E-02 0. -1.
       -2    1    3    3    0  502  0.15707663635E+04  0.91270969178E+03 -0.22759897864E+03  0.18308870105E+04  0.25500000920E-02 0.  1.
</event>
<event>
 5   0  0.5207474E-08  0.3757213E+04  0.7818609E-02  0.8055400E-01
       -2   -1    0    0    0  501  0.00000000000E+00  0.00000000000E+00  0.18690129041E+04  0.18690129041E+04  0.25500000920E-02 0.  1.
        2   -1    0    0  501    0  0.00000000000E+00  0.00000000000E+00 -0.18882491881E+04  0.18882491881E+04  0.25500000920E-02 0. -1.
    10030    2    1    2    0    0  0.00000000000E+00  0.00000000000E+00 -0.19236284028E+02  0.37572620922E+04  0.37572128493E+04 0.  0.
        4    1    3    3  502    0 -0.10133124175E+04  0.52366199718E+03 -0.15023320960E+04  0.18862733848E+04  0.12699999809E+01 0. -1.
       -4    1    3    3    0  502  0.10133124175E+04 -0.52366199718E+03  0.14830958119E+04  0.18709887074E+04  0.12699999809E+01 0.  1.
</event>
<event>
 5   0  0.5086209E-08  0.3811158E+04  0.7818609E-02  0.8043765E-01
       -2   -1    0    0    0  501  0.00000000000E+00  0.00000000000E+00  0.17063306468E+04  0.17063306468E+04  0.25500000920E-02 0.  1.
        2   -1    0    0  501    0  0.00000000000E+00  0.00000000000E+00 -0.21280936216E+04  0.21280936216E+04  0.25500000920E-02 0. -1.
    10030    2    1    2    0    0  0.00000000000E+00  0.00000000000E+00 -0.42176297476E+03  0.38344242684E+04  0.38111580213E+04 0.  0.
        3    1    3    3  502    0 -0.60359741154E+03 -0.16548840003E+04  0.52037084363E+03  0.18367788965E+04  0.10100000352E+00 0.  1.
       -3    1    3    3    0  502  0.60359741154E+03  0.16548840003E+04 -0.94213381838E+03  0.19976453718E+04  0.10100000352E+00 0. -1.
</event>
<event>
 5   0  0.1628250E-08  0.3794405E+04  0.7818609E-02  0.8047357E-01
       -1   -1    0    0    0  501  0.00000000000E+00  0.00000000000E+00  0.14313177457E+04  0.14313177457E+04  0.50400001928E-02 0.  1.
        1   -1    0    0  501    0  0.00000000000E+00  0.00000000000E+00 -0.25147291593E+04  0.25147291593E+04  0.50400001928E-02 0. -1.
    10030    2    1    2    0    0  0.00000000000E+00  0.00000000000E+00 -0.10834114136E+04  0.39460469051E+04  0.37944045496E+04 0.  0.
        1    1    3    3  502    0 -0.39824616067E+03 -0.12154762102E+04 -0.19989163885E+04  0.23731095951E+04  0.50400001928E-02 0. -1.
       -1    1    3    3    0  502  0.39824616067E+03  0.12154762102E+04  0.91550497490E+03  0.15729373100E+04  0.50400001928E-02 0.  1.
</event>
<event>
 5   0  0.1628473E-08  0.3801093E+04  0.7818609E-02  0.8045920E-01
       -1   -1    0    0    0  501  0.00000000000E+00  0.00000000000E+00  0.15268559048E+04  0.15268559048E+04  0.50400001928E-02 0.  1.
        1   -1    0    0  501    0  0.00000000000E+00  0.00000000000E+00 -0.23656955695E+04  0.23656955695E+04  0.50400001928E-02 0. -1.
    10030    2    1    2    0    0  0.00000000000E+00  0.00000000000E+00 -0.83883966472E+03  0.38925514743E+04  0.38010926057E+04 0.  0.
        3    1    3    3  502    0 -0.13219161921E+03  0.39920150070E+03 -0.23174558165E+04  0.23552999669E+04  0.10100000352E+00 0. -1.
       -3    1    3    3    0  502  0.13219161921E+03 -0.39920150070E+03  0.14786161518E+04  0.15372515074E+04  0.10100000352E+00 0.  1.
</event>
<event>
 5   0  0.1628250E-08  0.3796828E+04  0.7818609E-02  0.8046836E-01
       -1   -1    0    0    0  501  0.00000000000E+00  0.00000000000E+00  0.23320380430E+04  0.23320380430E+04  0.50400001928E-02 0.  1.
        1   -1    0    0  501    0  0.00000000000E+00  0.00000000000E+00 -0.15454190332E+04  0.15454190332E+04  0.50400001928E-02 0. -1.
    10030    2    1    2    0    0  0.00000000000E+00  0.00000000000E+00  0.78661900977E+03  0.38774570762E+04  0.37968281382E+04 0.  0.
        5    1    3    3  502    0  0.11386745595E+04 -0.89802541699E+03  0.16444482709E+04  0.21925468313E+04  0.46999998093E+01 0.  1.
       -5    1    3    3    0  502 -0.11386745595E+04  0.89802541699E+03 -0.85782926111E+03  0.16849102449E+04  0.46999998093E+01 0. -1.
</event>
<event>
 5   0  0.1628250E-08  0.3796799E+04  0.7818609E-02  0.8046842E-01
        1   -1    0    0  501    0  0.00000000000E+00  0.00000000000E+00  0.25480002231E+04  0.25480002231E+04  0.50400001928E-02 0.  1.
       -1   -1    0    0    0  501  0.00000000000E+00  0.00000000000E+00 -0.14144115960E+04  0.14144115960E+04  0.50400001928E-02 0. -1.
    10030    2    1    2    0    0  0.00000000000E+00  0.00000000000E+00  0.11335886271E+04  0.39624118191E+04  0.37967992110E+04 0.  0.
        5    1    3    3  502    0  0.39368438927E+03  0.18327306913E+04  0.25369158911E+03  0.18916317553E+04  0.46999998093E+01 0. -1.
       -5    1    3    3    0  502 -0.39368438927E+03 -0.18327306913E+04  0.87989703800E+03  0.20707800638E+04  0.46999998093E+01 0.  1.
</event>
<event>
 5   0  0.5140842E-08  0.3803395E+04  0.7818609E-02  0.8045427E-01
       -2   -1    0    0    0  501  0.00000000000E+00  0.00000000000E+00  0.26540704634E+04  0.26540704634E+04  0.25500000920E-02 0.  1.
        2   -1    0    0  501    0  0.00000000000E+00  0.00000000000E+00 -0.13626063664E+04  0.13626063664E+04  0.25500000920E-02 0. -1.
    10030    2    1    2    0    0  0.00000000000E+00  0.00000000000E+00  0.12914640969E+04  0.40166768298E+04  0.38033949626E+04 0.  0.
        2    1    3    3  502    0  0.42512368351E+03 -0.17138099240E+04 -0.99964835421E+02  0.17685778383E+04  0.25500000920E-02 0. -1.
       -2    1    3    3    0  502 -0.42512368351E+03  0.17138099240E+04  0.13914289324E+04  0.22480989915E+04  0.25500000920E-02 0.  1.
</event>
<event>
 5   0  0.5140842E-08  0.3801789E+04  0.7818609E-02  0.8045771E-01
        2   -1    0    0  501    0  0.00000000000E+00  0.00000000000E+00  0.96994595550E+03  0.96994595550E+03  0.25500000920E-02 0. -1.
       -2   -1    0    0    0  501  0.00000000000E+00  0.00000000000E+00 -0.37253626688E+04  0.37253626688E+04  0.25500000920E-02 0.  1.
    10030    2    1    2    0    0  0.00000000000E+00  0.00000000000E+00 -0.27554167133E+04  0.46953086243E+04  0.38017892910E+04 0.  0.
        2    1    3    3  502    0  0.58033089692E+03 -0.12590660302E+02  0.85781083228E+03  0.10357518519E+04  0.25500000920E-02 0. -1.
       -2    1    3    3    0  502 -0.58033089692E+03  0.12590660302E+02 -0.36132275455E+04  0.36595567724E+04  0.25500000920E-02 0.  1.
</event>
<event>
 5   0  0.1628473E-08  0.3802311E+04  0.7818609E-02  0.8045659E-01
        1   -1    0    0  501    0  0.00000000000E+00  0.00000000000E+00  0.11270416797E+04  0.11270416798E+04  0.50400001928E-02 0. -1.
       -1   -1    0    0    0  501  0.00000000000E+00  0.00000000000E+00 -0.32069725393E+04  0.32069725393E+04  0.50400001928E-02 0.  1.
    10030    2    1    2    0    0  0.00000000000E+00  0.00000000000E+00 -0.20799308596E+04  0.43340142191E+04  0.38023107278E+04 0.  0.
        3    1    3    3  502    0  0.16546124068E+04  0.80955896303E+03 -0.50380113795E+03  0.19096972347E+04  0.10100000352E+00 0.  1.
       -3    1    3    3    0  502 -0.16546124068E+04 -0.80955896303E+03 -0.15761297216E+04  0.24243169844E+04  0.10100000352E+00 0. -1.
</event>
<event>
 5   0  0.1628250E-08  0.3804803E+04  0.7818609E-02  0.8045125E-01
        1   -1    0    0  501    0  0.00000000000E+00  0.00000000000E+00  0.29330157541E+04  0.29330157541E+04  0.50400001928E-02 0.  1.
       -1   -1    0    0    0  501  0.00000000000E+00  0.00000000000E+00 -0.12339286279E+04  0.12339286280E+04  0.50400001928E-02 0. -1.
    10030    2    1    2    0    0  0.00000000000E+00  0.00000000000E+00  0.16990871262E+04  0.41669443821E+04  0.38048033354E+04 0.  0.
        1    1    3    3  502    0 -0.66099397445E+03  0.72318834330E+03 -0.93637822565E+03  0.13552559152E+04  0.50400001928E-02 0. -1.
       -1    1    3    3    0  502  0.66099397445E+03 -0.72318834330E+03  0.26354653518E+04  0.28116884669E+04  0.50400001928E-02 0.  1.
</event>
<event>
 5   0  0.5147582E-08  0.3806941E+04  0.7818609E-02  0.8044667E-01
       -2   -1    0    0    0  501  0.00000000000E+00  0.00000000000E+00  0.14616573316E+04  0.14616573316E+04  0.25500000920E-02 0.  1.
        2   -1    0    0  501    0  0.00000000000E+00  0.00000000000E+00 -0.24788294865E+04  0.24788294865E+04  0.25500000920E-02 0. -1.
    10030    2    1    2    0    0  0.00000000000E+00  0.00000000000E+00 -0.10171721549E+04  0.39404868181E+04  0.38069406577E+04 0.  0.
        1    1    3    3  502    0 -0.49555972008E+03 -0.17516077649E+04 -0.10844198714E+04  0.21188854749E+04  0.50400001928E-02 0. -1.
       -1    1    3    3    0  502  0.49555972008E+03  0.17516077649E+04  0.67247716557E+02  0.18216013432E+04  0.50400001928E-02 0.  1.
</event>
<event>
 5   0  0.5159761E-08  0.3813951E+04  0.7818609E-02  0.8043168E-01
       -2   -1    0    0    0  501  0.00000000000E+00  0.00000000000E+00  0.15543801425E+04  0.15543801425E+04  0.25500000920E-02 0. -1.
        2   -1    0    0  501    0  0.00000000000E+00  0.00000000000E+00 -0.23395535379E+04  0.23395535379E+04  0.25500000920E-02 0.  1.
    10030    2    1    2    0    0  0.00000000000E+00  0.00000000000E+00 -0.78517339540E+03  0.38939336805E+04  0.38139510022E+04 0.  0.
        5    1    3    3  502    0  0.10705485862E+04  0.15588708270E+04 -0.64346516050E+03  0.19975540126E+04  0.46999998093E+01 0. -1.
       -5    1    3    3    0  502 -0.10705485862E+04 -0.15588708270E+04 -0.14170823490E+03  0.18963796678E+04  0.46999998093E+01 0.  1.
</event>
<event>
 5   0  0.1666051E-08  0.3793281E+04  0.7818609E-02  0.8047598E-01
       -1   -1    0    0    0  501  0.00000000000E+00  0.00000000000E+00  0.10606559368E+04  0.10606559368E+04  0.50400001928E-02 0.  1.
        1   -1    0    0  501    0  0.00000000000E+00  0.00000000000E+00 -0.33915285906E+04  0.33915285907E+04  0.50400001928E-02 0. -1.
    10030    2    1    2    0    0  0.00000000000E+00  0.00000000000E+00 -0.23308726539E+04  0.44521845274E+04  0.37932808672E+04 0.  0.
        2    1    3    3  502    0 -0.48806898943E+02  0.95710446924E+03 -0.30864454343E+04  0.32318070019E+04  0.25500000920E-02 0. -1.
       -2    1    3    3    0  502  0.48806898943E+02 -0.95710446924E+03  0.75557278041E+03  0.12203775256E+04  0.25500000920E-02 0.  1.
</event>
<event>
 5   0  0.1666051E-08  0.3806426E+04  0.7818609E-02  0.8044777E-01
       -1   -1    0    0    0  501  0.00000000000E+00  0.00000000000E+00  0.19849261441E+04  0.19849261441E+04  0.50400001928E-02 0.  1.
        1   -1    0    0  501    0  0.00000000000E+00  0.00000000000E+00 -0.18248636881E+04  0.18248636881E+04  0.50400001928E-02 0. -1.
    10030    2    1    2    0    0  0.00000000000E+00  0.00000000000E+00  0.16006245605E+03  0.38097898322E+04  0.38064259582E+04 0.  0.
        2    1    3    3  502    0 -0.12662832594E+04 -0.67603464758E+03 -0.11707625307E+04  0.18523447414E+04  0.25500000920E-02 0. -1.
       -2    1    3    3    0  502  0.12662832594E+04  0.67603464758E+03  0.13308249867E+04  0.19574450907E+04  0.25500000920E-02 0.  1.
</event>
<event>
 5   0  0.1628473E-08  0.3793018E+04  0.7818609E-02  0.8047655E-01
        1   -1    0    0  501    0  0.00000000000E+00  0.00000000000E+00  0.26147480138E+04  0.26147480138E+04  0.50400001928E-02 0.  1.
       -1   -1    0    0    0  501  0.00000000000E+00  0.00000000000E+00 -0.13755611240E+04  0.13755611240E+04  0.50400001928E-02 0. -1.
    10030    2    1    2    0    0  0.00000000000E+00  0.00000000000E+00  0.12391868899E+04  0.39903091378E+04  0.37930176466E+04 0.  0.
        3    1    3    3  502    0 -0.14457426877E+04  0.11649494821E+03 -0.66584705280E+03  0.15959621862E+04  0.10100000352E+00 0.  1.
       -3    1    3    3    0  502  0.14457426877E+04 -0.11649494821E+03  0.19050339427E+04  0.23943469516E+04  0.10100000352E+00 0. -1.
</event>
<event>
 5   0  0.5086209E-08  0.3802106E+04  0.7818609E-02  0.8045703E-01
       -2   -1    0    0    0  501  0.00000000000E+00  0.00000000000E+00  0.11705782046E+04  0.11705782046E+04  0.25500000920E-02 0. -1.
        2   -1    0    0  501    0  0.00000000000E+00  0.00000000000E+00 -0.30873645197E+04  0.30873645197E+04  0.25500000920E-02 0.  1.
    10030    2    1    2    0    0  0.00000000000E+00  0.00000000000E+00 -0.19167863151E+04  0.42579427243E+04  0.38021055305E+04 0.  0.
        3    1    3    3  502    0  0.80203667012E+03 -0.16931667606E+04 -0.59736931173E+03  0.19664502547E+04  0.10100000352E+00 0. -1.
       -3    1    3    3    0  502 -0.80203667012E+03  0.16931667606E+04 -0.13194170034E+04  0.22914924696E+04  0.10100000352E+00 0.  1.
</event>
<event>
 5   0  0.1628250E-08  0.3803603E+04  0.7818609E-02  0.8045382E-01
        1   -1    0    0  501    0  0.00000000000E+00  0.00000000000E+00  0.16125548233E+04  0.16125548233E+04  0.50400001928E-02 0.  1.
       -1   -1    0    0    0  501  0.00000000000E+00  0.00000000000E+00 -0.22429310915E+04  0.22429310915E+04  0.50400001928E-02 0. -1.
    10030    2    1    2    0    0  0.00000000000E+00  0.00000000000E+00 -0.63037626823E+03  0.38554859148E+04  0.38036032127E+04 0.  0.
        5    1    3    3  502    0  0.67979769133E+02 -0.14708600909E+03 -0.22359154735E+04  0.22417840301E+04  0.46999998093E+01 0. -1.
       -5    1    3    3    0  502 -0.67979769133E+02  0.14708600909E+03  0.16055392052E+04  0.16137018847E+04  0.46999998093E+01 0.  1.
</event>
<event>
 5   0  0.1628250E-08  0.3796562E+04  0.7818609E-02  0.8046893E-01
        1   -1    0    0  501    0  0.00000000000E+00  0.00000000000E+00  0.16023276948E+04  0.16023276948E+04  0.50400001928E-02 0.  1.
       -1   -1    0    0    0  501  0.00000000000E+00  0.00000000000E+00 -0.22488978513E+04  0.22488978513E+04  0.50400001928E-02 0. -1.
    10030    2    1    2    0    0  0.00000000000E+00  0.00000000000E+00 -0.64657015647E+03  0.38512255461E+04  0.37965622924E+04 0.  0.
        4    1    3    3  502    0  0.77230876903E+03 -0.14777095372E+04 -0.12437547286E+04  0.20801475306E+04  0.12699999809E+01 0. -1.
       -4    1    3    3    0  502 -0.77230876903E+03  0.14777095372E+04  0.59718457213E+03  0.17710780155E+04  0.12699999809E+01 0.  1.
</event>
<event>
 5   0  0.5086209E-08  0.3822100E+04  0.7818609E-02  0.8041429E-01
        2   -1    0    0  501    0  0.00000000000E+00  0.00000000000E+00  0.21705879064E+04  0.21705879064E+04  0.25500000920E-02 0.  1.
       -2   -1    0    0    0  501  0.00000000000E+00  0.00000000000E+00 -0.16825454337E+04  0.16825454337E+04  0.25500000920E-02 0. -1.
    10030    2    1    2    0    0  0.00000000000E+00  0.00000000000E+00  0.48804247272E+03  0.38531333401E+04  0.38221003495E+04 0.  0.
        3    1    3    3  502    0 -0.15096108501E+04 -0.49371128213E+03 -0.82735734708E+03  0.17908645786E+04  0.10100000352E+00 0.  1.
       -3    1    3    3    0  502  0.15096108501E+04  0.49371128213E+03  0.13153998198E+04  0.20622687616E+04  0.10100000352E+00 0. -1.
</event>
<event>
 5   0  0.5159761E-08  0.3783159E+04  0.7818609E-02  0.8049779E-01
        2   -1    0    0  501    0  0.00000000000E+00  0.00000000000E+00  0.28138295576E+04  0.28138295576E+04  0.25500000920E-02 0. -1.
       -2   -1    0    0    0  501  0.00000000000E+00  0.00000000000E+00 -0.12716027914E+04  0.12716027914E+04  0.25500000920E-02 0.  1.
    10030    2    1    2    0    0  0.00000000000E+00  0.00000000000E+00  0.15422267662E+04  0.40854323490E+04  0.37831592724E+04 0.  0.
        5    1    3    3  502    0 -0.10044506881E+04 -0.81605452985E+03  0.22608995222E+04  0.26051017101E+04  0.46999998093E+01 0. -1.
       -5    1    3    3    0  502  0.10044506881E+04  0.81605452985E+03 -0.71867275595E+03  0.14803306390E+04  0.46999998093E+01 0.  1.
</event>
<event>
 5   0  0.5159761E-08  0.3801249E+04  0.7818609E-02  0.8045887E-01
       -2   -1    0    0    0  501  0.00000000000E+00  0.00000000000E+00  0.22435951964E+04  0.22435951964E+04  0.25500000920E-02 0.  1.
        2   -1    0    0  501    0  0.00000000000E+00  0.00000000000E+00 -0.16100829154E+04  0.16100829154E+04  0.25500000920E-02 0. -1.
    10030    2    1    2    0    0  0.00000000000E+00  0.00000000000E+00  0.63351228106E+03  0.38536781118E+04  0.38012494234E+04 0.  0.
        5    1    3    3  502    0 -0.14939793886E+04  0.10936083551E+04  0.75209539389E+03  0.19984051690E+04  0.46999998093E+01 0. -1.
       -5    1    3    3    0  502  0.14939793886E+04 -0.10936083551E+04 -0.11858311283E+03  0.18552729428E+04  0.46999998093E+01 0.  1.
</event>
<event>
 5   0  0.5159761E-08  0.3799879E+04  0.7818609E-02  0.8046181E-01
        2   -1    0    0  501    0  0.00000000000E+00  0.00000000000E+00  0.13084966764E+04  0.13084966764E+04  0.25500000920E-02 0. -1.
       -2   -1    0    0    0  501  0.00000000000E+00  0.00000000000E+00 -0.27587160158E+04  0.27587160158E+04  0.25500000920E-02 0.  1.
    10030    2    1    2    0    0  0.00000000000E+00  0.00000000000E+00 -0.14502193394E+04  0.40672126922E+04  0.37998793338E+04 0.  0.
        5    1    3    3  502    0 -0.16832449518E+04 -0.87983866548E+03 -0.67356571954E+03  0.20152276580E+04  0.46999998093E+01 0. -1.
       -5    1    3    3    0  502  0.16832449518E+04  0.87983866548E+03 -0.77665361988E+03  0.20519850342E+04  0.46999998093E+01 0.  1.
</event>
<event>
 5   0  0.5140842E-08  0.3798261E+04  0.7818609E-02  0.8046528E-01
        2   -1    0    0  501    0  0.00000000000E+00  0.00000000000E+00  0.14937910974E+04  0.14937910974E+04  0.25500000920E-02 0. -1.
       -2   -1    0    0    0  501  0.00000000000E+00  0.00000000000E+00 -0.24144584145E+04  0.24144584145E+04  0.25500000920E-02 0.  1.
    10030    2    1    2    0    0  0.00000000000E+00  0.00000000000E+00 -0.92066731706E+03  0.39082495119E+04  0.37982609097E+04 0.  0.
        2    1    3    3  502    0  0.33675749474E+03 -0.18591785283E+04 -0.65757727741E+03  0.20005894847E+04  0.25500000920E-02 0.  1.
       -2    1    3    3    0  502 -0.33675749474E+03  0.18591785283E+04 -0.26309003965E+03  0.19076600272E+04  0.25500000920E-02 0. -1.
</event>
<event>
 5   0  0.5207474E-08  0.3798571E+04  0.7818609E-02  0.8046462E-01
       -2   -1    0    0    0  501  0.00000000000E+00  0.00000000000E+00  0.16396816668E+04  0.16396816668E+04  0.25500000920E-02 0. -1.
        2   -1    0    0  501    0  0.00000000000E+00  0.00000000000E+00 -0.21999914461E+04  0.21999914461E+04  0.25500000920E-02 0.  1.
    10030    2    1    2    0    0  0.00000000000E+00  0.00000000000E+00 -0.56030977928E+03  0.38396731129E+04  0.37985711215E+04 0.  0.
        4    1    3    3  502    0  0.12418833922E+04  0.29572889546E+03 -0.17016264526E+04  0.21272668231E+04  0.12699999809E+01 0.  1.
       -4    1    3    3    0  502 -0.12418833922E+04 -0.29572889546E+03  0.11413166734E+04  0.17124062898E+04  0.12699999809E+01 0. -1.
</event>
<event>
 5   0  0.5086209E-08  0.3796540E+04  0.7818609E-02  0.8046898E-01
        2   -1    0    0  501    0  0.00000000000E+00  0.00000000000E+00  0.25643362899E+04  0.25643362899E+04  0.25500000920E-02 0.  1.
       -2   -1    0    0    0  501  0.00000000000E+00  0.00000000000E+00 -0.14052095122E+04  0.14052095122E+04  0.25500000920E-02 0. -1.
    10030    2    1    2    0    0  0.00000000000E+00  0.00000000000E+00  0.11591267777E+04  0.39695458022E+04  0.37965403973E+04 0.  0.
        3    1    3    3  502    0  0.18046644091E+04  0.56999550308E+02 -0.33114446645E+02  0.18058679783E+04  0.10100000352E+00 0. -1.
       -3    1    3    3    0  502 -0.18046644091E+04 -0.56999550308E+02  0.11922412243E+04  0.21636778239E+04  0.10100000352E+00 0.  1.
</event>
<event>
 5   0  0.5159761E-08  0.3894526E+04  0.7818609E-02  0.8026169E-01
       -2   -1    0    0    0  501  0.00000000000E+00  0.00000000000E+00  0.19637067948E+04  0.19637067948E+04  0.25500000920E-02 0.  1.
        2   -1    0    0  501    0  0.00000000000E+00  0.00000000000E+00 -0.19309565010E+04  0.19309565010E+04  0.25500000920E-02 0. -1.
    10030    2    1    2    0    0  0.00000000000E+00  0.00000000000E+00  0.32750293828E+02  0.38946632958E+04  0.38945255944E+04 0.  0.
        5    1    3    3  502    0 -0.19086562847E+04 -0.15469621209E+03  0.36981455285E+03  0.19503037262E+04  0.46999998093E+01 0.  1.
       -5    1    3    3    0  502  0.19086562847E+04  0.15469621209E+03 -0.33706425902E+03  0.19443595695E+04  0.46999998093E+01 0. -1.
</event>
<event>
 5   0  0.5147582E-08  0.3802664E+04  0.7818609E-02  0.8045584E-01
        2   -1    0    0  501    0  0.00000000000E+00  0.00000000000E+00  0.28182173390E+04  0.28182173390E+04  0.25500000920E-02 0. -1.
       -2   -1    0    0    0  501  0.00000000000E+00  0.00000000000E+00 -0.12827479865E+04  0.12827479865E+04  0.25500000920E-02 0.  1.
    10030    2    1    2    0    0  0.00000000000E+00  0.00000000000E+00  0.15354693525E+04  0.41009653254E+04  0.38026636017E+04 0.  0.
        1    1    3    3  502    0 -0.18987791348E+04  0.98009983071E+02  0.77821600869E+03  0.20544070472E+04  0.50400001928E-02 0.  1.
       -1    1    3    3    0  502  0.18987791348E+04 -0.98009983071E+02  0.75725334381E+03  0.20465582782E+04  0.50400001928E-02 0. -1.
</event>
<event>
 5   0  0.5147582E-08  0.3798660E+04  0.7818609E-02  0.8046443E-01
        2   -1    0    0  501    0  0.00000000000E+00  0.00000000000E+00  0.29628545071E+04  0.29628545071E+04  0.25500000920E-02 0. -1.
       -2   -1    0    0    0  501  0.00000000000E+00  0.00000000000E+00 -0.12175603508E+04  0.12175603508E+04  0.25500000920E-02 0.  1.
    10030    2    1    2    0    0  0.00000000000E+00  0.00000000000E+00  0.17452941563E+04  0.41804148579E+04  0.37986598547E+04 0.  0.
        1    1    3    3  502    0 -0.92193201596E+03 -0.16605579894E+04  0.86545628822E+03  0.20872053241E+04  0.50400001928E-02 0. -1.
       -1    1    3    3    0  502  0.92193201596E+03  0.16605579894E+04  0.87983786812E+03  0.20932095338E+04  0.50400001928E-02 0.  1.
</event>
<event>
 5   0  0.1666051E-08  0.3800275E+04  0.7818609E-02  0.8046096E-01
       -1   -1    0    0    0  501  0.00000000000E+00  0.00000000000E+00  0.21966780582E+04  0.21966780582E+04  0.50400001928E-02 0.  1.
        1   -1    0    0  501    0  0.00000000000E+00  0.00000000000E+00 -0.16436282952E+04  0.16436282952E+04  0.50400001928E-02 0. -1.
    10030    2    1    2    0    0  0.00000000000E+00  0.00000000000E+00  0.55304976296E+03  0.38403063534E+04  0.38002748384E+04 0.  0.
        2    1    3    3  502    0  0.16352598014E+04 -0.44036271887E+03  0.11473027067E+04  0.20455555341E+04  0.25500000920E-02 0.  1.
       -2    1    3    3    0  502 -0.16352598014E+04  0.44036271887E+03 -0.59425294371E+03  0.17947508193E+04  0.25500000920E-02 0. -1.
</event>
<event>
 5   0  0.5086209E-08  0.3801620E+04  0.7818609E-02  0.8045807E-01
        2   -1    0    0  501    0  0.00000000000E+00  0.00000000000E+00  0.19217532004E+04  0.19217532004E+04  0.25500000920E-02 0. -1.
       -2   -1    0    0    0  501  0.00000000000E+00  0.00000000000E+00 -0.18800948146E+04  0.18800948146E+04  0.25500000920E-02 0.  1.
    10030    2    1    2    0    0  0.00000000000E+00  0.00000000000E+00  0.41658385728E+02  0.38018480150E+04  0.38016197742E+04 0.  0.
        3    1    3    3  502    0  0.96611403996E+03 -0.16064116440E+04  0.33571871875E+03  0.19043743793E+04  0.10100000352E+00 0. -1.
       -3    1    3    3    0  502 -0.96611403996E+03  0.16064116440E+04 -0.29406033302E+03  0.18974736357E+04  0.10100000352E+00 0.  1.
</event>
<event>
 5   0  0.1628250E-08  0.3804627E+04  0.7818609E-02  0.8045163E-01
        1   -1    0    0  501    0  0.00000000000E+00  0.00000000000E+00  0.13033647970E+04  0.13033647970E+04  0.50400001928E-02 0. -1.
       -1   -1    0    0    0  501  0.00000000000E+00  0.00000000000E+00 -0.27765031141E+04  0.27765031141E+04  0.50400001928E-02 0.  1.
    10030    2    1    2    0    0  0.00000000000E+00  0.00000000000E+00 -0.14731383170E+04  0.40798679111E+04  0.38046268767E+04 0.  0.
        4    1    3    3  502    0  0.23033030320E+03  0.24155486252E+03 -0.27448586177E+04  0.27650770775E+04  0.12699999809E+01 0.  1.
       -4    1    3    3    0  502 -0.23033030320E+03 -0.24155486252E+03  0.12717203007E+04  0.13147908336E+04  0.12699999809E+01 0. -1.
</event>
<event>
 5   0  0.1628250E-08  0.3802145E+04  0.7818609E-02  0.8045695E-01
       -1   -1    0    0    0  501  0.00000000000E+00  0.00000000000E+00  0.21941793346E+04  0.21941793346E+04  0.50400001928E-02 0. -1.
        1   -1    0    0  501    0  0.00000000000E+00  0.00000000000E+00 -0.16471198783E+04  0.16471198783E+04  0.50400001928E-02 0.  1.
    10030    2    1    2    0    0  0.00000000000E+00  0.00000000000E+00  0.54705945632E+03  0.38412992130E+04  0.38021448677E+04 0.  0.
        1    1    3    3  502    0 -0.17280316097E+04 -0.60434216660E+03  0.79140347741E+03  0.19944027082E+04  0.50400001928E-02 0. -1.
       -1    1    3    3    0  502  0.17280316097E+04  0.60434216660E+03 -0.24434402109E+03  0.18468965047E+04  0.50400001928E-02 0.  1.
</event>
<event>
 5   0  0.1628250E-08  0.3779958E+04  0.7818609E-02  0.8050470E-01
        3   -1    0    0  501    0  0.00000000000E+00  0.00000000000E+00  0.14748220988E+04  0.14748221023E+04  0.10100000352E+00 0. -1.
       -3   -1    0    0    0  501  0.00000000000E+00  0.00000000000E+00 -0.24220010380E+04  0.24220010401E+04  0.10100000352E+00 0.  1.
    10030    2    1    2    0    0  0.00000000000E+00  0.00000000000E+00 -0.94717893913E+03  0.38968231424E+04  0.37799580236E+04 0.  0.
        2    1    3    3  502    0  0.69765005000E+03  0.57535357311E+02 -0.22834273188E+04  0.23883187036E+04  0.25500000920E-02 0.  1.
       -2    1    3    3    0  502 -0.69765005000E+03 -0.57535357311E+02  0.13362483797E+04  0.15085044388E+04  0.25500000920E-02 0. -1.
</event>
<event>
 5   0  0.5207474E-08  0.3767338E+04  0.7818609E-02  0.8053201E-01
       -2   -1    0    0    0  501  0.00000000000E+00  0.00000000000E+00  0.26294846156E+04  0.26294846156E+04  0.25500000920E-02 0. -1.
        2   -1    0    0  501    0  0.00000000000E+00  0.00000000000E+00 -0.13493931834E+04  0.13493931834E+04  0.25500000920E-02 0.  1.
    10030    2    1    2    0    0  0.00000000000E+00  0.00000000000E+00  0.12800914322E+04  0.39788777990E+04  0.37673378485E+04 0.  0.
        4    1    3    3  502    0  0.34726475803E+03 -0.39342053561E+03  0.25507261350E+04  0.26041463013E+04  0.12699999809E+01 0. -1.
       -4    1    3    3    0  502 -0.34726475803E+03  0.39342053561E+03 -0.12706347028E+04  0.13747314977E+04  0.12699999809E+01 0.  1.
</event>
<event>
 5   0  0.1666051E-08  0.3795477E+04  0.7818609E-02  0.8047126E-01
       -1   -1    0    0    0  501  0.00000000000E+00  0.00000000000E+00  0.17344752794E+04  0.17344752794E+04  0.50400001928E-02 0. -1.
        1   -1    0    0  501    0  0.00000000000E+00  0.00000000000E+00 -0.20763691230E+04  0.20763691230E+04  0.50400001928E-02 0.  1.
    10030    2    1    2    0    0  0.00000000000E+00  0.00000000000E+00 -0.34189384354E+03  0.38108444024E+04  0.37954767368E+04 0.  0.
        2    1    3    3  502    0  0.18166652232E+03 -0.18801565725E+04  0.12603145500E+02  0.18889548173E+04  0.25500000920E-02 0. -1.
       -2    1    3    3    0  502 -0.18166652232E+03  0.18801565725E+04 -0.35449698904E+03  0.19218895852E+04  0.25500000920E-02 0.  1.
</event>
<event>
 5   0  0.5140842E-08  0.3754225E+04  0.7818609E-02  0.8056050E-01
        2   -1    0    0  501    0  0.00000000000E+00  0.00000000000E+00  0.31372915297E+04  0.31372915297E+04  0.25500000920E-02 0. -1.
       -2   -1    0    0    0  501  0.00000000000E+00  0.00000000000E+00 -0.11231191206E+04  0.11231191206E+04  0.25500000920E-02 0.  1.
    10030    2    1    2    0    0  0.00000000000E+00  0.00000000000E+00  0.20141724091E+04  0.42604106503E+04  0.37542254083E+04 0.  0.
        2    1    3    3  502    0  0.10410813302E+04  0.99731344609E+03  0.23712772914E+04  0.27751469220E+04  0.25500000920E-02 0. -1.
       -2    1    3    3    0  502 -0.10410813302E+04 -0.99731344609E+03 -0.35710488229E+03  0.14852637284E+04  0.25500000920E-02 0.  1.
</event>
<event>
 5   0  0.5147582E-08  0.3796323E+04  0.7818609E-02  0.8046944E-01
        2   -1    0    0  501    0  0.00000000000E+00  0.00000000000E+00  0.13224581586E+04  0.13224581586E+04  0.25500000920E-02 0.  1.
       -2   -1    0    0    0  501  0.00000000000E+00  0.00000000000E+00 -0.27244847368E+04  0.27244847368E+04  0.25500000920E-02 0. -1.
    10030    2    1    2    0    0  0.00000000000E+00  0.00000000000E+00 -0.14020265782E+04  0.40469428953E+04  0.37963229937E+04 0.  0.
        1    1    3    3  502    0 -0.20617275556E+02  0.74940403055E+03  0.11579512370E+04  0.13794500862E+04  0.50400001928E-02 0.  1.
       -1    1    3    3    0  502  0.20617275556E+02 -0.74940403055E+03 -0.25599778151E+04  0.26674928092E+04  0.50400001928E-02 0. -1.
</event>
<event>
 5   0  0.5159761E-08  0.3783398E+04  0.7818609E-02  0.8049727E-01
        2   -1    0    0  501    0  0.00000000000E+00  0.00000000000E+00  0.26915864031E+04  0.26915864031E+04  0.25500000920E-02 0.  1.
       -2   -1    0    0    0  501  0.00000000000E+00  0.00000000000E+00 -0.13295228046E+04  0.13295228046E+04  0.25500000920E-02 0. -1.
    10030    2    1    2    0    0  0.00000000000E+00  0.00000000000E+00  0.13620635984E+04  0.40211092077E+04  0.37833982098E+04 0.  0.
        5    1    3    3  502    0  0.16186495659E+04  0.29761650859E+02 -0.35901742982E+03  0.16582604675E+04  0.46999998093E+01 0. -1.
       -5    1    3    3    0  502 -0.16186495659E+04 -0.29761650859E+02  0.17210810283E+04  0.23628487402E+04  0.46999998093E+01 0.  1.
</event>
<event>
 5   0  0.1666051E-08  0.3793583E+04  0.7818609E-02  0.8047533E-01
       -1   -1    0    0    0  501  0.00000000000E+00  0.00000000000E+00  0.15200945754E+04  0.15200945754E+04  0.50400001928E-02 0.  1.
        1   -1    0    0  501    0  0.00000000000E+00  0.00000000000E+00 -0.23668378632E+04  0.23668378632E+04  0.50400001928E-02 0. -1.
    10030    2    1    2    0    0  0.00000000000E+00  0.00000000000E+00 -0.84674328783E+03  0.38869324386E+04  0.37935826849E+04 0.  0.
        2    1    3    3  502    0  0.18539437006E+04 -0.17049701759E+03 -0.51620006855E+02  0.18624825109E+04  0.25500000920E-02 0.  1.
       -2    1    3    3    0  502 -0.18539437006E+04  0.17049701759E+03 -0.79512328098E+03  0.20244499278E+04  0.25500000920E-02 0. -1.
</event>
<event>
 5   0  0.1628250E-08  0.3782720E+04  0.7818609E-02  0.8049873E-01
       -1   -1    0    0    0  501  0.00000000000E+00  0.00000000000E+00  0.14760495826E+04  0.14760495826E+04  0.50400001928E-02 0.  1.
        1   -1    0    0  501    0  0.00000000000E+00  0.00000000000E+00 -0.24235249523E+04  0.24235249523E+04  0.50400001928E-02 0. -1.
    10030    2    1    2    0    0  0.00000000000E+00  0.00000000000E+00 -0.94747536971E+03  0.38995745349E+04  0.37827201823E+04 0.  0.
        4    1    3    3  502    0  0.78446135127E+03 -0.16269932918E+04 -0.10520987527E+04  0.20903110251E+04  0.12699999809E+01 0. -1.
       -4    1    3    3    0  502 -0.78446135127E+03  0.16269932918E+04  0.10462338303E+03  0.18092635099E+04  0.12699999809E+01 0.  1.
</event>
<event>
 5   0  0.5207474E-08  0.3804069E+04  0.7818609E-02  0.8045282E-01
       -2   -1    0    0    0  501  0.00000000000E+00  0.00000000000E+00  0.35259970872E+04  0.35259970872E+04  0.25500000920E-02 0. -1.
        2   -1    0    0  501    0  0.00000000000E+00  0.00000000000E+00 -0.10260176862E+04  0.10260176862E+04  0.25500000920E-02 0.  1.
    10030    2    1    2    0    0  0.00000000000E+00  0.00000000000E+00  0.24999794010E+04  0.45520147734E+04  0.38040690703E+04 0.  0.
        4    1    3    3  502    0  0.64999759278E+03  0.57657077819E+03 -0.77466517183E+03  0.11640611987E+04  0.12699999809E+01 0.  1.
       -4    1    3    3    0  502 -0.64999759278E+03 -0.57657077819E+03  0.32746445729E+04  0.33879535747E+04  0.12699999809E+01 0. -1.
</event>
<event>
 5   0  0.5086209E-08  0.3810749E+04  0.7818609E-02  0.8043852E-01
       -2   -1    0    0    0  501  0.00000000000E+00  0.00000000000E+00  0.20620866845E+04  0.20620866845E+04  0.25500000920E-02 0. -1.
        2   -1    0    0  501    0  0.00000000000E+00  0.00000000000E+00 -0.17605718888E+04  0.17605718888E+04  0.25500000920E-02 0.  1.
    10030    2    1    2    0    0  0.00000000000E+00  0.00000000000E+00  0.30151479572E+03  0.38226585732E+04  0.38107489284E+04 0.  0.
        3    1    3    3  502    0  0.59311345136E+03 -0.12112552082E+04  0.15008943710E+04  0.20178222589E+04  0.10100000352E+00 0. -1.
       -3    1    3    3    0  502 -0.59311345136E+03  0.12112552082E+04 -0.11993795753E+04  0.18048363143E+04  0.10100000352E+00 0.  1.
</event>
<event>
 5   0  0.1628250E-08  0.3800830E+04  0.7818609E-02  0.8045977E-01
        1   -1    0    0  501    0  0.00000000000E+00  0.00000000000E+00  0.28853582213E+04  0.28853582214E+04  0.50400001928E-02 0.  1.
       -1   -1    0    0    0  501  0.00000000000E+00  0.00000000000E+00 -0.12516908354E+04  0.12516908354E+04  0.50400001928E-02 0. -1.
    10030    2    1    2    0    0  0.00000000000E+00  0.00000000000E+00  0.16336673860E+04  0.41370490568E+04  0.38008296160E+04 0.  0.
        1    1    3    3  502    0  0.34826975912E+03 -0.11914059751E+04  0.23831705470E+04  0.26870507771E+04  0.50400001928E-02 0.  1.
       -1    1    3    3    0  502 -0.34826975912E+03  0.11914059751E+04 -0.74950316104E+03  0.14499982797E+04  0.50400001928E-02 0. -1.
</event>
<event>
 5   0  0.1628473E-08  0.3827559E+04  0.7818609E-02  0.8040267E-01
       -1   -1    0    0    0  501  0.00000000000E+00  0.00000000000E+00  0.28189244206E+04  0.28189244206E+04  0.50400001928E-02 0.  1.
        1   -1    0    0  501    0  0.00000000000E+00  0.00000000000E+00 -0.12992727620E+04  0.12992727620E+04  0.50400001928E-02 0. -1.
    10030    2    1    2    0    0  0.00000000000E+00  0.00000000000E+00  0.15196516586E+04  0.41181971826E+04  0.38275588658E+04 0.  0.
        3    1    3    3  502    0 -0.13850907690E+04  0.94365357250E+03 -0.23422990057E+03  0.16922831204E+04  0.10100000352E+00 0. -1.
       -3    1    3    3    0  502  0.13850907690E+04 -0.94365357250E+03  0.17538815592E+04  0.24259140622E+04  0.10100000352E+00 0.  1.
</event>
<event>
 5   0  0.1666051E-08  0.3803633E+04  0.7818609E-02  0.8045376E-01
        1   -1    0    0  501    0  0.00000000000E+00  0.00000000000E+00  0.25300101435E+04  0.25300101435E+04  0.50400001928E-02 0. -1.
       -1   -1    0    0    0  501  0.00000000000E+00  0.00000000000E+00 -0.14296015076E+04  0.14296015076E+04  0.50400001928E-02 0.  1.
    10030    2    1    2    0    0  0.00000000000E+00  0.00000000000E+00  0.11004086359E+04  0.39596116510E+04  0.38036331660E+04 0.  0.
        2    1    3    3  502    0 -0.28339173694E+03 -0.11683404481E+04 -0.98385265167E+03  0.15534787798E+04  0.25500000920E-02 0.  1.
       -2    1    3    3    0  502  0.28339173694E+03  0.11683404481E+04  0.20842612875E+04  0.24061328712E+04  0.25500000920E-02 0. -1.
</event>
<event>
 5   0  0.1666051E-08  0.3805374E+04  0.7818609E-02  0.8045003E-01
        1   -1    0    0  501    0  0.00000000000E+00  0.00000000000E+00  0.18603593104E+04  0.18603593105E+04  0.50400001928E-02 0.  1.
       -1   -1    0    0    0  501  0.00000000000E+00  0.00000000000E+00 -0.19459779398E+04  0.19459779398E+04  0.50400001928E-02 0. -1.
    10030    2    1    2    0    0  0.00000000000E+00  0.00000000000E+00 -0.85618629359E+02  0.38063372503E+04  0.38053741883E+04 0.  0.
        2    1    3    3  502    0  0.81137279413E+02  0.13837961474E+04 -0.13464975770E+04  0.19324934050E+04  0.25500000920E-02 0. -1.
       -2    1    3    3    0  502 -0.81137279413E+02 -0.13837961474E+04  0.12608789476E+04  0.18738438452E+04  0.25500000920E-02 0.  1.
</event>
<event>
 5   0  0.5159761E-08  0.3768346E+04  0.7818609E-02  0.8052982E-01
       -2   -1    0    0    0  501  0.00000000000E+00  0.00000000000E+00  0.25795959528E+04  0.25795959528E+04  0.25500000920E-02 0.  1.
        2   -1    0    0  501    0  0.00000000000E+00  0.00000000000E+00 -0.13762266060E+04  0.13762266060E+04  0.25500000920E-02 0. -1.
    10030    2    1    2    0    0  0.00000000000E+00  0.00000000000E+00  0.12033693468E+04  0.39558225588E+04  0.37683463656E+04 0.  0.
        5    1    3    3  502    0  0.20052200935E+03  0.52612920329E+03  0.24892119617E+04  0.25521009571E+04  0.46999998093E+01 0.  1.
       -5    1    3    3    0  502 -0.20052200935E+03 -0.52612920329E+03 -0.12858426149E+04  0.14037216017E+04  0.46999998093E+01 0. -1.
</event>
<event>
 5   0  0.1628250E-08  0.3794031E+04  0.7818609E-02  0.8047437E-01
        3   -1    0    0  501    0  0.00000000000E+00  0.00000000000E+00  0.25157496763E+04  0.25157496783E+04  0.10100000352E+00 0.  1.
       -3   -1    0    0    0  501  0.00000000000E+00  0.00000000000E+00 -0.14304555929E+04  0.14304555964E+04  0.10100000352E+00 0. -1.
    10030    2    1    2    0    0  0.00000000000E+00  0.00000000000E+00  0.10852940834E+04  0.39462052748E+04  0.37940312101E+04 0.  0.
        2    1    3    3  502    0  0.18218501411E+04  0.45398250782E+03  0.26079837399E+03  0.18955879948E+04  0.25500000920E-02 0. -1.
       -2    1    3    3    0  502 -0.18218501411E+04 -0.45398250782E+03  0.82449570945E+03  0.20506172800E+04  0.25500000920E-02 0.  1.
</event>
<event>
 5   0  0.1628473E-08  0.3782448E+04  0.7818609E-02  0.8049932E-01
        1   -1    0    0  501    0  0.00000000000E+00  0.00000000000E+00  0.21767113972E+04  0.21767113972E+04  0.50400001928E-02 0.  1.
       -1   -1    0    0    0  501  0.00000000000E+00  0.00000000000E+00 -0.16431799136E+04  0.16431799136E+04  0.50400001928E-02 0. -1.
    10030    2    1    2    0    0  0.00000000000E+00  0.00000000000E+00  0.53353148360E+03  0.38198913108E+04  0.37824481202E+04 0.  0.
        3    1    3    3  502    0 -0.17231148410E+03 -0.78105617968E+03 -0.14639635497E+04  0.16682114040E+04  0.10100000352E+00 0. -1.
       -3    1    3    3    0  502  0.17231148410E+03  0.78105617968E+03  0.19974950333E+04  0.21516799068E+04  0.10100000352E+00 0.  1.
</event>
<event>
 5   0  0.1628250E-08  0.3795141E+04  0.7818609E-02  0.8047198E-01
        1   -1    0    0  501    0  0.00000000000E+00  0.00000000000E+00  0.21332278731E+04  0.21332278731E+04  0.50400001928E-02 0.  1.
       -1   -1    0    0    0  501  0.00000000000E+00  0.00000000000E+00 -0.16879464939E+04  0.16879464939E+04  0.50400001928E-02 0. -1.
    10030    2    1    2    0    0  0.00000000000E+00  0.00000000000E+00  0.44528137920E+03  0.38211743670E+04  0.37951413724E+04 0.  0.
        5    1    3    3  502    0 -0.95500034220E+02  0.14319454308E+04  0.14725928401E+04  0.20562440848E+04  0.46999998093E+01 0.  1.
       -5    1    3    3    0  502  0.95500034220E+02 -0.14319454308E+04 -0.10273114609E+04  0.17649302822E+04  0.46999998093E+01 0. -1.
</event>
<event>
 5   0  0.1628250E-08  0.3803605E+04  0.7818609E-02  0.8045382E-01
        1   -1    0    0  501    0  0.00000000000E+00  0.00000000000E+00  0.12945612273E+04  0.12945612273E+04  0.50400001928E-02 0.  1.
       -1   -1    0    0    0  501  0.00000000000E+00  0.00000000000E+00 -0.27938838063E+04  0.27938838063E+04  0.50400001928E-02 0. -1.
    10030    2    1    2    0    0  0.00000000000E+00  0.00000000000E+00 -0.14993225791E+04  0.40884450336E+04  0.38036054733E+04 0.  0.
        1    1    3    3  502    0  0.18780977788E+04  0.18680702917E+03 -0.10010688076E+04  0.21364191748E+04  0.50400001928E-02 0. -1.
       -1    1    3    3    0  502 -0.18780977788E+04 -0.18680702917E+03 -0.49825377142E+03  0.19520258588E+04  0.50400001928E-02 0.  1.
</event>
<event>
 5   0  0.5140842E-08  0.3799798E+04  0.7818609E-02  0.8046198E-01
       -2   -1    0    0    0  501  0.00000000000E+00  0.00000000000E+00  0.24724273519E+04  0.24724273519E+04  0.25500000920E-02 0.  1.
        2   -1    0    0  501    0  0.00000000000E+00  0.00000000000E+00 -0.14599487083E+04  0.14599487083E+04  0.25500000920E-02 0. -1.
    10030    2    1    2    0    0  0.00000000000E+00  0.00000000000E+00  0.10124786436E+04  0.39323760603E+04  0.37997984783E+04 0.  0.
        2    1    3    3  502    0 -0.11068191389E+04  0.14494693218E+04  0.10573681184E+04  0.21080885320E+04  0.25500000920E-02 0.  1.
       -2    1    3    3    0  502  0.11068191389E+04 -0.14494693218E+04 -0.44889474777E+02  0.18242875283E+04  0.25500000920E-02 0. -1.
</event>
<event>
 5   0  0.5147582E-08  0.3838968E+04  0.7818609E-02  0.8037844E-01
        2   -1    0    0  501    0  0.00000000000E+00  0.00000000000E+00  0.19036077323E+04  0.19036077323E+04  0.25500000920E-02 0.  1.
       -2   -1    0    0    0  501  0.00000000000E+00  0.00000000000E+00 -0.19354924140E+04  0.19354924140E+04  0.25500000920E-02 0. -1.
    10030    2    1    2    0    0  0.00000000000E+00  0.00000000000E+00 -0.31884681738E+02  0.38391001463E+04  0.38389677389E+04 0.  0.
        1    1    3    3  502    0 -0.64129808402E+03 -0.13961059227E+04  0.11347681701E+04  0.19099931361E+04  0.50400001928E-02 0.  1.
       -1    1    3    3    0  502  0.64129808402E+03  0.13961059227E+04 -0.11666528518E+04  0.19291070102E+04  0.50400001928E-02 0. -1.
</event>
<event>
 5   0  0.1628250E-08  0.3795507E+04  0.7818609E-02  0.8047120E-01
       -3   -1    0    0    0  501  0.00000000000E+00  0.00000000000E+00  0.15925946526E+04  0.15925946558E+04  0.10100000352E+00 0.  1.
        3   -1    0    0  501    0  0.00000000000E+00  0.00000000000E+00 -0.22613843278E+04  0.22613843301E+04  0.10100000352E+00 0. -1.
    10030    2    1    2    0    0  0.00000000000E+00  0.00000000000E+00 -0.66878967522E+03  0.38539789859E+04  0.37955071327E+04 0.  0.
        3    1    3    3  502    0 -0.23209645814E+03 -0.95098689672E+03  0.13164509045E+04  0.16405145039E+04  0.10100000352E+00 0.  1.
       -3    1    3    3    0  502  0.23209645814E+03  0.95098689672E+03 -0.19852405797E+04  0.22134644820E+04  0.10100000352E+00 0. -1.
</event>
<event>
 5   0  0.1666051E-08  0.3799866E+04  0.7818609E-02  0.8046184E-01
       -1   -1    0    0    0  501  0.00000000000E+00  0.00000000000E+00  0.15790131335E+04  0.15790131335E+04  0.50400001928E-02 0.  1.
        1   -1    0    0  501    0  0.00000000000E+00  0.00000000000E+00 -0.22860763439E+04  0.22860763439E+04  0.50400001928E-02 0. -1.
    10030    2    1    2    0    0  0.00000000000E+00  0.00000000000E+00 -0.70706321040E+03  0.38650894775E+04  0.37998655615E+04 0.  0.
        2    1    3    3  502    0 -0.12194063014E+04  0.55804910524E+03  0.10154429948E+04  0.16821102840E+04  0.25500000920E-02 0.  1.
       -2    1    3    3    0  502  0.12194063014E+04 -0.55804910524E+03 -0.17225062052E+04  0.21829791934E+04  0.25500000920E-02 0. -1.
</event>
<event>
 5   0  0.1628473E-08  0.3778829E+04  0.7818609E-02  0.8050713E-01
        1   -1    0    0  501    0  0.00000000000E+00  0.00000000000E+00  0.15662458478E+04  0.15662458478E+04  0.50400001928E-02 0. -1.
       -1   -1    0    0    0  501  0.00000000000E+00  0.00000000000E+00 -0.22792640611E+04  0.22792640611E+04  0.50400001928E-02 0.  1.
    10030    2    1    2    0    0  0.00000000000E+00  0.00000000000E+00 -0.71301821328E+03  0.38455099089E+04  0.37788293805E+04 0.  0.
        3    1    3    3  502    0 -0.11798222616E+04 -0.43376939116E+03  0.10789673095E+04  0.16565949773E+04  0.10100000352E+00 0. -1.
       -3    1    3    3    0  502  0.11798222616E+04  0.43376939116E+03 -0.17919855227E+04  0.21889149316E+04  0.10100000352E+00 0.  1.
</event>
<event>
 5   0  0.5140842E-08  0.3766902E+04  0.7818609E-02  0.8053295E-01
        2   -1    0    0  501    0  0.00000000000E+00  0.00000000000E+00  0.16410216086E+04  0.16410216086E+04  0.25500000920E-02 0. -1.
       -2   -1    0    0    0  501  0.00000000000E+00  0.00000000000E+00 -0.21616943555E+04  0.21616943555E+04  0.25500000920E-02 0.  1.
    10030    2    1    2    0    0  0.00000000000E+00  0.00000000000E+00 -0.52067274696E+03  0.38027159641E+04  0.37669017235E+04 0.  0.
        2    1    3    3  502    0  0.25322442413E+03 -0.14550414975E+04  0.91958706681E+03  0.17398013513E+04  0.25500000920E-02 0. -1.
       -2    1    3    3    0  502 -0.25322442413E+03  0.14550414975E+04 -0.14402598138E+04  0.20629146128E+04  0.25500000920E-02 0.  1.
</event>
<event>
 5   0  0.5147582E-08  0.3786180E+04  0.7818609E-02  0.8049127E-01
       -2   -1    0    0    0  501  0.00000000000E+00  0.00000000000E+00  0.19724227221E+04  0.19724227221E+04  0.25500000920E-02 0. -1.
        2   -1    0    0  501    0  0.00000000000E+00  0.00000000000E+00 -0.18169480317E+04  0.18169480317E+04  0.25500000920E-02 0.  1.
    10030    2    1    2    0    0  0.00000000000E+00  0.00000000000E+00  0.15547469044E+03  0.37893707538E+04  0.37861799125E+04 0.  0.
        1    1    3    3  502    0  0.59284070435E+03  0.17978679249E+04  0.77099242283E+02  0.18946591960E+04  0.50400001928E-02 0.  1.
       -1    1    3    3    0  502 -0.59284070435E+03 -0.17978679249E+04  0.78375448156E+02  0.18947115577E+04  0.50400001928E-02 0. -1.
</event>
<event>
 5   0  0.1628250E-08  0.3799299E+04  0.7818609E-02  0.8046305E-01
       -1   -1    0    0    0  501  0.00000000000E+00  0.00000000000E+00  0.15599293831E+04  0.15599293831E+04  0.50400001928E-02 0.  1.
        1   -1    0    0  501    0  0.00000000000E+00  0.00000000000E+00 -0.23133532152E+04  0.23133532152E+04  0.50400001928E-02 0. -1.
    10030    2    1    2    0    0  0.00000000000E+00  0.00000000000E+00 -0.75342383205E+03  0.38732825983E+04  0.37992987005E+04 0.  0.
        1    1    3    3  502    0  0.13754330992E+04  0.62920581512E+03  0.79499550196E+03  0.17087229197E+04  0.50400001928E-02 0.  1.
       -1    1    3    3    0  502 -0.13754330992E+04 -0.62920581512E+03 -0.15484193340E+04  0.21645596786E+04  0.50400001928E-02 0. -1.
</event>
<event>
 5   0  0.5140842E-08  0.3767047E+04  0.7818609E-02  0.8053264E-01
        2   -1    0    0  501    0  0.00000000000E+00  0.00000000000E+00  0.27599702745E+04  0.27599702745E+04  0.25500000920E-02 0. -1.
       -2   -1    0    0    0  501  0.00000000000E+00  0.00000000000E+00 -0.12853982874E+04  0.12853982874E+04  0.25500000920E-02 0.  1.
    10030    2    1    2    0    0  0.00000000000E+00  0.00000000000E+00  0.14745719871E+04  0.40453685618E+04  0.37670471534E+04 0.  0.
        2    1    3    3  502    0 -0.15124659797E+04  0.97797871752E+03  0.14551365629E+03  0.18069781227E+04  0.25500000920E-02 0.  1.
       -2    1    3    3    0  502  0.15124659797E+04 -0.97797871752E+03  0.13290583308E+04  0.22383904392E+04  0.25500000920E-02 0. -1.
</event>
<event>
 5   0  0.1628250E-08  0.3792905E+04  0.7818609E-02  0.8047679E-01
       -1   -1    0    0    0  501  0.00000000000E+00  0.00000000000E+00  0.12529531557E+04  0.12529531557E+04  0.50400001928E-02 0.  1.
        1   -1    0    0  501    0  0.00000000000E+00  0.00000000000E+00 -0.28704441320E+04  0.28704441320E+04  0.50400001928E-02 0. -1.
    10030    2    1    2    0    0  0.00000000000E+00  0.00000000000E+00 -0.16174909764E+04  0.41233972877E+04  0.37929049729E+04 0.  0.
        4    1    3    3  502    0 -0.85107771470E+03 -0.12841350572E+04 -0.20110955858E+04  0.25333462436E+04  0.12699999809E+01 0. -1.
       -4    1    3    3    0  502  0.85107771470E+03  0.12841350572E+04  0.39360460947E+03  0.15900510442E+04  0.12699999809E+01 0.  1.
</event>
<event>
 5   0  0.1628473E-08  0.3804239E+04  0.7818609E-02  0.8045246E-01
        1   -1    0    0  501    0  0.00000000000E+00  0.00000000000E+00  0.25881735557E+04  0.25881735557E+04  0.50400001928E-02 0. -1.
       -1   -1    0    0    0  501  0.00000000000E+00  0.00000000000E+00 -0.13979197678E+04  0.13979197678E+04  0.50400001928E-02 0.  1.
    10030    2    1    2    0    0  0.00000000000E+00  0.00000000000E+00  0.11902537879E+04  0.39860933235E+04  0.38042392018E+04 0.  0.
        3    1    3    3  502    0 -0.66701312231E+02 -0.10474190506E+04 -0.10670610113E+04  0.14967147172E+04  0.10100000352E+00 0.  1.
       -3    1    3    3    0  502  0.66701312231E+02  0.10474190506E+04  0.22573147992E+04  0.24893786063E+04  0.10100000352E+00 0. -1.
</event>
<event>
 5   0  0.5159761E-08  0.3789414E+04  0.7818609E-02  0.8048430E-01
        2   -1    0    0  501    0  0.00000000000E+00  0.00000000000E+00  0.14790254548E+04  0.14790254548E+04  0.25500000920E-02 0.  1.
       -2   -1    0    0    0  501  0.00000000000E+00  0.00000000000E+00 -0.24272166825E+04  0.24272166825E+04  0.25500000920E-02 0. -1.
    10030    2    1    2    0    0  0.00000000000E+00  0.00000000000E+00 -0.94819122770E+03  0.39062421373E+04  0.37894143388E+04 0.  0.
        5    1    3    3  502    0  0.15905533714E+04 -0.36537846365E+03  0.51814548604E+03  0.17122670013E+04  0.46999998093E+01 0.  1.
       -5    1    3    3    0  502 -0.15905533714E+04  0.36537846365E+03 -0.14663367137E+04  0.21939751360E+04  0.46999998093E+01 0. -1.
</event>
<event>
 5   0  0.5140842E-08  0.3815717E+04  0.7818609E-02  0.8042790E-01
       -2   -1    0    0    0  501  0.00000000000E+00  0.00000000000E+00  0.15763419671E+04  0.15763419671E+04  0.25500000920E-02 0.  1.
        2   -1    0    0  501    0  0.00000000000E+00  0.00000000000E+00 -0.23090954068E+04  0.23090954068E+04  0.25500000920E-02 0. -1.
    10030    2    1    2    0    0  0.00000000000E+00  0.00000000000E+00 -0.73275343964E+03  0.38854373739E+04  0.38157169684E+04 0.  0.
        2    1    3    3  502    0 -0.84319272398E+03 -0.37760922212E+03  0.13333632021E+04  0.16221652577E+04  0.25500000920E-02 0.  1.
       -2    1    3    3    0  502  0.84319272398E+03  0.37760922212E+03 -0.20661166418E+04  0.22632721162E+04  0.25500000920E-02 0. -1.
</event>
<event>
 5   0  0.1628250E-08  0.3798171E+04  0.7818609E-02  0.8046547E-01
        3   -1    0    0  501    0  0.00000000000E+00  0.00000000000E+00  0.15417929069E+04  0.15417929102E+04  0.10100000352E+00 0. -1.
       -3   -1    0    0    0  501  0.00000000000E+00  0.00000000000E+00 -0.23391770918E+04  0.23391770940E+04  0.10100000352E+00 0.  1.
    10030    2    1    2    0    0  0.00000000000E+00  0.00000000000E+00 -0.79738418487E+03  0.38809700042E+04  0.37981714858E+04 0.  0.
        1    1    3    3  502    0  0.55446724168E+03  0.16730323212E+04 -0.11212536629E+04  0.20889425187E+04  0.50400001928E-02 0.  1.
       -1    1    3    3    0  502 -0.55446724168E+03 -0.16730323212E+04  0.32386947801E+03  0.17920274855E+04  0.50400001928E-02 0. -1.
</event>
<event>
 5   0  0.1666051E-08  0.3795049E+04  0.7818609E-02  0.8047218E-01
       -1   -1    0    0    0  501  0.00000000000E+00  0.00000000000E+00  0.26872918562E+04  0.26872918562E+04  0.50400001928E-02 0.  1.
        1   -1    0    0  501    0  0.00000000000E+00  0.00000000000E+00 -0.13398613870E+04  0.13398613870E+04  0.50400001928E-02 0. -1.
    10030    2    1    2    0    0  0.00000000000E+00  0.00000000000E+00  0.13474304692E+04  0.40271532432E+04  0.37950486657E+04 0.  0.
        2    1    3    3  502    0  0.12834089617E+04 -0.59512358267E+03 -0.66825888153E+03  0.15645704121E+04  0.25500000920E-02 0. -1.
       -2    1    3    3    0  502 -0.12834089617E+04  0.59512358267E+03  0.20156893508E+04  0.24625828312E+04  0.25500000920E-02 0.  1.
</event>
<event>
 5   0  0.1628250E-08  0.3802056E+04  0.7818609E-02  0.8045714E-01
        1   -1    0    0  501    0  0.00000000000E+00  0.00000000000E+00  0.30393828230E+04  0.30393828230E+04  0.50400001928E-02 0. -1.
       -1   -1    0    0    0  501  0.00000000000E+00  0.00000000000E+00 -0.11890268994E+04  0.11890268994E+04  0.50400001928E-02 0.  1.
    10030    2    1    2    0    0  0.00000000000E+00  0.00000000000E+00  0.18503559236E+04  0.42284097223E+04  0.38020562510E+04 0.  0.
        1    1    3    3  502    0  0.56175264043E+03 -0.39485643082E+03  0.28966533146E+04  0.29769242609E+04  0.50400001928E-02 0. -1.
       -1    1    3    3    0  502 -0.56175264043E+03  0.39485643082E+03 -0.10462973909E+04  0.12514854615E+04  0.50400001928E-02 0.  1.
</event>
<event>
 5   0  0.5140842E-08  0.3793944E+04  0.7818609E-02  0.8047456E-01
       -2   -1    0    0    0  501  0.00000000000E+00  0.00000000000E+00  0.25179363388E+04  0.25179363388E+04  0.25500000920E-02 0. -1.
        2   -1    0    0  501    0  0.00000000000E+00  0.00000000000E+00 -0.14291478012E+04  0.14291478012E+04  0.25500000920E-02 0.  1.
    10030    2    1    2    0    0  0.00000000000E+00  0.00000000000E+00  0.10887885376E+04  0.39470841400E+04  0.37939442179E+04 0.  0.
        2    1    3    3  502    0  0.12020841813E+04  0.12670601042E+04 -0.22579544057E+03  0.17610880919E+04  0.25500000920E-02 0. -1.
       -2    1    3    3    0  502 -0.12020841813E+04 -0.12670601042E+04  0.13145839781E+04  0.21859960480E+04  0.25500000920E-02 0.  1.
</event>
<event>
 5   0  0.1628250E-08  0.3799655E+04  0.7818609E-02  0.8046229E-01
        1   -1    0    0  501    0  0.00000000000E+00  0.00000000000E+00  0.19803248716E+04  0.19803248716E+04  0.50400001928E-02 0.  1.
       -1   -1    0    0    0  501  0.00000000000E+00  0.00000000000E+00 -0.18226020188E+04  0.18226020188E+04  0.50400001928E-02 0. -1.
    10030    2    1    2    0    0  0.00000000000E+00  0.00000000000E+00  0.15772285283E+03  0.38029268904E+04  0.37996547785E+04 0.  0.
        1    1    3    3  502    0 -0.93844121041E+03  0.51854370764E+03 -0.14908592458E+04  0.18363607415E+04  0.50400001928E-02 0. -1.
       -1    1    3    3    0  502  0.93844121041E+03 -0.51854370764E+03  0.16485820986E+04  0.19665661489E+04  0.50400001928E-02 0.  1.
</event>
<event>
 5   0  0.5159761E-08  0.3789219E+04  0.7818609E-02  0.8048472E-01
        2   -1    0    0  501    0  0.00000000000E+00  0.00000000000E+00  0.14166920742E+04  0.14166920742E+04  0.25500000920E-02 0. -1.
       -2   -1    0    0    0  501  0.00000000000E+00  0.00000000000E+00 -0.25337512179E+04  0.25337512179E+04  0.25500000920E-02 0.  1.
    10030    2    1    2    0    0  0.00000000000E+00  0.00000000000E+00 -0.11170591437E+04  0.39504432922E+04  0.37892190586E+04 0.  0.
        5    1    3    3  502    0 -0.12440910014E+04 -0.13678661190E+04 -0.12778804243E+03  0.18534217040E+04  0.46999998093E+01 0.  1.
       -5    1    3    3    0  502  0.12440910014E+04  0.13678661190E+04 -0.98927110125E+03  0.20970215881E+04  0.46999998093E+01 0. -1.
</event>
<event>
 5   0  0.1628473E-08  0.3804949E+04  0.7818609E-02  0.8045094E-01
       -1   -1    0    0    0  501  0.00000000000E+00  0.00000000000E+00  0.18408494096E+04  0.18408494096E+04  0.50400001928E-02 0. -1.
        1   -1    0    0  501    0  0.00000000000E+00  0.00000000000E+00 -0.19661629077E+04  0.19661629077E+04  0.50400001928E-02 0.  1.
    10030    2    1    2    0    0  0.00000000000E+00  0.00000000000E+00 -0.12531349816E+03  0.38070123173E+04  0.38049493178E+04 0.  0.
        3    1    3    3  502    0 -0.13838125954E+04 -0.78458389580E+03  0.98141304150E+03  0.18691390416E+04  0.10100000352E+00 0. -1.
       -3    1    3    3    0  502  0.13838125954E+04  0.78458389580E+03 -0.11067265397E+04  0.19378732757E+04  0.10100000352E+00 0.  1.
</event>
<event>
 5   0  0.1628250E-08  0.3798788E+04  0.7818609E-02  0.8046415E-01
       -1   -1    0    0    0  501  0.00000000000E+00  0.00000000000E+00  0.20294776738E+04  0.20294776738E+04  0.50400001928E-02 0.  1.
        1   -1    0    0  501    0  0.00000000000E+00  0.00000000000E+00 -0.17776483765E+04  0.17776483765E+04  0.50400001928E-02 0. -1.
    10030    2    1    2    0    0  0.00000000000E+00  0.00000000000E+00  0.25182929734E+03  0.38071260503E+04  0.37987880656E+04 0.  0.
        5    1    3    3  502    0  0.51367514173E+02  0.95375445005E+02  0.20263733657E+04  0.20292723337E+04  0.46999998093E+01 0.  1.
       -5    1    3    3    0  502 -0.51367514173E+02 -0.95375445005E+02 -0.17745440684E+04  0.17778537166E+04  0.46999998093E+01 0. -1.
</event>
<event>
 5   0  0.5140842E-08  0.3815530E+04  0.7818609E-02  0.8042830E-01
        2   -1    0    0  501    0  0.00000000000E+00  0.00000000000E+00  0.14949827867E+04  0.14949827867E+04  0.25500000920E-02 0.  1.
       -2   -1    0    0    0  501  0.00000000000E+00  0.00000000000E+00 -0.24345210423E+04  0.24345210423E+04  0.25500000920E-02 0. -1.
    10030    2    1    2    0    0  0.00000000000E+00  0.00000000000E+00 -0.93953825558E+03  0.39295038289E+04  0.38155298725E+04 0.  0.
        2    1    3    3  502    0  0.24776373750E+02  0.18800319783E+04 -0.80258315192E+03  0.20443272302E+04  0.25500000920E-02 0. -1.
       -2    1    3    3    0  502 -0.24776373750E+02 -0.18800319783E+04 -0.13695510365E+03  0.18851765988E+04  0.25500000920E-02 0.  1.
</event>
<event>
 5   0  0.1628250E-08  0.3831996E+04  0.7818609E-02  0.8039323E-01
       -1   -1    0    0    0  501  0.00000000000E+00  0.00000000000E+00  0.15999083005E+04  0.15999083005E+04  0.50400001928E-02 0.  1.
        1   -1    0    0  501    0  0.00000000000E+00  0.00000000000E+00 -0.22945369078E+04  0.22945369078E+04  0.50400001928E-02 0. -1.
    10030    2    1    2    0    0  0.00000000000E+00  0.00000000000E+00 -0.69462860728E+03  0.38944452084E+04  0.38319961611E+04 0.  0.
        1    1    3    3  502    0  0.82548428737E+03  0.17049254179E+04 -0.63984831717E+03  0.19994001246E+04  0.50400001928E-02 0. -1.
       -1    1    3    3    0  502 -0.82548428737E+03 -0.17049254179E+04 -0.54780290115E+02  0.18950450838E+04  0.50400001928E-02 0.  1.
</event>
<event>
 5   0  0.5140842E-08  0.3785307E+04  0.7818609E-02  0.8049315E-01
       -2   -1    0    0    0  501  0.00000000000E+00  0.00000000000E+00  0.12107060282E+04  0.12107060282E+04  0.25500000920E-02 0.  1.
        2   -1    0    0  501    0  0.00000000000E+00  0.00000000000E+00 -0.29587182868E+04  0.29587182868E+04  0.25500000920E-02 0. -1.
    10030    2    1    2    0    0  0.00000000000E+00  0.00000000000E+00 -0.17480122586E+04  0.41694243150E+04  0.37853074197E+04 0.  0.
        2    1    3    3  502    0 -0.18025670559E+04  0.56659005127E+03 -0.75402215776E+03  0.20344094209E+04  0.25500000920E-02 0. -1.
       -2    1    3    3    0  502  0.18025670559E+04 -0.56659005127E+03 -0.99399010081E+03  0.21350148941E+04  0.25500000920E-02 0.  1.
</event>
<event>
 5   0  0.1666051E-08  0.3750994E+04  0.7818609E-02  0.8056754E-01
       -1   -1    0    0    0  501  0.00000000000E+00  0.00000000000E+00  0.23881946859E+04  0.23881946859E+04  0.50400001928E-02 0. -1.
        1   -1    0    0  501    0  0.00000000000E+00  0.00000000000E+00 -0.14728653791E+04  0.14728653791E+04  0.50400001928E-02 0.  1.
    10030    2    1    2    0    0  0.00000000000E+00  0.00000000000E+00  0.91532930677E+03  0.38610600650E+04  0.37509941463E+04 0.  0.
        2    1    3    3  502    0  0.16277289965E+04 -0.83938133374E+03  0.41541871318E+02  0.18318811197E+04  0.25500000920E-02 0.  1.
       -2    1    3    3    0  502 -0.16277289965E+04  0.83938133374E+03  0.87378743545E+03  0.20291789453E+04  0.25500000920E-02 0. -1.
</event>
<event>
 5   0  0.1666051E-08  0.3795065E+04  0.7818609E-02  0.8047215E-01
       -1   -1    0    0    0  501  0.00000000000E+00  0.00000000000E+00  0.29360564358E+04  0.29360564358E+04  0.50400001928E-02 0.  1.
        1   -1    0    0  501    0  0.00000000000E+00  0.00000000000E+00 -0.12263487299E+04  0.12263487299E+04  0.50400001928E-02 0. -1.
    10030    2    1    2    0    0  0.00000000000E+00  0.00000000000E+00  0.17097077059E+04  0.41624051657E+04  0.37950647325E+04 0.  0.
        2    1    3    3  502    0  0.21451566052E+03 -0.16272852628E+04 -0.18943872485E+03  0.16522594607E+04  0.25500000920E-02 0. -1.
       -2    1    3    3    0  502 -0.21451566052E+03  0.16272852628E+04  0.18991464308E+04  0.25101457050E+04  0.25500000920E-02 0.  1.
</event>
<event>
 5   0  0.1628250E-08  0.3800598E+04  0.7818609E-02  0.8046027E-01
       -1   -1    0    0    0  501  0.00000000000E+00  0.00000000000E+00  0.14744089508E+04  0.14744089508E+04  0.50400001928E-02 0. -1.
        1   -1    0    0  501    0  0.00000000000E+00  0.00000000000E+00 -0.24492096284E+04  0.24492096284E+04  0.50400001928E-02 0.  1.
    10030    2    1    2    0    0  0.00000000000E+00  0.00000000000E+00 -0.97480067759E+03  0.39236185793E+04  0.38005981627E+04 0.  0.
        4    1    3    3  502    0 -0.81633980074E+03 -0.87798477257E+03 -0.20095288423E+04  0.23399734426E+04  0.12699999809E+01 0.  1.
       -4    1    3    3    0  502  0.81633980074E+03  0.87798477257E+03  0.10347281647E+04  0.15836451367E+04  0.12699999809E+01 0. -1.
</event>
<event>
 5   0  0.1628250E-08  0.3799617E+04  0.7818609E-02  0.8046237E-01
       -1   -1    0    0    0  501  0.00000000000E+00  0.00000000000E+00  0.22937384123E+04  0.22937384123E+04  0.50400001928E-02 0.  1.
        1   -1    0    0  501    0  0.00000000000E+00  0.00000000000E+00 -0.15735326549E+04  0.15735326549E+04  0.50400001928E-02 0. -1.
    10030    2    1    2    0    0  0.00000000000E+00  0.00000000000E+00  0.72020575734E+03  0.38672710672E+04  0.37996169773E+04 0.  0.
        4    1    3    3  502    0  0.16516996075E+03 -0.75747826652E+02  0.22848728790E+04  0.22920873751E+04  0.12699999809E+01 0.  1.
       -4    1    3    3    0  502 -0.16516996075E+03  0.75747826652E+02 -0.15646671217E+04  0.15751836921E+04  0.12699999809E+01 0. -1.
</event>
<event>
 5   0  0.1628250E-08  0.3806194E+04  0.7818609E-02  0.8044827E-01
       -1   -1    0    0    0  501  0.00000000000E+00  0.00000000000E+00  0.16429627372E+04  0.16429627372E+04  0.50400001928E-02 0. -1.
        1   -1    0    0  501    0  0.00000000000E+00  0.00000000000E+00 -0.22044192876E+04  0.22044192877E+04  0.50400001928E-02 0.  1.
    10030    2    1    2    0    0  0.00000000000E+00  0.00000000000E+00 -0.56145655041E+03  0.38473820249E+04  0.38061942919E+04 0.  0.
        5    1    3    3  502    0 -0.36211070368E+03  0.38730001686E+03 -0.21282460438E+04  0.21933031660E+04  0.46999998093E+01 0.  1.
       -5    1    3    3    0  502  0.36211070368E+03 -0.38730001686E+03  0.15667894934E+04  0.16540788589E+04  0.46999998093E+01 0. -1.
</event>
<event>
 5   0  0.1628473E-08  0.3778002E+04  0.7818609E-02  0.8050892E-01
        1   -1    0    0  501    0  0.00000000000E+00  0.00000000000E+00  0.14199176808E+04  0.14199176808E+04  0.50400001928E-02 0. -1.
       -1   -1    0    0    0  501  0.00000000000E+00  0.00000000000E+00 -0.25130501538E+04  0.25130501538E+04  0.50400001928E-02 0.  1.
    10030    2    1    2    0    0  0.00000000000E+00  0.00000000000E+00 -0.10931324730E+04  0.39329678346E+04  0.37780017714E+04 0.  0.
        3    1    3    3  502    0  0.13932068375E+04  0.12530374153E+04 -0.29759904069E+03  0.18972857601E+04  0.10100000352E+00 0.  1.
       -3    1    3    3    0  502 -0.13932068375E+04 -0.12530374153E+04 -0.79553343231E+03  0.20356820745E+04  0.10100000352E+00 0. -1.
</event>
<event>
 5   0  0.5159761E-08  0.3802608E+04  0.7818609E-02  0.8045595E-01
       -2   -1    0    0    0  501  0.00000000000E+00  0.00000000000E+00  0.17452517701E+04  0.17452517701E+04  0.25500000920E-02 0. -1.
        2   -1    0    0  501    0  0.00000000000E+00  0.00000000000E+00 -0.20713098057E+04  0.20713098057E+04  0.25500000920E-02 0.  1.
    10030    2    1    2    0    0  0.00000000000E+00  0.00000000000E+00 -0.32605803555E+03  0.38165615758E+04  0.38026081075E+04 0.  0.
        5    1    3    3  502    0  0.31798814471E+03  0.32267368385E+03 -0.20163421556E+04  0.20666137871E+04  0.46999998093E+01 0.  1.
       -5    1    3    3    0  502 -0.31798814471E+03 -0.32267368385E+03  0.16902841201E+04  0.17499477887E+04  0.46999998093E+01 0. -1.
</event>
<event>
 5   0  0.1628250E-08  0.3799811E+04  0.7818609E-02  0.8046195E-01
       -1   -1    0    0    0  501  0.00000000000E+00  0.00000000000E+00  0.15375656022E+04  0.15375656022E+04  0.50400001928E-02 0.  1.
        1   -1    0    0  501    0  0.00000000000E+00  0.00000000000E+00 -0.23476334870E+04  0.23476334870E+04  0.50400001928E-02 0. -1.
    10030    2    1    2    0    0  0.00000000000E+00  0.00000000000E+00 -0.81006788481E+03  0.38851990892E+04  0.37998107827E+04 0.  0.
        5    1    3    3  502    0 -0.73403433455E+03  0.12975820206E+04  0.79918119482E+03  0.16915194875E+04  0.46999998093E+01 0.  1.
       -5    1    3    3    0  502  0.73403433455E+03 -0.12975820206E+04 -0.16092490796E+04  0.21936796017E+04  0.46999998093E+01 0. -1.
</event>
<event>
 5   0  0.5147582E-08  0.3794863E+04  0.7818609E-02  0.8047258E-01
        2   -1    0    0  501    0  0.00000000000E+00  0.00000000000E+00  0.14460591245E+04  0.14460591245E+04  0.25500000920E-02 0. -1.
       -2   -1    0    0    0  501  0.00000000000E+00  0.00000000000E+00 -0.24896947865E+04  0.24896947865E+04  0.25500000920E-02 0.  1.
    10030    2    1    2    0    0  0.00000000000E+00  0.00000000000E+00 -0.10436356620E+04  0.39357539111E+04  0.37948627714E+04 0.  0.
        1    1    3    3  502    0 -0.18144509502E+04  0.49769148987E+03 -0.77653075586E+03  0.20354186510E+04  0.50400001928E-02 0.  1.
       -1    1    3    3    0  502  0.18144509502E+04 -0.49769148987E+03 -0.26710490616E+03  0.19003352601E+04  0.50400001928E-02 0. -1.
</event>
<event>
 5   0  0.1628473E-08  0.3756029E+04  0.7818609E-02  0.8055657E-01
       -1   -1    0    0    0  501  0.00000000000E+00  0.00000000000E+00  0.26735269262E+04  0.26735269262E+04  0.50400001928E-02 0. -1.
        1   -1    0    0  501    0  0.00000000000E+00  0.00000000000E+00 -0.13192081213E+04  0.13192081214E+04  0.50400001928E-02 0.  1.
    10030    2    1    2    0    0  0.00000000000E+00  0.00000000000E+00  0.13543188048E+04  0.39927350475E+04  0.37560289848E+04 0.  0.
        3    1    3    3  502    0  0.15331912155E+04 -0.10845093769E+04  0.68792331484E+03  0.20000185972E+04  0.10100000352E+00 0.  1.
       -3    1    3    3    0  502 -0.15331912155E+04  0.10845093769E+04  0.66639548997E+03  0.19927164503E+04  0.10100000352E+00 0. -1.
</event>
<event>
 5   0  0.1628250E-08  0.3805293E+04  0.7818609E-02  0.8045020E-01
        1   -1    0    0  501    0  0.00000000000E+00  0.00000000000E+00  0.12487122314E+04  0.12487122314E+04  0.50400001928E-02 0.  1.
       -1   -1    0    0    0  501  0.00000000000E+00  0.00000000000E+00 -0.28990381396E+04  0.28990381396E+04  0.50400001928E-02 0. -1.
    10030    2    1    2    0    0  0.00000000000E+00  0.00000000000E+00 -0.16503259082E+04  0.41477503710E+04  0.38052933575E+04 0.  0.
        4    1    3    3  502    0  0.15311119456E+04  0.25737507314E+02 -0.20559870936E+04  0.25636011295E+04  0.12699999809E+01 0. -1.
       -4    1    3    3    0  502 -0.15311119456E+04 -0.25737507314E+02  0.40566118542E+03  0.15841492415E+04  0.12699999809E+01 0.  1.
</event>
<event>
 5   0  0.5147582E-08  0.3798247E+04  0.7818609E-02  0.8046531E-01
        2   -1    0    0  501    0  0.00000000000E+00  0.00000000000E+00  0.21680616052E+04  0.21680616052E+04  0.25500000920E-02 0. -1.
       -2   -1    0    0    0  501  0.00000000000E+00  0.00000000000E+00 -0.16635463114E+04  0.16635463114E+04  0.25500000920E-02 0.  1.
    10030    2    1    2    0    0  0.00000000000E+00  0.00000000000E+00  0.50451529371E+03  0.38316079166E+04  0.37982474307E+04 0.  0.
        1    1    3    3  502    0 -0.12858802956E+04  0.63753228606E+03  0.15068591768E+04  0.20809997907E+04  0.50400001928E-02 0. -1.
       -1    1    3    3    0  502  0.12858802956E+04 -0.63753228606E+03 -0.10023438831E+04  0.17506081259E+04  0.50400001928E-02 0.  1.
</event>
<event>
 5   0  0.5086209E-08  0.3809428E+04  0.7818609E-02  0.8044135E-01
        2   -1    0    0  501    0  0.00000000000E+00  0.00000000000E+00  0.19704341658E+04  0.19704341658E+04  0.25500000920E-02 0. -1.
       -2   -1    0    0    0  501  0.00000000000E+00  0.00000000000E+00 -0.18411853312E+04  0.18411853312E+04  0.25500000920E-02 0.  1.
    10030    2    1    2    0    0  0.00000000000E+00  0.00000000000E+00  0.12924883466E+03  0.38116194970E+04  0.38094275067E+04 0.  0.
        3    1    3    3  502    0 -0.12314009533E+04  0.52667207372E+03  0.14197311078E+04  0.19517602849E+04  0.10100000352E+00 0. -1.
       -3    1    3    3    0  502  0.12314009533E+04 -0.52667207372E+03 -0.12904822732E+04  0.18598592121E+04  0.10100000352E+00 0.  1.
</event>
<event>
 5   0  0.5147582E-08  0.3822067E+04  0.7818609E-02  0.8041436E-01
       -2   -1    0    0    0  501  0.00000000000E+00  0.00000000000E+00  0.17095932638E+04  0.17095932638E+04  0.25500000920E-02 0.  1.
        2   -1    0    0  501    0  0.00000000000E+00  0.00000000000E+00 -0.21362096195E+04  0.21362096196E+04  0.25500000920E-02 0. -1.
    10030    2    1    2    0    0  0.00000000000E+00  0.00000000000E+00 -0.42661635576E+03  0.38458028833E+04  0.38220672813E+04 0.  0.
        1    1    3    3  502    0 -0.51406787361E+03 -0.12704313200E+04  0.11267990706E+04  0.17742428422E+04  0.50400001928E-02 0.  1.
       -1    1    3    3    0  502  0.51406787361E+03  0.12704313200E+04 -0.15534154263E+04  0.20715600412E+04  0.50400001928E-02 0. -1.
</event>
<event>
 5   0  0.5086209E-08  0.3794247E+04  0.7818609E-02  0.8047391E-01
        2   -1    0    0  501    0  0.00000000000E+00  0.00000000000E+00  0.21358028362E+04  0.21358028362E+04  0.25500000920E-02 0. -1.
       -2   -1    0    0    0  501  0.00000000000E+00  0.00000000000E+00 -0.16851166120E+04  0.16851166120E+04  0.25500000920E-02 0.  1.
    10030    2    1    2    0    0  0.00000000000E+00  0.00000000000E+00  0.45068622413E+03  0.38209194482E+04  0.37942466126E+04 0.  0.
        3    1    3    3  502    0  0.18372205232E+04 -0.30668581143E+03 -0.13724550732E+03  0.18676915637E+04  0.10100000352E+00 0.  1.
       -3    1    3    3    0  502 -0.18372205232E+04  0.30668581143E+03  0.58793173144E+03  0.19532278845E+04  0.10100000352E+00 0. -1.
</event>
<event>
 5   0  0.5140842E-08  0.3780754E+04  0.7818609E-02  0.8050298E-01
       -2   -1    0    0    0  501  0.00000000000E+00  0.00000000000E+00  0.20749874355E+04  0.20749874355E+04  0.25500000920E-02 0. -1.
        2   -1    0    0  501    0  0.00000000000E+00  0.00000000000E+00 -0.17221914999E+04  0.17221914999E+04  0.25500000920E-02 0.  1.
    10030    2    1    2    0    0  0.00000000000E+00  0.00000000000E+00  0.35279593557E+03  0.37971789353E+04  0.37807542759E+04 0.  0.
        2    1    3    3  502    0 -0.17413527522E+04  0.72960104748E+03  0.81655623468E+02  0.18897869554E+04  0.25500000920E-02 0.  1.
       -2    1    3    3    0  502  0.17413527522E+04 -0.72960104748E+03  0.27114031210E+03  0.19073919799E+04  0.25500000920E-02 0. -1.
</event>
<event>
 5   0  0.5147582E-08  0.3806572E+04  0.7818609E-02  0.8044746E-01
        2   -1    0    0  501    0  0.00000000000E+00  0.00000000000E+00  0.19615155448E+04  0.19615155448E+04  0.25500000920E-02 0.  1.
       -2   -1    0    0    0  501  0.00000000000E+00  0.00000000000E+00 -0.18467852329E+04  0.18467852329E+04  0.25500000920E-02 0. -1.
    10030    2    1    2    0    0  0.00000000000E+00  0.00000000000E+00  0.11473031189E+03  0.38083007777E+04  0.38065721810E+04 0.  0.
        1    1    3    3  502    0  0.20632565392E+03 -0.15798347987E+04  0.10990150259E+04  0.19355315275E+04  0.50400001928E-02 0.  1.
       -1    1    3    3    0  502 -0.20632565392E+03  0.15798347987E+04 -0.98428471401E+03  0.18727692503E+04  0.50400001928E-02 0. -1.
</event>
<event>
 5   0  0.1628250E-08  0.3893078E+04  0.7818609E-02  0.8026470E-01
       -1   -1    0    0    0  501  0.00000000000E+00  0.00000000000E+00  0.18732144004E+04  0.18732144005E+04  0.50400001928E-02 0.  1.
        1   -1    0    0  501    0  0.00000000000E+00  0.00000000000E+00 -0.20227339461E+04  0.20227339461E+04  0.50400001928E-02 0. -1.
    10030    2    1    2    0    0  0.00000000000E+00  0.00000000000E+00 -0.14951954563E+03  0.38959483465E+04  0.38930781426E+04 0.  0.
        5    1    3    3  502    0  0.19355675373E+03 -0.17316596940E+04 -0.94308764899E+03  0.19812990477E+04  0.46999998093E+01 0. -1.
       -5    1    3    3    0  502 -0.19355675373E+03  0.17316596940E+04  0.79356810336E+03  0.19146492988E+04  0.46999998093E+01 0.  1.
</event>
<event>
 5   0  0.1628250E-08  0.3794151E+04  0.7818609E-02  0.8047411E-01
        1   -1    0    0  501    0  0.00000000000E+00  0.00000000000E+00  0.28236363233E+04  0.28236363233E+04  0.50400001928E-02 0.  1.
       -1   -1    0    0    0  501  0.00000000000E+00  0.00000000000E+00 -0.12745606658E+04  0.12745606658E+04  0.50400001928E-02 0. -1.
    10030    2    1    2    0    0  0.00000000000E+00  0.00000000000E+00  0.15490756575E+04  0.40981969892E+04  0.37941511790E+04 0.  0.
        5    1    3    3  502    0  0.12405976168E+04  0.63440741210E+02  0.23232299671E+04  0.26344879473E+04  0.46999998093E+01 0.  1.
       -5    1    3    3    0  502 -0.12405976168E+04 -0.63440741210E+02 -0.77415430956E+03  0.14637090419E+04  0.46999998093E+01 0. -1.
</event>
<event>
 5   0  0.5140842E-08  0.3799065E+04  0.7818609E-02  0.8046355E-01
        2   -1    0    0  501    0  0.00000000000E+00  0.00000000000E+00  0.27864018306E+04  0.27864018306E+04  0.25500000920E-02 0.  1.
       -2   -1    0    0    0  501  0.00000000000E+00  0.00000000000E+00 -0.12949403948E+04  0.12949403948E+04  0.25500000920E-02 0. -1.
    10030    2    1    2    0    0  0.00000000000E+00  0.00000000000E+00  0.14914614358E+04  0.40813422254E+04  0.37990652990E+04 0.  0.
        2    1    3    3  502    0  0.15661187446E+04 -0.14481837731E+03  0.18900128017E+04  0.24588307537E+04  0.25500000920E-02 0.  1.
       -2    1    3    3    0  502 -0.15661187446E+04  0.14481837731E+03 -0.39855136587E+03  0.16225114717E+04  0.25500000920E-02 0. -1.
</event>
<event>
 5   0  0.1628473E-08  0.3800019E+04  0.7818609E-02  0.8046151E-01
        1   -1    0    0  501    0  0.00000000000E+00  0.00000000000E+00  0.15839316828E+04  0.15839316828E+04  0.50400001928E-02 0. -1.
       -1   -1    0    0    0  501  0.00000000000E+00  0.00000000000E+00 -0.22791617165E+04  0.22791617165E+04  0.50400001928E-02 0.  1.
    10030    2    1    2    0    0  0.00000000000E+00  0.00000000000E+00 -0.69523003362E+03  0.38630933993E+04  0.38000191857E+04 0.  0.
        3    1    3    3  502    0  0.16396355453E+04 -0.70180597142E+03  0.31831520799E+03  0.18117011136E+04  0.10100000352E+00 0. -1.
       -3    1    3    3    0  502 -0.16396355453E+04  0.70180597142E+03 -0.10135452416E+04  0.20513922857E+04  0.10100000352E+00 0.  1.
</event>
<event>
 5   0  0.1628250E-08  0.3801337E+04  0.7818609E-02  0.8045868E-01
        1   -1    0    0  501    0  0.00000000000E+00  0.00000000000E+00  0.25308333748E+04  0.25308333748E+04  0.50400001928E-02 0. -1.
       -1   -1    0    0    0  501  0.00000000000E+00  0.00000000000E+00 -0.14274114813E+04  0.14274114813E+04  0.50400001928E-02 0.  1.
    10030    2    1    2    0    0  0.00000000000E+00  0.00000000000E+00  0.11034218934E+04  0.39582448561E+04  0.38013369314E+04 0.  0.
        5    1    3    3  502    0  0.13059409513E+04  0.13668163622E+04  0.75695029606E+03  0.20363360668E+04  0.46999998093E+01 0. -1.
       -5    1    3    3    0  502 -0.13059409513E+04 -0.13668163622E+04  0.34647159736E+03  0.19219087893E+04  0.46999998093E+01 0.  1.
</event>
<event>
 5   0  0.5159761E-08  0.3832461E+04  0.7818609E-02  0.8039224E-01
       -2   -1    0    0    0  501  0.00000000000E+00  0.00000000000E+00  0.21674614215E+04  0.21674614215E+04  0.25500000920E-02 0. -1.
        2   -1    0    0  501    0  0.00000000000E+00  0.00000000000E+00 -0.16941199635E+04  0.16941199635E+04  0.25500000920E-02 0.  1.
    10030    2    1    2    0    0  0.00000000000E+00  0.00000000000E+00  0.47334145796E+03  0.38615813850E+04  0.38324611749E+04 0.  0.
        5    1    3    3  502    0 -0.96214794277E+03  0.12422270086E+04  0.13418462248E+04  0.20662599027E+04  0.46999998093E+01 0.  1.
       -5    1    3    3    0  502  0.96214794277E+03 -0.12422270086E+04 -0.86850476684E+03  0.17953214823E+04  0.46999998093E+01 0. -1.
</event>
<event>
 5   0  0.5086209E-08  0.3771433E+04  0.7818609E-02  0.8052313E-01
       -2   -1    0    0    0  501  0.00000000000E+00  0.00000000000E+00  0.15591035674E+04  0.15591035674E+04  0.25500000920E-02 0.  1.
        2   -1    0    0  501    0  0.00000000000E+00  0.00000000000E+00 -0.22807502075E+04  0.22807502075E+04  0.25500000920E-02 0. -1.
    10030    2    1    2    0    0  0.00000000000E+00  0.00000000000E+00 -0.72164664013E+03  0.38398537749E+04  0.37714325049E+04 0.  0.
        3    1    3    3  502    0  0.93543147109E+03  0.25368397902E+03  0.12860943317E+04  0.16104118226E+04  0.10100000352E+00 0.  1.
       -3    1    3    3    0  502 -0.93543147109E+03 -0.25368397902E+03 -0.20077409718E+04  0.22294419522E+04  0.10100000352E+00 0. -1.
</event>
<event>
 5   0  0.1628250E-08  0.3784468E+04  0.7818609E-02  0.8049496E-01
        3   -1    0    0  501    0  0.00000000000E+00  0.00000000000E+00  0.22629369041E+04  0.22629369064E+04  0.10100000352E+00 0.  1.
       -3   -1    0    0    0  501  0.00000000000E+00  0.00000000000E+00 -0.15822575854E+04  0.15822575887E+04  0.10100000352E+00 0. -1.
    10030    2    1    2    0    0  0.00000000000E+00  0.00000000000E+00  0.68067931866E+03  0.38451944950E+04  0.37844677789E+04 0.  0.
        1    1    3    3  502    0 -0.53369026673E+03 -0.11954937614E+04  0.17284680746E+04  0.21683248187E+04  0.50400001928E-02 0.  1.
       -1    1    3    3    0  502  0.53369026673E+03  0.11954937614E+04 -0.10477887559E+04  0.16768696764E+04  0.50400001928E-02 0. -1.
</event>
<event>
 5   0  0.5140842E-08  0.3782009E+04  0.7818609E-02  0.8050027E-01
        2   -1    0    0  501    0  0.00000000000E+00  0.00000000000E+00  0.19493440134E+04  0.19493440134E+04  0.25500000920E-02 0. -1.
       -2   -1    0    0    0  501  0.00000000000E+00  0.00000000000E+00 -0.18344111391E+04  0.18344111391E+04  0.25500000920E-02 0.  1.
    10030    2    1    2    0    0  0.00000000000E+00  0.00000000000E+00  0.11493287426E+03  0.37837551525E+04  0.37820091867E+04 0.  0.
        2    1    3    3  502    0 -0.18169188746E+04 -0.39002112171E+02 -0.46544397466E+03  0.18759939912E+04  0.25500000920E-02 0.  1.
       -2    1    3    3    0  502  0.18169188746E+04  0.39002112171E+02  0.58037684892E+03  0.19077611612E+04  0.25500000920E-02 0. -1.
</event>
<event>
 5   0  0.1628250E-08  0.3800794E+04  0.7818609E-02  0.8045985E-01
       -1   -1    0    0    0  501  0.00000000000E+00  0.00000000000E+00  0.24755767067E+04  0.24755767068E+04  0.50400001928E-02 0.  1.
        1   -1    0    0  501    0  0.00000000000E+00  0.00000000000E+00 -0.14588552788E+04  0.14588552789E+04  0.50400001928E-02 0. -1.
    10030    2    1    2    0    0  0.00000000000E+00  0.00000000000E+00  0.10167214279E+04  0.39344319856E+04  0.38007936786E+04 0.  0.
        1    1    3    3  502    0  0.10778241829E+04 -0.17001444055E+03  0.21189915769E+04  0.23834292904E+04  0.50400001928E-02 0.  1.
       -1    1    3    3    0  502 -0.10778241829E+04  0.17001444055E+03 -0.11022701490E+04  0.15510026952E+04  0.50400001928E-02 0. -1.
</event>
<event>
 5   0  0.5147582E-08  0.3800198E+04  0.7818609E-02  0.8046112E-01
       -2   -1    0    0    0  501  0.00000000000E+00  0.00000000000E+00  0.27543480066E+04  0.27543480066E+04  0.25500000920E-02 0. -1.
        2   -1    0    0  501    0  0.00000000000E+00  0.00000000000E+00 -0.13107916111E+04  0.13107916111E+04  0.25500000920E-02 0.  1.
    10030    2    1    2    0    0  0.00000000000E+00  0.00000000000E+00  0.14435563955E+04  0.40651396177E+04  0.38001980270E+04 0.  0.
        1    1    3    3  502    0 -0.85591729820E+03  0.80896779701E+03 -0.87326864866E+03  0.14661587399E+04  0.50400001928E-02 0.  1.
       -1    1    3    3    0  502  0.85591729820E+03 -0.80896779701E+03  0.23168250441E+04  0.25989808778E+04  0.50400001928E-02 0. -1.
</event>
<event>
 5   0  0.1666051E-08  0.3797395E+04  0.7818609E-02  0.8046714E-01
       -1   -1    0    0    0  501  0.00000000000E+00  0.00000000000E+00  0.23513551178E+04  0.23513551178E+04  0.50400001928E-02 0.  1.
        1   -1    0    0  501    0  0.00000000000E+00  0.00000000000E+00 -0.15331807187E+04  0.15331807187E+04  0.50400001928E-02 0. -1.
    10030    2    1    2    0    0  0.00000000000E+00  0.00000000000E+00  0.81817439919E+03  0.38845358365E+04  0.37973950700E+04 0.  0.
        2    1    3    3  502    0 -0.10427292189E+04 -0.10981724625E+04 -0.76252730064E+03  0.16954984122E+04  0.25500000920E-02 0. -1.
       -2    1    3    3    0  502  0.10427292189E+04  0.10981724625E+04  0.15807016998E+04  0.21890374244E+04  0.25500000920E-02 0.  1.
</event>
<event>
 5   0  0.1628250E-08  0.3806080E+04  0.7818609E-02  0.8044851E-01
        1   -1    0    0  501    0  0.00000000000E+00  0.00000000000E+00  0.30412696717E+04  0.30412696717E+04  0.50400001928E-02 0.  1.
       -1   -1    0    0    0  501  0.00000000000E+00  0.00000000000E+00 -0.11908059524E+04  0.11908059524E+04  0.50400001928E-02 0. -1.
    10030    2    1    2    0    0  0.00000000000E+00  0.00000000000E+00  0.18504637193E+04  0.42320756240E+04  0.38060804131E+04 0.  0.
        5    1    3    3  502    0  0.59999464469E+03  0.13477861697E+04  0.22618649527E+04  0.27004770481E+04  0.46999998093E+01 0.  1.
       -5    1    3    3    0  502 -0.59999464469E+03 -0.13477861697E+04 -0.41140123343E+03  0.15315985759E+04  0.46999998093E+01 0. -1.
</event>
<event>
 5   0  0.1628250E-08  0.3798671E+04  0.7818609E-02  0.8046440E-01
        1   -1    0    0  501    0  0.00000000000E+00  0.00000000000E+00  0.25029457085E+04  0.25029457085E+04  0.50400001928E-02 0. -1.
       -1   -1    0    0    0  501  0.00000000000E+00  0.00000000000E+00 -0.14412915167E+04  0.14412915167E+04  0.50400001928E-02 0.  1.
    10030    2    1    2    0    0  0.00000000000E+00  0.00000000000E+00  0.10616541918E+04  0.39442372252E+04  0.37986705129E+04 0.  0.
        5    1    3    3  502    0 -0.87883378089E+03 -0.16183785206E+04  0.48310220254E+02  0.18422415199E+04  0.46999998093E+01 0. -1.
       -5    1    3    3    0  502  0.87883378089E+03  0.16183785206E+04  0.10133439716E+04  0.21019957053E+04  0.46999998093E+01 0.  1.
</event>
<event>
 5   0  0.1666051E-08  0.3804015E+04  0.7818609E-02  0.8045294E-01
       -1   -1    0    0    0  501  0.00000000000E+00  0.00000000000E+00  0.14632787572E+04  0.14632787572E+04  0.50400001928E-02 0.  1.
        1   -1    0    0  501    0  0.00000000000E+00  0.00000000000E+00 -0.24722780551E+04  0.24722780551E+04  0.50400001928E-02 0. -1.
    10030    2    1    2    0    0  0.00000000000E+00  0.00000000000E+00 -0.10089992978E+04  0.39355568123E+04  0.38040147003E+04 0.  0.
        2    1    3    3  502    0 -0.33641582911E+03 -0.63385414554E+03 -0.23268541409E+04  0.24349942261E+04  0.25500000920E-02 0. -1.
       -2    1    3    3    0  502  0.33641582911E+03  0.63385414554E+03  0.13178548431E+04  0.15005625863E+04  0.25500000920E-02 0.  1.
</event>
<event>
 5   0  0.5207474E-08  0.3819496E+04  0.7818609E-02  0.8041984E-01
        2   -1    0    0  501    0  0.00000000000E+00  0.00000000000E+00  0.26698552438E+04  0.26698552438E+04  0.25500000920E-02 0. -1.
       -2   -1    0    0    0  501  0.00000000000E+00  0.00000000000E+00 -0.13660433600E+04  0.13660433600E+04  0.25500000920E-02 0.  1.
    10030    2    1    2    0    0  0.00000000000E+00  0.00000000000E+00  0.13038118839E+04  0.40358986038E+04  0.38194963165E+04 0.  0.
        4    1    3    3  502    0  0.88060260500E+03  0.77867968776E+03  0.22422834179E+04  0.25317265933E+04  0.12699999809E+01 0. -1.
       -4    1    3    3    0  502 -0.88060260500E+03 -0.77867968776E+03 -0.93847153407E+03  0.15041720105E+04  0.12699999809E+01 0.  1.
</event>
<event>
 5   0  0.1628250E-08  0.3787361E+04  0.7818609E-02  0.8048873E-01
        1   -1    0    0  501    0  0.00000000000E+00  0.00000000000E+00  0.14806824655E+04  0.14806824655E+04  0.50400001928E-02 0. -1.
       -1   -1    0    0    0  501  0.00000000000E+00  0.00000000000E+00 -0.24218737557E+04  0.24218737557E+04  0.50400001928E-02 0.  1.
    10030    2    1    2    0    0  0.00000000000E+00  0.00000000000E+00 -0.94119129025E+03  0.39025562212E+04  0.37873610885E+04 0.  0.
        4    1    3    3  502    0  0.14581979530E+04  0.36489716872E+03  0.71618789296E+03  0.16650579343E+04  0.12699999809E+01 0. -1.
       -4    1    3    3    0  502 -0.14581979530E+04 -0.36489716872E+03 -0.16573791832E+04  0.22374982868E+04  0.12699999809E+01 0.  1.
</event>
<event>
 5   0  0.1628250E-08  0.3782161E+04  0.7818609E-02  0.8049994E-01
        1   -1    0    0  501    0  0.00000000000E+00  0.00000000000E+00  0.22679747805E+04  0.22679747805E+04  0.50400001928E-02 0.  1.
       -1   -1    0    0    0  501  0.00000000000E+00  0.00000000000E+00 -0.15768190052E+04  0.15768190052E+04  0.50400001928E-02 0. -1.
    10030    2    1    2    0    0  0.00000000000E+00  0.00000000000E+00  0.69115577531E+03  0.38447937857E+04  0.37821611479E+04 0.  0.
        5    1    3    3  502    0 -0.40679546746E+03  0.16710389424E+04  0.11449263418E+04  0.20660910235E+04  0.46999998093E+01 0.  1.
       -5    1    3    3    0  502  0.40679546746E+03 -0.16710389424E+04 -0.45377056651E+03  0.17787027622E+04  0.46999998093E+01 0. -1.
</event>
<event>
 5   0  0.1666051E-08  0.3796705E+04  0.7818609E-02  0.8046862E-01
        1   -1    0    0  501    0  0.00000000000E+00  0.00000000000E+00  0.23148633421E+04  0.23148633421E+04  0.50400001928E-02 0.  1.
       -1   -1    0    0    0  501  0.00000000000E+00  0.00000000000E+00 -0.15567837543E+04  0.15567837543E+04  0.50400001928E-02 0. -1.
    10030    2    1    2    0    0  0.00000000000E+00  0.00000000000E+00  0.75807958782E+03  0.38716470964E+04  0.37967046998E+04 0.  0.
        2    1    3    3  502    0 -0.28703232558E+03 -0.97085300319E+03  0.20166014161E+04  0.22564628029E+04  0.25500000920E-02 0.  1.
       -2    1    3    3    0  502  0.28703232558E+03  0.97085300319E+03 -0.12585218283E+04  0.16151842935E+04  0.25500000920E-02 0. -1.
</event>
<event>
 5   0  0.5147582E-08  0.3802981E+04  0.7818609E-02  0.8045515E-01
        2   -1    0    0  501    0  0.00000000000E+00  0.00000000000E+00  0.22100817575E+04  0.22100817575E+04  0.25500000920E-02 0.  1.
       -2   -1    0    0    0  501  0.00000000000E+00  0.00000000000E+00 -0.16359878112E+04  0.16359878112E+04  0.25500000920E-02 0. -1.
    10030    2    1    2    0    0  0.00000000000E+00  0.00000000000E+00  0.57409394634E+03  0.38460695687E+04  0.38029813657E+04 0.  0.
        1    1    3    3  502    0 -0.11203617452E+04  0.10031484629E+04 -0.88981695399E+03  0.17473670165E+04  0.50400001928E-02 0. -1.
       -1    1    3    3    0  502  0.11203617452E+04 -0.10031484629E+04  0.14639109003E+04  0.20987025522E+04  0.50400001928E-02 0.  1.
</event>
<event>
 5   0  0.5086209E-08  0.3791929E+04  0.7818609E-02  0.8047889E-01
        2   -1    0    0  501    0  0.00000000000E+00  0.00000000000E+00  0.21205118196E+04  0.21205118196E+04  0.25500000920E-02 0. -1.
       -2   -1    0    0    0  501  0.00000000000E+00  0.00000000000E+00 -0.16951954392E+04  0.16951954392E+04  0.25500000920E-02 0.  1.
    10030    2    1    2    0    0  0.00000000000E+00  0.00000000000E+00  0.42531638037E+03  0.38157072588E+04  0.37919293059E+04 0.  0.
        3    1    3    3  502    0 -0.28421973910E+03 -0.95976956761E+03  0.18329550521E+04  0.20884594122E+04  0.10100000352E+00 0. -1.
       -3    1    3    3    0  502  0.28421973910E+03  0.95976956761E+03 -0.14076386718E+04  0.17272478466E+04  0.10100000352E+00 0.  1.
</event>
<event>
 5   0  0.5086209E-08  0.3763740E+04  0.7818609E-02  0.8053981E-01
       -2   -1    0    0    0  501  0.00000000000E+00  0.00000000000E+00  0.15621118523E+04  0.15621118523E+04  0.25500000920E-02 0.  1.
        2   -1    0    0  501    0  0.00000000000E+00  0.00000000000E+00 -0.22670817362E+04  0.22670817362E+04  0.25500000920E-02 0. -1.
    10030    2    1    2    0    0  0.00000000000E+00  0.00000000000E+00 -0.70496988389E+03  0.38291935885E+04  0.37637402940E+04 0.  0.
        3    1    3    3  502    0  0.10559485721E+04 -0.10985519030E+04 -0.14760413508E+04  0.21214480314E+04  0.10100000352E+00 0. -1.
       -3    1    3    3    0  502 -0.10559485721E+04  0.10985519030E+04  0.77107146689E+03  0.17077455571E+04  0.10100000352E+00 0.  1.
</event>
<event>
 5   0  0.1628250E-08  0.3800570E+04  0.7818609E-02  0.8046032E-01
       -1   -1    0    0    0  501  0.00000000000E+00  0.00000000000E+00  0.28283671772E+04  0.28283671772E+04  0.50400001928E-02 0. -1.
        1   -1    0    0  501    0  0.00000000000E+00  0.00000000000E+00 -0.12767380328E+04  0.12767380328E+04  0.50400001928E-02 0.  1.
    10030    2    1    2    0    0  0.00000000000E+00  0.00000000000E+00  0.15516291444E+04  0.41051052100E+04  0.38005704550E+04 0.  0.
        4    1    3    3  502    0  0.86779751399E+03  0.12426848176E+04  0.20138438595E+04  0.25204973288E+04  0.12699999809E+01 0.  1.
       -4    1    3    3    0  502 -0.86779751399E+03 -0.12426848176E+04 -0.46221471516E+03  0.15846078812E+04  0.12699999809E+01 0. -1.
</event>
<event>
 5   0  0.5147582E-08  0.3801876E+04  0.7818609E-02  0.8045753E-01
        2   -1    0    0  501    0  0.00000000000E+00  0.00000000000E+00  0.22386558036E+04  0.22386558036E+04  0.25500000920E-02 0.  1.
       -2   -1    0    0    0  501  0.00000000000E+00  0.00000000000E+00 -0.16141670345E+04  0.16141670345E+04  0.25500000920E-02 0. -1.
    10030    2    1    2    0    0  0.00000000000E+00  0.00000000000E+00  0.62448876911E+03  0.38528228380E+04  0.38018755370E+04 0.  0.
        1    1    3    3  502    0 -0.13538008196E+04 -0.12629629712E+04  0.74896274239E+03  0.19971973651E+04  0.50400001928E-02 0.  1.
       -1    1    3    3    0  502  0.13538008196E+04  0.12629629712E+04 -0.12447397329E+03  0.18556254729E+04  0.50400001928E-02 0. -1.
</event>
<event>
 5   0  0.1666051E-08  0.3805204E+04  0.7818609E-02  0.8045039E-01
        1   -1    0    0  501    0  0.00000000000E+00  0.00000000000E+00  0.16906824349E+04  0.16906824349E+04  0.50400001928E-02 0. -1.
       -1   -1    0    0    0  501  0.00000000000E+00  0.00000000000E+00 -0.21410843969E+04  0.21410843969E+04  0.50400001928E-02 0.  1.
    10030    2    1    2    0    0  0.00000000000E+00  0.00000000000E+00 -0.45040196201E+03  0.38317668318E+04  0.38052036904E+04 0.  0.
        2    1    3    3  502    0  0.49750583287E+03 -0.12141010114E+03 -0.20703791795E+04  0.21327734088E+04  0.25500000920E-02 0.  1.
       -2    1    3    3    0  502 -0.49750583287E+03  0.12141010114E+03  0.16199772174E+04  0.16989934230E+04  0.25500000920E-02 0. -1.
</event>
<event>
 5   0  0.1628473E-08  0.3801846E+04  0.7818609E-02  0.8045759E-01
       -1   -1    0    0    0  501  0.00000000000E+00  0.00000000000E+00  0.20357424919E+04  0.20357424919E+04  0.50400001928E-02 0. -1.
        1   -1    0    0  501    0  0.00000000000E+00  0.00000000000E+00 -0.17750316813E+04  0.17750316813E+04  0.50400001928E-02 0.  1.
    10030    2    1    2    0    0  0.00000000000E+00  0.00000000000E+00  0.26071081055E+03  0.38107741732E+04  0.38018455614E+04 0.  0.
        3    1    3    3  502    0  0.11683581205E+03  0.18810897200E+04 -0.11793233872E+03  0.18884006959E+04  0.10100000352E+00 0.  1.
       -3    1    3    3    0  502 -0.11683581205E+03 -0.18810897200E+04  0.37864314927E+03  0.19223734773E+04  0.10100000352E+00 0. -1.
</event>
<event>
 5   0  0.1628250E-08  0.3812683E+04  0.7818609E-02  0.8043439E-01
       -1   -1    0    0    0  501  0.00000000000E+00  0.00000000000E+00  0.32601417604E+04  0.32601417604E+04  0.50400001928E-02 0. -1.
        1   -1    0    0  501    0  0.00000000000E+00  0.00000000000E+00 -0.11147176457E+04  0.11147176457E+04  0.50400001928E-02 0.  1.
    10030    2    1    2    0    0  0.00000000000E+00  0.00000000000E+00  0.21454241147E+04  0.43748594062E+04  0.38126828077E+04 0.  0.
        5    1    3    3  502    0  0.10686542814E+04 -0.11348786294E+04  0.23318480379E+04  0.28049079911E+04  0.46999998093E+01 0. -1.
       -5    1    3    3    0  502 -0.10686542814E+04  0.11348786294E+04 -0.18642392317E+03  0.15699514151E+04  0.46999998093E+01 0.  1.
</event>
<event>
 5   0  0.5140842E-08  0.3793319E+04  0.7818609E-02  0.8047590E-01
       -2   -1    0    0    0  501  0.00000000000E+00  0.00000000000E+00  0.13138658208E+04  0.13138658208E+04  0.25500000920E-02 0.  1.
        2   -1    0    0  501    0  0.00000000000E+00  0.00000000000E+00 -0.27379639180E+04  0.27379639180E+04  0.25500000920E-02 0. -1.
    10030    2    1    2    0    0  0.00000000000E+00  0.00000000000E+00 -0.14240980972E+04  0.40518297389E+04  0.37933189745E+04 0.  0.
        2    1    3    3  502    0  0.28422424836E+03  0.15398733221E+04  0.43108192786E+03  0.16241382023E+04  0.25500000920E-02 0.  1.
       -2    1    3    3    0  502 -0.28422424836E+03 -0.15398733221E+04 -0.18551800251E+04  0.24276915366E+04  0.25500000920E-02 0. -1.
</event>
<event>
 5   0  0.5147582E-08  0.3802530E+04  0.7818609E-02  0.8045612E-01
        2   -1    0    0  501    0  0.00000000000E+00  0.00000000000E+00  0.16272461312E+04  0.16272461312E+04  0.25500000920E-02 0. -1.
       -2   -1    0    0    0  501  0.00000000000E+00  0.00000000000E+00 -0.22214266044E+04  0.22214266044E+04  0.25500000920E-02 0.  1.
    10030    2    1    2    0    0  0.00000000000E+00  0.00000000000E+00 -0.59418047324E+03  0.38486727356E+04  0.38025296042E+04 0.  0.
        1    1    3    3  502    0 -0.54949279827E+03 -0.17807013906E+04  0.84268515886E+02  0.18654599864E+04  0.50400001928E-02 0.  1.
       -1    1    3    3    0  502  0.54949279827E+03  0.17807013906E+04 -0.67844898913E+03  0.19832127492E+04  0.50400001928E-02 0. -1.
</event>
<event>
 5   0  0.5086209E-08  0.3801791E+04  0.7818609E-02  0.8045771E-01
       -2   -1    0    0    0  501  0.00000000000E+00  0.00000000000E+00  0.16976427866E+04  0.16976427866E+04  0.25500000920E-02 0. -1.
        2   -1    0    0  501    0  0.00000000000E+00  0.00000000000E+00 -0.21284826737E+04  0.21284826737E+04  0.25500000920E-02 0.  1.
    10030    2    1    2    0    0  0.00000000000E+00  0.00000000000E+00 -0.43083988714E+03  0.38261254603E+04  0.38017907662E+04 0.  0.
        3    1    3    3  502    0 -0.15452412122E+04  0.52370599572E+03 -0.11970425494E+04  0.20235980948E+04  0.10100000352E+00 0.  1.
       -3    1    3    3    0  502  0.15452412122E+04 -0.52370599572E+03  0.76620266225E+03  0.18025273656E+04  0.10100000352E+00 0. -1.
</event>
<event>
 5   0  0.1666051E-08  0.3801657E+04  0.7818609E-02  0.8045799E-01
        1   -1    0    0  501    0  0.00000000000E+00  0.00000000000E+00  0.28128406455E+04  0.28128406456E+04  0.50400001928E-02 0.  1.
       -1   -1    0    0    0  501  0.00000000000E+00  0.00000000000E+00 -0.12845195760E+04  0.12845195761E+04  0.50400001928E-02 0. -1.
    10030    2    1    2    0    0  0.00000000000E+00  0.00000000000E+00  0.15283210695E+04  0.40973602216E+04  0.38016569406E+04 0.  0.
        2    1    3    3  502    0 -0.43307729608E+01  0.13475394820E+03  0.28076807977E+04  0.28109160151E+04  0.25500000920E-02 0.  1.
       -2    1    3    3    0  502  0.43307729608E+01 -0.13475394820E+03 -0.12793597282E+04  0.12864442065E+04  0.25500000920E-02 0. -1.
</event>
<event>
 5   0  0.5207474E-08  0.3769773E+04  0.7818609E-02  0.8052673E-01
       -2   -1    0    0    0  501  0.00000000000E+00  0.00000000000E+00  0.28845103043E+04  0.28845103043E+04  0.25500000920E-02 0. -1.
        2   -1    0    0  501    0  0.00000000000E+00  0.00000000000E+00 -0.12316810556E+04  0.12316810556E+04  0.25500000920E-02 0.  1.
    10030    2    1    2    0    0  0.00000000000E+00  0.00000000000E+00  0.16528292487E+04  0.41161913600E+04  0.37697727765E+04 0.  0.
        4    1    3    3  502    0  0.44901541044E+03  0.14050676159E+04 -0.45485895667E+03  0.15436088000E+04  0.12699999809E+01 0.  1.
       -4    1    3    3    0  502 -0.44901541044E+03 -0.14050676159E+04  0.21076882054E+04  0.25725825600E+04  0.12699999809E+01 0. -1.
</event>
<event>
 5   0  0.5147582E-08  0.3794724E+04  0.7818609E-02  0.8047288E-01
       -2   -1    0    0    0  501  0.00000000000E+00  0.00000000000E+00  0.19120339042E+04  0.19120339042E+04  0.25500000920E-02 0.  1.
        2   -1    0    0  501    0  0.00000000000E+00  0.00000000000E+00 -0.18828023577E+04  0.18828023577E+04  0.25500000920E-02 0. -1.
    10030    2    1    2    0    0  0.00000000000E+00  0.00000000000E+00  0.29231546483E+02  0.37948362619E+04  0.37947236752E+04 0.  0.
        1    1    3    3  502    0  0.42086410712E+03  0.31262426832E+03 -0.18089298729E+04  0.18833713959E+04  0.50400001928E-02 0. -1.
       -1    1    3    3    0  502 -0.42086410712E+03 -0.31262426832E+03  0.18381614194E+04  0.19114648659E+04  0.50400001928E-02 0.  1.
</event>
<event>
 5   0  0.1628250E-08  0.3799731E+04  0.7818609E-02  0.8046213E-01
        1   -1    0    0  501    0  0.00000000000E+00  0.00000000000E+00  0.18454269345E+04  0.18454269345E+04  0.50400001928E-02 0.  1.
       -1   -1    0    0    0  501  0.00000000000E+00  0.00000000000E+00 -0.19559095315E+04  0.19559095315E+04  0.50400001928E-02 0. -1.
    10030    2    1    2    0    0  0.00000000000E+00  0.00000000000E+00 -0.11048259699E+03  0.38013364661E+04  0.37997305857E+04 0.  0.
        1    1    3    3  502    0 -0.99467832889E+03  0.83228918569E+03 -0.14441355930E+04  0.19410352592E+04  0.50400001928E-02 0. -1.
       -1    1    3    3    0  502  0.99467832889E+03 -0.83228918569E+03  0.13336529960E+04  0.18603012069E+04  0.50400001928E-02 0.  1.
</event>
<event>
 5   0  0.1628250E-08  0.3805656E+04  0.7818609E-02  0.8044942E-01
        1   -1    0    0  501    0  0.00000000000E+00  0.00000000000E+00  0.20862606690E+04  0.20862606690E+04  0.50400001928E-02 0.  1.
       -1   -1    0    0    0  501  0.00000000000E+00  0.00000000000E+00 -0.17355238927E+04  0.17355238927E+04  0.50400001928E-02 0. -1.
    10030    2    1    2    0    0  0.00000000000E+00  0.00000000000E+00  0.35073677627E+03  0.38217845617E+04  0.38056564413E+04 0.  0.
        5    1    3    3  502    0  0.17257779993E+04 -0.29491013361E+03 -0.57307624343E+03  0.18422052439E+04  0.46999998093E+01 0.  1.
       -5    1    3    3    0  502 -0.17257779993E+04  0.29491013361E+03  0.92381301970E+03  0.19795793177E+04  0.46999998093E+01 0. -1.
</event>
<event>
 5   0  0.5159761E-08  0.3803832E+04  0.7818609E-02  0.8045333E-01
        2   -1    0    0  501    0  0.00000000000E+00  0.00000000000E+00  0.18943668235E+04  0.18943668235E+04  0.25500000920E-02 0. -1.
       -2   -1    0    0    0  501  0.00000000000E+00  0.00000000000E+00 -0.19094951059E+04  0.19094951059E+04  0.25500000920E-02 0.  1.
    10030    2    1    2    0    0  0.00000000000E+00  0.00000000000E+00 -0.15128282349E+02  0.38038619294E+04  0.38038318460E+04 0.  0.
        5    1    3    3  502    0  0.10576842578E+04 -0.15784276925E+04  0.76888397938E+02  0.19015950898E+04  0.46999998093E+01 0.  1.
       -5    1    3    3    0  502 -0.10576842578E+04  0.15784276925E+04 -0.92016680287E+02  0.19022668396E+04  0.46999998093E+01 0. -1.
</event>
<event>
 5   0  0.5159761E-08  0.3714408E+04  0.7818609E-02  0.8064776E-01
        2   -1    0    0  501    0  0.00000000000E+00  0.00000000000E+00  0.18915282619E+04  0.18915282619E+04  0.25500000920E-02 0. -1.
       -2   -1    0    0    0  501  0.00000000000E+00  0.00000000000E+00 -0.18235026669E+04  0.18235026669E+04  0.25500000920E-02 0.  1.
    10030    2    1    2    0    0  0.00000000000E+00  0.00000000000E+00  0.68025594995E+02  0.37150309288E+04  0.37144080714E+04 0.  0.
        5    1    3    3  502    0 -0.68707575461E+03  0.93369856705E+03 -0.14172021284E+04  0.18309423993E+04  0.46999998093E+01 0.  1.
       -5    1    3    3    0  502  0.68707575461E+03 -0.93369856705E+03  0.14852277234E+04  0.18840885295E+04  0.46999998093E+01 0. -1.
</event>
<event>
 5   0  0.5159761E-08  0.3800825E+04  0.7818609E-02  0.8045978E-01
       -2   -1    0    0    0  501  0.00000000000E+00  0.00000000000E+00  0.13432853977E+04  0.13432853977E+04  0.25500000920E-02 0. -1.
        2   -1    0    0  501    0  0.00000000000E+00  0.00000000000E+00 -0.26886076021E+04  0.26886076021E+04  0.25500000920E-02 0.  1.
    10030    2    1    2    0    0  0.00000000000E+00  0.00000000000E+00 -0.13453222044E+04  0.40318929998E+04  0.38008248221E+04 0.  0.
        5    1    3    3  502    0 -0.19895366047E+03 -0.95885570578E+03  0.10550201601E+04  0.14394708929E+04  0.46999998093E+01 0. -1.
       -5    1    3    3    0  502  0.19895366047E+03  0.95885570578E+03 -0.24003423645E+04  0.25924221069E+04  0.46999998093E+01 0.  1.
</event>
<event>
 5   0  0.5207474E-08  0.3801566E+04  0.7818609E-02  0.8045819E-01
        2   -1    0    0  501    0  0.00000000000E+00  0.00000000000E+00  0.28814577143E+04  0.28814577143E+04  0.25500000920E-02 0. -1.
       -2   -1    0    0    0  501  0.00000000000E+00  0.00000000000E+00 -0.12538706926E+04  0.12538706926E+04  0.25500000920E-02 0.  1.
    10030    2    1    2    0    0  0.00000000000E+00  0.00000000000E+00  0.16275870217E+04  0.41353284069E+04  0.38015656669E+04 0.  0.
        4    1    3    3  502    0 -0.18028312988E+04 -0.57702946161E+03  0.10016079794E+04  0.21415844249E+04  0.12699999809E+01 0. -1.
       -4    1    3    3    0  502  0.18028312988E+04  0.57702946161E+03  0.62597904237E+03  0.19937439821E+04  0.12699999809E+01 0.  1.
</event>
<event>
 5   0  0.5207474E-08  0.3838792E+04  0.7818609E-02  0.8037881E-01
        2   -1    0    0  501    0  0.00000000000E+00  0.00000000000E+00  0.23181617618E+04  0.23181617618E+04  0.25500000920E-02 0. -1.
       -2   -1    0    0    0  501  0.00000000000E+00  0.00000000000E+00 -0.15892247679E+04  0.15892247679E+04  0.25500000920E-02 0.  1.
    10030    2    1    2    0    0  0.00000000000E+00  0.00000000000E+00  0.72893699394E+03  0.39073865297E+04  0.38387915222E+04 0.  0.
        4    1    3    3  502    0 -0.15319612484E+04 -0.27156118414E+03 -0.77963957737E+03  0.17402557935E+04  0.12699999809E+01 0.  1.
       -4    1    3    3    0  502  0.15319612484E+04  0.27156118414E+03  0.15085765713E+04  0.21671307362E+04  0.12699999809E+01 0. -1.
</event>
<event>
 5   0  0.1628250E-08  0.3800856E+04  0.7818609E-02  0.8045971E-01
        1   -1    0    0  501    0  0.00000000000E+00  0.00000000000E+00  0.26076904900E+04  0.26076904900E+04  0.50400001928E-02 0.  1.
       -1   -1    0    0    0  501  0.00000000000E+00  0.00000000000E+00 -0.13849906568E+04  0.13849906568E+04  0.50400001928E-02 0. -1.
    10030    2    1    2    0    0  0.00000000000E+00  0.00000000000E+00  0.12226998332E+04  0.39926811468E+04  0.38008562006E+04 0.  0.
        5    1    3    3  502    0 -0.13280609232E+03 -0.10250421721E+04 -0.10638946792E+04  0.14833215737E+04  0.46999998093E+01 0. -1.
       -5    1    3    3    0  502  0.13280609232E+03  0.10250421721E+04  0.22865945124E+04  0.25093595731E+04  0.46999998093E+01 0.  1.
</event>
<event>
 5   0  0.5086209E-08  0.3807042E+04  0.7818609E-02  0.8044645E-01
        2   -1    0    0  501    0  0.00000000000E+00  0.00000000000E+00  0.27630756183E+04  0.27630756183E+04  0.25500000920E-02 0. -1.
       -2   -1    0    0    0  501  0.00000000000E+00  0.00000000000E+00 -0.13113617965E+04  0.13113617965E+04  0.25500000920E-02 0.  1.
    10030    2    1    2    0    0  0.00000000000E+00  0.00000000000E+00  0.14517138218E+04  0.40744374148E+04  0.38070417947E+04 0.  0.
        3    1    3    3  502    0 -0.63022390115E+03 -0.12597270784E+03  0.26434460265E+04  0.27204518364E+04  0.10100000352E+00 0. -1.
       -3    1    3    3    0  502  0.63022390115E+03  0.12597270784E+03 -0.11917322047E+04  0.13539855784E+04  0.10100000352E+00 0.  1.
</event>
<event>
 5   0  0.5140842E-08  0.3801535E+04  0.7818609E-02  0.8045826E-01
       -2   -1    0    0    0  501  0.00000000000E+00  0.00000000000E+00  0.33746950830E+04  0.33746950830E+04  0.25500000920E-02 0. -1.
        2   -1    0    0  501    0  0.00000000000E+00  0.00000000000E+00 -0.10705905734E+04  0.10705905734E+04  0.25500000920E-02 0.  1.
    10030    2    1    2    0    0  0.00000000000E+00  0.00000000000E+00  0.23041045096E+04  0.44452856563E+04  0.38015348184E+04 0.  0.
        2    1    3    3  502    0 -0.29998095962E+03 -0.37170551324E+03  0.33033714171E+04  0.33377262146E+04  0.25500000920E-02 0. -1.
       -2    1    3    3    0  502  0.29998095962E+03  0.37170551324E+03 -0.99926690742E+03  0.11075594417E+04  0.25500000920E-02 0.  1.
</event>
<event>
 5   0  0.1628473E-08  0.3799163E+04  0.7818609E-02  0.8046334E-01
        1   -1    0    0  501    0  0.00000000000E+00  0.00000000000E+00  0.20762176236E+04  0.20762176236E+04  0.50400001928E-02 0.  1.
       -1   -1    0    0    0  501  0.00000000000E+00  0.00000000000E+00 -0.17379731627E+04  0.17379731627E+04  0.50400001928E-02 0. -1.
    10030    2    1    2    0    0  0.00000000000E+00  0.00000000000E+00  0.33824446088E+03  0.38141907863E+04  0.37991633340E+04 0.  0.
        3    1    3    3  502    0 -0.12815153265E+04 -0.46103216039E+03  0.14985876045E+04  0.20249930873E+04  0.10100000352E+00 0.  1.
       -3    1    3    3    0  502  0.12815153265E+04  0.46103216039E+03 -0.11603431437E+04  0.17891976990E+04  0.10100000352E+00 0. -1.
</event>
<event>
 5   0  0.5159761E-08  0.3802059E+04  0.7818609E-02  0.8045713E-01
       -2   -1    0    0    0  501  0.00000000000E+00  0.00000000000E+00  0.18106725998E+04  0.18106725998E+04  0.25500000920E-02 0. -1.
        2   -1    0    0  501    0  0.00000000000E+00  0.00000000000E+00 -0.19958954674E+04  0.19958954674E+04  0.25500000920E-02 0.  1.
    10030    2    1    2    0    0  0.00000000000E+00  0.00000000000E+00 -0.18522286756E+03  0.38065680672E+04  0.38020590394E+04 0.  0.
        5    1    3    3  502    0  0.96717169588E+03 -0.13237795039E+04  0.87085923797E+03  0.18564027491E+04  0.46999998093E+01 0. -1.
       -5    1    3    3    0  502 -0.96717169588E+03  0.13237795039E+04 -0.10560821055E+04  0.19501653181E+04  0.46999998093E+01 0.  1.
</event>
<event>
 5   0  0.5140842E-08  0.3800890E+04  0.7818609E-02  0.8045964E-01
        2   -1    0    0  501    0  0.00000000000E+00  0.00000000000E+00  0.24830218250E+04  0.24830218250E+04  0.25500000920E-02 0.  1.
       -2   -1    0    0    0  501  0.00000000000E+00  0.00000000000E+00 -0.14545549723E+04  0.14545549723E+04  0.25500000920E-02 0. -1.
    10030    2    1    2    0    0  0.00000000000E+00  0.00000000000E+00  0.10284668527E+04  0.39375767972E+04  0.38008902861E+04 0.  0.
        2    1    3    3  502    0  0.31379722403E+03  0.15947726733E+03  0.24489567640E+04  0.24741242751E+04  0.25500000920E-02 0.  1.
       -2    1    3    3    0  502 -0.31379722403E+03 -0.15947726733E+03 -0.14204899113E+04  0.14634525222E+04  0.25500000920E-02 0. -1.
</event>
<event>
 5   0  0.1628250E-08  0.3778043E+04  0.7818609E-02  0.8050883E-01
        1   -1    0    0  501    0  0.00000000000E+00  0.00000000000E+00  0.23675291359E+04  0.23675291359E+04  0.50400001928E-02 0.  1.
       -1   -1    0    0    0  501  0.00000000000E+00  0.00000000000E+00 -0.15072263022E+04  0.15072263022E+04  0.50400001928E-02 0. -1.
    10030    2    1    2    0    0  0.00000000000E+00  0.00000000000E+00  0.86030283369E+03  0.38747554381E+04  0.37780429774E+04 0.  0.
        1    1    3    3  502    0 -0.15975610577E+03  0.17434565202E+04  0.11577046551E+04  0.20989146528E+04  0.50400001928E-02 0.  1.
       -1    1    3    3    0  502  0.15975610577E+03 -0.17434565202E+04 -0.29740182141E+03  0.17758407853E+04  0.50400001928E-02 0. -1.
</event>
<event>
 5   0  0.5159761E-08  0.3800178E+04  0.7818609E-02  0.8046117E-01
        2   -1    0    0  501    0  0.00000000000E+00  0.00000000000E+00  0.14937948224E+04  0.14937948224E+04  0.25500000920E-02 0. -1.
       -2   -1    0    0    0  501  0.00000000000E+00  0.00000000000E+00 -0.24168905683E+04  0.24168905683E+04  0.25500000920E-02 0.  1.
    10030    2    1    2    0    0  0.00000000000E+00  0.00000000000E+00 -0.92309574589E+03  0.39106853907E+04  0.38001782154E+04 0.  0.
        5    1    3    3  502    0 -0.78137041281E+03  0.11339001242E+04 -0.18088354888E+04  0.22733625160E+04  0.46999998093E+01 0.  1.
       -5    1    3    3    0  502  0.78137041281E+03 -0.11339001242E+04  0.88573974292E+03  0.16373228747E+04  0.46999998093E+01 0. -1.
</event>
<event>
 5   0  0.5159761E-08  0.3796309E+04  0.7818609E-02  0.8046947E-01
        2   -1    0    0  501    0  0.00000000000E+00  0.00000000000E+00  0.16912460260E+04  0.16912460260E+04  0.25500000920E-02 0. -1.
       -2   -1    0    0    0  501  0.00000000000E+00  0.00000000000E+00 -0.21303762829E+04  0.21303762829E+04  0.25500000920E-02 0.  1.
    10030    2    1    2    0    0  0.00000000000E+00  0.00000000000E+00 -0.43913025693E+03  0.38216223089E+04  0.37963089560E+04 0.  0.
        5    1    3    3  502    0 -0.13289670753E+04  0.12444150510E+04  0.32090024937E+03  0.18487080263E+04  0.46999998093E+01 0. -1.
       -5    1    3    3    0  502  0.13289670753E+04 -0.12444150510E+04 -0.76003050630E+03  0.19729142827E+04  0.46999998093E+01 0.  1.
</event>
<event>
 5   0  0.5086209E-08  0.3810137E+04  0.7818609E-02  0.8043983E-01
        2   -1    0    0  501    0  0.00000000000E+00  0.00000000000E+00  0.21328782208E+04  0.21328782208E+04  0.25500000920E-02 0. -1.
       -2   -1    0    0    0  501  0.00000000000E+00  0.00000000000E+00 -0.17015904388E+04  0.17015904388E+04  0.25500000920E-02 0.  1.
    10030    2    1    2    0    0  0.00000000000E+00  0.00000000000E+00  0.43128778197E+03  0.38344686595E+04  0.38101365789E+04 0.  0.
        3    1    3    3  502    0  0.13029654588E+04  0.20996186945E+03 -0.11669864453E+04  0.17617208482E+04  0.10100000352E+00 0.  1.
       -3    1    3    3    0  502 -0.13029654588E+04 -0.20996186945E+03  0.15982742273E+04  0.20727478113E+04  0.10100000352E+00 0. -1.
</event>
<event>
 5   0  0.1666051E-08  0.3731857E+04  0.7818609E-02  0.8060938E-01
        1   -1    0    0  501    0  0.00000000000E+00  0.00000000000E+00  0.14434531522E+04  0.14434531523E+04  0.50400001928E-02 0.  1.
       -1   -1    0    0    0  501  0.00000000000E+00  0.00000000000E+00 -0.24120552117E+04  0.24120552117E+04  0.50400001928E-02 0. -1.
    10030    2    1    2    0    0  0.00000000000E+00  0.00000000000E+00 -0.96860205941E+03  0.38555083639E+04  0.37318567490E+04 0.  0.
        2    1    3    3  502    0  0.51779059969E+03  0.13768695446E+04 -0.16702974805E+04  0.22257067465E+04  0.25500000920E-02 0. -1.
       -2    1    3    3    0  502 -0.51779059969E+03 -0.13768695446E+04  0.70169542111E+03  0.16298016174E+04  0.25500000920E-02 0.  1.
</event>
<event>
 5   0  0.1628250E-08  0.3800689E+04  0.7818609E-02  0.8046007E-01
       -1   -1    0    0    0  501  0.00000000000E+00  0.00000000000E+00  0.15870949954E+04  0.15870949954E+04  0.50400001928E-02 0.  1.
        1   -1    0    0  501    0  0.00000000000E+00  0.00000000000E+00 -0.22754206728E+04  0.22754206729E+04  0.50400001928E-02 0. -1.
    10030    2    1    2    0    0  0.00000000000E+00  0.00000000000E+00 -0.68832567746E+03  0.38625156683E+04  0.38006887598E+04 0.  0.
        5    1    3    3  502    0 -0.11395227427E+04  0.57267935709E+02 -0.18885865422E+04  0.22064842884E+04  0.46999998093E+01 0. -1.
       -5    1    3    3    0  502  0.11395227427E+04 -0.57267935709E+02  0.12002608648E+04  0.16560313798E+04  0.46999998093E+01 0.  1.
</event>
<event>
 5   0  0.5140842E-08  0.3798150E+04  0.7818609E-02  0.8046552E-01
        2   -1    0    0  501    0  0.00000000000E+00  0.00000000000E+00  0.23828116240E+04  0.23828116240E+04  0.25500000920E-02 0. -1.
       -2   -1    0    0    0  501  0.00000000000E+00  0.00000000000E+00 -0.15135419577E+04  0.15135419577E+04  0.25500000920E-02 0.  1.
    10030    2    1    2    0    0  0.00000000000E+00  0.00000000000E+00  0.86926966628E+03  0.38963535817E+04  0.37981497444E+04 0.  0.
        2    1    3    3  502    0 -0.18815856462E+04  0.24863024586E+03  0.36733504569E+03  0.19331623260E+04  0.25500000920E-02 0. -1.
       -2    1    3    3    0  502  0.18815856462E+04 -0.24863024586E+03  0.50193462058E+03  0.19631912557E+04  0.25500000920E-02 0.  1.
</event>
<event>
 5   0  0.5147582E-08  0.3802607E+04  0.7818609E-02  0.8045596E-01
        2   -1    0    0  501    0  0.00000000000E+00  0.00000000000E+00  0.23222788201E+04  0.23222788201E+04  0.25500000920E-02 0. -1.
       -2   -1    0    0    0  501  0.00000000000E+00  0.00000000000E+00 -0.15566412108E+04  0.15566412108E+04  0.25500000920E-02 0.  1.
    10030    2    1    2    0    0  0.00000000000E+00  0.00000000000E+00  0.76563760931E+03  0.38789200310E+04  0.38026069555E+04 0.  0.
        1    1    3    3  502    0 -0.11325843003E+04 -0.14429437083E+04  0.89297670338E+03  0.20401571350E+04  0.50400001928E-02 0. -1.
       -1    1    3    3    0  502  0.11325843003E+04  0.14429437083E+04 -0.12733909407E+03  0.18387628960E+04  0.50400001928E-02 0.  1.
</event>
<event>
 5   0  0.1628250E-08  0.3798196E+04  0.7818609E-02  0.8046542E-01
       -1   -1    0    0    0  501  0.00000000000E+00  0.00000000000E+00  0.16804171043E+04  0.16804171043E+04  0.50400001928E-02 0. -1.
        1   -1    0    0  501    0  0.00000000000E+00  0.00000000000E+00 -0.21462367734E+04  0.21462367734E+04  0.50400001928E-02 0.  1.
    10030    2    1    2    0    0  0.00000000000E+00  0.00000000000E+00 -0.46581966907E+03  0.38266538777E+04  0.37981958791E+04 0.  0.
        4    1    3    3  502    0 -0.74522794525E+03  0.16874696920E+04 -0.68757002573E+03  0.19686728537E+04  0.12699999809E+01 0. -1.
       -4    1    3    3    0  502  0.74522794525E+03 -0.16874696920E+04  0.22175035666E+03  0.18579810240E+04  0.12699999809E+01 0.  1.
</event>
<event>
 5   0  0.1628473E-08  0.3790159E+04  0.7818609E-02  0.8048270E-01
       -1   -1    0    0    0  501  0.00000000000E+00  0.00000000000E+00  0.28646898736E+04  0.28646898736E+04  0.50400001928E-02 0.  1.
        1   -1    0    0  501    0  0.00000000000E+00  0.00000000000E+00 -0.12536528995E+04  0.12536528995E+04  0.50400001928E-02 0. -1.
    10030    2    1    2    0    0  0.00000000000E+00  0.00000000000E+00  0.16110369740E+04  0.41183427731E+04  0.37901592401E+04 0.  0.
        3    1    3    3  502    0  0.48895107045E+03  0.10781828413E+04 -0.80240291816E+03  0.14301754584E+04  0.10100000352E+00 0. -1.
       -3    1    3    3    0  502 -0.48895107045E+03 -0.10781828413E+04  0.24134398922E+04  0.26881673147E+04  0.10100000352E+00 0.  1.
</event>
<event>
 5   0  0.5140842E-08  0.3782979E+04  0.7818609E-02  0.8049817E-01
       -2   -1    0    0    0  501  0.00000000000E+00  0.00000000000E+00  0.14401476264E+04  0.14401476264E+04  0.25500000920E-02 0. -1.
        2   -1    0    0  501    0  0.00000000000E+00  0.00000000000E+00 -0.24842823978E+04  0.24842823978E+04  0.25500000920E-02 0.  1.
    10030    2    1    2    0    0  0.00000000000E+00  0.00000000000E+00 -0.10441347713E+04  0.39244300242E+04  0.37829794599E+04 0.  0.
        2    1    3    3  502    0 -0.17893331765E+04 -0.49049399165E+03 -0.14029071436E+03  0.18606394215E+04  0.25500000920E-02 0. -1.
       -2    1    3    3    0  502  0.17893331765E+04  0.49049399165E+03 -0.90384405697E+03  0.20637906027E+04  0.25500000920E-02 0.  1.
</event>
<event>
 5   0  0.1628473E-08  0.3765995E+04  0.7818609E-02  0.8053492E-01
        1   -1    0    0  501    0  0.00000000000E+00  0.00000000000E+00  0.23527491074E+04  0.23527491074E+04  0.50400001928E-02 0.  1.
       -1   -1    0    0    0  501  0.00000000000E+00  0.00000000000E+00 -0.15070370735E+04  0.15070370735E+04  0.50400001928E-02 0. -1.
    10030    2    1    2    0    0  0.00000000000E+00  0.00000000000E+00  0.84571203396E+03  0.38597861809E+04  0.37659952892E+04 0.  0.
        3    1    3    3  502    0 -0.21241629015E+03  0.82845449206E+03 -0.12964876653E+04  0.15531702425E+04  0.10100000352E+00 0. -1.
       -3    1    3    3    0  502  0.21241629015E+03 -0.82845449206E+03  0.21421996992E+04  0.23066159384E+04  0.10100000352E+00 0.  1.
</event>
<event>
 5   0  0.1628250E-08  0.3809850E+04  0.7818609E-02  0.8044044E-01
        1   -1    0    0  501    0  0.00000000000E+00  0.00000000000E+00  0.28981622715E+04  0.28981622715E+04  0.50400001928E-02 0. -1.
       -1   -1    0    0    0  501  0.00000000000E+00  0.00000000000E+00 -0.12520830461E+04  0.12520830461E+04  0.50400001928E-02 0.  1.
    10030    2    1    2    0    0  0.00000000000E+00  0.00000000000E+00  0.16460792254E+04  0.41502453177E+04  0.38098503095E+04 0.  0.
        1    1    3    3  502    0 -0.78893778139E+03  0.97385854515E+03  0.23857544530E+04  0.26949299803E+04  0.50400001928E-02 0. -1.
       -1    1    3    3    0  502  0.78893778139E+03 -0.97385854515E+03 -0.73967522758E+03  0.14553153374E+04  0.50400001928E-02 0.  1.
</event>
<event>
 5   0  0.1666051E-08  0.3806602E+04  0.7818609E-02  0.8044740E-01
        1   -1    0    0  501    0  0.00000000000E+00  0.00000000000E+00  0.12934491605E+04  0.12934491605E+04  0.50400001928E-02 0. -1.
       -1   -1    0    0    0  501  0.00000000000E+00  0.00000000000E+00 -0.28006931760E+04  0.28006931760E+04  0.50400001928E-02 0.  1.
    10030    2    1    2    0    0  0.00000000000E+00  0.00000000000E+00 -0.15072440155E+04  0.40941423366E+04  0.38066017588E+04 0.  0.
        2    1    3    3  502    0  0.13633731512E+04 -0.66628689609E+03 -0.19892406022E+04  0.25019597820E+04  0.25500000920E-02 0.  1.
       -2    1    3    3    0  502 -0.13633731512E+04  0.66628689609E+03  0.48199658675E+03  0.15921825545E+04  0.25500000920E-02 0. -1.
</event>
<event>
 5   0  0.5207474E-08  0.3797302E+04  0.7818609E-02  0.8046734E-01
        2   -1    0    0  501    0  0.00000000000E+00  0.00000000000E+00  0.15386680702E+04  0.15386680702E+04  0.25500000920E-02 0. -1.
       -2   -1    0    0    0  501  0.00000000000E+00  0.00000000000E+00 -0.23428549533E+04  0.23428549533E+04  0.25500000920E-02 0.  1.
    10030    2    1    2    0    0  0.00000000000E+00  0.00000000000E+00 -0.80418688310E+03  0.38815230235E+04  0.37973022580E+04 0.  0.
        4    1    3    3  502    0 -0.12572419968E+04  0.77559752308E+03 -0.16213031300E+04  0.21933614405E+04  0.12699999809E+01 0.  1.
       -4    1    3    3    0  502  0.12572419968E+04 -0.77559752308E+03  0.81711624691E+03  0.16881615830E+04  0.12699999809E+01 0. -1.
</event>
<event>
 5   0  0.5159761E-08  0.3801083E+04  0.7818609E-02  0.8045923E-01
       -2   -1    0    0    0  501  0.00000000000E+00  0.00000000000E+00  0.12778829134E+04  0.12778829134E+04  0.25500000920E-02 0.  1.
        2   -1    0    0  501    0  0.00000000000E+00  0.00000000000E+00 -0.28265952423E+04  0.28265952423E+04  0.25500000920E-02 0. -1.
    10030    2    1    2    0    0  0.00000000000E+00  0.00000000000E+00 -0.15487123290E+04  0.41044781557E+04  0.38010828790E+04 0.  0.
        5    1    3    3  502    0 -0.44952267201E+02  0.29840023751E+03 -0.28005543012E+04  0.28167694070E+04  0.46999998093E+01 0. -1.
       -5    1    3    3    0  502  0.44952267201E+02 -0.29840023751E+03  0.12518419722E+04  0.12877087487E+04  0.46999998093E+01 0.  1.
</event>
<event>
 5   0  0.5207474E-08  0.3801321E+04  0.7818609E-02  0.8045871E-01
       -2   -1    0    0    0  501  0.00000000000E+00  0.00000000000E+00  0.15631561672E+04  0.15631561672E+04  0.25500000920E-02 0. -1.
        2   -1    0    0  501    0  0.00000000000E+00  0.00000000000E+00 -0.23110360205E+04  0.23110360205E+04  0.25500000920E-02 0.  1.
    10030    2    1    2    0    0  0.00000000000E+00  0.00000000000E+00 -0.74787985333E+03  0.38741921877E+04  0.38013209325E+04 0.  0.
        4    1    3    3  502    0  0.11652980967E+04  0.54274762532E+03  0.10529031285E+04  0.16616561768E+04  0.12699999809E+01 0. -1.
       -4    1    3    3    0  502 -0.11652980967E+04 -0.54274762532E+03 -0.18007829818E+04  0.22125360109E+04  0.12699999809E+01 0.  1.
</event>
<event>
 5   0  0.5147582E-08  0.3802944E+04  0.7818609E-02  0.8045523E-01
        2   -1    0    0  501    0  0.00000000000E+00  0.00000000000E+00  0.21152966833E+04  0.21152966833E+04  0.25500000920E-02 0.  1.
       -2   -1    0    0    0  501  0.00000000000E+00  0.00000000000E+00 -0.17092619703E+04  0.17092619703E+04  0.25500000920E-02 0. -1.
    10030    2    1    2    0    0  0.00000000000E+00  0.00000000000E+00  0.40603471299E+03  0.38245586537E+04  0.38029442156E+04 0.  0.
        1    1    3    3  502    0 -0.13729454058E+04 -0.10941134182E+04  0.93760222889E+03  0.19902666150E+04  0.50400001928E-02 0.  1.
       -1    1    3    3    0  502  0.13729454058E+04  0.10941134182E+04 -0.53156751590E+03  0.18342920387E+04  0.50400001928E-02 0. -1.
</event>
<event>
 5   0  0.5159761E-08  0.3798212E+04  0.7818609E-02  0.8046539E-01
       -2   -1    0    0    0  501  0.00000000000E+00  0.00000000000E+00  0.16168428875E+04  0.16168428875E+04  0.25500000920E-02 0.  1.
        2   -1    0    0  501    0  0.00000000000E+00  0.00000000000E+00 -0.22306454495E+04  0.22306454495E+04  0.25500000920E-02 0. -1.
    10030    2    1    2    0    0  0.00000000000E+00  0.00000000000E+00 -0.61380256202E+03  0.38474883370E+04  0.37982118054E+04 0.  0.
        5    1    3    3  502    0  0.11958753755E+04  0.12518715662E+04  0.48378987608E+03  0.17976025885E+04  0.46999998093E+01 0.  1.
       -5    1    3    3    0  502 -0.11958753755E+04 -0.12518715662E+04 -0.10975924381E+04  0.20498857485E+04  0.46999998093E+01 0. -1.
</event>
<event>
 5   0  0.5086209E-08  0.3822078E+04  0.7818609E-02  0.8041434E-01
        2   -1    0    0  501    0  0.00000000000E+00  0.00000000000E+00  0.11780819863E+04  0.11780819863E+04  0.25500000920E-02 0.  1.
       -2   -1    0    0    0  501  0.00000000000E+00  0.00000000000E+00 -0.31000127083E+04  0.31000127083E+04  0.25500000920E-02 0. -1.
    10030    2    1    2    0    0  0.00000000000E+00  0.00000000000E+00 -0.19219307220E+04  0.42780946946E+04  0.38220775130E+04 0.  0.
        3    1    3    3  502    0 -0.17052114416E+04  0.56809549625E+03 -0.23419644440E+03  0.18125469754E+04  0.10100000352E+00 0.  1.
       -3    1    3    3    0  502  0.17052114416E+04 -0.56809549625E+03 -0.16877342776E+04  0.24655477192E+04  0.10100000352E+00 0. -1.
</event>
<event>
 5   0  0.5207474E-08  0.3823530E+04  0.7818609E-02  0.8041124E-01
       -2   -1    0    0    0  501  0.00000000000E+00  0.00000000000E+00  0.15947635852E+04  0.15947635852E+04  0.25500000920E-02 0.  1.
        2   -1    0    0  501    0  0.00000000000E+00  0.00000000000E+00 -0.22917786332E+04  0.22917786332E+04  0.25500000920E-02 0. -1.
    10030    2    1    2    0    0  0.00000000000E+00  0.00000000000E+00 -0.69701504806E+03  0.38865422184E+04  0.38235298401E+04 0.  0.
        4    1    3    3  502    0 -0.16171066987E+04  0.10196776934E+04 -0.34019826019E+03  0.19417809203E+04  0.12699999809E+01 0. -1.
       -4    1    3    3    0  502  0.16171066987E+04 -0.10196776934E+04 -0.35681678787E+03  0.19447612981E+04  0.12699999809E+01 0.  1.
</event>
<event>
 5   0  0.1628473E-08  0.3797361E+04  0.7818609E-02  0.8046721E-01
        1   -1    0    0  501    0  0.00000000000E+00  0.00000000000E+00  0.17512712220E+04  0.17512712220E+04  0.50400001928E-02 0. -1.
       -1   -1    0    0    0  501  0.00000000000E+00  0.00000000000E+00 -0.20584973884E+04  0.20584973884E+04  0.50400001928E-02 0.  1.
    10030    2    1    2    0    0  0.00000000000E+00  0.00000000000E+00 -0.30722616639E+03  0.38097686105E+04  0.37973607872E+04 0.  0.
        3    1    3    3  502    0  0.15893034840E+04 -0.41948605277E+02  0.88772926163E+03  0.18209087022E+04  0.10100000352E+00 0. -1.
       -3    1    3    3    0  502 -0.15893034840E+04  0.41948605277E+02 -0.11949554280E+04  0.19888599083E+04  0.10100000352E+00 0.  1.
</event>
<event>
 5   0  0.1666051E-08  0.3796652E+04  0.7818609E-02  0.8046874E-01
        1   -1    0    0  501    0  0.00000000000E+00  0.00000000000E+00  0.17319231866E+04  0.17319231866E+04  0.50400001928E-02 0. -1.
       -1   -1    0    0    0  501  0.00000000000E+00  0.00000000000E+00 -0.20807168123E+04  0.20807168123E+04  0.50400001928E-02 0.  1.
    10030    2    1    2    0    0  0.00000000000E+00  0.00000000000E+00 -0.34879362573E+03  0.38126399989E+04  0.37966520473E+04 0.  0.
        2    1    3    3  502    0  0.14395968205E+04 -0.11249984326E+04 -0.69191268950E+03  0.19536641597E+04  0.25500000920E-02 0.  1.
       -2    1    3    3    0  502 -0.14395968205E+04  0.11249984326E+04  0.34311906377E+03  0.18589758392E+04  0.25500000920E-02 0. -1.
</event>
<event>
 5   0  0.1628250E-08  0.3801438E+04  0.7818609E-02  0.8045846E-01
       -1   -1    0    0    0  501  0.00000000000E+00  0.00000000000E+00  0.22377060538E+04  0.22377060538E+04  0.50400001928E-02 0. -1.
        1   -1    0    0  501    0  0.00000000000E+00  0.00000000000E+00 -0.16144801248E+04  0.16144801248E+04  0.50400001928E-02 0.  1.
    10030    2    1    2    0    0  0.00000000000E+00  0.00000000000E+00  0.62322592899E+03  0.38521861786E+04  0.38014375960E+04 0.  0.
        5    1    3    3  502    0  0.60240331211E+03  0.16608177080E+04 -0.39882018568E+03  0.18111556643E+04  0.46999998093E+01 0.  1.
       -5    1    3    3    0  502 -0.60240331211E+03 -0.16608177080E+04  0.10220461147E+04  0.20410305143E+04  0.46999998093E+01 0. -1.
</event>
<event>
 5   0  0.5207474E-08  0.3803126E+04  0.7818609E-02  0.8045484E-01
        2   -1    0    0  501    0  0.00000000000E+00  0.00000000000E+00  0.26851322257E+04  0.26851322257E+04  0.25500000920E-02 0. -1.
       -2   -1    0    0    0  501  0.00000000000E+00  0.00000000000E+00 -0.13466534774E+04  0.13466534774E+04  0.25500000920E-02 0.  1.
    10030    2    1    2    0    0  0.00000000000E+00  0.00000000000E+00  0.13384787483E+04  0.40317857032E+04  0.38031264240E+04 0.  0.
        4    1    3    3  502    0 -0.70830071049E+03 -0.12611595798E+04 -0.63937098164E+03  0.15814582660E+04  0.12699999809E+01 0.  1.
       -4    1    3    3    0  502  0.70830071049E+03  0.12611595798E+04  0.19778497299E+04  0.24503274372E+04  0.12699999809E+01 0. -1.
</event>
<event>
 5   0  0.1628250E-08  0.3809149E+04  0.7818609E-02  0.8044194E-01
        1   -1    0    0  501    0  0.00000000000E+00  0.00000000000E+00  0.26754034607E+04  0.26754034607E+04  0.50400001928E-02 0.  1.
       -1   -1    0    0    0  501  0.00000000000E+00  0.00000000000E+00 -0.13558342742E+04  0.13558342742E+04  0.50400001928E-02 0. -1.
    10030    2    1    2    0    0  0.00000000000E+00  0.00000000000E+00  0.13195691864E+04  0.40312377349E+04  0.38091488338E+04 0.  0.
        1    1    3    3  502    0 -0.14547208843E+03  0.16731204818E+04 -0.29087025019E+03  0.17044353251E+04  0.50400001928E-02 0. -1.
       -1    1    3    3    0  502  0.14547208843E+03 -0.16731204818E+04  0.16104394366E+04  0.23268024098E+04  0.50400001928E-02 0.  1.
</event>
<event>
 5   0  0.1628250E-08  0.3802796E+04  0.7818609E-02  0.8045555E-01
       -1   -1    0    0    0  501  0.00000000000E+00  0.00000000000E+00  0.25957031741E+04  0.25957031741E+04  0.50400001928E-02 0.  1.
        1   -1    0    0  501    0  0.00000000000E+00  0.00000000000E+00 -0.13928071819E+04  0.13928071819E+04  0.50400001928E-02 0. -1.
    10030    2    1    2    0    0  0.00000000000E+00  0.00000000000E+00  0.12028959923E+04  0.39885103560E+04  0.38027958257E+04 0.  0.
        5    1    3    3  502    0  0.32459190992E+03 -0.18283683308E+04  0.10300632322E+04  0.21235213711E+04  0.46999998093E+01 0. -1.
       -5    1    3    3    0  502 -0.32459190992E+03  0.18283683308E+04  0.17283276009E+03  0.18649889850E+04  0.46999998093E+01 0.  1.
</event>
<event>
 5   0  0.1628250E-08  0.3799857E+04  0.7818609E-02  0.8046186E-01
        1   -1    0    0  501    0  0.00000000000E+00  0.00000000000E+00  0.33859332023E+04  0.33859332023E+04  0.50400001928E-02 0. -1.
       -1   -1    0    0    0  501  0.00000000000E+00  0.00000000000E+00 -0.10660954648E+04  0.10660954648E+04  0.50400001928E-02 0.  1.
    10030    2    1    2    0    0  0.00000000000E+00  0.00000000000E+00  0.23198377376E+04  0.44520286671E+04  0.37998568557E+04 0.  0.
        1    1    3    3  502    0 -0.18151486651E+04  0.39006351277E+03  0.16326740921E+04  0.24723549323E+04  0.50400001928E-02 0.  1.
       -1    1    3    3    0  502  0.18151486651E+04 -0.39006351277E+03  0.68716364548E+03  0.19796737348E+04  0.50400001928E-02 0. -1.
</event>
<event>
 5   0  0.1666051E-08  0.3799271E+04  0.7818609E-02  0.8046311E-01
        1   -1    0    0  501    0  0.00000000000E+00  0.00000000000E+00  0.25901324106E+04  0.25901324106E+04  0.50400001928E-02 0. -1.
       -1   -1    0    0    0  501  0.00000000000E+00  0.00000000000E+00 -0.13932163674E+04  0.13932163674E+04  0.50400001928E-02 0.  1.
    10030    2    1    2    0    0  0.00000000000E+00  0.00000000000E+00  0.11969160431E+04  0.39833487780E+04  0.37992709133E+04 0.  0.
        2    1    3    3  502    0  0.72343369648E+03 -0.69307260945E+03  0.22906293903E+04  0.25001377880E+04  0.25500000920E-02 0. -1.
       -2    1    3    3    0  502 -0.72343369648E+03  0.69307260945E+03 -0.10937133471E+04  0.14832109900E+04  0.25500000920E-02 0.  1.
</event>
<event>
 5   0  0.5159761E-08  0.3798771E+04  0.7818609E-02  0.8046419E-01
        2   -1    0    0  501    0  0.00000000000E+00  0.00000000000E+00  0.14265136802E+04  0.14265136802E+04  0.25500000920E-02 0. -1.
       -2   -1    0    0    0  501  0.00000000000E+00  0.00000000000E+00 -0.25290086336E+04  0.25290086336E+04  0.25500000920E-02 0.  1.
    10030    2    1    2    0    0  0.00000000000E+00  0.00000000000E+00 -0.11024949533E+04  0.39555223138E+04  0.37987710714E+04 0.  0.
        5    1    3    3  502    0 -0.54549393323E+03  0.17097673448E+04 -0.11988225046E+04  0.21582551963E+04  0.46999998093E+01 0. -1.
       -5    1    3    3    0  502  0.54549393323E+03 -0.17097673448E+04  0.96327551288E+02  0.17972671175E+04  0.46999998093E+01 0.  1.
</event>
<event>
 5   0  0.5207474E-08  0.3793152E+04  0.7818609E-02  0.8047626E-01
        2   -1    0    0  501    0  0.00000000000E+00  0.00000000000E+00  0.16452715056E+04  0.16452715056E+04  0.25500000920E-02 0.  1.
       -2   -1    0    0    0  501  0.00000000000E+00  0.00000000000E+00 -0.21862661360E+04  0.21862661360E+04  0.25500000920E-02 0. -1.
    10030    2    1    2    0    0  0.00000000000E+00  0.00000000000E+00 -0.54099463037E+03  0.38315376416E+04  0.37931524500E+04 0.  0.
        4    1    3    3  502    0  0.44058946884E+03  0.44043127867E+03  0.15389708895E+04  0.16602806398E+04  0.12699999809E+01 0.  1.
       -4    1    3    3    0  502 -0.44058946884E+03 -0.44043127867E+03 -0.20799655199E+04  0.21712570018E+04  0.12699999809E+01 0. -1.
</event>
<event>
 5   0  0.1628250E-08  0.3799722E+04  0.7818609E-02  0.8046215E-01
       -1   -1    0    0    0  501  0.00000000000E+00  0.00000000000E+00  0.19416424481E+04  0.19416424481E+04  0.50400001928E-02 0.  1.
        1   -1    0    0  501    0  0.00000000000E+00  0.00000000000E+00 -0.18589784935E+04  0.18589784935E+04  0.50400001928E-02 0. -1.
    10030    2    1    2    0    0  0.00000000000E+00  0.00000000000E+00  0.82663954623E+02  0.38006209416E+04  0.37997218598E+04 0.  0.
        5    1    3    3  502    0 -0.16963973260E+04 -0.39877495434E+03  0.79825677427E+03  0.19167736746E+04  0.46999998093E+01 0.  1.
       -5    1    3    3    0  502  0.16963973260E+04  0.39877495434E+03 -0.71559281964E+03  0.18838472670E+04  0.46999998093E+01 0. -1.
</event>
<event>
 5   0  0.1666051E-08  0.3799672E+04  0.7818609E-02  0.8046225E-01
       -1   -1    0    0    0  501  0.00000000000E+00  0.00000000000E+00  0.11948148659E+04  0.11948148659E+04  0.50400001928E-02 0. -1.
        1   -1    0    0  501    0  0.00000000000E+00  0.00000000000E+00 -0.30208668727E+04  0.30208668727E+04  0.50400001928E-02 0.  1.
    10030    2    1    2    0    0  0.00000000000E+00  0.00000000000E+00 -0.18260520068E+04  0.42156817386E+04  0.37996719055E+04 0.  0.
        2    1    3    3  502    0 -0.46136472136E+02  0.97879005321E+03 -0.27188714398E+04  0.28900554404E+04  0.25500000920E-02 0.  1.
       -2    1    3    3    0  502  0.46136472136E+02 -0.97879005321E+03  0.89281943306E+03  0.13256262982E+04  0.25500000920E-02 0. -1.
</event>
<event>
 5   0  0.5207474E-08  0.3798627E+04  0.7818609E-02  0.8046450E-01
       -2   -1    0    0    0  501  0.00000000000E+00  0.00000000000E+00  0.13117293672E+04  0.13117293672E+04  0.25500000920E-02 0. -1.
        2   -1    0    0  501    0  0.00000000000E+00  0.00000000000E+00 -0.27501041529E+04  0.27501041529E+04  0.25500000920E-02 0.  1.
    10030    2    1    2    0    0  0.00000000000E+00  0.00000000000E+00 -0.14383747856E+04  0.40618335201E+04  0.37986273206E+04 0.  0.
        4    1    3    3  502    0  0.29491626576E+03 -0.30803066457E+03 -0.26982496826E+04  0.27317414695E+04  0.12699999809E+01 0.  1.
       -4    1    3    3    0  502 -0.29491626576E+03  0.30803066457E+03  0.12598748969E+04  0.13300920505E+04  0.12699999809E+01 0. -1.
</event>
<event>
 5   0  0.1628250E-08  0.3799959E+04  0.7818609E-02  0.8046164E-01
       -1   -1    0    0    0  501  0.00000000000E+00  0.00000000000E+00  0.15948530417E+04  0.15948530417E+04  0.50400001928E-02 0.  1.
        1   -1    0    0  501    0  0.00000000000E+00  0.00000000000E+00 -0.22634831479E+04  0.22634831479E+04  0.50400001928E-02 0. -1.
    10030    2    1    2    0    0  0.00000000000E+00  0.00000000000E+00 -0.66863010619E+03  0.38583361895E+04  0.37999594646E+04 0.  0.
        1    1    3    3  502    0  0.64225746867E+03 -0.58883061779E+02 -0.21489359784E+04  0.22436327040E+04  0.50400001928E-02 0. -1.
       -1    1    3    3    0  502 -0.64225746867E+03  0.58883061779E+02  0.14803058722E+04  0.16147034856E+04  0.50400001928E-02 0.  1.
</event>
<event>
 5   0  0.5147582E-08  0.3805293E+04  0.7818609E-02  0.8045020E-01
       -2   -1    0    0    0  501  0.00000000000E+00  0.00000000000E+00  0.23118742748E+04  0.23118742748E+04  0.25500000920E-02 0. -1.
        2   -1    0    0  501    0  0.00000000000E+00  0.00000000000E+00 -0.15658569284E+04  0.15658569284E+04  0.25500000920E-02 0.  1.
    10030    2    1    2    0    0  0.00000000000E+00  0.00000000000E+00  0.74601734647E+03  0.38777312032E+04  0.38052933399E+04 0.  0.
        1    1    3    3  502    0 -0.18106505018E+04  0.52806329775E+03  0.62829351183E+03  0.19879785772E+04  0.50400001928E-02 0.  1.
       -1    1    3    3    0  502  0.18106505018E+04 -0.52806329775E+03  0.11772383464E+03  0.18897526260E+04  0.50400001928E-02 0. -1.
</event>
<event>
 5   0  0.1628250E-08  0.3794416E+04  0.7818609E-02  0.8047354E-01
       -1   -1    0    0    0  501  0.00000000000E+00  0.00000000000E+00  0.22135352267E+04  0.22135352267E+04  0.50400001928E-02 0. -1.
        1   -1    0    0  501    0  0.00000000000E+00  0.00000000000E+00 -0.16260860825E+04  0.16260860825E+04  0.50400001928E-02 0.  1.
    10030    2    1    2    0    0  0.00000000000E+00  0.00000000000E+00  0.58744914419E+03  0.38396213092E+04  0.37944163320E+04 0.  0.
        1    1    3    3  502    0 -0.16622214733E+03 -0.16790594460E+04 -0.58409419111E+03  0.17855073367E+04  0.50400001928E-02 0.  1.
       -1    1    3    3    0  502  0.16622214733E+03  0.16790594460E+04  0.11715433353E+04  0.20541139725E+04  0.50400001928E-02 0. -1.
</event>
<event>
 5   0  0.1628250E-08  0.3826217E+04  0.7818609E-02  0.8040552E-01
        1   -1    0    0  501    0  0.00000000000E+00  0.00000000000E+00  0.24080653853E+04  0.24080653853E+04  0.50400001928E-02 0.  1.
       -1   -1    0    0    0  501  0.00000000000E+00  0.00000000000E+00 -0.15198855045E+04  0.15198855045E+04  0.50400001928E-02 0. -1.
    10030    2    1    2    0    0  0.00000000000E+00  0.00000000000E+00  0.88817988089E+03  0.39279508898E+04  0.38262167597E+04 0.  0.
        1    1    3    3  502    0 -0.17018321241E+04 -0.14615831885E+03 -0.44043930558E+03  0.17639675776E+04  0.50400001928E-02 0. -1.
       -1    1    3    3    0  502  0.17018321241E+04  0.14615831885E+03  0.13286191865E+04  0.21639833122E+04  0.50400001928E-02 0.  1.
</event>
<event>
 5   0  0.5086209E-08  0.3802657E+04  0.7818609E-02  0.8045585E-01
        2   -1    0    0  501    0  0.00000000000E+00  0.00000000000E+00  0.30509220576E+04  0.30509220576E+04  0.25500000920E-02 0. -1.
       -2   -1    0    0    0  501  0.00000000000E+00  0.00000000000E+00 -0.11849040979E+04  0.11849040979E+04  0.25500000920E-02 0.  1.
    10030    2    1    2    0    0  0.00000000000E+00  0.00000000000E+00  0.18660179597E+04  0.42358261555E+04  0.38026569913E+04 0.  0.
        3    1    3    3  502    0  0.39994232664E+03  0.18571708222E+04  0.84663436447E+03  0.20798622754E+04  0.10100000352E+00 0.  1.
       -3    1    3    3    0  502 -0.39994232664E+03 -0.18571708222E+04  0.10193835953E+04  0.21559638800E+04  0.10100000352E+00 0. -1.
</event>
<event>
 5   0  0.1628250E-08  0.3816922E+04  0.7818609E-02  0.8042533E-01
        3   -1    0    0  501    0  0.00000000000E+00  0.00000000000E+00  0.20456914875E+04  0.20456914900E+04  0.10100000352E+00 0. -1.
       -3   -1    0    0    0  501  0.00000000000E+00  0.00000000000E+00 -0.17804365623E+04  0.17804365651E+04  0.10100000352E+00 0.  1.
    10030    2    1    2    0    0  0.00000000000E+00  0.00000000000E+00  0.26525492521E+03  0.38261280551E+04  0.38169222835E+04 0.  0.
        1    1    3    3  502    0  0.11626288516E+04  0.14355098855E+04 -0.34793409247E+03  0.18797480179E+04  0.50400001928E-02 0.  1.
       -1    1    3    3    0  502 -0.11626288516E+04 -0.14355098855E+04  0.61318901768E+03  0.19463800372E+04  0.50400001928E-02 0. -1.
</event>
<event>
 5   0  0.5086209E-08  0.3794930E+04  0.7818609E-02  0.8047244E-01
        2   -1    0    0  501    0  0.00000000000E+00  0.00000000000E+00  0.22364098850E+04  0.22364098850E+04  0.25500000920E-02 0.  1.
       -2   -1    0    0    0  501  0.00000000000E+00  0.00000000000E+00 -0.16098896738E+04  0.16098896738E+04  0.25500000920E-02 0. -1.
    10030    2    1    2    0    0  0.00000000000E+00  0.00000000000E+00  0.62652021115E+03  0.38462995588E+04  0.37949298704E+04 0.  0.
        3    1    3    3  502    0  0.64362325802E+03  0.84741237445E+03 -0.12789970431E+04  0.16637884713E+04  0.10100000352E+00 0. -1.
       -3    1    3    3    0  502 -0.64362325802E+03 -0.84741237445E+03  0.19055172543E+04  0.21825110875E+04  0.10100000352E+00 0.  1.
</event>
<event>
 5   0  0.5207474E-08  0.3808609E+04  0.7818609E-02  0.8044310E-01
        2   -1    0    0  501    0  0.00000000000E+00  0.00000000000E+00  0.19641773479E+04  0.19641773479E+04  0.25500000920E-02 0. -1.
       -2   -1    0    0    0  501  0.00000000000E+00  0.00000000000E+00 -0.18462568020E+04  0.18462568020E+04  0.25500000920E-02 0.  1.
    10030    2    1    2    0    0  0.00000000000E+00  0.00000000000E+00  0.11792054591E+03  0.38104341500E+04  0.38086090842E+04 0.  0.
        4    1    3    3  502    0 -0.15112079897E+04 -0.77216373898E+03 -0.80539107333E+03  0.18784682116E+04  0.12699999809E+01 0. -1.
       -4    1    3    3    0  502  0.15112079897E+04  0.77216373898E+03  0.92331161924E+03  0.19319659384E+04  0.12699999809E+01 0.  1.
</event>
<event>
 5   0  0.5086209E-08  0.3797684E+04  0.7818609E-02  0.8046652E-01
       -2   -1    0    0    0  501  0.00000000000E+00  0.00000000000E+00  0.18627317056E+04  0.18627317056E+04  0.25500000920E-02 0. -1.
        2   -1    0    0  501    0  0.00000000000E+00  0.00000000000E+00 -0.19356518397E+04  0.19356518397E+04  0.25500000920E-02 0.  1.
    10030    2    1    2    0    0  0.00000000000E+00  0.00000000000E+00 -0.72920134134E+02  0.37983835453E+04  0.37976835323E+04 0.  0.
        3    1    3    3  502    0 -0.16410433962E+04  0.92857093603E+03  0.18793063729E+03  0.18948839928E+04  0.10100000352E+00 0. -1.
       -3    1    3    3    0  502  0.16410433962E+04 -0.92857093603E+03 -0.26085077142E+03  0.19034995526E+04  0.10100000352E+00 0.  1.
</event>
<event>
 5   0  0.5147582E-08  0.3806503E+04  0.7818609E-02  0.8044761E-01
        2   -1    0    0  501    0  0.00000000000E+00  0.00000000000E+00  0.17696470096E+04  0.17696470096E+04  0.25500000920E-02 0. -1.
       -2   -1    0    0    0  501  0.00000000000E+00  0.00000000000E+00 -0.20469426509E+04  0.20469426509E+04  0.25500000920E-02 0.  1.
    10030    2    1    2    0    0  0.00000000000E+00  0.00000000000E+00 -0.27729564131E+03  0.38165896605E+04  0.38065028259E+04 0.  0.
        1    1    3    3  502    0 -0.93761392642E+03 -0.72862472196E+02  0.15204081899E+04  0.17877555422E+04  0.50400001928E-02 0. -1.
       -1    1    3    3    0  502  0.93761392642E+03  0.72862472196E+02 -0.17977038312E+04  0.20288341183E+04  0.50400001928E-02 0.  1.
</event>
<event>
 5   0  0.1666051E-08  0.3804778E+04  0.7818609E-02  0.8045130E-01
        1   -1    0    0  501    0  0.00000000000E+00  0.00000000000E+00  0.25257313698E+04  0.25257313698E+04  0.50400001928E-02 0.  1.
       -1   -1    0    0    0  501  0.00000000000E+00  0.00000000000E+00 -0.14328858860E+04  0.14328858860E+04  0.50400001928E-02 0. -1.
    10030    2    1    2    0    0  0.00000000000E+00  0.00000000000E+00  0.10928454838E+04  0.39586172558E+04  0.38047784859E+04 0.  0.
        2    1    3    3  502    0  0.11065214193E+04  0.13038354508E+04 -0.32076949076E+03  0.17399050550E+04  0.25500000920E-02 0. -1.
       -2    1    3    3    0  502 -0.11065214193E+04 -0.13038354508E+04  0.14136149745E+04  0.22187122009E+04  0.25500000920E-02 0.  1.
</event>
<event>
 5   0  0.1628250E-08  0.3801948E+04  0.7818609E-02  0.8045737E-01
        1   -1    0    0  501    0  0.00000000000E+00  0.00000000000E+00  0.21289523153E+04  0.21289523153E+04  0.50400001928E-02 0.  1.
       -1   -1    0    0    0  501  0.00000000000E+00  0.00000000000E+00 -0.16974085039E+04  0.16974085039E+04  0.50400001928E-02 0. -1.
    10030    2    1    2    0    0  0.00000000000E+00  0.00000000000E+00  0.43154381134E+03  0.38263608192E+04  0.38019477979E+04 0.  0.
        4    1    3    3  502    0 -0.62373525053E+03  0.10420011913E+04  0.16876566157E+04  0.20791821976E+04  0.12699999809E+01 0. -1.
       -4    1    3    3    0  502  0.62373525053E+03 -0.10420011913E+04 -0.12561128044E+04  0.17471786216E+04  0.12699999809E+01 0.  1.
</event>
<event>
 5   0  0.5159761E-08  0.3790268E+04  0.7818609E-02  0.8048247E-01
        2   -1    0    0  501    0  0.00000000000E+00  0.00000000000E+00  0.17752336482E+04  0.17752336482E+04  0.25500000920E-02 0.  1.
       -2   -1    0    0    0  501  0.00000000000E+00  0.00000000000E+00 -0.20231324185E+04  0.20231324185E+04  0.25500000920E-02 0. -1.
    10030    2    1    2    0    0  0.00000000000E+00  0.00000000000E+00 -0.24789877031E+03  0.37983660667E+04  0.37902679294E+04 0.  0.
        5    1    3    3  502    0  0.69327304468E+03 -0.57323174002E+03 -0.17955325476E+04  0.20082782083E+04  0.46999998093E+01 0. -1.
       -5    1    3    3    0  502 -0.69327304468E+03  0.57323174002E+03  0.15476337773E+04  0.17900878585E+04  0.46999998093E+01 0.  1.
</event>
<event>
 5   0  0.1628250E-08  0.3803116E+04  0.7818609E-02  0.8045486E-01
       -1   -1    0    0    0  501  0.00000000000E+00  0.00000000000E+00  0.30633648181E+04  0.30633648181E+04  0.50400001928E-02 0.  1.
        1   -1    0    0  501    0  0.00000000000E+00  0.00000000000E+00 -0.11803762907E+04  0.11803762907E+04  0.50400001928E-02 0. -1.
    10030    2    1    2    0    0  0.00000000000E+00  0.00000000000E+00  0.18829885274E+04  0.42437411088E+04  0.38031161965E+04 0.  0.
        1    1    3    3  502    0 -0.45539646966E+03 -0.71260701530E+03 -0.95898365490E+03  0.12786103211E+04  0.50400001928E-02 0. -1.
       -1    1    3    3    0  502  0.45539646966E+03  0.71260701530E+03  0.28419721823E+04  0.29651307877E+04  0.50400001928E-02 0.  1.
</event>
<event>
 5   0  0.1628250E-08  0.3800087E+04  0.7818609E-02  0.8046136E-01
        1   -1    0    0  501    0  0.00000000000E+00  0.00000000000E+00  0.10446400271E+04  0.10446400271E+04  0.50400001928E-02 0.  1.
       -1   -1    0    0    0  501  0.00000000000E+00  0.00000000000E+00 -0.34558934283E+04  0.34558934283E+04  0.50400001928E-02 0. -1.
    10030    2    1    2    0    0  0.00000000000E+00  0.00000000000E+00 -0.24112534012E+04  0.45005334553E+04  0.38000866329E+04 0.  0.
        4    1    3    3  502    0  0.56273178745E+03  0.14708653166E+04  0.53355375357E+02  0.15757411758E+04  0.12699999809E+01 0.  1.
       -4    1    3    3    0  502 -0.56273178745E+03 -0.14708653166E+04 -0.24646087766E+04  0.29247922795E+04  0.12699999809E+01 0. -1.
</event>
<event>
 5   0  0.1628250E-08  0.3798206E+04  0.7818609E-02  0.8046540E-01
       -1   -1    0    0    0  501  0.00000000000E+00  0.00000000000E+00  0.16257556191E+04  0.16257556191E+04  0.50400001928E-02 0. -1.
        1   -1    0    0  501    0  0.00000000000E+00  0.00000000000E+00 -0.22184097998E+04  0.22184097998E+04  0.50400001928E-02 0.  1.
    10030    2    1    2    0    0  0.00000000000E+00  0.00000000000E+00 -0.59265418067E+03  0.38441654190E+04  0.37982059963E+04 0.  0.
        5    1    3    3  502    0  0.80215862553E+03  0.86880403369E+03  0.12076863707E+04  0.16902092680E+04  0.46999998093E+01 0.  1.
       -5    1    3    3    0  502 -0.80215862553E+03 -0.86880403369E+03 -0.18003405514E+04  0.21539561510E+04  0.46999998093E+01 0. -1.
</event>
<event>
 5   0  0.5207474E-08  0.3800031E+04  0.7818609E-02  0.8046148E-01
        2   -1    0    0  501    0  0.00000000000E+00  0.00000000000E+00  0.21354258566E+04  0.21354258566E+04  0.25500000920E-02 0.  1.
       -2   -1    0    0    0  501  0.00000000000E+00  0.00000000000E+00 -0.16905572765E+04  0.16905572765E+04  0.25500000920E-02 0. -1.
    10030    2    1    2    0    0  0.00000000000E+00  0.00000000000E+00  0.44486858011E+03  0.38259831332E+04  0.38000314317E+04 0.  0.
        4    1    3    3  502    0  0.15331299219E+04 -0.45246959831E+02 -0.90661762227E+03  0.17817103498E+04  0.12699999809E+01 0. -1.
       -4    1    3    3    0  502 -0.15331299219E+04  0.45246959831E+02  0.13514862024E+04  0.20442727834E+04  0.12699999809E+01 0.  1.
</event>
<event>
 5   0  0.1628250E-08  0.3824407E+04  0.7818609E-02  0.8040937E-01
       -1   -1    0    0    0  501  0.00000000000E+00  0.00000000000E+00  0.17698805970E+04  0.17698805970E+04  0.50400001928E-02 0.  1.
        1   -1    0    0  501    0  0.00000000000E+00  0.00000000000E+00 -0.20659713655E+04  0.20659713656E+04  0.50400001928E-02 0. -1.
    10030    2    1    2    0    0  0.00000000000E+00  0.00000000000E+00 -0.29609076853E+03  0.38358519626E+04  0.38244072136E+04 0.  0.
        1    1    3    3  502    0 -0.50340235528E+03 -0.16717564501E+03  0.16946135484E+04  0.17756904871E+04  0.50400001928E-02 0.  1.
       -1    1    3    3    0  502  0.50340235528E+03  0.16717564501E+03 -0.19907043169E+04  0.20601614755E+04  0.50400001928E-02 0. -1.
</event>
<event>
 5   0  0.5140842E-08  0.3802706E+04  0.7818609E-02  0.8045574E-01
       -2   -1    0    0    0  501  0.00000000000E+00  0.00000000000E+00  0.18734843228E+04  0.18734843228E+04  0.25500000920E-02 0.  1.
        2   -1    0    0  501    0  0.00000000000E+00  0.00000000000E+00 -0.19296361022E+04  0.19296361023E+04  0.25500000920E-02 0. -1.
    10030    2    1    2    0    0  0.00000000000E+00  0.00000000000E+00 -0.56151779420E+02  0.38031204251E+04  0.38027058715E+04 0.  0.
        2    1    3    3  502    0  0.16561334168E+04 -0.21587357747E+03 -0.93689036047E+03  0.19149785491E+04  0.25500000920E-02 0. -1.
       -2    1    3    3    0  502 -0.16561334168E+04  0.21587357747E+03  0.88073858105E+03  0.18881418760E+04  0.25500000920E-02 0.  1.
</event>
<event>
 5   0  0.5159761E-08  0.3800670E+04  0.7818609E-02  0.8046011E-01
        2   -1    0    0  501    0  0.00000000000E+00  0.00000000000E+00  0.26423810025E+04  0.26423810025E+04  0.25500000920E-02 0.  1.
       -2   -1    0    0    0  501  0.00000000000E+00  0.00000000000E+00 -0.13666741116E+04  0.13666741116E+04  0.25500000920E-02 0. -1.
    10030    2    1    2    0    0  0.00000000000E+00  0.00000000000E+00  0.12757068909E+04  0.40090551141E+04  0.38006703141E+04 0.  0.
        5    1    3    3  502    0 -0.14261671138E+04 -0.95912743414E+03 -0.21738642719E+03  0.17323847783E+04  0.46999998093E+01 0. -1.
       -5    1    3    3    0  502  0.14261671138E+04  0.95912743414E+03  0.14930933181E+04  0.22766703358E+04  0.46999998093E+01 0.  1.
</event>
<event>
 5   0  0.1628473E-08  0.3799469E+04  0.7818609E-02  0.8046269E-01
        1   -1    0    0  501    0  0.00000000000E+00  0.00000000000E+00  0.21077698330E+04  0.21077698330E+04  0.50400001928E-02 0. -1.
       -1   -1    0    0    0  501  0.00000000000E+00  0.00000000000E+00 -0.17122320539E+04  0.17122320539E+04  0.50400001928E-02 0.  1.
    10030    2    1    2    0    0  0.00000000000E+00  0.00000000000E+00  0.39553777910E+03  0.38200018869E+04  0.37994689472E+04 0.  0.
        3    1    3    3  502    0  0.89518900547E+03  0.16697819723E+04  0.33800698302E+03  0.19245217384E+04  0.10100000352E+00 0.  1.
       -3    1    3    3    0  502 -0.89518900547E+03 -0.16697819723E+04  0.57530796080E+02  0.18954801485E+04  0.10100000352E+00 0. -1.
</event>
<event>
 5   0  0.1628250E-08  0.3800471E+04  0.7818609E-02  0.8046054E-01
       -1   -1    0    0    0  501  0.00000000000E+00  0.00000000000E+00  0.14157124889E+04  0.14157124889E+04  0.50400001928E-02 0. -1.
        1   -1    0    0  501    0  0.00000000000E+00  0.00000000000E+00 -0.25505847498E+04  0.25505847498E+04  0.50400001928E-02 0.  1.
    10030    2    1    2    0    0  0.00000000000E+00  0.00000000000E+00 -0.11348722609E+04  0.39662972388E+04  0.38004708574E+04 0.  0.
        5    1    3    3  502    0  0.68851443692E+03 -0.12235837831E+04 -0.19038013820E+04  0.23655213371E+04  0.46999998093E+01 0.  1.
       -5    1    3    3    0  502 -0.68851443692E+03  0.12235837831E+04  0.76892912111E+03  0.16007759017E+04  0.46999998093E+01 0. -1.
</event>
<event>
 5   0  0.5140842E-08  0.3798564E+04  0.7818609E-02  0.8046463E-01
       -2   -1    0    0    0  501  0.00000000000E+00  0.00000000000E+00  0.12539725109E+04  0.12539725109E+04  0.25500000920E-02 0. -1.
        2   -1    0    0  501    0  0.00000000000E+00  0.00000000000E+00 -0.28766751195E+04  0.28766751195E+04  0.25500000920E-02 0.  1.
    10030    2    1    2    0    0  0.00000000000E+00  0.00000000000E+00 -0.16227026086E+04  0.41306476305E+04  0.37985636879E+04 0.  0.
        2    1    3    3  502    0 -0.92081176955E+03  0.59396491008E+03 -0.24982894117E+04  0.27280283382E+04  0.25500000920E-02 0.  1.
       -2    1    3    3    0  502  0.92081176955E+03 -0.59396491008E+03  0.87558680310E+03  0.14026192923E+04  0.25500000920E-02 0. -1.
</event>
<event>
 5   0  0.1628250E-08  0.3742780E+04  0.7818609E-02  0.8058547E-01
       -1   -1    0    0    0  501  0.00000000000E+00  0.00000000000E+00  0.20704154918E+04  0.20704154918E+04  0.50400001928E-02 0. -1.
        1   -1    0    0  501    0  0.00000000000E+00  0.00000000000E+00 -0.16914965335E+04  0.16914965335E+04  0.50400001928E-02 0.  1.
    10030    2    1    2    0    0  0.00000000000E+00  0.00000000000E+00  0.37891895831E+03  0.37619120253E+04  0.37427800509E+04 0.  0.
        4    1    3    3  502    0  0.72133053101E+03 -0.15665641848E+04  0.91957329330E+03  0.19544967983E+04  0.12699999809E+01 0. -1.
       -4    1    3    3    0  502 -0.72133053101E+03  0.15665641848E+04 -0.54065433499E+03  0.18074152270E+04  0.12699999809E+01 0.  1.
</event>
<event>
 5   0  0.5086209E-08  0.3799623E+04  0.7818609E-02  0.8046236E-01
       -2   -1    0    0    0  501  0.00000000000E+00  0.00000000000E+00  0.20617726818E+04  0.20617726818E+04  0.25500000920E-02 0. -1.
        2   -1    0    0  501    0  0.00000000000E+00  0.00000000000E+00 -0.17505729900E+04  0.17505729900E+04  0.25500000920E-02 0.  1.
    10030    2    1    2    0    0  0.00000000000E+00  0.00000000000E+00  0.31119969179E+03  0.38123456717E+04  0.37996229119E+04 0.  0.
        3    1    3    3  502    0 -0.89396019255E+03  0.54573745001E+03 -0.14347277840E+04  0.17763552614E+04  0.10100000352E+00 0.  1.
       -3    1    3    3    0  502  0.89396019255E+03 -0.54573745001E+03  0.17459274758E+04  0.20359904104E+04  0.10100000352E+00 0. -1.
</event>
<event>
 5   0  0.5159761E-08  0.3790217E+04  0.7818609E-02  0.8048258E-01
       -2   -1    0    0    0  501  0.00000000000E+00  0.00000000000E+00  0.16856507920E+04  0.16856507920E+04  0.25500000920E-02 0. -1.
        2   -1    0    0  501    0  0.00000000000E+00  0.00000000000E+00 -0.21305932274E+04  0.21305932274E+04  0.25500000920E-02 0.  1.
    10030    2    1    2    0    0  0.00000000000E+00  0.00000000000E+00 -0.44494243543E+03  0.38162440195E+04  0.37902169655E+04 0.  0.
        5    1    3    3  502    0 -0.17601891225E+04 -0.62087305078E+03 -0.55284783044E+03  0.19466411856E+04  0.46999998093E+01 0.  1.
       -5    1    3    3    0  502  0.17601891225E+04  0.62087305078E+03  0.10790539501E+03  0.18696028338E+04  0.46999998093E+01 0. -1.
</event>
<event>
 5   0  0.5147582E-08  0.3798555E+04  0.7818609E-02  0.8046465E-01
       -2   -1    0    0    0  501  0.00000000000E+00  0.00000000000E+00  0.23071446935E+04  0.23071446935E+04  0.25500000920E-02 0. -1.
        2   -1    0    0  501    0  0.00000000000E+00  0.00000000000E+00 -0.15635150186E+04  0.15635150186E+04  0.25500000920E-02 0.  1.
    10030    2    1    2    0    0  0.00000000000E+00  0.00000000000E+00  0.74362967496E+03  0.38706597121E+04  0.37985551877E+04 0.  0.
        1    1    3    3  502    0 -0.13082718145E+04  0.99408646713E+03  0.13425108562E+04  0.21218196068E+04  0.50400001928E-02 0. -1.
       -1    1    3    3    0  502  0.13082718145E+04 -0.99408646713E+03 -0.59888118126E+03  0.17488401053E+04  0.50400001928E-02 0.  1.
</event>
<event>
 5   0  0.1628250E-08  0.3804908E+04  0.7818609E-02  0.8045103E-01
       -1   -1    0    0    0  501  0.00000000000E+00  0.00000000000E+00  0.18992755958E+04  0.18992755958E+04  0.50400001928E-02 0.  1.
        1   -1    0    0  501    0  0.00000000000E+00  0.00000000000E+00 -0.19056375212E+04  0.19056375212E+04  0.50400001928E-02 0. -1.
    10030    2    1    2    0    0  0.00000000000E+00  0.00000000000E+00 -0.63619254450E+01  0.38049131170E+04  0.38049077984E+04 0.  0.
        1    1    3    3  502    0  0.11922153252E+04  0.13265264806E+04  0.65884787248E+03  0.19013496270E+04  0.50400001928E-02 0.  1.
       -1    1    3    3    0  502 -0.11922153252E+04 -0.13265264806E+04 -0.66520979792E+03  0.19035634900E+04  0.50400001928E-02 0. -1.
</event>
<event>
 5   0  0.5147582E-08  0.3800438E+04  0.7818609E-02  0.8046061E-01
        2   -1    0    0  501    0  0.00000000000E+00  0.00000000000E+00  0.22926098364E+04  0.22926098364E+04  0.25500000920E-02 0. -1.
       -2   -1    0    0    0  501  0.00000000000E+00  0.00000000000E+00 -0.15749877919E+04  0.15749877920E+04  0.25500000920E-02 0.  1.
    10030    2    1    2    0    0  0.00000000000E+00  0.00000000000E+00  0.71762204446E+03  0.38675976284E+04  0.38004381348E+04 0.  0.
        1    1    3    3  502    0  0.14989080661E+04  0.89422501468E+02 -0.82628951236E+03  0.17139066873E+04  0.50400001928E-02 0.  1.
       -1    1    3    3    0  502 -0.14989080661E+04 -0.89422501468E+02  0.15439115568E+04  0.21536909411E+04  0.50400001928E-02 0. -1.
</event>
<event>
 5   0  0.1628250E-08  0.3796271E+04  0.7818609E-02  0.8046955E-01
       -1   -1    0    0    0  501  0.00000000000E+00  0.00000000000E+00  0.15280088432E+04  0.15280088432E+04  0.50400001928E-02 0.  1.
        1   -1    0    0  501    0  0.00000000000E+00  0.00000000000E+00 -0.23579178068E+04  0.23579178068E+04  0.50400001928E-02 0. -1.
    10030    2    1    2    0    0  0.00000000000E+00  0.00000000000E+00 -0.82990896354E+03  0.38859266500E+04  0.37962714657E+04 0.  0.
        1    1    3    3  502    0  0.16172108150E+04 -0.95870188730E+03 -0.68274153868E+03  0.20001540285E+04  0.50400001928E-02 0.  1.
       -1    1    3    3    0  502 -0.16172108150E+04  0.95870188730E+03 -0.14716742487E+03  0.18857726215E+04  0.50400001928E-02 0. -1.
</event>
<event>
 5   0  0.5207474E-08  0.3798656E+04  0.7818609E-02  0.8046443E-01
        2   -1    0    0  501    0  0.00000000000E+00  0.00000000000E+00  0.28779364721E+04  0.28779364721E+04  0.25500000920E-02 0. -1.
       -2   -1    0    0    0  501  0.00000000000E+00  0.00000000000E+00 -0.12534838419E+04  0.12534838419E+04  0.25500000920E-02 0.  1.
    10030    2    1    2    0    0  0.00000000000E+00  0.00000000000E+00  0.16244526302E+04  0.41314203140E+04  0.37986560075E+04 0.  0.
        4    1    3    3  502    0 -0.84637747583E+03 -0.70761506905E+03  0.24937465564E+04  0.27268750279E+04  0.12699999809E+01 0. -1.
       -4    1    3    3    0  502  0.84637747583E+03  0.70761506905E+03 -0.86929392622E+03  0.14045452861E+04  0.12699999809E+01 0.  1.
</event>
<event>
 5   0  0.1628250E-08  0.3796097E+04  0.7818609E-02  0.8046993E-01
        1   -1    0    0  501    0  0.00000000000E+00  0.00000000000E+00  0.20100830975E+04  0.20100830975E+04  0.50400001928E-02 0. -1.
       -1   -1    0    0    0  501  0.00000000000E+00  0.00000000000E+00 -0.17922585076E+04  0.17922585076E+04  0.50400001928E-02 0.  1.
    10030    2    1    2    0    0  0.00000000000E+00  0.00000000000E+00  0.21782458988E+03  0.38023416052E+04  0.37960972235E+04 0.  0.
        1    1    3    3  502    0 -0.35022535537E+03 -0.18654291680E+04  0.11916397799E+03  0.19017580903E+04  0.50400001928E-02 0. -1.
       -1    1    3    3    0  502  0.35022535537E+03  0.18654291680E+04  0.98660611888E+02  0.19005835148E+04  0.50400001928E-02 0.  1.
</event>
<event>
 5   0  0.5159761E-08  0.3823204E+04  0.7818609E-02  0.8041194E-01
       -2   -1    0    0    0  501  0.00000000000E+00  0.00000000000E+00  0.21697935142E+04  0.21697935142E+04  0.25500000920E-02 0. -1.
        2   -1    0    0  501    0  0.00000000000E+00  0.00000000000E+00 -0.16841339296E+04  0.16841339296E+04  0.25500000920E-02 0.  1.
    10030    2    1    2    0    0  0.00000000000E+00  0.00000000000E+00  0.48565958463E+03  0.38539274438E+04  0.38232043510E+04 0.  0.
        5    1    3    3  502    0 -0.14663921567E+04 -0.12193251707E+04  0.11085421456E+03  0.19103325825E+04  0.46999998093E+01 0. -1.
       -5    1    3    3    0  502  0.14663921567E+04  0.12193251707E+04  0.37480537007E+03  0.19435948612E+04  0.46999998093E+01 0.  1.
</event>
<event>
 5   0  0.5159761E-08  0.3802266E+04  0.7818609E-02  0.8045669E-01
       -2   -1    0    0    0  501  0.00000000000E+00  0.00000000000E+00  0.14003968781E+04  0.14003968781E+04  0.25500000920E-02 0.  1.
        2   -1    0    0  501    0  0.00000000000E+00  0.00000000000E+00 -0.25809162990E+04  0.25809162990E+04  0.25500000920E-02 0. -1.
    10030    2    1    2    0    0  0.00000000000E+00  0.00000000000E+00 -0.11805194209E+04  0.39813131771E+04  0.38022662336E+04 0.  0.
        5    1    3    3  502    0  0.22789749624E+03 -0.12616691282E+04 -0.20601208618E+04  0.24264925949E+04  0.46999998093E+01 0. -1.
       -5    1    3    3    0  502 -0.22789749624E+03  0.12616691282E+04  0.87960144091E+03  0.15548205822E+04  0.46999998093E+01 0.  1.
</event>
<event>
 5   0  0.5140842E-08  0.3799895E+04  0.7818609E-02  0.8046177E-01
       -2   -1    0    0    0  501  0.00000000000E+00  0.00000000000E+00  0.18113205582E+04  0.18113205582E+04  0.25500000920E-02 0.  1.
        2   -1    0    0  501    0  0.00000000000E+00  0.00000000000E+00 -0.19929107524E+04  0.19929107524E+04  0.25500000920E-02 0. -1.
    10030    2    1    2    0    0  0.00000000000E+00  0.00000000000E+00 -0.18159019426E+03  0.38042313106E+04  0.37998948493E+04 0.  0.
        2    1    3    3  502    0 -0.68250018659E+03  0.10466907857E+03 -0.18628540852E+04  0.19867026611E+04  0.25500000920E-02 0. -1.
       -2    1    3    3    0  502  0.68250018659E+03 -0.10466907857E+03  0.16812638910E+04  0.18175286495E+04  0.25500000920E-02 0.  1.
</event>
<event>
 5   0  0.5140842E-08  0.3784891E+04  0.7818609E-02  0.8049405E-01
       -2   -1    0    0    0  501  0.00000000000E+00  0.00000000000E+00  0.19889204850E+04  0.19889204850E+04  0.25500000920E-02 0. -1.
        2   -1    0    0  501    0  0.00000000000E+00  0.00000000000E+00 -0.18006503594E+04  0.18006503594E+04  0.25500000920E-02 0.  1.
    10030    2    1    2    0    0  0.00000000000E+00  0.00000000000E+00  0.18827012557E+03  0.37895708444E+04  0.37848912196E+04 0.  0.
        2    1    3    3  502    0  0.13600181369E+04 -0.11183384996E+04  0.78854866561E+03  0.19292846680E+04  0.25500000920E-02 0. -1.
       -2    1    3    3    0  502 -0.13600181369E+04  0.11183384996E+04 -0.60027854004E+03  0.18602861763E+04  0.25500000920E-02 0.  1.
</event>
<event>
 5   0  0.5147582E-08  0.3806310E+04  0.7818609E-02  0.8044802E-01
       -2   -1    0    0    0  501  0.00000000000E+00  0.00000000000E+00  0.21838247591E+04  0.21838247591E+04  0.25500000920E-02 0. -1.
        2   -1    0    0  501    0  0.00000000000E+00  0.00000000000E+00 -0.16585577711E+04  0.16585577711E+04  0.25500000920E-02 0.  1.
    10030    2    1    2    0    0  0.00000000000E+00  0.00000000000E+00  0.52526698801E+03  0.38423825302E+04  0.38063103000E+04 0.  0.
        1    1    3    3  502    0 -0.59830497490E+03 -0.60878359474E+03  0.19797574190E+04  0.21559280476E+04  0.50400001928E-02 0. -1.
       -1    1    3    3    0  502  0.59830497490E+03  0.60878359474E+03 -0.14544904310E+04  0.16864544827E+04  0.50400001928E-02 0.  1.
</event>
<event>
 5   0  0.1628250E-08  0.3795270E+04  0.7818609E-02  0.8047171E-01
       -1   -1    0    0    0  501  0.00000000000E+00  0.00000000000E+00  0.19809220741E+04  0.19809220741E+04  0.50400001928E-02 0. -1.
        1   -1    0    0  501    0  0.00000000000E+00  0.00000000000E+00 -0.18178498122E+04  0.18178498122E+04  0.50400001928E-02 0.  1.
    10030    2    1    2    0    0  0.00000000000E+00  0.00000000000E+00  0.16307226191E+03  0.37987718863E+04  0.37952701197E+04 0.  0.
        5    1    3    3  502    0 -0.88724758773E+03 -0.36054680100E+03  0.17212767291E+04  0.19697761156E+04  0.46999998093E+01 0. -1.
       -5    1    3    3    0  502  0.88724758773E+03  0.36054680100E+03 -0.15582044671E+04  0.18289957707E+04  0.46999998093E+01 0.  1.
</event>
<event>
 5   0  0.1628473E-08  0.3807758E+04  0.7818609E-02  0.8044492E-01
        1   -1    0    0  501    0  0.00000000000E+00  0.00000000000E+00  0.22016769978E+04  0.22016769978E+04  0.50400001928E-02 0. -1.
       -1   -1    0    0    0  501  0.00000000000E+00  0.00000000000E+00 -0.16463606444E+04  0.16463606444E+04  0.50400001928E-02 0.  1.
    10030    2    1    2    0    0  0.00000000000E+00  0.00000000000E+00  0.55531635338E+03  0.38480376422E+04  0.38077575347E+04 0.  0.
        3    1    3    3  502    0  0.41686879949E+03  0.33313376755E+03  0.21245567296E+04  0.21905476508E+04  0.10100000352E+00 0. -1.
       -3    1    3    3    0  502 -0.41686879949E+03 -0.33313376755E+03 -0.15692403762E+04  0.16574899914E+04  0.10100000352E+00 0.  1.
</event>
<event>
 5   0  0.5086209E-08  0.3794218E+04  0.7818609E-02  0.8047397E-01
       -2   -1    0    0    0  501  0.00000000000E+00  0.00000000000E+00  0.16191763614E+04  0.16191763614E+04  0.25500000920E-02 0.  1.
        2   -1    0    0  501    0  0.00000000000E+00  0.00000000000E+00 -0.22227493963E+04  0.22227493963E+04  0.25500000920E-02 0. -1.
    10030    2    1    2    0    0  0.00000000000E+00  0.00000000000E+00 -0.60357303495E+03  0.38419257577E+04  0.37942183805E+04 0.  0.
        3    1    3    3  502    0  0.32885635729E+03  0.12435053579E+04 -0.17137991048E+04  0.21427924447E+04  0.10100000352E+00 0. -1.
       -3    1    3    3    0  502 -0.32885635729E+03 -0.12435053579E+04  0.11102260699E+04  0.16991333130E+04  0.10100000352E+00 0.  1.
</event>
<event>
 5   0  0.1628250E-08  0.3838235E+04  0.7818609E-02  0.8037999E-01
       -1   -1    0    0    0  501  0.00000000000E+00  0.00000000000E+00  0.15982557138E+04  0.15982557138E+04  0.50400001928E-02 0.  1.
        1   -1    0    0  501    0  0.00000000000E+00  0.00000000000E+00 -0.23043942744E+04  0.23043942744E+04  0.50400001928E-02 0. -1.
    10030    2    1    2    0    0  0.00000000000E+00  0.00000000000E+00 -0.70613856056E+03  0.39026499883E+04  0.38382346546E+04 0.  0.
        1    1    3    3  502    0  0.47455429248E+03  0.22767536999E+03  0.15234313338E+04  0.16117943043E+04  0.50400001928E-02 0.  1.
       -1    1    3    3    0  502 -0.47455429248E+03 -0.22767536999E+03 -0.22295698944E+04  0.22908556839E+04  0.50400001928E-02 0. -1.
</event>
<event>
 5   0  0.5140842E-08  0.3784052E+04  0.7818609E-02  0.8049586E-01
        2   -1    0    0  501    0  0.00000000000E+00  0.00000000000E+00  0.23400248251E+04  0.23400248251E+04  0.25500000920E-02 0.  1.
       -2   -1    0    0    0  501  0.00000000000E+00  0.00000000000E+00 -0.15297964695E+04  0.15297964695E+04  0.25500000920E-02 0. -1.
    10030    2    1    2    0    0  0.00000000000E+00  0.00000000000E+00  0.81022835566E+03  0.38698212946E+04  0.37840516465E+04 0.  0.
        2    1    3    3  502    0 -0.15632003623E+04 -0.64720774621E+03 -0.46101123583E+03  0.17535691030E+04  0.25500000920E-02 0. -1.
       -2    1    3    3    0  502  0.15632003623E+04  0.64720774621E+03  0.12712395915E+04  0.21162521916E+04  0.25500000920E-02 0.  1.
</event>
<event>
 5   0  0.1628250E-08  0.3807370E+04  0.7818609E-02  0.8044575E-01
       -1   -1    0    0    0  501  0.00000000000E+00  0.00000000000E+00  0.19187771645E+04  0.19187771645E+04  0.50400001928E-02 0. -1.
        1   -1    0    0  501    0  0.00000000000E+00  0.00000000000E+00 -0.18887112314E+04  0.18887112314E+04  0.50400001928E-02 0.  1.
    10030    2    1    2    0    0  0.00000000000E+00  0.00000000000E+00  0.30065933085E+02  0.38074883960E+04  0.38073696859E+04 0.  0.
        4    1    3    3  502    0  0.90200253017E+03  0.16383053462E+04  0.37051753197E+03  0.19065512913E+04  0.12699999809E+01 0. -1.
       -4    1    3    3    0  502 -0.90200253017E+03 -0.16383053462E+04 -0.34045159889E+03  0.19009371047E+04  0.12699999809E+01 0.  1.
</event>
<event>
 5   0  0.1628250E-08  0.3799010E+04  0.7818609E-02  0.8046367E-01
        1   -1    0    0  501    0  0.00000000000E+00  0.00000000000E+00  0.24160718105E+04  0.24160718105E+04  0.50400001928E-02 0. -1.
       -1   -1    0    0    0  501  0.00000000000E+00  0.00000000000E+00 -0.14933820664E+04  0.14933820664E+04  0.50400001928E-02 0.  1.
    10030    2    1    2    0    0  0.00000000000E+00  0.00000000000E+00  0.92268974410E+03  0.39094538769E+04  0.37990095093E+04 0.  0.
        1    1    3    3  502    0  0.12401753733E+04 -0.63241682637E+03 -0.86856176253E+03  0.16408490284E+04  0.50400001928E-02 0.  1.
       -1    1    3    3    0  502 -0.12401753733E+04  0.63241682637E+03  0.17912515066E+04  0.22686048485E+04  0.50400001928E-02 0. -1.
</event>
<event>
 5   0  0.1666051E-08  0.3795732E+04  0.7818609E-02  0.8047071E-01
        1   -1    0    0  501    0  0.00000000000E+00  0.00000000000E+00  0.14184188500E+04  0.14184188501E+04  0.50400001928E-02 0.  1.
       -1   -1    0    0    0  501  0.00000000000E+00  0.00000000000E+00 -0.25393733656E+04  0.25393733656E+04  0.50400001928E-02 0. -1.
    10030    2    1    2    0    0  0.00000000000E+00  0.00000000000E+00 -0.11209545155E+04  0.39577922156E+04  0.37957318394E+04 0.  0.
        2    1    3    3  502    0  0.43339326955E+03 -0.84042152461E+03 -0.22762600561E+04  0.24648525125E+04  0.25500000920E-02 0. -1.
       -2    1    3    3    0  502 -0.43339326955E+03  0.84042152461E+03  0.11553055406E+04  0.14929397032E+04  0.25500000920E-02 0.  1.
</event>
<event>
 5   0  0.1628250E-08  0.3806492E+04  0.7818609E-02  0.8044763E-01
       -1   -1    0    0    0  501  0.00000000000E+00  0.00000000000E+00  0.15767042530E+04  0.15767042530E+04  0.50400001928E-02 0.  1.
        1   -1    0    0  501    0  0.00000000000E+00  0.00000000000E+00 -0.22974153205E+04  0.22974153205E+04  0.50400001928E-02 0. -1.
    10030    2    1    2    0    0  0.00000000000E+00  0.00000000000E+00 -0.72071106759E+03  0.38741195735E+04  0.38064915640E+04 0.  0.
        5    1    3    3  502    0  0.86692099277E+03 -0.86801502300E+02 -0.20825282925E+04  0.22574394095E+04  0.46999998093E+01 0. -1.
       -5    1    3    3    0  502 -0.86692099277E+03  0.86801502300E+02  0.13618172249E+04  0.16166801640E+04  0.46999998093E+01 0.  1.
</event>
<event>
 5   0  0.5207474E-08  0.3800175E+04  0.7818609E-02  0.8046117E-01
        2   -1    0    0  501    0  0.00000000000E+00  0.00000000000E+00  0.26436160245E+04  0.26436160246E+04  0.25500000920E-02 0. -1.
       -2   -1    0    0    0  501  0.00000000000E+00  0.00000000000E+00 -0.13656798028E+04  0.13656798028E+04  0.25500000920E-02 0.  1.
    10030    2    1    2    0    0  0.00000000000E+00  0.00000000000E+00  0.12779362218E+04  0.40092958273E+04  0.38001752649E+04 0.  0.
        4    1    3    3  502    0 -0.42209421858E+03  0.97753129553E+03  0.22992905891E+04  0.25338645956E+04  0.12699999809E+01 0. -1.
       -4    1    3    3    0  502  0.42209421858E+03 -0.97753129553E+03 -0.10213543673E+04  0.14754312317E+04  0.12699999809E+01 0.  1.
</event>
<event>
 5   0  0.5207474E-08  0.3799748E+04  0.7818609E-02  0.8046209E-01
        2   -1    0    0  501    0  0.00000000000E+00  0.00000000000E+00  0.23504906052E+04  0.23504906052E+04  0.25500000920E-02 0. -1.
       -2   -1    0    0    0  501  0.00000000000E+00  0.00000000000E+00 -0.15356457297E+04  0.15356457297E+04  0.25500000920E-02 0.  1.
    10030    2    1    2    0    0  0.00000000000E+00  0.00000000000E+00  0.81484487553E+03  0.38861363349E+04  0.37997478130E+04 0.  0.
        4    1    3    3  502    0 -0.62090531428E+03  0.19375600140E+03 -0.14182258588E+04  0.15602663224E+04  0.12699999809E+01 0.  1.
       -4    1    3    3    0  502  0.62090531428E+03 -0.19375600140E+03  0.22330707344E+04  0.23258700125E+04  0.12699999809E+01 0. -1.
</event>
<event>
 5   0  0.1666051E-08  0.3800779E+04  0.7818609E-02  0.8045988E-01
       -1   -1    0    0    0  501  0.00000000000E+00  0.00000000000E+00  0.18347917853E+04  0.18347917853E+04  0.50400001928E-02 0.  1.
        1   -1    0    0  501    0  0.00000000000E+00  0.00000000000E+00 -0.19683324257E+04  0.19683324257E+04  0.50400001928E-02 0. -1.
    10030    2    1    2    0    0  0.00000000000E+00  0.00000000000E+00 -0.13354064039E+03  0.38031242111E+04  0.38007789546E+04 0.  0.
        2    1    3    3  502    0  0.21681224381E+03  0.18592526047E+04  0.26153633874E+03  0.18900341409E+04  0.25500000920E-02 0.  1.
       -2    1    3    3    0  502 -0.21681224381E+03 -0.18592526047E+04 -0.39507697913E+03  0.19130900702E+04  0.25500000920E-02 0. -1.
</event>
<event>
 5   0  0.5207474E-08  0.3797874E+04  0.7818609E-02  0.8046611E-01
        2   -1    0    0  501    0  0.00000000000E+00  0.00000000000E+00  0.20454483199E+04  0.20454483199E+04  0.25500000920E-02 0. -1.
       -2   -1    0    0    0  501  0.00000000000E+00  0.00000000000E+00 -0.17629195627E+04  0.17629195627E+04  0.25500000920E-02 0.  1.
    10030    2    1    2    0    0  0.00000000000E+00  0.00000000000E+00  0.28252875722E+03  0.38083678827E+04  0.37978735407E+04 0.  0.
        4    1    3    3  502    0  0.97164258518E+03  0.16148376478E+04 -0.92121737735E+02  0.18868698867E+04  0.12699999809E+01 0.  1.
       -4    1    3    3    0  502 -0.97164258518E+03 -0.16148376478E+04  0.37465049496E+03  0.19214979959E+04  0.12699999809E+01 0. -1.
</event>
<event>
 5   0  0.5147582E-08  0.3799682E+04  0.7818609E-02  0.8046223E-01
       -2   -1    0    0    0  501  0.00000000000E+00  0.00000000000E+00  0.16211028278E+04  0.16211028278E+04  0.25500000920E-02 0. -1.
        2   -1    0    0  501    0  0.00000000000E+00  0.00000000000E+00 -0.22265069545E+04  0.22265069545E+04  0.25500000920E-02 0.  1.
    10030    2    1    2    0    0  0.00000000000E+00  0.00000000000E+00 -0.60540412664E+03  0.38476097823E+04  0.37996824710E+04 0.  0.
        1    1    3    3  502    0 -0.68261638632E+03  0.10763038074E+04  0.11239699989E+04  0.16993244467E+04  0.50400001928E-02 0. -1.
       -1    1    3    3    0  502  0.68261638632E+03 -0.10763038074E+04 -0.17293741256E+04  0.21482853356E+04  0.50400001928E-02 0.  1.
</event>
<event>
 5   0  0.5207474E-08  0.3800680E+04  0.7818609E-02  0.8046009E-01
        2   -1    0    0  501    0  0.00000000000E+00  0.00000000000E+00  0.13770564664E+04  0.13770564664E+04  0.25500000920E-02 0. -1.
       -2   -1    0    0    0  501  0.00000000000E+00  0.00000000000E+00 -0.26224727377E+04  0.26224727377E+04  0.25500000920E-02 0.  1.
    10030    2    1    2    0    0  0.00000000000E+00  0.00000000000E+00 -0.12454162713E+04  0.39995292041E+04  0.38006804872E+04 0.  0.
        4    1    3    3  502    0 -0.17772888079E+04  0.64445822371E+03 -0.41971818242E+03  0.19365554147E+04  0.12699999809E+01 0. -1.
       -4    1    3    3    0  502  0.17772888079E+04 -0.64445822371E+03 -0.82569808884E+03  0.20629737894E+04  0.12699999809E+01 0.  1.
</event>
<event>
 5   0  0.1628250E-08  0.3794542E+04  0.7818609E-02  0.8047327E-01
        1   -1    0    0  501    0  0.00000000000E+00  0.00000000000E+00  0.10570050260E+04  0.10570050260E+04  0.50400001928E-02 0.  1.
       -1   -1    0    0    0  501  0.00000000000E+00  0.00000000000E+00 -0.34055065926E+04  0.34055065926E+04  0.50400001928E-02 0. -1.
    10030    2    1    2    0    0  0.00000000000E+00  0.00000000000E+00 -0.23485015665E+04  0.44625116186E+04  0.37945421777E+04 0.  0.
        5    1    3    3  502    0  0.75485275388E+03 -0.82930543272E+03 -0.29740310112E+04  0.31784324322E+04  0.46999998093E+01 0. -1.
       -5    1    3    3    0  502 -0.75485275388E+03  0.82930543272E+03  0.62552944463E+03  0.12840791864E+04  0.46999998093E+01 0.  1.
</event>
<event>
 5   0  0.5159761E-08  0.3798065E+04  0.7818609E-02  0.8046570E-01
       -2   -1    0    0    0  501  0.00000000000E+00  0.00000000000E+00  0.15241990426E+04  0.15241990426E+04  0.25500000920E-02 0. -1.
        2   -1    0    0  501    0  0.00000000000E+00  0.00000000000E+00 -0.23660459717E+04  0.23660459717E+04  0.25500000920E-02 0.  1.
    10030    2    1    2    0    0  0.00000000000E+00  0.00000000000E+00 -0.84184692904E+03  0.38902450143E+04  0.37980652995E+04 0.  0.
        5    1    3    3  502    0  0.46625097027E+01 -0.17566267669E+04 -0.11599211427E+04  0.21050412073E+04  0.46999998093E+01 0.  1.
       -5    1    3    3    0  502 -0.46625097027E+01  0.17566267669E+04  0.31807421367E+03  0.17852038070E+04  0.46999998093E+01 0. -1.
</event>
<event>
 5   0  0.1628250E-08  0.3772823E+04  0.7818609E-02  0.8052012E-01
       -1   -1    0    0    0  501  0.00000000000E+00  0.00000000000E+00  0.35608046911E+04  0.35608046911E+04  0.50400001928E-02 0.  1.
        1   -1    0    0  501    0  0.00000000000E+00  0.00000000000E+00 -0.99936610080E+03  0.99936610082E+03  0.50400001928E-02 0. -1.
    10030    2    1    2    0    0  0.00000000000E+00  0.00000000000E+00  0.25614385903E+04  0.45601707919E+04  0.37728225508E+04 0.  0.
        5    1    3    3  502    0 -0.63873291639E+03  0.25501699955E+03  0.34038579106E+04  0.34726480060E+04  0.46999998093E+01 0.  1.
       -5    1    3    3    0  502  0.63873291639E+03 -0.25501699955E+03 -0.84241932030E+03  0.10875227859E+04  0.46999998093E+01 0. -1.
</event>
<event>
 5   0  0.1628473E-08  0.3796002E+04  0.7818609E-02  0.8047013E-01
       -1   -1    0    0    0  501  0.00000000000E+00  0.00000000000E+00  0.22289049256E+04  0.22289049256E+04  0.50400001928E-02 0. -1.
        1   -1    0    0  501    0  0.00000000000E+00  0.00000000000E+00 -0.16162230301E+04  0.16162230301E+04  0.50400001928E-02 0.  1.
    10030    2    1    2    0    0  0.00000000000E+00  0.00000000000E+00  0.61268189543E+03  0.38451279557E+04  0.37960018297E+04 0.  0.
        3    1    3    3  502    0  0.79415953798E+03 -0.12857534685E+04  0.14694855003E+04  0.21078991910E+04  0.10100000352E+00 0. -1.
       -3    1    3    3    0  502 -0.79415953798E+03  0.12857534685E+04 -0.85680360486E+03  0.17372287647E+04  0.10100000352E+00 0.  1.
</event>
<event>
 5   0  0.5086209E-08  0.3804796E+04  0.7818609E-02  0.8045126E-01
       -2   -1    0    0    0  501  0.00000000000E+00  0.00000000000E+00  0.13700015307E+04  0.13700015307E+04  0.25500000920E-02 0. -1.
        2   -1    0    0  501    0  0.00000000000E+00  0.00000000000E+00 -0.26416890620E+04  0.26416890620E+04  0.25500000920E-02 0.  1.
    10030    2    1    2    0    0  0.00000000000E+00  0.00000000000E+00 -0.12716875313E+04  0.40116905926E+04  0.38047959516E+04 0.  0.
        3    1    3    3  502    0 -0.12308172367E+03 -0.19921588296E+03  0.13547474629E+04  0.13748370002E+04  0.10100000352E+00 0. -1.
       -3    1    3    3    0  502  0.12308172367E+03  0.19921588296E+03 -0.26264349942E+04  0.26368535924E+04  0.10100000352E+00 0.  1.
</event>
<event>
 5   0  0.1628250E-08  0.3801308E+04  0.7818609E-02  0.8045874E-01
       -1   -1    0    0    0  501  0.00000000000E+00  0.00000000000E+00  0.12829944682E+04  0.12829944682E+04  0.50400001928E-02 0.  1.
        1   -1    0    0  501    0  0.00000000000E+00  0.00000000000E+00 -0.28156678979E+04  0.28156678979E+04  0.50400001928E-02 0. -1.
    10030    2    1    2    0    0  0.00000000000E+00  0.00000000000E+00 -0.15326734297E+04  0.40986623661E+04  0.38013083734E+04 0.  0.
        1    1    3    3  502    0  0.12501912774E+04  0.50219567296E+03 -0.22118438801E+04  0.25898710536E+04  0.50400001928E-02 0. -1.
       -1    1    3    3    0  502 -0.12501912774E+04 -0.50219567296E+03  0.67917045044E+03  0.15087913126E+04  0.50400001928E-02 0.  1.
</event>
<event>
 5   0  0.1628250E-08  0.3772611E+04  0.7818609E-02  0.8052058E-01
       -1   -1    0    0    0  501  0.00000000000E+00  0.00000000000E+00  0.21400401874E+04  0.21400401874E+04  0.50400001928E-02 0.  1.
        1   -1    0    0  501    0  0.00000000000E+00  0.00000000000E+00 -0.16626553269E+04  0.16626553269E+04  0.50400001928E-02 0. -1.
    10030    2    1    2    0    0  0.00000000000E+00  0.00000000000E+00  0.47738486055E+03  0.38026955143E+04  0.37726114124E+04 0.  0.
        4    1    3    3  502    0  0.10945157913E+04  0.36234173446E+03  0.17435448755E+04  0.20902647430E+04  0.12699999809E+01 0.  1.
       -4    1    3    3    0  502 -0.10945157913E+04 -0.36234173446E+03 -0.12661600150E+04  0.17124307713E+04  0.12699999809E+01 0. -1.
</event>
<event>
 5   0  0.1628250E-08  0.3802530E+04  0.7818609E-02  0.8045612E-01
        1   -1    0    0  501    0  0.00000000000E+00  0.00000000000E+00  0.28465423280E+04  0.28465423280E+04  0.50400001928E-02 0.  1.
       -1   -1    0    0    0  501  0.00000000000E+00  0.00000000000E+00 -0.12698945539E+04  0.12698945539E+04  0.50400001928E-02 0. -1.
    10030    2    1    2    0    0  0.00000000000E+00  0.00000000000E+00  0.15766477742E+04  0.41164368819E+04  0.38025299998E+04 0.  0.
        5    1    3    3  502    0  0.11070383672E+04 -0.13380137410E+04  0.16261463436E+04  0.23791151167E+04  0.46999998093E+01 0. -1.
       -5    1    3    3    0  502 -0.11070383672E+04  0.13380137410E+04 -0.49498569446E+02  0.17373217652E+04  0.46999998093E+01 0.  1.
</event>
<event>
 5   0  0.1628250E-08  0.3807597E+04  0.7818609E-02  0.8044526E-01
        1   -1    0    0  501    0  0.00000000000E+00  0.00000000000E+00  0.27254616399E+04  0.27254616399E+04  0.50400001928E-02 0.  1.
       -1   -1    0    0    0  501  0.00000000000E+00  0.00000000000E+00 -0.13298479275E+04  0.13298479275E+04  0.50400001928E-02 0. -1.
    10030    2    1    2    0    0  0.00000000000E+00  0.00000000000E+00  0.13956137124E+04  0.40553095673E+04  0.38075974121E+04 0.  0.
        1    1    3    3  502    0 -0.74327990346E+03 -0.15546760898E+04  0.15597579344E+04  0.23242907677E+04  0.50400001928E-02 0.  1.
       -1    1    3    3    0  502  0.74327990346E+03  0.15546760898E+04 -0.16414422197E+03  0.17310187996E+04  0.50400001928E-02 0. -1.
</event>
<event>
 5   0  0.1628250E-08  0.3800431E+04  0.7818609E-02  0.8046062E-01
       -1   -1    0    0    0  501  0.00000000000E+00  0.00000000000E+00  0.26908895002E+04  0.26908895002E+04  0.50400001928E-02 0. -1.
        1   -1    0    0  501    0  0.00000000000E+00  0.00000000000E+00 -0.13418681645E+04  0.13418681645E+04  0.50400001928E-02 0.  1.
    10030    2    1    2    0    0  0.00000000000E+00  0.00000000000E+00  0.13490213357E+04  0.40327576647E+04  0.38004310043E+04 0.  0.
        1    1    3    3  502    0 -0.11468080567E+04 -0.66162584904E+03  0.21208846874E+04  0.25002138589E+04  0.50400001928E-02 0. -1.
       -1    1    3    3    0  502  0.11468080567E+04  0.66162584904E+03 -0.77186335172E+03  0.15325438058E+04  0.50400001928E-02 0.  1.
</event>
<event>
 5   0  0.5207474E-08  0.3801462E+04  0.7818609E-02  0.8045841E-01
       -2   -1    0    0    0  501  0.00000000000E+00  0.00000000000E+00  0.17129520539E+04  0.17129520539E+04  0.25500000920E-02 0.  1.
        2   -1    0    0  501    0  0.00000000000E+00  0.00000000000E+00 -0.21090951323E+04  0.21090951323E+04  0.25500000920E-02 0. -1.
    10030    2    1    2    0    0  0.00000000000E+00  0.00000000000E+00 -0.39614307838E+03  0.38220471863E+04  0.38014622654E+04 0.  0.
        4    1    3    3  502    0  0.30619726298E+03  0.18640331901E+04  0.13784284822E+02  0.18890654084E+04  0.12699999809E+01 0.  1.
       -4    1    3    3    0  502 -0.30619726298E+03 -0.18640331901E+04 -0.40992736320E+03  0.19329817779E+04  0.12699999809E+01 0. -1.
</event>
<event>
 5   0  0.1628250E-08  0.3805235E+04  0.7818609E-02  0.8045032E-01
        1   -1    0    0  501    0  0.00000000000E+00  0.00000000000E+00  0.24366255474E+04  0.24366255474E+04  0.50400001928E-02 0. -1.
       -1   -1    0    0    0  501  0.00000000000E+00  0.00000000000E+00 -0.14856421846E+04  0.14856421846E+04  0.50400001928E-02 0.  1.
    10030    2    1    2    0    0  0.00000000000E+00  0.00000000000E+00  0.95098336283E+03  0.39222677320E+04  0.38052351839E+04 0.  0.
        4    1    3    3  502    0  0.14138941180E+04 -0.16676532173E+03  0.17764690188E+04  0.22765656233E+04  0.12699999809E+01 0. -1.
       -4    1    3    3    0  502 -0.14138941180E+04  0.16676532173E+03 -0.82548565601E+03  0.16457021087E+04  0.12699999809E+01 0.  1.
</event>
<event>
 5   0  0.1628250E-08  0.3806061E+04  0.7818609E-02  0.8044855E-01
       -1   -1    0    0    0  501  0.00000000000E+00  0.00000000000E+00  0.19167590858E+04  0.19167590858E+04  0.50400001928E-02 0.  1.
        1   -1    0    0  501    0  0.00000000000E+00  0.00000000000E+00 -0.18894006445E+04  0.18894006445E+04  0.50400001928E-02 0. -1.
    10030    2    1    2    0    0  0.00000000000E+00  0.00000000000E+00  0.27358441276E+02  0.38061597303E+04  0.38060614037E+04 0.  0.
        1    1    3    3  502    0  0.15346837820E+04  0.98421475072E+03 -0.53185560154E+03  0.18991585945E+04  0.50400001928E-02 0. -1.
       -1    1    3    3    0  502 -0.15346837820E+04 -0.98421475072E+03  0.55921404282E+03  0.19070011358E+04  0.50400001928E-02 0.  1.
</event>
<event>
 5   0  0.1628473E-08  0.3792563E+04  0.7818609E-02  0.8047753E-01
        1   -1    0    0  501    0  0.00000000000E+00  0.00000000000E+00  0.29417083872E+04  0.29417083872E+04  0.50400001928E-02 0. -1.
       -1   -1    0    0    0  501  0.00000000000E+00  0.00000000000E+00 -0.12223795475E+04  0.12223795475E+04  0.50400001928E-02 0.  1.
    10030    2    1    2    0    0  0.00000000000E+00  0.00000000000E+00  0.17193288397E+04  0.41640879347E+04  0.37925633375E+04 0.  0.
        3    1    3    3  502    0  0.15456467805E+04 -0.21006808090E+03 -0.32426765158E+03  0.15932049739E+04  0.10100000352E+00 0.  1.
       -3    1    3    3    0  502 -0.15456467805E+04  0.21006808090E+03  0.20435964913E+04  0.25708829608E+04  0.10100000352E+00 0. -1.
</event>
<event>
 5   0  0.1628250E-08  0.3796750E+04  0.7818609E-02  0.8046853E-01
       -1   -1    0    0    0  501  0.00000000000E+00  0.00000000000E+00  0.19070860218E+04  0.19070860218E+04  0.50400001928E-02 0.  1.
        1   -1    0    0  501    0  0.00000000000E+00  0.00000000000E+00 -0.18897036649E+04  0.18897036650E+04  0.50400001928E-02 0. -1.
    10030    2    1    2    0    0  0.00000000000E+00  0.00000000000E+00  0.17382356850E+02  0.37967896868E+04  0.37967498968E+04 0.  0.
        5    1    3    3  502    0 -0.11202473408E+04  0.13052360763E+04  0.81194926829E+03  0.19020722972E+04  0.46999998093E+01 0.  1.
       -5    1    3    3    0  502  0.11202473408E+04 -0.13052360763E+04 -0.79456691144E+03  0.18947173896E+04  0.46999998093E+01 0. -1.
</event>
<event>
 5   0  0.5207474E-08  0.3818562E+04  0.7818609E-02  0.8042183E-01
        2   -1    0    0  501    0  0.00000000000E+00  0.00000000000E+00  0.25442996261E+04  0.25442996261E+04  0.25500000920E-02 0.  1.
       -2   -1    0    0    0  501  0.00000000000E+00  0.00000000000E+00 -0.14327532032E+04  0.14327532032E+04  0.25500000920E-02 0. -1.
    10030    2    1    2    0    0  0.00000000000E+00  0.00000000000E+00  0.11115464228E+04  0.39770528293E+04  0.38185617393E+04 0.  0.
        4    1    3    3  502    0 -0.10381396268E+04 -0.58369192912E+03 -0.99845223184E+03  0.15541359738E+04  0.12699999809E+01 0. -1.
       -4    1    3    3    0  502  0.10381396268E+04  0.58369192912E+03  0.21099986547E+04  0.24229168555E+04  0.12699999809E+01 0.  1.
</event>
<event>
 5   0  0.1666051E-08  0.3800175E+04  0.7818609E-02  0.8046117E-01
        1   -1    0    0  501    0  0.00000000000E+00  0.00000000000E+00  0.26075848419E+04  0.26075848419E+04  0.50400001928E-02 0. -1.
       -1   -1    0    0    0  501  0.00000000000E+00  0.00000000000E+00 -0.13845500471E+04  0.13845500471E+04  0.50400001928E-02 0.  1.
    10030    2    1    2    0    0  0.00000000000E+00  0.00000000000E+00  0.12230347947E+04  0.39921348890E+04  0.38001745832E+04 0.  0.
        2    1    3    3  502    0  0.15419915504E+04 -0.47596278915E+03 -0.44217083787E+03  0.16732583686E+04  0.25500000920E-02 0.  1.
       -2    1    3    3    0  502 -0.15419915504E+04  0.47596278915E+03  0.16652056326E+04  0.23188765204E+04  0.25500000920E-02 0. -1.
</event>
<event>
 5   0  0.1628250E-08  0.3798654E+04  0.7818609E-02  0.8046444E-01
       -1   -1    0    0    0  501  0.00000000000E+00  0.00000000000E+00  0.21487114087E+04  0.21487114087E+04  0.50400001928E-02 0.  1.
        1   -1    0    0  501    0  0.00000000000E+00  0.00000000000E+00 -0.16788866503E+04  0.16788866503E+04  0.50400001928E-02 0. -1.
    10030    2    1    2    0    0  0.00000000000E+00  0.00000000000E+00  0.46982475848E+03  0.38275980590E+04  0.37986539192E+04 0.  0.
        4    1    3    3  502    0 -0.91726692432E+03 -0.93747563906E+03 -0.11493097982E+04  0.17438904236E+04  0.12699999809E+01 0. -1.
       -4    1    3    3    0  502  0.91726692432E+03  0.93747563906E+03  0.16191345567E+04  0.20837076354E+04  0.12699999809E+01 0.  1.
</event>
<event>
 5   0  0.5207474E-08  0.3806907E+04  0.7818609E-02  0.8044674E-01
       -2   -1    0    0    0  501  0.00000000000E+00  0.00000000000E+00  0.21997910729E+04  0.21997910729E+04  0.25500000920E-02 0. -1.
        2   -1    0    0  501    0  0.00000000000E+00  0.00000000000E+00 -0.16470364130E+04  0.16470364130E+04  0.25500000920E-02 0.  1.
    10030    2    1    2    0    0  0.00000000000E+00  0.00000000000E+00  0.55275465985E+03  0.38468274859E+04  0.38069074053E+04 0.  0.
        4    1    3    3  502    0  0.86591681941E+03  0.85301115409E+03  0.17565566507E+04  0.21361022557E+04  0.12699999809E+01 0. -1.
       -4    1    3    3    0  502 -0.86591681941E+03 -0.85301115409E+03 -0.12038019908E+04  0.17107252302E+04  0.12699999809E+01 0.  1.
</event>
<event>
 5   0  0.5159761E-08  0.3779709E+04  0.7818609E-02  0.8050523E-01
        2   -1    0    0  501    0  0.00000000000E+00  0.00000000000E+00  0.14525698612E+04  0.14525698612E+04  0.25500000920E-02 0.  1.
       -2   -1    0    0    0  501  0.00000000000E+00  0.00000000000E+00 -0.24587802627E+04  0.24587802627E+04  0.25500000920E-02 0. -1.
    10030    2    1    2    0    0  0.00000000000E+00  0.00000000000E+00 -0.10062104016E+04  0.39113501239E+04  0.37797090390E+04 0.  0.
        5    1    3    3  502    0  0.12402538564E+03 -0.11481513586E+04 -0.20511662993E+04  0.23539199468E+04  0.46999998093E+01 0. -1.
       -5    1    3    3    0  502 -0.12402538564E+03  0.11481513586E+04  0.10449558977E+04  0.15574301771E+04  0.46999998093E+01 0.  1.
</event>
<event>
 5   0  0.1628250E-08  0.3800564E+04  0.7818609E-02  0.8046034E-01
        1   -1    0    0  501    0  0.00000000000E+00  0.00000000000E+00  0.14868418081E+04  0.14868418081E+04  0.50400001928E-02 0.  1.
       -1   -1    0    0    0  501  0.00000000000E+00  0.00000000000E+00 -0.24286861350E+04  0.24286861350E+04  0.50400001928E-02 0. -1.
    10030    2    1    2    0    0  0.00000000000E+00  0.00000000000E+00 -0.94184432688E+03  0.39155279431E+04  0.38005642130E+04 0.  0.
        4    1    3    3  502    0  0.14188667355E+04 -0.93177223276E+03 -0.13509793710E+04  0.21694536594E+04  0.12699999809E+01 0.  1.
       -4    1    3    3    0  502 -0.14188667355E+04  0.93177223276E+03  0.40913504409E+03  0.17460742836E+04  0.12699999809E+01 0. -1.
</event>
<event>
 5   0  0.5207474E-08  0.3809093E+04  0.7818609E-02  0.8044206E-01
       -2   -1    0    0    0  501  0.00000000000E+00  0.00000000000E+00  0.24750956726E+04  0.24750956726E+04  0.25500000920E-02 0.  1.
        2   -1    0    0  501    0  0.00000000000E+00  0.00000000000E+00 -0.14655181894E+04  0.14655181894E+04  0.25500000920E-02 0. -1.
    10030    2    1    2    0    0  0.00000000000E+00  0.00000000000E+00  0.10095774832E+04  0.39406138620E+04  0.38090931880E+04 0.  0.
        4    1    3    3  502    0  0.13670545649E+04  0.94358408290E+03 -0.45910445503E+03  0.17233593991E+04  0.12699999809E+01 0.  1.
       -4    1    3    3    0  502 -0.13670545649E+04 -0.94358408290E+03  0.14686819382E+04  0.22172544629E+04  0.12699999809E+01 0. -1.
</event>
<event>
 5   0  0.5086209E-08  0.3799279E+04  0.7818609E-02  0.8046310E-01
       -2   -1    0    0    0  501  0.00000000000E+00  0.00000000000E+00  0.16944915331E+04  0.16944915331E+04  0.25500000920E-02 0.  1.
        2   -1    0    0  501    0  0.00000000000E+00  0.00000000000E+00 -0.21296240210E+04  0.21296240210E+04  0.25500000920E-02 0. -1.
    10030    2    1    2    0    0  0.00000000000E+00  0.00000000000E+00 -0.43513248793E+03  0.38241155541E+04  0.37992788117E+04 0.  0.
        3    1    3    3  502    0 -0.78727374897E+03 -0.31767906120E+03 -0.19280606675E+04  0.21066888450E+04  0.10100000352E+00 0. -1.
       -3    1    3    3    0  502  0.78727374897E+03  0.31767906120E+03  0.14929281796E+04  0.17174267091E+04  0.10100000352E+00 0.  1.
</event>
<event>
 5   0  0.1628250E-08  0.3797651E+04  0.7818609E-02  0.8046659E-01
        1   -1    0    0  501    0  0.00000000000E+00  0.00000000000E+00  0.19850769205E+04  0.19850769205E+04  0.50400001928E-02 0.  1.
       -1   -1    0    0    0  501  0.00000000000E+00  0.00000000000E+00 -0.18163220781E+04  0.18163220781E+04  0.50400001928E-02 0. -1.
    10030    2    1    2    0    0  0.00000000000E+00  0.00000000000E+00  0.16875484248E+03  0.38013989986E+04  0.37976513992E+04 0.  0.
        5    1    3    3  502    0  0.63482560335E+03  0.17862357709E+04  0.19345821824E+03  0.19055419041E+04  0.46999998093E+01 0.  1.
       -5    1    3    3    0  502 -0.63482560335E+03 -0.17862357709E+04 -0.24703375756E+02  0.18958570945E+04  0.46999998093E+01 0. -1.
</event>
<event>
 5   0  0.5140842E-08  0.3785399E+04  0.7818609E-02  0.8049295E-01
        2   -1    0    0  501    0  0.00000000000E+00  0.00000000000E+00  0.28501091436E+04  0.28501091436E+04  0.25500000920E-02 0.  1.
       -2   -1    0    0    0  501  0.00000000000E+00  0.00000000000E+00 -0.12569033640E+04  0.12569033640E+04  0.25500000920E-02 0. -1.
    10030    2    1    2    0    0  0.00000000000E+00  0.00000000000E+00  0.15932057797E+04  0.41070125076E+04  0.37853991971E+04 0.  0.
        2    1    3    3  502    0  0.18675444143E+03  0.15869450830E+04  0.18972052429E+04  0.24804555331E+04  0.25500000920E-02 0.  1.
       -2    1    3    3    0  502 -0.18675444143E+03 -0.15869450830E+04 -0.30399946326E+03  0.16265569745E+04  0.25500000920E-02 0. -1.
</event>
<event>
 5   0  0.5140842E-08  0.3820637E+04  0.7818609E-02  0.8041741E-01
       -2   -1    0    0    0  501  0.00000000000E+00  0.00000000000E+00  0.25745306680E+04  0.25745306680E+04  0.25500000920E-02 0. -1.
        2   -1    0    0  501    0  0.00000000000E+00  0.00000000000E+00 -0.14174688336E+04  0.14174688336E+04  0.25500000920E-02 0.  1.
    10030    2    1    2    0    0  0.00000000000E+00  0.00000000000E+00  0.11570618344E+04  0.39919995015E+04  0.38206371107E+04 0.  0.
        2    1    3    3  502    0 -0.32055207945E+03 -0.14736808942E+04  0.18036515893E+04  0.23510950787E+04  0.25500000920E-02 0. -1.
       -2    1    3    3    0  502  0.32055207945E+03  0.14736808942E+04 -0.64658975486E+03  0.16409044228E+04  0.25500000920E-02 0.  1.
</event>
<event>
 5   0  0.1628473E-08  0.3802715E+04  0.7818609E-02  0.8045572E-01
        1   -1    0    0  501    0  0.00000000000E+00  0.00000000000E+00  0.21007481333E+04  0.21007481333E+04  0.50400001928E-02 0.  1.
       -1   -1    0    0    0  501  0.00000000000E+00  0.00000000000E+00 -0.17208918678E+04  0.17208918678E+04  0.50400001928E-02 0. -1.
    10030    2    1    2    0    0  0.00000000000E+00  0.00000000000E+00  0.37985626547E+03  0.38216400011E+04  0.38027150190E+04 0.  0.
        3    1    3    3  502    0  0.15899565363E+04  0.10409901986E+04  0.13015112666E+03  0.19048783969E+04  0.10100000352E+00 0.  1.
       -3    1    3    3    0  502 -0.15899565363E+04 -0.10409901986E+04  0.24970513881E+03  0.19167616042E+04  0.10100000352E+00 0. -1.
</event>
<event>
 5   0  0.5086209E-08  0.3782287E+04  0.7818609E-02  0.8049967E-01
       -2   -1    0    0    0  501  0.00000000000E+00  0.00000000000E+00  0.15558901812E+04  0.15558901812E+04  0.25500000920E-02 0.  1.
        2   -1    0    0  501    0  0.00000000000E+00  0.00000000000E+00 -0.22986347914E+04  0.22986347914E+04  0.25500000920E-02 0. -1.
    10030    2    1    2    0    0  0.00000000000E+00  0.00000000000E+00 -0.74274461012E+03  0.38545249726E+04  0.37822867697E+04 0.  0.
        3    1    3    3  502    0 -0.97664539968E+03 -0.10597333414E+04 -0.16193224011E+04  0.21677352330E+04  0.10100000352E+00 0. -1.
       -3    1    3    3    0  502  0.97664539968E+03  0.10597333414E+04  0.87657779102E+03  0.16867897396E+04  0.10100000352E+00 0.  1.
</event>
<event>
 5   0  0.1628250E-08  0.3808489E+04  0.7818609E-02  0.8044336E-01
        1   -1    0    0  501    0  0.00000000000E+00  0.00000000000E+00  0.19661858046E+04  0.19661858046E+04  0.50400001928E-02 0. -1.
       -1   -1    0    0    0  501  0.00000000000E+00  0.00000000000E+00 -0.18442545534E+04  0.18442545534E+04  0.50400001928E-02 0.  1.
    10030    2    1    2    0    0  0.00000000000E+00  0.00000000000E+00  0.12193125124E+03  0.38104403581E+04  0.38084890038E+04 0.  0.
        4    1    3    3  502    0 -0.10289998614E+04 -0.12949024790E+04  0.10051293628E+04  0.19354327149E+04  0.12699999809E+01 0. -1.
       -4    1    3    3    0  502  0.10289998614E+04  0.12949024790E+04 -0.88319811157E+03  0.18750076432E+04  0.12699999809E+01 0.  1.
</event>
<event>
 5   0  0.1628473E-08  0.3750819E+04  0.7818609E-02  0.8056792E-01
        1   -1    0    0  501    0  0.00000000000E+00  0.00000000000E+00  0.16195033736E+04  0.16195033736E+04  0.50400001928E-02 0. -1.
       -1   -1    0    0    0  501  0.00000000000E+00  0.00000000000E+00 -0.21717522072E+04  0.21717522072E+04  0.50400001928E-02 0.  1.
    10030    2    1    2    0    0  0.00000000000E+00  0.00000000000E+00 -0.55224883365E+03  0.37912555808E+04  0.37508185913E+04 0.  0.
        3    1    3    3  502    0  0.16237244681E+04 -0.28200803585E+03 -0.11808440440E+04  0.20274127224E+04  0.10100000352E+00 0. -1.
       -3    1    3    3    0  502 -0.16237244681E+04  0.28200803585E+03  0.62859521035E+03  0.17638428584E+04  0.10100000352E+00 0.  1.
</event>
<event>
 5   0  0.5140842E-08  0.3799230E+04  0.7818609E-02  0.8046320E-01
        2   -1    0    0  501    0  0.00000000000E+00  0.00000000000E+00  0.15009729383E+04  0.15009729383E+04  0.25500000920E-02 0.  1.
       -2   -1    0    0    0  501  0.00000000000E+00  0.00000000000E+00 -0.24041320934E+04  0.24041320934E+04  0.25500000920E-02 0. -1.
    10030    2    1    2    0    0  0.00000000000E+00  0.00000000000E+00 -0.90315915506E+03  0.39051050317E+04  0.37992300338E+04 0.  0.
        2    1    3    3  502    0  0.62452226127E+03  0.14052427418E+04  0.69475859319E+03  0.16874313974E+04  0.25500000920E-02 0.  1.
       -2    1    3    3    0  502 -0.62452226127E+03 -0.14052427418E+04 -0.15979177483E+04  0.22176736343E+04  0.25500000920E-02 0. -1.
</event>
<event>
 5   0  0.1628250E-08  0.3770073E+04  0.7818609E-02  0.8052608E-01
       -1   -1    0    0    0  501  0.00000000000E+00  0.00000000000E+00  0.99549935982E+03  0.99549935983E+03  0.50400001928E-02 0.  1.
        1   -1    0    0  501    0  0.00000000000E+00  0.00000000000E+00 -0.35694281819E+04  0.35694281819E+04  0.50400001928E-02 0. -1.
    10030    2    1    2    0    0  0.00000000000E+00  0.00000000000E+00 -0.25739288221E+04  0.45649275418E+04  0.37700734582E+04 0.  0.
        5    1    3    3  502    0  0.59728537424E+03 -0.17814469197E+04 -0.11031792033E+04  0.21788367058E+04  0.46999998093E+01 0.  1.
       -5    1    3    3    0  502 -0.59728537424E+03  0.17814469197E+04 -0.14707496188E+04  0.23860908359E+04  0.46999998093E+01 0. -1.
</event>
<event>
 5   0  0.5207474E-08  0.3798232E+04  0.7818609E-02  0.8046534E-01
        2   -1    0    0  501    0  0.00000000000E+00  0.00000000000E+00  0.20871879853E+04  0.20871879853E+04  0.25500000920E-02 0.  1.
       -2   -1    0    0    0  501  0.00000000000E+00  0.00000000000E+00 -0.17279906460E+04  0.17279906460E+04  0.25500000920E-02 0. -1.
    10030    2    1    2    0    0  0.00000000000E+00  0.00000000000E+00  0.35919733929E+03  0.38151786313E+04  0.37982318598E+04 0.  0.
        4    1    3    3  502    0 -0.52091509191E+03  0.53963562441E+03 -0.15729152479E+04  0.17425909245E+04  0.12699999809E+01 0. -1.
       -4    1    3    3    0  502  0.52091509191E+03 -0.53963562441E+03  0.19321125872E+04  0.20725877069E+04  0.12699999809E+01 0.  1.
</event>
<event>
 5   0  0.5086209E-08  0.3804426E+04  0.7818609E-02  0.8045206E-01
       -2   -1    0    0    0  501  0.00000000000E+00  0.00000000000E+00  0.22033210615E+04  0.22033210615E+04  0.25500000920E-02 0.  1.
        2   -1    0    0  501    0  0.00000000000E+00  0.00000000000E+00 -0.16422543635E+04  0.16422543635E+04  0.25500000920E-02 0. -1.
    10030    2    1    2    0    0  0.00000000000E+00  0.00000000000E+00  0.56106669800E+03  0.38455754250E+04  0.38044256479E+04 0.  0.
        3    1    3    3  502    0 -0.31927224478E+03 -0.56935396586E+03 -0.15254972173E+04  0.16592891475E+04  0.10100000352E+00 0. -1.
       -3    1    3    3    0  502  0.31927224478E+03  0.56935396586E+03  0.20865639153E+04  0.21862862776E+04  0.10100000352E+00 0.  1.
</event>
<event>
 5   0  0.5159761E-08  0.3796184E+04  0.7818609E-02  0.8046974E-01
        2   -1    0    0  501    0  0.00000000000E+00  0.00000000000E+00  0.11302558344E+04  0.11302558344E+04  0.25500000920E-02 0.  1.
       -2   -1    0    0    0  501  0.00000000000E+00  0.00000000000E+00 -0.31875550321E+04  0.31875550321E+04  0.25500000920E-02 0. -1.
    10030    2    1    2    0    0  0.00000000000E+00  0.00000000000E+00 -0.20572991977E+04  0.43178108665E+04  0.37961837008E+04 0.  0.
        5    1    3    3  502    0 -0.56475846793E+03 -0.11201377549E+04  0.59153647650E+03  0.13869384306E+04  0.46999998093E+01 0.  1.
       -5    1    3    3    0  502  0.56475846793E+03  0.11201377549E+04 -0.26488356742E+04  0.29308724360E+04  0.46999998093E+01 0. -1.
</event>
<event>
 5   0  0.1628250E-08  0.3801793E+04  0.7818609E-02  0.8045770E-01
       -1   -1    0    0    0  501  0.00000000000E+00  0.00000000000E+00  0.19870832275E+04  0.19870832275E+04  0.50400001928E-02 0. -1.
        1   -1    0    0  501    0  0.00000000000E+00  0.00000000000E+00 -0.18184482463E+04  0.18184482463E+04  0.50400001928E-02 0.  1.
    10030    2    1    2    0    0  0.00000000000E+00  0.00000000000E+00  0.16863498118E+03  0.38055314739E+04  0.38017932666E+04 0.  0.
        4    1    3    3  502    0  0.32064542916E+03  0.15575188162E+04  0.11268443553E+04  0.19489633573E+04  0.12699999809E+01 0. -1.
       -4    1    3    3    0  502 -0.32064542916E+03 -0.15575188162E+04 -0.95820937409E+03  0.18565681166E+04  0.12699999809E+01 0.  1.
</event>
<event>
 5   0  0.1628473E-08  0.3806993E+04  0.7818609E-02  0.8044656E-01
        1   -1    0    0  501    0  0.00000000000E+00  0.00000000000E+00  0.27951696229E+04  0.27951696229E+04  0.50400001928E-02 0.  1.
       -1   -1    0    0    0  501  0.00000000000E+00  0.00000000000E+00 -0.12962712396E+04  0.12962712396E+04  0.50400001928E-02 0. -1.
    10030    2    1    2    0    0  0.00000000000E+00  0.00000000000E+00  0.14988983833E+04  0.40914408625E+04  0.38069925095E+04 0.  0.
        3    1    3    3  502    0 -0.11268761446E+04 -0.42633209054E+03  0.23332227218E+04  0.26259354860E+04  0.10100000352E+00 0.  1.
       -3    1    3    3    0  502  0.11268761446E+04  0.42633209054E+03 -0.83432433845E+03  0.14655053765E+04  0.10100000352E+00 0. -1.
</event>
<event>
 5   0  0.1628250E-08  0.3804598E+04  0.7818609E-02  0.8045169E-01
       -1   -1    0    0    0  501  0.00000000000E+00  0.00000000000E+00  0.23056626067E+04  0.23056626067E+04  0.50400001928E-02 0. -1.
        1   -1    0    0  501    0  0.00000000000E+00  0.00000000000E+00 -0.15695019336E+04  0.15695019336E+04  0.50400001928E-02 0.  1.
    10030    2    1    2    0    0  0.00000000000E+00  0.00000000000E+00  0.73616067317E+03  0.38751645403E+04  0.38045982282E+04 0.  0.
        5    1    3    3  502    0  0.13754620406E+04  0.18051701736E+03  0.16938513074E+04  0.21894374985E+04  0.46999998093E+01 0. -1.
       -5    1    3    3    0  502 -0.13754620406E+04 -0.18051701736E+03 -0.95769063419E+03  0.16857270418E+04  0.46999998093E+01 0.  1.
</event>
<event>
 5   0  0.5207474E-08  0.3803733E+04  0.7818609E-02  0.8045354E-01
       -2   -1    0    0    0  501  0.00000000000E+00  0.00000000000E+00  0.21580273855E+04  0.21580273855E+04  0.25500000920E-02 0.  1.
        2   -1    0    0  501    0  0.00000000000E+00  0.00000000000E+00 -0.16761118616E+04  0.16761118616E+04  0.25500000920E-02 0. -1.
    10030    2    1    2    0    0  0.00000000000E+00  0.00000000000E+00  0.48191552389E+03  0.38341392471E+04  0.38037325345E+04 0.  0.
        4    1    3    3  502    0 -0.61738164139E+03  0.11051970000E+04  0.16716250778E+04  0.20968911544E+04  0.12699999809E+01 0.  1.
       -4    1    3    3    0  502  0.61738164139E+03 -0.11051970000E+04 -0.11897095539E+04  0.17372480927E+04  0.12699999809E+01 0. -1.
</event>
<event>
 5   0  0.5147582E-08  0.3804848E+04  0.7818609E-02  0.8045115E-01
       -2   -1    0    0    0  501  0.00000000000E+00  0.00000000000E+00  0.19609011238E+04  0.19609011238E+04  0.25500000920E-02 0. -1.
        2   -1    0    0  501    0  0.00000000000E+00  0.00000000000E+00 -0.18456910559E+04  0.18456910559E+04  0.25500000920E-02 0.  1.
    10030    2    1    2    0    0  0.00000000000E+00  0.00000000000E+00  0.11521006796E+03  0.38065921797E+04  0.38048483101E+04 0.  0.
        1    1    3    3  502    0 -0.15165272387E+04  0.80939288231E+03  0.87299143740E+03  0.19279745210E+04  0.50400001928E-02 0. -1.
       -1    1    3    3    0  502  0.15165272387E+04 -0.80939288231E+03 -0.75778136943E+03  0.18786176587E+04  0.50400001928E-02 0.  1.
</event>
<event>
 5   0  0.5159761E-08  0.3819320E+04  0.7818609E-02  0.8042022E-01
       -2   -1    0    0    0  501  0.00000000000E+00  0.00000000000E+00  0.19439599516E+04  0.19439599516E+04  0.25500000920E-02 0. -1.
        2   -1    0    0  501    0  0.00000000000E+00  0.00000000000E+00 -0.18759650169E+04  0.18759650169E+04  0.25500000920E-02 0.  1.
    10030    2    1    2    0    0  0.00000000000E+00  0.00000000000E+00  0.67994934690E+02  0.38199249686E+04  0.38193197633E+04 0.  0.
        5    1    3    3  502    0  0.16069029757E+04 -0.56171173036E+02 -0.99645041109E+03  0.18916204392E+04  0.46999998093E+01 0.  1.
       -5    1    3    3    0  502 -0.16069029757E+04  0.56171173036E+02  0.10644453458E+04  0.19283045294E+04  0.46999998093E+01 0. -1.
</event>
<event>
 5   0  0.5207474E-08  0.3801870E+04  0.7818609E-02  0.8045754E-01
       -2   -1    0    0    0  501  0.00000000000E+00  0.00000000000E+00  0.31546918213E+04  0.31546918213E+04  0.25500000920E-02 0.  1.
        2   -1    0    0  501    0  0.00000000000E+00  0.00000000000E+00 -0.11454539972E+04  0.11454539972E+04  0.25500000920E-02 0. -1.
    10030    2    1    2    0    0  0.00000000000E+00  0.00000000000E+00  0.20092378241E+04  0.43001458185E+04  0.38018702537E+04 0.  0.
        4    1    3    3  502    0  0.85481218120E+03 -0.16859755565E+04  0.77746064650E+03  0.20439334901E+04  0.12699999809E+01 0.  1.
       -4    1    3    3    0  502 -0.85481218120E+03  0.16859755565E+04  0.12317771776E+04  0.22562123283E+04  0.12699999809E+01 0. -1.
</event>
<event>
 5   0  0.5140842E-08  0.3803490E+04  0.7818609E-02  0.8045406E-01
       -2   -1    0    0    0  501  0.00000000000E+00  0.00000000000E+00  0.17577379427E+04  0.17577379427E+04  0.25500000920E-02 0. -1.
        2   -1    0    0  501    0  0.00000000000E+00  0.00000000000E+00 -0.20575502999E+04  0.20575502999E+04  0.25500000920E-02 0.  1.
    10030    2    1    2    0    0  0.00000000000E+00  0.00000000000E+00 -0.29981235724E+03  0.38152882426E+04  0.38034900979E+04 0.  0.
        2    1    3    3  502    0 -0.14533568512E+03  0.15622663034E+04  0.92806010514E+03  0.18229355510E+04  0.25500000920E-02 0. -1.
       -2    1    3    3    0  502  0.14533568512E+03 -0.15622663034E+04 -0.12278724624E+04  0.19923526917E+04  0.25500000920E-02 0.  1.
</event>
<event>
 5   0  0.5159761E-08  0.3799324E+04  0.7818609E-02  0.8046300E-01
        2   -1    0    0  501    0  0.00000000000E+00  0.00000000000E+00  0.12538031598E+04  0.12538031598E+04  0.25500000920E-02 0. -1.
       -2   -1    0    0    0  501  0.00000000000E+00  0.00000000000E+00 -0.28782149003E+04  0.28782149003E+04  0.25500000920E-02 0.  1.
    10030    2    1    2    0    0  0.00000000000E+00  0.00000000000E+00 -0.16244117405E+04  0.41320180601E+04  0.37993235906E+04 0.  0.
        5    1    3    3  502    0  0.78813788627E+03 -0.17278017950E+04 -0.86359240315E+03  0.20862105118E+04  0.46999998093E+01 0.  1.
       -5    1    3    3    0  502 -0.78813788627E+03  0.17278017950E+04 -0.76081933734E+03  0.20458075483E+04  0.46999998093E+01 0. -1.
</event>
<event>
 5   0  0.5159761E-08  0.3801894E+04  0.7818609E-02  0.8045749E-01
       -2   -1    0    0    0  501  0.00000000000E+00  0.00000000000E+00  0.16632781983E+04  0.16632781983E+04  0.25500000920E-02 0.  1.
        2   -1    0    0  501    0  0.00000000000E+00  0.00000000000E+00 -0.21725764396E+04  0.21725764396E+04  0.25500000920E-02 0. -1.
    10030    2    1    2    0    0  0.00000000000E+00  0.00000000000E+00 -0.50929824122E+03  0.38358546379E+04  0.38018937524E+04 0.  0.
        5    1    3    3  502    0 -0.89980357778E+03  0.13855786019E+04 -0.12033153672E+04  0.20438846600E+04  0.46999998093E+01 0.  1.
       -5    1    3    3    0  502  0.89980357778E+03 -0.13855786019E+04  0.69401712594E+03  0.17919699779E+04  0.46999998093E+01 0. -1.
</event>
<event>
 5   0  0.1666051E-08  0.3806372E+04  0.7818609E-02  0.8044789E-01
       -1   -1    0    0    0  501  0.00000000000E+00  0.00000000000E+00  0.14535342184E+04  0.14535342184E+04  0.50400001928E-02 0.  1.
        1   -1    0    0  501    0  0.00000000000E+00  0.00000000000E+00 -0.24919373469E+04  0.24919373469E+04  0.50400001928E-02 0. -1.
    10030    2    1    2    0    0  0.00000000000E+00  0.00000000000E+00 -0.10384031285E+04  0.39454715653E+04  0.38063716076E+04 0.  0.
        2    1    3    3  502    0  0.11727424448E+04 -0.34408732053E+03 -0.20314177284E+04  0.23707338343E+04  0.25500000920E-02 0. -1.
       -2    1    3    3    0  502 -0.11727424448E+04  0.34408732053E+03  0.99301459990E+03  0.15747377310E+04  0.25500000920E-02 0.  1.
</event>
<event>
 5   0  0.1666051E-08  0.3798600E+04  0.7818609E-02  0.8046455E-01
        1   -1    0    0  501    0  0.00000000000E+00  0.00000000000E+00  0.17173815302E+04  0.17173815302E+04  0.50400001928E-02 0. -1.
       -1   -1    0    0    0  501  0.00000000000E+00  0.00000000000E+00 -0.21004885583E+04  0.21004885583E+04  0.50400001928E-02 0.  1.
    10030    2    1    2    0    0  0.00000000000E+00  0.00000000000E+00 -0.38310702814E+03  0.38178700885E+04  0.37985998759E+04 0.  0.
        2    1    3    3  502    0  0.96093568353E+02  0.10299592525E+04  0.14094145523E+04  0.17482847068E+04  0.25500000920E-02 0. -1.
       -2    1    3    3    0  502 -0.96093568353E+02 -0.10299592525E+04 -0.17925215804E+04  0.20695853817E+04  0.25500000920E-02 0.  1.
</event>
<event>
 5   0  0.1666051E-08  0.3717740E+04  0.7818609E-02  0.8064042E-01
        1   -1    0    0  501    0  0.00000000000E+00  0.00000000000E+00  0.10288260742E+04  0.10288260742E+04  0.50400001928E-02 0.  1.
       -1   -1    0    0    0  501  0.00000000000E+00  0.00000000000E+00 -0.33585834487E+04  0.33585834487E+04  0.50400001928E-02 0. -1.
    10030    2    1    2    0    0  0.00000000000E+00  0.00000000000E+00 -0.23297573745E+04  0.43874095230E+04  0.37177402946E+04 0.  0.
        2    1    3    3  502    0 -0.15160012596E+04  0.93330164269E+03 -0.17960943530E+04  0.25288864546E+04  0.25500000920E-02 0.  1.
       -2    1    3    3    0  502  0.15160012596E+04 -0.93330164269E+03 -0.53366302153E+03  0.18585230684E+04  0.25500000920E-02 0. -1.
</event>
<event>
 5   0  0.1628250E-08  0.3799859E+04  0.7818609E-02  0.8046185E-01
        1   -1    0    0  501    0  0.00000000000E+00  0.00000000000E+00  0.21131819951E+04  0.21131819952E+04  0.50400001928E-02 0.  1.
       -1   -1    0    0    0  501  0.00000000000E+00  0.00000000000E+00 -0.17081975478E+04  0.17081975478E+04  0.50400001928E-02 0. -1.
    10030    2    1    2    0    0  0.00000000000E+00  0.00000000000E+00  0.40498444738E+03  0.38213795429E+04  0.37998591038E+04 0.  0.
        5    1    3    3  502    0  0.71869243319E+03  0.14755875883E+04 -0.75991914858E+03  0.18086947633E+04  0.46999998093E+01 0. -1.
       -5    1    3    3    0  502 -0.71869243319E+03 -0.14755875883E+04  0.11649035960E+04  0.20126847797E+04  0.46999998093E+01 0.  1.
</event>
<event>
 5   0  0.5086209E-08  0.3797221E+04  0.7818609E-02  0.8046751E-01
       -2   -1    0    0    0  501  0.00000000000E+00  0.00000000000E+00  0.13872885160E+04  0.13872885160E+04  0.25500000920E-02 0.  1.
        2   -1    0    0  501    0  0.00000000000E+00  0.00000000000E+00 -0.25983941283E+04  0.25983941283E+04  0.25500000920E-02 0. -1.
    10030    2    1    2    0    0  0.00000000000E+00  0.00000000000E+00 -0.12111056123E+04  0.39856826443E+04  0.37972212652E+04 0.  0.
        3    1    3    3  502    0  0.72878014958E+03  0.10220540127E+04 -0.21006816778E+04  0.24471572146E+04  0.10100000352E+00 0. -1.
       -3    1    3    3    0  502 -0.72878014958E+03 -0.10220540127E+04  0.88957606552E+03  0.15385254297E+04  0.10100000352E+00 0.  1.
</event>
<event>
 5   0  0.1628473E-08  0.3723412E+04  0.7818609E-02  0.8062793E-01
        1   -1    0    0  501    0  0.00000000000E+00  0.00000000000E+00  0.17001044099E+04  0.17001044099E+04  0.50400001928E-02 0.  1.
       -1   -1    0    0    0  501  0.00000000000E+00  0.00000000000E+00 -0.20386682881E+04  0.20386682881E+04  0.50400001928E-02 0. -1.
    10030    2    1    2    0    0  0.00000000000E+00  0.00000000000E+00 -0.33856387824E+03  0.37387726980E+04  0.37234118478E+04 0.  0.
        3    1    3    3  502    0  0.16145751806E+04  0.69125593758E+03 -0.78929275259E+03  0.19255313149E+04  0.10100000352E+00 0. -1.
       -3    1    3    3    0  502 -0.16145751806E+04 -0.69125593758E+03  0.45072887435E+03  0.18132413831E+04  0.10100000352E+00 0.  1.
</event>
<event>
 5   0  0.1666051E-08  0.3799617E+04  0.7818609E-02  0.8046237E-01
        1   -1    0    0  501    0  0.00000000000E+00  0.00000000000E+00  0.13242433380E+04  0.13242433380E+04  0.50400001928E-02 0. -1.
       -1   -1    0    0    0  501  0.00000000000E+00  0.00000000000E+00 -0.27255356606E+04  0.27255356606E+04  0.50400001928E-02 0.  1.
    10030    2    1    2    0    0  0.00000000000E+00  0.00000000000E+00 -0.14012923225E+04  0.40497789986E+04  0.37996170550E+04 0.  0.
        2    1    3    3  502    0  0.14377650114E+04  0.46437239282E+03  0.52690325132E+03  0.16001365516E+04  0.25500000920E-02 0. -1.
       -2    1    3    3    0  502 -0.14377650114E+04 -0.46437239282E+03 -0.19281955739E+04  0.24496424471E+04  0.25500000920E-02 0.  1.
</event>
<event>
 5   0  0.1628250E-08  0.3792376E+04  0.7818609E-02  0.8047793E-01
       -1   -1    0    0    0  501  0.00000000000E+00  0.00000000000E+00  0.19538109912E+04  0.19538109912E+04  0.50400001928E-02 0. -1.
        1   -1    0    0  501    0  0.00000000000E+00  0.00000000000E+00 -0.18402644642E+04  0.18402644642E+04  0.50400001928E-02 0.  1.
    10030    2    1    2    0    0  0.00000000000E+00  0.00000000000E+00  0.11354652695E+03  0.37940754554E+04  0.37923760029E+04 0.  0.
        5    1    3    3  502    0  0.95013674288E+03 -0.60098457562E+03 -0.14708571506E+04  0.18513198367E+04  0.46999998093E+01 0.  1.
       -5    1    3    3    0  502 -0.95013674288E+03  0.60098457562E+03  0.15844036776E+04  0.19427556187E+04  0.46999998093E+01 0. -1.
</event>
<event>
 5   0  0.5140842E-08  0.3790425E+04  0.7818609E-02  0.8048213E-01
        2   -1    0    0  501    0  0.00000000000E+00  0.00000000000E+00  0.24760158323E+04  0.24760158323E+04  0.25500000920E-02 0. -1.
       -2   -1    0    0    0  501  0.00000000000E+00  0.00000000000E+00 -0.14506492699E+04  0.14506492699E+04  0.25500000920E-02 0.  1.
    10030    2    1    2    0    0  0.00000000000E+00  0.00000000000E+00  0.10253665624E+04  0.39266651022E+04  0.37904250735E+04 0.  0.
        2    1    3    3  502    0  0.98627786132E+03 -0.65245165549E+03  0.20469264927E+04  0.23639681150E+04  0.25500000920E-02 0. -1.
       -2    1    3    3    0  502 -0.98627786132E+03  0.65245165549E+03 -0.10215599303E+04  0.15626969872E+04  0.25500000920E-02 0.  1.
</event>
<event>
 5   0  0.5207474E-08  0.3800183E+04  0.7818609E-02  0.8046116E-01
       -2   -1    0    0    0  501  0.00000000000E+00  0.00000000000E+00  0.15021765725E+04  0.15021765725E+04  0.25500000920E-02 0.  1.
        2   -1    0    0  501    0  0.00000000000E+00  0.00000000000E+00 -0.24034104462E+04  0.24034104462E+04  0.25500000920E-02 0. -1.
    10030    2    1    2    0    0  0.00000000000E+00  0.00000000000E+00 -0.90123387373E+03  0.39055870187E+04  0.38001825569E+04 0.  0.
        4    1    3    3  502    0 -0.18719512526E+03 -0.17450589005E+04  0.29763795686E+03  0.17801299243E+04  0.12699999809E+01 0.  1.
       -4    1    3    3    0  502  0.18719512526E+03  0.17450589005E+04 -0.11988718306E+04  0.21254570944E+04  0.12699999809E+01 0. -1.
</event>
<event>
 5   0  0.1628473E-08  0.3797247E+04  0.7818609E-02  0.8046746E-01
        1   -1    0    0  501    0  0.00000000000E+00  0.00000000000E+00  0.21016605068E+04  0.21016605068E+04  0.50400001928E-02 0.  1.
       -1   -1    0    0    0  501  0.00000000000E+00  0.00000000000E+00 -0.17152015398E+04  0.17152015398E+04  0.50400001928E-02 0. -1.
    10030    2    1    2    0    0  0.00000000000E+00  0.00000000000E+00  0.38645896701E+03  0.38168620466E+04  0.37972470751E+04 0.  0.
        3    1    3    3  502    0 -0.13667030245E+04  0.13176586507E+04  0.21924463911E+03  0.19110650693E+04  0.10100000352E+00 0.  1.
       -3    1    3    3    0  502  0.13667030245E+04 -0.13176586507E+04  0.16721432790E+03  0.19057969773E+04  0.10100000352E+00 0. -1.
</event>
<event>
 5   0  0.5140842E-08  0.3796758E+04  0.7818609E-02  0.8046851E-01
       -2   -1    0    0    0  501  0.00000000000E+00  0.00000000000E+00  0.15223300122E+04  0.15223300122E+04  0.25500000920E-02 0. -1.
        2   -1    0    0  501    0  0.00000000000E+00  0.00000000000E+00 -0.23673203868E+04  0.23673203868E+04  0.25500000920E-02 0.  1.
    10030    2    1    2    0    0  0.00000000000E+00  0.00000000000E+00 -0.84499037462E+03  0.38896503991E+04  0.37967580241E+04 0.  0.
        2    1    3    3  502    0 -0.85094696997E+03  0.75361157657E+03  0.11351657917E+04  0.16064378384E+04  0.25500000920E-02 0. -1.
       -2    1    3    3    0  502  0.85094696997E+03 -0.75361157657E+03 -0.19801561663E+04  0.22832125607E+04  0.25500000920E-02 0.  1.
</event>
<event>
 5   0  0.1628250E-08  0.3797391E+04  0.7818609E-02  0.8046715E-01
       -1   -1    0    0    0  501  0.00000000000E+00  0.00000000000E+00  0.20110360409E+04  0.20110360409E+04  0.50400001928E-02 0. -1.
        1   -1    0    0  501    0  0.00000000000E+00  0.00000000000E+00 -0.17926309489E+04  0.17926309489E+04  0.50400001928E-02 0.  1.
    10030    2    1    2    0    0  0.00000000000E+00  0.00000000000E+00  0.21840509194E+03  0.38036669898E+04  0.37973914448E+04 0.  0.
        5    1    3    3  502    0  0.38748709749E+03  0.12816373984E+04 -0.12392326834E+04  0.18244068640E+04  0.46999998093E+01 0.  1.
       -5    1    3    3    0  502 -0.38748709749E+03 -0.12816373984E+04  0.14576377753E+04  0.19792601259E+04  0.46999998093E+01 0. -1.
</event>
<event>
 5   0  0.1628250E-08  0.3797094E+04  0.7818609E-02  0.8046779E-01
        1   -1    0    0  501    0  0.00000000000E+00  0.00000000000E+00  0.15527409414E+04  0.15527409414E+04  0.50400001928E-02 0. -1.
       -1   -1    0    0    0  501  0.00000000000E+00  0.00000000000E+00 -0.23213665233E+04  0.23213665233E+04  0.50400001928E-02 0.  1.
    10030    2    1    2    0    0  0.00000000000E+00  0.00000000000E+00 -0.76862558193E+03  0.38741074646E+04  0.37970940682E+04 0.  0.
        1    1    3    3  502    0 -0.17528752413E+04  0.48353761495E+03 -0.94137248365E+03  0.20475747580E+04  0.50400001928E-02 0.  1.
       -1    1    3    3    0  502  0.17528752413E+04 -0.48353761495E+03  0.17274690172E+03  0.18265327067E+04  0.50400001928E-02 0. -1.
</event>
<event>
 5   0  0.1666051E-08  0.3796962E+04  0.7818609E-02  0.8046807E-01
       -1   -1    0    0    0  501  0.00000000000E+00  0.00000000000E+00  0.13876309497E+04  0.13876309497E+04  0.50400001928E-02 0.  1.
        1   -1    0    0  501    0  0.00000000000E+00  0.00000000000E+00 -0.25973976657E+04  0.25973976657E+04  0.50400001928E-02 0. -1.
    10030    2    1    2    0    0  0.00000000000E+00  0.00000000000E+00 -0.12097667159E+04  0.39850286154E+04  0.37969616220E+04 0.  0.
        2    1    3    3  502    0 -0.11028445928E+04  0.51111415985E+03  0.92567874867E+03  0.15278694401E+04  0.25500000920E-02 0.  1.
       -2    1    3    3    0  502  0.11028445928E+04 -0.51111415985E+03 -0.21354454646E+04  0.24571591753E+04  0.25500000920E-02 0. -1.
</event>
<event>
 5   0  0.1628250E-08  0.3796985E+04  0.7818609E-02  0.8046802E-01
       -1   -1    0    0    0  501  0.00000000000E+00  0.00000000000E+00  0.12759975598E+04  0.12759975598E+04  0.50400001928E-02 0.  1.
        1   -1    0    0  501    0  0.00000000000E+00  0.00000000000E+00 -0.28246716719E+04  0.28246716719E+04  0.50400001928E-02 0. -1.
    10030    2    1    2    0    0  0.00000000000E+00  0.00000000000E+00 -0.15486741122E+04  0.41006692317E+04  0.37969852043E+04 0.  0.
        5    1    3    3  502    0  0.94776612994E+03 -0.50982892640E+03  0.91474174521E+03  0.14124307847E+04  0.46999998093E+01 0.  1.
       -5    1    3    3    0  502 -0.94776612994E+03  0.50982892640E+03 -0.24634158574E+04  0.26882384470E+04  0.46999998093E+01 0. -1.
</event>
<event>
 5   0  0.1628250E-08  0.3801018E+04  0.7818609E-02  0.8045936E-01
       -1   -1    0    0    0  501  0.00000000000E+00  0.00000000000E+00  0.28454889078E+04  0.28454889079E+04  0.50400001928E-02 0. -1.
        1   -1    0    0  501    0  0.00000000000E+00  0.00000000000E+00 -0.12693545700E+04  0.12693545700E+04  0.50400001928E-02 0.  1.
    10030    2    1    2    0    0  0.00000000000E+00  0.00000000000E+00  0.15761343378E+04  0.41148434779E+04  0.38010179421E+04 0.  0.
        1    1    3    3  502    0 -0.78028171967E+03  0.89349422869E+03 -0.81937124100E+03  0.14417145103E+04  0.50400001928E-02 0.  1.
       -1    1    3    3    0  502  0.78028171967E+03 -0.89349422869E+03  0.23955055788E+04  0.26731289675E+04  0.50400001928E-02 0. -1.
</event>
<event>
 5   0  0.5086209E-08  0.3803884E+04  0.7818609E-02  0.8045322E-01
       -2   -1    0    0    0  501  0.00000000000E+00  0.00000000000E+00  0.30465218023E+04  0.30465218023E+04  0.25500000920E-02 0. -1.
        2   -1    0    0  501    0  0.00000000000E+00  0.00000000000E+00 -0.11873816937E+04  0.11873816937E+04  0.25500000920E-02 0.  1.
    10030    2    1    2    0    0  0.00000000000E+00  0.00000000000E+00  0.18591401086E+04  0.42339034960E+04  0.38038844449E+04 0.  0.
        3    1    3    3  502    0 -0.15614314677E+04  0.59170142252E+03 -0.83978834298E+02  0.16718945112E+04  0.10100000352E+00 0.  1.
       -3    1    3    3    0  502  0.15614314677E+04 -0.59170142252E+03  0.19431189429E+04  0.25620089848E+04  0.10100000352E+00 0. -1.
</event>
<event>
 5   0  0.5086209E-08  0.3791883E+04  0.7818609E-02  0.8047899E-01
       -2   -1    0    0    0  501  0.00000000000E+00  0.00000000000E+00  0.16039700720E+04  0.16039700720E+04  0.25500000920E-02 0.  1.
        2   -1    0    0  501    0  0.00000000000E+00  0.00000000000E+00 -0.22410611732E+04  0.22410611732E+04  0.25500000920E-02 0. -1.
    10030    2    1    2    0    0  0.00000000000E+00  0.00000000000E+00 -0.63709110121E+03  0.38450312452E+04  0.37918834641E+04 0.  0.
        3    1    3    3  502    0  0.87800233891E+03  0.54297624725E+03  0.12939900914E+04  0.16553312898E+04  0.10100000352E+00 0.  1.
       -3    1    3    3    0  502 -0.87800233891E+03 -0.54297624725E+03 -0.19310811926E+04  0.21896999554E+04  0.10100000352E+00 0. -1.
</event>
<event>
 5   0  0.1628250E-08  0.3799596E+04  0.7818609E-02  0.8046242E-01
       -1   -1    0    0    0  501  0.00000000000E+00  0.00000000000E+00  0.12692381108E+04  0.12692381108E+04  0.50400001928E-02 0.  1.
        1   -1    0    0  501    0  0.00000000000E+00  0.00000000000E+00 -0.28436209305E+04  0.28436209305E+04  0.50400001928E-02 0. -1.
    10030    2    1    2    0    0  0.00000000000E+00  0.00000000000E+00 -0.15743828197E+04  0.41128590413E+04  0.37995957983E+04 0.  0.
        5    1    3    3  502    0  0.13932992313E+04 -0.11887023242E+04 -0.24067491533E+03  0.18472256138E+04  0.46999998093E+01 0. -1.
       -5    1    3    3    0  502 -0.13932992313E+04  0.11887023242E+04 -0.13337079044E+04  0.22656334275E+04  0.46999998093E+01 0.  1.
</event>
<event>
 5   0  0.1628473E-08  0.3815173E+04  0.7818609E-02  0.8042907E-01
        1   -1    0    0  501    0  0.00000000000E+00  0.00000000000E+00  0.16011226098E+04  0.16011226098E+04  0.50400001928E-02 0. -1.
       -1   -1    0    0    0  501  0.00000000000E+00  0.00000000000E+00 -0.22727093780E+04  0.22727093780E+04  0.50400001928E-02 0.  1.
    10030    2    1    2    0    0  0.00000000000E+00  0.00000000000E+00 -0.67158676828E+03  0.38738319878E+04  0.38151730606E+04 0.  0.
        3    1    3    3  502    0 -0.60732287141E+03  0.35659967626E+03  0.14642815038E+04  0.16248460641E+04  0.10100000352E+00 0. -1.
       -3    1    3    3    0  502  0.60732287141E+03 -0.35659967626E+03 -0.21358682721E+04  0.22489859237E+04  0.10100000352E+00 0.  1.
</event>
<event>
 5   0  0.1628473E-08  0.3798452E+04  0.7818609E-02  0.8046487E-01
       -1   -1    0    0    0  501  0.00000000000E+00  0.00000000000E+00  0.32920348453E+04  0.32920348453E+04  0.50400001928E-02 0.  1.
        1   -1    0    0  501    0  0.00000000000E+00  0.00000000000E+00 -0.10956927940E+04  0.10956927940E+04  0.50400001928E-02 0. -1.
    10030    2    1    2    0    0  0.00000000000E+00  0.00000000000E+00  0.21963420513E+04  0.43877276394E+04  0.37984517150E+04 0.  0.
        3    1    3    3  502    0  0.72374254830E+03  0.74944637161E+03  0.29324691359E+04  0.31120489044E+04  0.10100000352E+00 0.  1.
       -3    1    3    3    0  502 -0.72374254830E+03 -0.74944637161E+03 -0.73612708456E+03  0.12756787350E+04  0.10100000352E+00 0. -1.
</event>
<event>
 5   0  0.5140842E-08  0.3798992E+04  0.7818609E-02  0.8046371E-01
       -2   -1    0    0    0  501  0.00000000000E+00  0.00000000000E+00  0.32166591061E+04  0.32166591061E+04  0.25500000920E-02 0. -1.
        2   -1    0    0  501    0  0.00000000000E+00  0.00000000000E+00 -0.11216870987E+04  0.11216870987E+04  0.25500000920E-02 0.  1.
    10030    2    1    2    0    0  0.00000000000E+00  0.00000000000E+00  0.20949720074E+04  0.43383462048E+04  0.37989919822E+04 0.  0.
        2    1    3    3  502    0  0.12857090463E+04 -0.13982262035E+04  0.10464954770E+04  0.21686947806E+04  0.25500000920E-02 0.  1.
       -2    1    3    3    0  502 -0.12857090463E+04  0.13982262035E+04  0.10484765304E+04  0.21696514242E+04  0.25500000920E-02 0. -1.
</event>
<event>
 5   0  0.5140842E-08  0.3819661E+04  0.7818609E-02  0.8041949E-01
       -2   -1    0    0    0  501  0.00000000000E+00  0.00000000000E+00  0.19259932675E+04  0.19259932675E+04  0.25500000920E-02 0. -1.
        2   -1    0    0  501    0  0.00000000000E+00  0.00000000000E+00 -0.18938032180E+04  0.18938032180E+04  0.25500000920E-02 0.  1.
    10030    2    1    2    0    0  0.00000000000E+00  0.00000000000E+00  0.32190049464E+02  0.38197964855E+04  0.38196608477E+04 0.  0.
        2    1    3    3  502    0 -0.18285233400E+03 -0.12068089343E+04  0.14850343384E+04  0.19222772345E+04  0.25500000920E-02 0. -1.
       -2    1    3    3    0  502  0.18285233400E+03  0.12068089343E+04 -0.14528442890E+04  0.18975192510E+04  0.25500000920E-02 0.  1.
</event>
<event>
 5   0  0.1628250E-08  0.3806444E+04  0.7818609E-02  0.8044773E-01
        1   -1    0    0  501    0  0.00000000000E+00  0.00000000000E+00  0.21198055879E+04  0.21198055879E+04  0.50400001928E-02 0.  1.
       -1   -1    0    0    0  501  0.00000000000E+00  0.00000000000E+00 -0.17087670157E+04  0.17087670157E+04  0.50400001928E-02 0. -1.
    10030    2    1    2    0    0  0.00000000000E+00  0.00000000000E+00  0.41103857226E+03  0.38285726036E+04  0.38064439407E+04 0.  0.
        4    1    3    3  502    0 -0.14210203040E+04  0.34337933672E+03 -0.10201890409E+04  0.17826932898E+04  0.12699999809E+01 0. -1.
       -4    1    3    3    0  502  0.14210203040E+04 -0.34337933672E+03  0.14312276132E+04  0.20458793139E+04  0.12699999809E+01 0.  1.
</event>
<event>
 5   0  0.5147582E-08  0.3679707E+04  0.7818609E-02  0.8072474E-01
        2   -1    0    0  501    0  0.00000000000E+00  0.00000000000E+00  0.27311341641E+04  0.27311341641E+04  0.25500000920E-02 0.  1.
       -2   -1    0    0    0  501  0.00000000000E+00  0.00000000000E+00 -0.12394339425E+04  0.12394339425E+04  0.25500000920E-02 0. -1.
    10030    2    1    2    0    0  0.00000000000E+00  0.00000000000E+00  0.14917002216E+04  0.39705681066E+04  0.36797067190E+04 0.  0.
        1    1    3    3  502    0  0.15135129786E+04  0.77887825888E+03  0.14993969609E+04  0.22683835930E+04  0.50400001928E-02 0.  1.
       -1    1    3    3    0  502 -0.15135129786E+04 -0.77887825888E+03 -0.76967392179E+01  0.17021845136E+04  0.50400001928E-02 0. -1.
</event>
<event>
 5   0  0.5159761E-08  0.3810347E+04  0.7818609E-02  0.8043938E-01
        2   -1    0    0  501    0  0.00000000000E+00  0.00000000000E+00  0.25502106849E+04  0.25502106849E+04  0.25500000920E-02 0. -1.
       -2   -1    0    0    0  501  0.00000000000E+00  0.00000000000E+00 -0.14232889002E+04  0.14232889002E+04  0.25500000920E-02 0.  1.
    10030    2    1    2    0    0  0.00000000000E+00  0.00000000000E+00  0.11269217847E+04  0.39734995852E+04  0.38103472603E+04 0.  0.
        5    1    3    3  502    0  0.15293826299E+04 -0.57610625903E+03 -0.45762527985E+03  0.16971601684E+04  0.46999998093E+01 0.  1.
       -5    1    3    3    0  502 -0.15293826299E+04  0.57610625903E+03  0.15845470646E+04  0.22763394168E+04  0.46999998093E+01 0. -1.
</event>
<event>
 5   0  0.5159761E-08  0.3758176E+04  0.7818609E-02  0.8055190E-01
       -2   -1    0    0    0  501  0.00000000000E+00  0.00000000000E+00  0.19462657307E+04  0.19462657307E+04  0.25500000920E-02 0.  1.
        2   -1    0    0  501    0  0.00000000000E+00  0.00000000000E+00 -0.18142285126E+04  0.18142285126E+04  0.25500000920E-02 0. -1.
    10030    2    1    2    0    0  0.00000000000E+00  0.00000000000E+00  0.13203721807E+03  0.37604942433E+04  0.37581755051E+04 0.  0.
        5    1    3    3  502    0 -0.16022311195E+04  0.37375108706E+03  0.97438610210E+03  0.19121414177E+04  0.46999998093E+01 0.  1.
       -5    1    3    3    0  502  0.16022311195E+04 -0.37375108706E+03 -0.84234888403E+03  0.18483528256E+04  0.46999998093E+01 0. -1.
</event>
<event>
 5   0  0.5140842E-08  0.3799692E+04  0.7818609E-02  0.8046221E-01
       -2   -1    0    0    0  501  0.00000000000E+00  0.00000000000E+00  0.22786206144E+04  0.22786206144E+04  0.25500000920E-02 0.  1.
        2   -1    0    0  501    0  0.00000000000E+00  0.00000000000E+00 -0.15840352941E+04  0.15840352941E+04  0.25500000920E-02 0. -1.
    10030    2    1    2    0    0  0.00000000000E+00  0.00000000000E+00  0.69458532032E+03  0.38626559085E+04  0.37996923429E+04 0.  0.
        2    1    3    3  502    0  0.89677522349E+03 -0.16673098724E+04  0.50894806069E+03  0.19603969345E+04  0.25500000920E-02 0.  1.
       -2    1    3    3    0  502 -0.89677522349E+03  0.16673098724E+04  0.18563725963E+03  0.19022589741E+04  0.25500000920E-02 0. -1.
</event>
<event>
 5   0  0.1628250E-08  0.3805749E+04  0.7818609E-02  0.8044922E-01
        3   -1    0    0  501    0  0.00000000000E+00  0.00000000000E+00  0.26184438716E+04  0.26184438735E+04  0.10100000352E+00 0. -1.
       -3   -1    0    0    0  501  0.00000000000E+00  0.00000000000E+00 -0.13828560112E+04  0.13828560149E+04  0.10100000352E+00 0.  1.
    10030    2    1    2    0    0  0.00000000000E+00  0.00000000000E+00  0.12355878604E+04  0.40012998884E+04  0.38057487353E+04 0.  0.
        1    1    3    3  502    0 -0.15191119031E+04 -0.10853096609E+04  0.10045726433E+04  0.21200859015E+04  0.50400001928E-02 0. -1.
       -1    1    3    3    0  502  0.15191119031E+04  0.10853096609E+04  0.23101521710E+03  0.18812139869E+04  0.50400001928E-02 0.  1.
</event>
<event>
 5   0  0.5086209E-08  0.3796524E+04  0.7818609E-02  0.8046901E-01
        2   -1    0    0  501    0  0.00000000000E+00  0.00000000000E+00  0.15085507969E+04  0.15085507969E+04  0.25500000920E-02 0.  1.
       -2   -1    0    0    0  501  0.00000000000E+00  0.00000000000E+00 -0.23886495133E+04  0.23886495133E+04  0.25500000920E-02 0. -1.
    10030    2    1    2    0    0  0.00000000000E+00  0.00000000000E+00 -0.88009871636E+03  0.38972003102E+04  0.37965242666E+04 0.  0.
        3    1    3    3  502    0 -0.54097356663E+03  0.99224876961E+03  0.11255803592E+04  0.15950364183E+04  0.10100000352E+00 0.  1.
       -3    1    3    3    0  502  0.54097356663E+03 -0.99224876961E+03 -0.20056790756E+04  0.23021638919E+04  0.10100000352E+00 0. -1.
</event>
<event>
 5   0  0.1628473E-08  0.3792949E+04  0.7818609E-02  0.8047670E-01
       -1   -1    0    0    0  501  0.00000000000E+00  0.00000000000E+00  0.27651151910E+04  0.27651151910E+04  0.50400001928E-02 0.  1.
        1   -1    0    0  501    0  0.00000000000E+00  0.00000000000E+00 -0.13007109991E+04  0.13007109991E+04  0.50400001928E-02 0. -1.
    10030    2    1    2    0    0  0.00000000000E+00  0.00000000000E+00  0.14644041919E+04  0.40658261901E+04  0.37929491126E+04 0.  0.
        3    1    3    3  502    0  0.84333464201E+03  0.49545388904E+03 -0.10094757289E+04  0.14056063218E+04  0.10100000352E+00 0. -1.
       -3    1    3    3    0  502 -0.84333464201E+03 -0.49545388904E+03  0.24738799208E+04  0.26602198683E+04  0.10100000352E+00 0.  1.
</event>
<event>
 5   0  0.5207474E-08  0.3797393E+04  0.7818609E-02  0.8046715E-01
        2   -1    0    0  501    0  0.00000000000E+00  0.00000000000E+00  0.13733383914E+04  0.13733383914E+04  0.25500000920E-02 0.  1.
       -2   -1    0    0    0  501  0.00000000000E+00  0.00000000000E+00 -0.26250249974E+04  0.26250249974E+04  0.25500000920E-02 0. -1.
    10030    2    1    2    0    0  0.00000000000E+00  0.00000000000E+00 -0.12516866060E+04  0.39983633888E+04  0.37973925830E+04 0.  0.
        4    1    3    3  502    0 -0.64676305018E+02  0.10982509594E+04  0.10035391265E+04  0.14891039539E+04  0.12699999809E+01 0.  1.
       -4    1    3    3    0  502  0.64676305018E+02 -0.10982509594E+04 -0.22552257325E+04  0.25092594349E+04  0.12699999809E+01 0. -1.
</event>
<event>
 5   0  0.1666051E-08  0.3789940E+04  0.7818609E-02  0.8048317E-01
       -1   -1    0    0    0  501  0.00000000000E+00  0.00000000000E+00  0.12245253059E+04  0.12245253059E+04  0.50400001928E-02 0. -1.
        1   -1    0    0  501    0  0.00000000000E+00  0.00000000000E+00 -0.29324922447E+04  0.29324922448E+04  0.50400001928E-02 0.  1.
    10030    2    1    2    0    0  0.00000000000E+00  0.00000000000E+00 -0.17079669388E+04  0.41570175507E+04  0.37899398217E+04 0.  0.
        2    1    3    3  502    0 -0.13263461141E+04  0.10527807864E+04  0.78904859765E+02  0.16952189757E+04  0.25500000920E-02 0. -1.
       -2    1    3    3    0  502  0.13263461141E+04 -0.10527807864E+04 -0.17868717986E+04  0.24617985749E+04  0.25500000920E-02 0.  1.
</event>
<event>
 5   0  0.1628250E-08  0.3799957E+04  0.7818609E-02  0.8046164E-01
       -1   -1    0    0    0  501  0.00000000000E+00  0.00000000000E+00  0.21428397978E+04  0.21428397978E+04  0.50400001928E-02 0.  1.
        1   -1    0    0  501    0  0.00000000000E+00  0.00000000000E+00 -0.16846425139E+04  0.16846425139E+04  0.50400001928E-02 0. -1.
    10030    2    1    2    0    0  0.00000000000E+00  0.00000000000E+00  0.45819728393E+03  0.38274823118E+04  0.37999573808E+04 0.  0.
        1    1    3    3  502    0  0.11696011727E+04 -0.10691210803E+04  0.12849916723E+04  0.20401446972E+04  0.50400001928E-02 0.  1.
       -1    1    3    3    0  502 -0.11696011727E+04  0.10691210803E+04 -0.82679438839E+03  0.17873376145E+04  0.50400001928E-02 0. -1.
</event>
<event>
 5   0  0.5159761E-08  0.3795793E+04  0.7818609E-02  0.8047058E-01
        2   -1    0    0  501    0  0.00000000000E+00  0.00000000000E+00  0.14879872036E+04  0.14879872036E+04  0.25500000920E-02 0. -1.
       -2   -1    0    0    0  501  0.00000000000E+00  0.00000000000E+00 -0.24207275079E+04  0.24207275079E+04  0.25500000920E-02 0.  1.
    10030    2    1    2    0    0  0.00000000000E+00  0.00000000000E+00 -0.93274030430E+03  0.39087147115E+04  0.37957932268E+04 0.  0.
        5    1    3    3  502    0  0.41688959450E+03  0.15891802265E+04 -0.14447395154E+04  0.21878265662E+04  0.46999998093E+01 0.  1.
       -5    1    3    3    0  502 -0.41688959450E+03 -0.15891802265E+04  0.51199921113E+03  0.17208881453E+04  0.46999998093E+01 0. -1.
</event>
<event>
 5   0  0.1628250E-08  0.3808013E+04  0.7818609E-02  0.8044438E-01
        1   -1    0    0  501    0  0.00000000000E+00  0.00000000000E+00  0.25303819285E+04  0.25303819285E+04  0.50400001928E-02 0. -1.
       -1   -1    0    0    0  501  0.00000000000E+00  0.00000000000E+00 -0.14326851446E+04  0.14326851446E+04  0.50400001928E-02 0.  1.
    10030    2    1    2    0    0  0.00000000000E+00  0.00000000000E+00  0.10976967839E+04  0.39630670730E+04  0.38080129196E+04 0.  0.
        5    1    3    3  502    0  0.14819400333E+04  0.39970874711E+03  0.17213569815E+04  0.23062968787E+04  0.46999998093E+01 0.  1.
       -5    1    3    3    0  502 -0.14819400333E+04 -0.39970874711E+03 -0.62366019762E+03  0.16567701943E+04  0.46999998093E+01 0. -1.
</event>
<event>
 5   0  0.5086209E-08  0.3799746E+04  0.7818609E-02  0.8046209E-01
        2   -1    0    0  501    0  0.00000000000E+00  0.00000000000E+00  0.28439398719E+04  0.28439398719E+04  0.25500000920E-02 0. -1.
       -2   -1    0    0    0  501  0.00000000000E+00  0.00000000000E+00 -0.12691962430E+04  0.12691962430E+04  0.25500000920E-02 0.  1.
    10030    2    1    2    0    0  0.00000000000E+00  0.00000000000E+00  0.15747436289E+04  0.41131361149E+04  0.37997462025E+04 0.  0.
        3    1    3    3  502    0 -0.22515749331E+03 -0.18788616904E+04  0.97075702104E+03  0.21267783976E+04  0.10100000352E+00 0.  1.
       -3    1    3    3    0  502  0.22515749331E+03  0.18788616904E+04  0.60398660784E+03  0.19863577173E+04  0.10100000352E+00 0. -1.
</event>
<event>
 5   0  0.5147582E-08  0.3783106E+04  0.7818609E-02  0.8049790E-01
       -2   -1    0    0    0  501  0.00000000000E+00  0.00000000000E+00  0.13899896747E+04  0.13899896747E+04  0.25500000920E-02 0.  1.
        2   -1    0    0  501    0  0.00000000000E+00  0.00000000000E+00 -0.25741003588E+04  0.25741003588E+04  0.25500000920E-02 0. -1.
    10030    2    1    2    0    0  0.00000000000E+00  0.00000000000E+00 -0.11841106841E+04  0.39640900335E+04  0.37831060891E+04 0.  0.
        1    1    3    3  502    0 -0.79969403756E+03 -0.13434488677E+04  0.52359048657E+03  0.16487911970E+04  0.50400001928E-02 0.  1.
       -1    1    3    3    0  502  0.79969403756E+03  0.13434488677E+04 -0.17077011707E+04  0.23152988365E+04  0.50400001928E-02 0. -1.
</event>
<event>
 5   0  0.1666051E-08  0.3804071E+04  0.7818609E-02  0.8045282E-01
       -1   -1    0    0    0  501  0.00000000000E+00  0.00000000000E+00  0.17382654196E+04  0.17382654196E+04  0.50400001928E-02 0.  1.
        1   -1    0    0  501    0  0.00000000000E+00  0.00000000000E+00 -0.20812347496E+04  0.20812347496E+04  0.50400001928E-02 0. -1.
    10030    2    1    2    0    0  0.00000000000E+00  0.00000000000E+00 -0.34296933002E+03  0.38195001692E+04  0.38040706593E+04 0.  0.
        2    1    3    3  502    0 -0.11337944999E+04 -0.50133861143E+03  0.12769016101E+04  0.17796932582E+04  0.25500000920E-02 0.  1.
       -2    1    3    3    0  502  0.11337944999E+04  0.50133861143E+03 -0.16198709401E+04  0.20398069110E+04  0.25500000920E-02 0. -1.
</event>
<event>
 5   0  0.1666051E-08  0.3798287E+04  0.7818609E-02  0.8046523E-01
        1   -1    0    0  501    0  0.00000000000E+00  0.00000000000E+00  0.14615617212E+04  0.14615617212E+04  0.50400001928E-02 0.  1.
       -1   -1    0    0    0  501  0.00000000000E+00  0.00000000000E+00 -0.24677340680E+04  0.24677340680E+04  0.50400001928E-02 0. -1.
    10030    2    1    2    0    0  0.00000000000E+00  0.00000000000E+00 -0.10061723468E+04  0.39292957892E+04  0.37982867991E+04 0.  0.
        2    1    3    3  502    0 -0.17680625688E+04 -0.19001980299E+03 -0.11928623965E+04  0.21412784662E+04  0.25500000920E-02 0. -1.
       -2    1    3    3    0  502  0.17680625688E+04  0.19001980299E+03  0.18669004966E+03  0.17880173230E+04  0.25500000920E-02 0.  1.
</event>
<event>
 5   0  0.5086209E-08  0.3798562E+04  0.7818609E-02  0.8046464E-01
       -2   -1    0    0    0  501  0.00000000000E+00  0.00000000000E+00  0.28570893407E+04  0.28570893407E+04  0.25500000920E-02 0.  1.
        2   -1    0    0  501    0  0.00000000000E+00  0.00000000000E+00 -0.12625676842E+04  0.12625676842E+04  0.25500000920E-02 0. -1.
    10030    2    1    2    0    0  0.00000000000E+00  0.00000000000E+00  0.15945216566E+04  0.41196570249E+04  0.37985621871E+04 0.  0.
        3    1    3    3  502    0 -0.18965813135E+04  0.96670110390E+02  0.76467301831E+03  0.20472153341E+04  0.10100000352E+00 0. -1.
       -3    1    3    3    0  502  0.18965813135E+04 -0.96670110390E+02  0.82984863825E+03  0.20724416908E+04  0.10100000352E+00 0.  1.
</event>
<event>
 5   0  0.5086209E-08  0.3792686E+04  0.7818609E-02  0.8047726E-01
        2   -1    0    0  501    0  0.00000000000E+00  0.00000000000E+00  0.10864516066E+04  0.10864516066E+04  0.25500000920E-02 0.  1.
       -2   -1    0    0    0  501  0.00000000000E+00  0.00000000000E+00 -0.33099656183E+04  0.33099656183E+04  0.25500000920E-02 0. -1.
    10030    2    1    2    0    0  0.00000000000E+00  0.00000000000E+00 -0.22235140117E+04  0.43964172249E+04  0.37926863640E+04 0.  0.
        3    1    3    3  502    0  0.89540803453E+03  0.14276270753E+04 -0.21198082458E+04  0.27080364886E+04  0.10100000352E+00 0. -1.
       -3    1    3    3    0  502 -0.89540803453E+03 -0.14276270753E+04 -0.10370576586E+03  0.16883807363E+04  0.10100000352E+00 0.  1.
</event>
<event>
 5   0  0.1628250E-08  0.3787440E+04  0.7818609E-02  0.8048856E-01
       -1   -1    0    0    0  501  0.00000000000E+00  0.00000000000E+00  0.31084945308E+04  0.31084945308E+04  0.50400001928E-02 0.  1.
        1   -1    0    0  501    0  0.00000000000E+00  0.00000000000E+00 -0.11536694723E+04  0.11536694724E+04  0.50400001928E-02 0. -1.
    10030    2    1    2    0    0  0.00000000000E+00  0.00000000000E+00  0.19548250585E+04  0.42621640032E+04  0.37874398980E+04 0.  0.
        4    1    3    3  502    0 -0.60095864045E+03  0.97433603812E+03  0.26750349917E+04  0.29096899873E+04  0.12699999809E+01 0.  1.
       -4    1    3    3    0  502  0.60095864045E+03 -0.97433603812E+03 -0.72020993323E+03  0.13524740158E+04  0.12699999809E+01 0. -1.
</event>
<event>
 5   0  0.1628250E-08  0.3796978E+04  0.7818609E-02  0.8046804E-01
        1   -1    0    0  501    0  0.00000000000E+00  0.00000000000E+00  0.34379866502E+04  0.34379866502E+04  0.50400001928E-02 0. -1.
       -1   -1    0    0    0  501  0.00000000000E+00  0.00000000000E+00 -0.10483638560E+04  0.10483638561E+04  0.50400001928E-02 0.  1.
    10030    2    1    2    0    0  0.00000000000E+00  0.00000000000E+00  0.23896227941E+04  0.44863505063E+04  0.37969782415E+04 0.  0.
        4    1    3    3  502    0 -0.98716522944E+03  0.61925657335E+03 -0.57606220033E+03  0.12999319849E+04  0.12699999809E+01 0.  1.
       -4    1    3    3    0  502  0.98716522944E+03 -0.61925657335E+03  0.29656849945E+04  0.31864185213E+04  0.12699999809E+01 0. -1.
</event>
<event>
 5   0  0.1628250E-08  0.3808076E+04  0.7818609E-02  0.8044424E-01
        1   -1    0    0  501    0  0.00000000000E+00  0.00000000000E+00  0.11204667717E+04  0.11204667717E+04  0.50400001928E-02 0. -1.
       -1   -1    0    0    0  501  0.00000000000E+00  0.00000000000E+00 -0.32355806940E+04  0.32355806940E+04  0.50400001928E-02 0.  1.
    10030    2    1    2    0    0  0.00000000000E+00  0.00000000000E+00 -0.21151139223E+04  0.43560474657E+04  0.38080759733E+04 0.  0.
        1    1    3    3  502    0  0.96809056042E+03 -0.13892815896E+04 -0.61605408638E+02  0.16944314370E+04  0.50400001928E-02 0. -1.
       -1    1    3    3    0  502 -0.96809056042E+03  0.13892815896E+04 -0.20535085137E+04  0.26616160287E+04  0.50400001928E-02 0.  1.
</event>
<event>
 5   0  0.1628250E-08  0.3792696E+04  0.7818609E-02  0.8047724E-01
        1   -1    0    0  501    0  0.00000000000E+00  0.00000000000E+00  0.25436412707E+04  0.25436412707E+04  0.50400001928E-02 0.  1.
       -1   -1    0    0    0  501  0.00000000000E+00  0.00000000000E+00 -0.14137749732E+04  0.14137749732E+04  0.50400001928E-02 0. -1.
    10030    2    1    2    0    0  0.00000000000E+00  0.00000000000E+00  0.11298662975E+04  0.39574162439E+04  0.37926963334E+04 0.  0.
        1    1    3    3  502    0  0.10467033830E+04  0.20802236017E+03  0.22005837957E+04  0.24456962846E+04  0.50400001928E-02 0.  1.
       -1    1    3    3    0  502 -0.10467033830E+04 -0.20802236017E+03 -0.10707174982E+04  0.15117199593E+04  0.50400001928E-02 0. -1.
</event>
<event>
 5   0  0.1666051E-08  0.3799912E+04  0.7818609E-02  0.8046174E-01
        1   -1    0    0  501    0  0.00000000000E+00  0.00000000000E+00  0.13443888197E+04  0.13443888197E+04  0.50400001928E-02 0. -1.
       -1   -1    0    0    0  501  0.00000000000E+00  0.00000000000E+00 -0.26851109430E+04  0.26851109430E+04  0.50400001928E-02 0.  1.
    10030    2    1    2    0    0  0.00000000000E+00  0.00000000000E+00 -0.13407221233E+04  0.40294997627E+04  0.37999121734E+04 0.  0.
        2    1    3    3  502    0  0.12607332877E+04  0.80829224144E+03 -0.19102121136E+04  0.24272814195E+04  0.25500000920E-02 0.  1.
       -2    1    3    3    0  502 -0.12607332877E+04 -0.80829224144E+03  0.56948999024E+03  0.16022183432E+04  0.25500000920E-02 0. -1.
</event>
<event>
 5   0  0.1628250E-08  0.3797365E+04  0.7818609E-02  0.8046721E-01
       -1   -1    0    0    0  501  0.00000000000E+00  0.00000000000E+00  0.31779069758E+04  0.31779069758E+04  0.50400001928E-02 0.  1.
        1   -1    0    0  501    0  0.00000000000E+00  0.00000000000E+00 -0.11343930418E+04  0.11343930418E+04  0.50400001928E-02 0. -1.
    10030    2    1    2    0    0  0.00000000000E+00  0.00000000000E+00  0.20435139340E+04  0.43123000176E+04  0.37973651712E+04 0.  0.
        5    1    3    3  502    0  0.19173241581E+03  0.64585387982E+03  0.30375997534E+04  0.31114181502E+04  0.46999998093E+01 0.  1.
       -5    1    3    3    0  502 -0.19173241581E+03 -0.64585387982E+03 -0.99408581937E+03  0.12008818675E+04  0.46999998093E+01 0. -1.
</event>
<event>
 5   0  0.1666051E-08  0.3801379E+04  0.7818609E-02  0.8045859E-01
       -1   -1    0    0    0  501  0.00000000000E+00  0.00000000000E+00  0.13628039240E+04  0.13628039241E+04  0.50400001928E-02 0. -1.
        1   -1    0    0  501    0  0.00000000000E+00  0.00000000000E+00 -0.26508730441E+04  0.26508730441E+04  0.50400001928E-02 0.  1.
    10030    2    1    2    0    0  0.00000000000E+00  0.00000000000E+00 -0.12880691201E+04  0.40136769682E+04  0.38013787955E+04 0.  0.
        2    1    3    3  502    0  0.62052971327E+03  0.10770929061E+04 -0.21621929660E+04  0.24940458447E+04  0.25500000920E-02 0.  1.
       -2    1    3    3    0  502 -0.62052971327E+03 -0.10770929061E+04  0.87412384592E+03  0.15196311235E+04  0.25500000920E-02 0. -1.
</event>
<event>
 5   0  0.5147582E-08  0.3801420E+04  0.7818609E-02  0.8045850E-01
        2   -1    0    0  501    0  0.00000000000E+00  0.00000000000E+00  0.29051429760E+04  0.29051429760E+04  0.25500000920E-02 0.  1.
       -2   -1    0    0    0  501  0.00000000000E+00  0.00000000000E+00 -0.12435524969E+04  0.12435524969E+04  0.25500000920E-02 0. -1.
    10030    2    1    2    0    0  0.00000000000E+00  0.00000000000E+00  0.16615904790E+04  0.41486954729E+04  0.38014196305E+04 0.  0.
        1    1    3    3  502    0 -0.94254293794E+03  0.14050180756E+04  0.17760836918E+04  0.24529444068E+04  0.50400001928E-02 0.  1.
       -1    1    3    3    0  502  0.94254293794E+03 -0.14050180756E+04 -0.11449321272E+03  0.16957510662E+04  0.50400001928E-02 0. -1.
</event>
<event>
 5   0  0.5147582E-08  0.3799501E+04  0.7818609E-02  0.8046262E-01
       -2   -1    0    0    0  501  0.00000000000E+00  0.00000000000E+00  0.19837062205E+04  0.19837062205E+04  0.25500000920E-02 0.  1.
        2   -1    0    0  501    0  0.00000000000E+00  0.00000000000E+00 -0.18193476064E+04  0.18193476064E+04  0.25500000920E-02 0. -1.
    10030    2    1    2    0    0  0.00000000000E+00  0.00000000000E+00  0.16435861417E+03  0.38030538269E+04  0.37995005798E+04 0.  0.
        1    1    3    3  502    0 -0.25158091519E+03  0.11583942348E+04 -0.14037564308E+04  0.18373084328E+04  0.50400001928E-02 0. -1.
       -1    1    3    3    0  502  0.25158091519E+03 -0.11583942348E+04  0.15681150450E+04  0.19657453941E+04  0.50400001928E-02 0.  1.
</event>
<event>
 5   0  0.5140842E-08  0.3793745E+04  0.7818609E-02  0.8047498E-01
        2   -1    0    0  501    0  0.00000000000E+00  0.00000000000E+00  0.23991631042E+04  0.23991631042E+04  0.25500000920E-02 0. -1.
       -2   -1    0    0    0  501  0.00000000000E+00  0.00000000000E+00 -0.14997420319E+04  0.14997420319E+04  0.25500000920E-02 0.  1.
    10030    2    1    2    0    0  0.00000000000E+00  0.00000000000E+00  0.89942107229E+03  0.38989051362E+04  0.37937452465E+04 0.  0.
        2    1    3    3  502    0  0.14233311219E+04 -0.67001679970E+03  0.15389629277E+04  0.22007273542E+04  0.25500000920E-02 0. -1.
       -2    1    3    3    0  502 -0.14233311219E+04  0.67001679970E+03 -0.63954185542E+03  0.16981777820E+04  0.25500000920E-02 0.  1.
</event>
<event>
 5   0  0.1628250E-08  0.3760713E+04  0.7818609E-02  0.8054639E-01
       -1   -1    0    0    0  501  0.00000000000E+00  0.00000000000E+00  0.17300910595E+04  0.17300910595E+04  0.50400001928E-02 0.  1.
        1   -1    0    0  501    0  0.00000000000E+00  0.00000000000E+00 -0.20436731249E+04  0.20436731249E+04  0.50400001928E-02 0. -1.
    10030    2    1    2    0    0  0.00000000000E+00  0.00000000000E+00 -0.31358206541E+03  0.37737641845E+04  0.37607130186E+04 0.  0.
        4    1    3    3  502    0  0.10110761690E+04 -0.15651043403E+04 -0.41047734646E+03  0.19079622325E+04  0.12699999809E+01 0. -1.
       -4    1    3    3    0  502 -0.10110761690E+04  0.15651043403E+04  0.96895281052E+02  0.18658019520E+04  0.12699999809E+01 0.  1.
</event>
<event>
 5   0  0.1628250E-08  0.3825505E+04  0.7818609E-02  0.8040704E-01
        1   -1    0    0  501    0  0.00000000000E+00  0.00000000000E+00  0.12516517565E+04  0.12516517565E+04  0.50400001928E-02 0.  1.
       -1   -1    0    0    0  501  0.00000000000E+00  0.00000000000E+00 -0.29230348468E+04  0.29230348468E+04  0.50400001928E-02 0. -1.
    10030    2    1    2    0    0  0.00000000000E+00  0.00000000000E+00 -0.16713830903E+04  0.41746866033E+04  0.38255047773E+04 0.  0.
        4    1    3    3  502    0 -0.12136228838E+03  0.18693700747E+04 -0.41396290151E+03  0.19184994600E+04  0.12699999809E+01 0.  1.
       -4    1    3    3    0  502  0.12136228838E+03 -0.18693700747E+04 -0.12574201888E+04  0.22561871433E+04  0.12699999809E+01 0. -1.
</event>
<event>
 5   0  0.1628250E-08  0.3794290E+04  0.7818609E-02  0.8047381E-01
        1   -1    0    0  501    0  0.00000000000E+00  0.00000000000E+00  0.17560348410E+04  0.17560348410E+04  0.50400001928E-02 0.  1.
       -1   -1    0    0    0  501  0.00000000000E+00  0.00000000000E+00 -0.20495941254E+04  0.20495941254E+04  0.50400001928E-02 0. -1.
    10030    2    1    2    0    0  0.00000000000E+00  0.00000000000E+00 -0.29355928435E+03  0.38056289664E+04  0.37942897591E+04 0.  0.
        1    1    3    3  502    0 -0.11050908288E+04 -0.15324234729E+04  0.25813823572E+02  0.18895009377E+04  0.50400001928E-02 0.  1.
       -1    1    3    3    0  502  0.11050908288E+04  0.15324234729E+04 -0.31937310792E+03  0.19161280287E+04  0.50400001928E-02 0. -1.
</event>
<event>
 5   0  0.1666051E-08  0.3796581E+04  0.7818609E-02  0.8046889E-01
       -1   -1    0    0    0  501  0.00000000000E+00  0.00000000000E+00  0.18353951987E+04  0.18353951988E+04  0.50400001928E-02 0.  1.
        1   -1    0    0  501    0  0.00000000000E+00  0.00000000000E+00 -0.19633409836E+04  0.19633409836E+04  0.50400001928E-02 0. -1.
    10030    2    1    2    0    0  0.00000000000E+00  0.00000000000E+00 -0.12794578482E+03  0.37987361823E+04  0.37965808906E+04 0.  0.
        2    1    3    3  502    0  0.69010039504E+03 -0.91885353608E+03  0.14478369610E+04  0.18484486040E+04  0.25500000920E-02 0.  1.
       -2    1    3    3    0  502 -0.69010039504E+03  0.91885353608E+03 -0.15757827458E+04  0.19502875783E+04  0.25500000920E-02 0. -1.
</event>
<event>
 5   0  0.1666051E-08  0.3731853E+04  0.7818609E-02  0.8060939E-01
       -1   -1    0    0    0  501  0.00000000000E+00  0.00000000000E+00  0.17264747503E+04  0.17264747503E+04  0.50400001928E-02 0.  1.
        1   -1    0    0  501    0  0.00000000000E+00  0.00000000000E+00 -0.20166422659E+04  0.20166422659E+04  0.50400001928E-02 0. -1.
    10030    2    1    2    0    0  0.00000000000E+00  0.00000000000E+00 -0.29016751562E+03  0.37431170162E+04  0.37318531335E+04 0.  0.
        2    1    3    3  502    0 -0.16407091469E+04 -0.84912052221E+03  0.11790945317E+03  0.18511711982E+04  0.25500000920E-02 0.  1.
       -2    1    3    3    0  502  0.16407091469E+04  0.84912052221E+03 -0.40807696879E+03  0.18919458180E+04  0.25500000920E-02 0. -1.
</event>
<event>
 5   0  0.5086209E-08  0.3795302E+04  0.7818609E-02  0.8047164E-01
        2   -1    0    0  501    0  0.00000000000E+00  0.00000000000E+00  0.31817419545E+04  0.31817419545E+04  0.25500000920E-02 0.  1.
       -2   -1    0    0    0  501  0.00000000000E+00  0.00000000000E+00 -0.11317951637E+04  0.11317951637E+04  0.25500000920E-02 0. -1.
    10030    2    1    2    0    0  0.00000000000E+00  0.00000000000E+00  0.20499467908E+04  0.43135371181E+04  0.37953024418E+04 0.  0.
        3    1    3    3  502    0 -0.17493784458E+04 -0.44206125041E+03  0.35707755754E+03  0.18393606194E+04  0.10100000352E+00 0. -1.
       -3    1    3    3    0  502  0.17493784458E+04  0.44206125041E+03  0.16928692332E+04  0.24741764987E+04  0.10100000352E+00 0.  1.
</event>
<event>
 5   0  0.5147582E-08  0.3796895E+04  0.7818609E-02  0.8046821E-01
       -2   -1    0    0    0  501  0.00000000000E+00  0.00000000000E+00  0.15625775744E+04  0.15625775744E+04  0.25500000920E-02 0.  1.
        2   -1    0    0  501    0  0.00000000000E+00  0.00000000000E+00 -0.23065118648E+04  0.23065118648E+04  0.25500000920E-02 0. -1.
    10030    2    1    2    0    0  0.00000000000E+00  0.00000000000E+00 -0.74393429042E+03  0.38690894392E+04  0.37968954239E+04 0.  0.
        1    1    3    3  502    0 -0.81655777271E+03  0.16632438596E+04  0.49363991447E+02  0.18535327179E+04  0.50400001928E-02 0. -1.
       -1    1    3    3    0  502  0.81655777271E+03 -0.16632438596E+04 -0.79329828186E+03  0.20155567213E+04  0.50400001928E-02 0.  1.
</event>
<event>
 5   0  0.5086209E-08  0.3798780E+04  0.7818609E-02  0.8046417E-01
        2   -1    0    0  501    0  0.00000000000E+00  0.00000000000E+00  0.24692823666E+04  0.24692823666E+04  0.25500000920E-02 0.  1.
       -2   -1    0    0    0  501  0.00000000000E+00  0.00000000000E+00 -0.14610248078E+04  0.14610248078E+04  0.25500000920E-02 0. -1.
    10030    2    1    2    0    0  0.00000000000E+00  0.00000000000E+00  0.10082575588E+04  0.39303071744E+04  0.37987802227E+04 0.  0.
        3    1    3    3  502    0  0.11849305254E+04 -0.18677719163E+03  0.20277806240E+04  0.23560221431E+04  0.10100000352E+00 0.  1.
       -3    1    3    3    0  502 -0.11849305254E+04  0.18677719163E+03 -0.10195230652E+04  0.15742850314E+04  0.10100000352E+00 0. -1.
</event>
<event>
 5   0  0.1628250E-08  0.3798208E+04  0.7818609E-02  0.8046540E-01
       -1   -1    0    0    0  501  0.00000000000E+00  0.00000000000E+00  0.22387299947E+04  0.22387299947E+04  0.50400001928E-02 0.  1.
        1   -1    0    0  501    0  0.00000000000E+00  0.00000000000E+00 -0.16110009367E+04  0.16110009367E+04  0.50400001928E-02 0. -1.
    10030    2    1    2    0    0  0.00000000000E+00  0.00000000000E+00  0.62772905804E+03  0.38497309314E+04  0.37982080609E+04 0.  0.
        1    1    3    3  502    0  0.10189028264E+04 -0.27341729098E+02  0.19380011029E+04  0.21896937718E+04  0.50400001928E-02 0.  1.
       -1    1    3    3    0  502 -0.10189028264E+04  0.27341729098E+02 -0.13102720448E+04  0.16600371596E+04  0.50400001928E-02 0. -1.
</event>
<event>
 5   0  0.5140842E-08  0.3786826E+04  0.7818609E-02  0.8048988E-01
       -2   -1    0    0    0  501  0.00000000000E+00  0.00000000000E+00  0.14244978497E+04  0.14244978497E+04  0.25500000920E-02 0. -1.
        2   -1    0    0  501    0  0.00000000000E+00  0.00000000000E+00 -0.25166857013E+04  0.25166857013E+04  0.25500000920E-02 0.  1.
    10030    2    1    2    0    0  0.00000000000E+00  0.00000000000E+00 -0.10921878516E+04  0.39411835509E+04  0.37868263069E+04 0.  0.
        2    1    3    3  502    0 -0.64113381199E+03 -0.16593702886E+04  0.12875878523E+03  0.17835753823E+04  0.25500000920E-02 0. -1.
       -2    1    3    3    0  502  0.64113381199E+03  0.16593702886E+04 -0.12209466368E+04  0.21576081687E+04  0.25500000920E-02 0.  1.
</event>
<event>
 5   0  0.5140842E-08  0.3798699E+04  0.7818609E-02  0.8046434E-01
       -2   -1    0    0    0  501  0.00000000000E+00  0.00000000000E+00  0.23502063222E+04  0.23502063222E+04  0.25500000920E-02 0.  1.
        2   -1    0    0  501    0  0.00000000000E+00  0.00000000000E+00 -0.15349839177E+04  0.15349839177E+04  0.25500000920E-02 0. -1.
    10030    2    1    2    0    0  0.00000000000E+00  0.00000000000E+00  0.81522240448E+03  0.38851902398E+04  0.37986992025E+04 0.  0.
        2    1    3    3  502    0 -0.14362273273E+04  0.12255537934E+04  0.61919795247E+03  0.19869919830E+04  0.25500000920E-02 0.  1.
       -2    1    3    3    0  502  0.14362273273E+04 -0.12255537934E+04  0.19602445201E+03  0.18981982568E+04  0.25500000920E-02 0. -1.
</event>
<event>
 5   0  0.1628250E-08  0.3802521E+04  0.7818609E-02  0.8045614E-01
        1   -1    0    0  501    0  0.00000000000E+00  0.00000000000E+00  0.24861578671E+04  0.24861578671E+04  0.50400001928E-02 0.  1.
       -1   -1    0    0    0  501  0.00000000000E+00  0.00000000000E+00 -0.14539666409E+04  0.14539666409E+04  0.50400001928E-02 0. -1.
    10030    2    1    2    0    0  0.00000000000E+00  0.00000000000E+00  0.10321912262E+04  0.39401245080E+04  0.38025205340E+04 0.  0.
        1    1    3    3  502    0  0.28524253025E+03 -0.11361734601E+04  0.20677971951E+04  0.23765602607E+04  0.50400001928E-02 0.  1.
       -1    1    3    3    0  502 -0.28524253025E+03  0.11361734601E+04 -0.10356059690E+04  0.15635642473E+04  0.50400001928E-02 0. -1.
</event>
<event>
 5   0  0.1628250E-08  0.3798898E+04  0.7818609E-02  0.8046391E-01
        1   -1    0    0  501    0  0.00000000000E+00  0.00000000000E+00  0.22232350769E+04  0.22232350769E+04  0.50400001928E-02 0. -1.
       -1   -1    0    0    0  501  0.00000000000E+00  0.00000000000E+00 -0.16228181319E+04  0.16228181319E+04  0.50400001928E-02 0.  1.
    10030    2    1    2    0    0  0.00000000000E+00  0.00000000000E+00  0.60041694498E+03  0.38460532088E+04  0.37988978372E+04 0.  0.
        4    1    3    3  502    0 -0.11130597842E+04 -0.15387806745E+04  0.33463845875E+03  0.19284015553E+04  0.12699999809E+01 0.  1.
       -4    1    3    3    0  502  0.11130597842E+04  0.15387806745E+04  0.26577848623E+03  0.19176516535E+04  0.12699999809E+01 0. -1.
</event>
<event>
 5   0  0.1628250E-08  0.3801750E+04  0.7818609E-02  0.8045779E-01
       -1   -1    0    0    0  501  0.00000000000E+00  0.00000000000E+00  0.15159077856E+04  0.15159077856E+04  0.50400001928E-02 0. -1.
        1   -1    0    0  501    0  0.00000000000E+00  0.00000000000E+00 -0.23836053649E+04  0.23836053649E+04  0.50400001928E-02 0.  1.
    10030    2    1    2    0    0  0.00000000000E+00  0.00000000000E+00 -0.86769757932E+03  0.38995131505E+04  0.38017500867E+04 0.  0.
        5    1    3    3  502    0 -0.19164018666E+03 -0.13010244138E+04  0.97400413393E+03  0.16364891168E+04  0.46999998093E+01 0. -1.
       -5    1    3    3    0  502  0.19164018666E+03  0.13010244138E+04 -0.18417017133E+04  0.22630240337E+04  0.46999998093E+01 0.  1.
</event>
<event>
 5   0  0.5207474E-08  0.3779085E+04  0.7818609E-02  0.8050658E-01
        2   -1    0    0  501    0  0.00000000000E+00  0.00000000000E+00  0.22516953036E+04  0.22516953036E+04  0.25500000920E-02 0. -1.
       -2   -1    0    0    0  501  0.00000000000E+00  0.00000000000E+00 -0.15856368481E+04  0.15856368481E+04  0.25500000920E-02 0.  1.
    10030    2    1    2    0    0  0.00000000000E+00  0.00000000000E+00  0.66605845545E+03  0.38373321517E+04  0.37790850978E+04 0.  0.
        4    1    3    3  502    0 -0.14591298639E+04 -0.12005324972E+04  0.32735792511E+03  0.19176816891E+04  0.12699999809E+01 0. -1.
       -4    1    3    3    0  502  0.14591298639E+04  0.12005324972E+04  0.33870053034E+03  0.19196504626E+04  0.12699999809E+01 0.  1.
</event>
<event>
 5   0  0.1628250E-08  0.3801356E+04  0.7818609E-02  0.8045864E-01
       -1   -1    0    0    0  501  0.00000000000E+00  0.00000000000E+00  0.15375839862E+04  0.15375839862E+04  0.50400001928E-02 0. -1.
        1   -1    0    0  501    0  0.00000000000E+00  0.00000000000E+00 -0.23495151503E+04  0.23495151504E+04  0.50400001928E-02 0.  1.
    10030    2    1    2    0    0  0.00000000000E+00  0.00000000000E+00 -0.81193116413E+03  0.38870991366E+04  0.38013560057E+04 0.  0.
        5    1    3    3  502    0  0.12113545451E+04 -0.28829668321E+02 -0.19033533489E+04  0.22563215738E+04  0.46999998093E+01 0.  1.
       -5    1    3    3    0  502 -0.12113545451E+04  0.28829668321E+02  0.10914221848E+04  0.16307775627E+04  0.46999998093E+01 0. -1.
</event>
<event>
 5   0  0.5147582E-08  0.3797475E+04  0.7818609E-02  0.8046697E-01
        2   -1    0    0  501    0  0.00000000000E+00  0.00000000000E+00  0.19773322133E+04  0.19773322133E+04  0.25500000920E-02 0.  1.
       -2   -1    0    0    0  501  0.00000000000E+00  0.00000000000E+00 -0.18232668293E+04  0.18232668293E+04  0.25500000920E-02 0. -1.
    10030    2    1    2    0    0  0.00000000000E+00  0.00000000000E+00  0.15406538398E+03  0.38005990426E+04  0.37974750743E+04 0.  0.
        1    1    3    3  502    0 -0.13167114407E+04 -0.92664167996E+03 -0.93018002790E+03  0.18594700066E+04  0.50400001928E-02 0. -1.
       -1    1    3    3    0  502  0.13167114407E+04  0.92664167996E+03  0.10842454119E+04  0.19411290360E+04  0.50400001928E-02 0.  1.
</event>
<event>
 5   0  0.1628250E-08  0.3799225E+04  0.7818609E-02  0.8046321E-01
        1   -1    0    0  501    0  0.00000000000E+00  0.00000000000E+00  0.33573897164E+04  0.33573897164E+04  0.50400001928E-02 0. -1.
       -1   -1    0    0    0  501  0.00000000000E+00  0.00000000000E+00 -0.10748015625E+04  0.10748015625E+04  0.50400001928E-02 0.  1.
    10030    2    1    2    0    0  0.00000000000E+00  0.00000000000E+00  0.22825881539E+04  0.44321912789E+04  0.37992250332E+04 0.  0.
        5    1    3    3  502    0  0.43871024091E+02 -0.12605189718E+04  0.27983946016E+04  0.30695060158E+04  0.46999998093E+01 0. -1.
       -5    1    3    3    0  502 -0.43871024091E+02  0.12605189718E+04 -0.51580644765E+03  0.13626852631E+04  0.46999998093E+01 0.  1.
</event>
<event>
 5   0  0.1628473E-08  0.3805239E+04  0.7818609E-02  0.8045031E-01
       -1   -1    0    0    0  501  0.00000000000E+00  0.00000000000E+00  0.12360550853E+04  0.12360550853E+04  0.50400001928E-02 0.  1.
        1   -1    0    0  501    0  0.00000000000E+00  0.00000000000E+00 -0.29286409625E+04  0.29286409625E+04  0.50400001928E-02 0. -1.
    10030    2    1    2    0    0  0.00000000000E+00  0.00000000000E+00 -0.16925858772E+04  0.41646960478E+04  0.38052393117E+04 0.  0.
        3    1    3    3  502    0 -0.59290129813E+03 -0.14321658260E+04  0.36125842585E+03  0.15915836651E+04  0.10100000352E+00 0.  1.
       -3    1    3    3    0  502  0.59290129813E+03  0.14321658260E+04 -0.20538443031E+04  0.25731123827E+04  0.10100000352E+00 0. -1.
</event>
<event>
 5   0  0.1628473E-08  0.3796563E+04  0.7818609E-02  0.8046893E-01
       -1   -1    0    0    0  501  0.00000000000E+00  0.00000000000E+00  0.22174755262E+04  0.22174755262E+04  0.50400001928E-02 0.  1.
        1   -1    0    0  501    0  0.00000000000E+00  0.00000000000E+00 -0.16250342142E+04  0.16250342142E+04  0.50400001928E-02 0. -1.
    10030    2    1    2    0    0  0.00000000000E+00  0.00000000000E+00  0.59244131194E+03  0.38425097404E+04  0.37965634983E+04 0.  0.
        3    1    3    3  502    0 -0.77569301128E+02 -0.14218860942E+04 -0.97423818006E+03  0.17253744820E+04  0.10100000352E+00 0. -1.
       -3    1    3    3    0  502  0.77569301128E+02  0.14218860942E+04  0.15666794920E+04  0.21171352584E+04  0.10100000352E+00 0.  1.
</event>
<event>
 5   0  0.1628250E-08  0.3794435E+04  0.7818609E-02  0.8047350E-01
       -3   -1    0    0    0  501  0.00000000000E+00  0.00000000000E+00  0.16313443149E+04  0.16313443180E+04  0.10100000352E+00 0. -1.
        3   -1    0    0  501    0  0.00000000000E+00  0.00000000000E+00 -0.22064220222E+04  0.22064220245E+04  0.10100000352E+00 0.  1.
    10030    2    1    2    0    0  0.00000000000E+00  0.00000000000E+00 -0.57507770738E+03  0.38377663425E+04  0.37944348894E+04 0.  0.
        4    1    3    3  502    0  0.10725276495E+04  0.40812470085E+03  0.12405256180E+04  0.16899073206E+04  0.12699999809E+01 0. -1.
       -4    1    3    3    0  502 -0.10725276495E+04 -0.40812470085E+03 -0.18156033253E+04  0.21478590220E+04  0.12699999809E+01 0.  1.
</event>
<event>
 5   0  0.5207474E-08  0.3792474E+04  0.7818609E-02  0.8047772E-01
        2   -1    0    0  501    0  0.00000000000E+00  0.00000000000E+00  0.14623703283E+04  0.14623703283E+04  0.25500000920E-02 0.  1.
       -2   -1    0    0    0  501  0.00000000000E+00  0.00000000000E+00 -0.24588262474E+04  0.24588262474E+04  0.25500000920E-02 0. -1.
    10030    2    1    2    0    0  0.00000000000E+00  0.00000000000E+00 -0.99645591914E+03  0.39211965757E+04  0.37924738874E+04 0.  0.
        4    1    3    3  502    0 -0.15432476723E+04 -0.98214652846E+03  0.18212941893E+02  0.18293601356E+04  0.12699999809E+01 0.  1.
       -4    1    3    3    0  502  0.15432476723E+04  0.98214652846E+03 -0.10146688610E+04  0.20918364401E+04  0.12699999809E+01 0. -1.
</event>
<event>
 5   0  0.5086209E-08  0.3790275E+04  0.7818609E-02  0.8048245E-01
       -2   -1    0    0    0  501  0.00000000000E+00  0.00000000000E+00  0.14605470091E+04  0.14605470091E+04  0.25500000920E-02 0. -1.
        2   -1    0    0  501    0  0.00000000000E+00  0.00000000000E+00 -0.24590418500E+04  0.24590418500E+04  0.25500000920E-02 0.  1.
    10030    2    1    2    0    0  0.00000000000E+00  0.00000000000E+00 -0.99849484096E+03  0.39195888591E+04  0.37902750397E+04 0.  0.
        3    1    3    3  502    0 -0.26685304252E+03 -0.69375945560E+03  0.13035109942E+04  0.15005511157E+04  0.10100000352E+00 0. -1.
       -3    1    3    3    0  502  0.26685304252E+03  0.69375945560E+03 -0.23020058352E+04  0.24190377434E+04  0.10100000352E+00 0.  1.
</event>
<event>
 5   0  0.5140842E-08  0.3720206E+04  0.7818609E-02  0.8063499E-01
       -2   -1    0    0    0  501  0.00000000000E+00  0.00000000000E+00  0.15438623538E+04  0.15438623538E+04  0.25500000920E-02 0. -1.
        2   -1    0    0  501    0  0.00000000000E+00  0.00000000000E+00 -0.22411218604E+04  0.22411218604E+04  0.25500000920E-02 0.  1.
    10030    2    1    2    0    0  0.00000000000E+00  0.00000000000E+00 -0.69725950659E+03  0.37849842142E+04  0.37202062687E+04 0.  0.
        2    1    3    3  502    0 -0.69430262553E+03  0.30795342975E+03 -0.20761626228E+04  0.22107335179E+04  0.25500000920E-02 0.  1.
       -2    1    3    3    0  502  0.69430262553E+03 -0.30795342975E+03  0.13789031162E+04  0.15742506963E+04  0.25500000920E-02 0. -1.
</event>
<event>
 5   0  0.5147582E-08  0.3792625E+04  0.7818609E-02  0.8047739E-01
        2   -1    0    0  501    0  0.00000000000E+00  0.00000000000E+00  0.19236433732E+04  0.19236433732E+04  0.25500000920E-02 0.  1.
       -2   -1    0    0    0  501  0.00000000000E+00  0.00000000000E+00 -0.18693703900E+04  0.18693703900E+04  0.25500000920E-02 0. -1.
    10030    2    1    2    0    0  0.00000000000E+00  0.00000000000E+00  0.54272983174E+02  0.37930137632E+04  0.37926254562E+04 0.  0.
        1    1    3    3  502    0 -0.80081084513E+03 -0.71099418779E+02  0.17447665026E+04  0.19210838830E+04  0.50400001928E-02 0.  1.
       -1    1    3    3    0  502  0.80081084513E+03  0.71099418779E+02 -0.16904935194E+04  0.18719298802E+04  0.50400001928E-02 0. -1.
</event>
<event>
 5   0  0.5159761E-08  0.3799682E+04  0.7818609E-02  0.8046223E-01
        2   -1    0    0  501    0  0.00000000000E+00  0.00000000000E+00  0.32590567503E+04  0.32590567503E+04  0.25500000920E-02 0.  1.
       -2   -1    0    0    0  501  0.00000000000E+00  0.00000000000E+00 -0.11074971393E+04  0.11074971393E+04  0.25500000920E-02 0. -1.
    10030    2    1    2    0    0  0.00000000000E+00  0.00000000000E+00  0.21515596111E+04  0.43665538896E+04  0.37996821065E+04 0.  0.
        5    1    3    3  502    0  0.51710312518E+03  0.12206480840E+04  0.26396894122E+04  0.29538719793E+04  0.46999998093E+01 0.  1.
       -5    1    3    3    0  502 -0.51710312518E+03 -0.12206480840E+04 -0.48812980113E+03  0.14126819103E+04  0.46999998093E+01 0. -1.
</event>
<event>
 5   0  0.5086209E-08  0.3777441E+04  0.7818609E-02  0.8051013E-01
        2   -1    0    0  501    0  0.00000000000E+00  0.00000000000E+00  0.27480594834E+04  0.27480594834E+04  0.25500000920E-02 0.  1.
       -2   -1    0    0    0  501  0.00000000000E+00  0.00000000000E+00 -0.12981031921E+04  0.12981031921E+04  0.25500000920E-02 0. -1.
    10030    2    1    2    0    0  0.00000000000E+00  0.00000000000E+00  0.14499562913E+04  0.40461626756E+04  0.37774408202E+04 0.  0.
        3    1    3    3  502    0  0.46123428888E+03  0.14634476805E+04 -0.45466042729E+03  0.16003538037E+04  0.10100000352E+00 0. -1.
       -3    1    3    3    0  502 -0.46123428888E+03 -0.14634476805E+04  0.19046167186E+04  0.24458088718E+04  0.10100000352E+00 0.  1.
</event>
<event>
 5   0  0.1628473E-08  0.3796269E+04  0.7818609E-02  0.8046956E-01
        1   -1    0    0  501    0  0.00000000000E+00  0.00000000000E+00  0.27654715146E+04  0.27654715146E+04  0.50400001928E-02 0.  1.
       -1   -1    0    0    0  501  0.00000000000E+00  0.00000000000E+00 -0.13028213041E+04  0.13028213041E+04  0.50400001928E-02 0. -1.
    10030    2    1    2    0    0  0.00000000000E+00  0.00000000000E+00  0.14626502105E+04  0.40682928187E+04  0.37962693292E+04 0.  0.
        3    1    3    3  502    0 -0.67051200350E+03 -0.13530739288E+04 -0.50108791462E+03  0.15910639560E+04  0.10100000352E+00 0. -1.
       -3    1    3    3    0  502  0.67051200350E+03  0.13530739288E+04  0.19637381251E+04  0.24772288627E+04  0.10100000352E+00 0.  1.
</event>
<event>
 5   0  0.1628473E-08  0.3796331E+04  0.7818609E-02  0.8046943E-01
       -1   -1    0    0    0  501  0.00000000000E+00  0.00000000000E+00  0.16777213807E+04  0.16777213808E+04  0.50400001928E-02 0.  1.
        1   -1    0    0  501    0  0.00000000000E+00  0.00000000000E+00 -0.21475748790E+04  0.21475748790E+04  0.50400001928E-02 0. -1.
    10030    2    1    2    0    0  0.00000000000E+00  0.00000000000E+00 -0.46985349828E+03  0.38252962598E+04  0.37963310137E+04 0.  0.
        3    1    3    3  502    0  0.25336380065E+03 -0.16875256281E+04 -0.10725916015E+04  0.20155368304E+04  0.10100000352E+00 0. -1.
       -3    1    3    3    0  502 -0.25336380065E+03  0.16875256281E+04  0.60273810318E+03  0.18097594294E+04  0.10100000352E+00 0.  1.
</event>
<event>
 5   0  0.1628250E-08  0.3797829E+04  0.7818609E-02  0.8046621E-01
        1   -1    0    0  501    0  0.00000000000E+00  0.00000000000E+00  0.18173752733E+04  0.18173752733E+04  0.50400001928E-02 0. -1.
       -1   -1    0    0    0  501  0.00000000000E+00  0.00000000000E+00 -0.19841125842E+04  0.19841125842E+04  0.50400001928E-02 0.  1.
    10030    2    1    2    0    0  0.00000000000E+00  0.00000000000E+00 -0.16673731093E+03  0.38014878576E+04  0.37978294591E+04 0.  0.
        5    1    3    3  502    0  0.99792303871E+02 -0.89396726934E+03 -0.17573190003E+04  0.19741651758E+04  0.46999998093E+01 0.  1.
       -5    1    3    3    0  502 -0.99792303871E+02  0.89396726934E+03  0.15905816894E+04  0.18273226817E+04  0.46999998093E+01 0. -1.
</event>
<event>
 5   0  0.1628473E-08  0.3819650E+04  0.7818609E-02  0.8041951E-01
       -1   -1    0    0    0  501  0.00000000000E+00  0.00000000000E+00  0.19456164784E+04  0.19456164784E+04  0.50400001928E-02 0.  1.
        1   -1    0    0  501    0  0.00000000000E+00  0.00000000000E+00 -0.18746915863E+04  0.18746915863E+04  0.50400001928E-02 0. -1.
    10030    2    1    2    0    0  0.00000000000E+00  0.00000000000E+00  0.70924892160E+02  0.38203080647E+04  0.38196496396E+04 0.  0.
        3    1    3    3  502    0 -0.11317341047E+02 -0.40710136198E+03 -0.18307560915E+04  0.18755072588E+04  0.10100000352E+00 0. -1.
       -3    1    3    3    0  502  0.11317341047E+02  0.40710136198E+03  0.19016809836E+04  0.19448008059E+04  0.10100000352E+00 0.  1.
</event>
<event>
 5   0  0.5140842E-08  0.3809372E+04  0.7818609E-02  0.8044147E-01
        2   -1    0    0  501    0  0.00000000000E+00  0.00000000000E+00  0.17119984474E+04  0.17119984475E+04  0.25500000920E-02 0.  1.
       -2   -1    0    0    0  501  0.00000000000E+00  0.00000000000E+00 -0.21190605853E+04  0.21190605853E+04  0.25500000920E-02 0. -1.
    10030    2    1    2    0    0  0.00000000000E+00  0.00000000000E+00 -0.40706213784E+03  0.38310590327E+04  0.38093718286E+04 0.  0.
        2    1    3    3  502    0  0.86967167752E+03  0.48614969900E+03 -0.18360898024E+04  0.20889940447E+04  0.25500000920E-02 0. -1.
       -2    1    3    3    0  502 -0.86967167752E+03 -0.48614969900E+03  0.14290276645E+04  0.17420649880E+04  0.25500000920E-02 0.  1.
</event>
<event>
 5   0  0.5086209E-08  0.3799987E+04  0.7818609E-02  0.8046158E-01
        2   -1    0    0  501    0  0.00000000000E+00  0.00000000000E+00  0.23193061154E+04  0.23193061154E+04  0.25500000920E-02 0. -1.
       -2   -1    0    0    0  501  0.00000000000E+00  0.00000000000E+00 -0.15564894224E+04  0.15564894224E+04  0.25500000920E-02 0.  1.
    10030    2    1    2    0    0  0.00000000000E+00  0.00000000000E+00  0.76281669308E+03  0.38757955378E+04  0.37999870715E+04 0.  0.
        3    1    3    3  502    0 -0.34625216823E+03  0.56060184608E+03 -0.14362239247E+04  0.15801595382E+04  0.10100000352E+00 0.  1.
       -3    1    3    3    0  502  0.34625216823E+03 -0.56060184608E+03  0.21990406178E+04  0.22956359996E+04  0.10100000352E+00 0. -1.
</event>
<event>
 5   0  0.1628473E-08  0.3803932E+04  0.7818609E-02  0.8045312E-01
       -1   -1    0    0    0  501  0.00000000000E+00  0.00000000000E+00  0.11941537937E+04  0.11941537937E+04  0.50400001928E-02 0. -1.
        1   -1    0    0  501    0  0.00000000000E+00  0.00000000000E+00 -0.30293210114E+04  0.30293210114E+04  0.50400001928E-02 0.  1.
    10030    2    1    2    0    0  0.00000000000E+00  0.00000000000E+00 -0.18351672176E+04  0.42234748051E+04  0.38039322697E+04 0.  0.
        3    1    3    3  502    0  0.81986175910E+03  0.16860267256E+04 -0.56191614939E+03  0.19571942143E+04  0.10100000352E+00 0.  1.
       -3    1    3    3    0  502 -0.81986175910E+03 -0.16860267256E+04 -0.12732510682E+04  0.22662805908E+04  0.10100000352E+00 0. -1.
</event>
<event>
 5   0  0.1666051E-08  0.3801433E+04  0.7818609E-02  0.8045848E-01
       -1   -1    0    0    0  501  0.00000000000E+00  0.00000000000E+00  0.16791554294E+04  0.16791554294E+04  0.50400001928E-02 0.  1.
        1   -1    0    0  501    0  0.00000000000E+00  0.00000000000E+00 -0.21515116632E+04  0.21515116632E+04  0.50400001928E-02 0. -1.
    10030    2    1    2    0    0  0.00000000000E+00  0.00000000000E+00 -0.47235623382E+03  0.38306670927E+04  0.38014326198E+04 0.  0.
        2    1    3    3  502    0  0.85339960222E+03  0.70611211566E+02  0.14737645847E+04  0.17044819962E+04  0.25500000920E-02 0.  1.
       -2    1    3    3    0  502 -0.85339960222E+03 -0.70611211566E+02 -0.19461208185E+04  0.21261850965E+04  0.25500000920E-02 0. -1.
</event>
<event>
 5   0  0.5140842E-08  0.3796009E+04  0.7818609E-02  0.8047012E-01
        2   -1    0    0  501    0  0.00000000000E+00  0.00000000000E+00  0.19154228909E+04  0.19154228909E+04  0.25500000920E-02 0.  1.
       -2   -1    0    0    0  501  0.00000000000E+00  0.00000000000E+00 -0.18807447844E+04  0.18807447844E+04  0.25500000920E-02 0. -1.
    10030    2    1    2    0    0  0.00000000000E+00  0.00000000000E+00  0.34678106467E+02  0.37961676753E+04  0.37960092792E+04 0.  0.
        2    1    3    3  502    0 -0.10031007149E+03  0.17116073753E+04  0.83147356632E+03  0.19055209810E+04  0.25500000920E-02 0.  1.
       -2    1    3    3    0  502  0.10031007149E+03 -0.17116073753E+04 -0.79679545985E+03  0.18906466942E+04  0.25500000920E-02 0. -1.
</event>
<event>
 5   0  0.1628250E-08  0.3801758E+04  0.7818609E-02  0.8045778E-01
        1   -1    0    0  501    0  0.00000000000E+00  0.00000000000E+00  0.12747737877E+04  0.12747737877E+04  0.50400001928E-02 0.  1.
       -1   -1    0    0    0  501  0.00000000000E+00  0.00000000000E+00 -0.28344963838E+04  0.28344963838E+04  0.50400001928E-02 0. -1.
    10030    2    1    2    0    0  0.00000000000E+00  0.00000000000E+00 -0.15597225961E+04  0.41092701715E+04  0.38017583782E+04 0.  0.
        4    1    3    3  502    0 -0.53870146305E+02  0.18935617286E+04 -0.95029237534E+03  0.21193242377E+04  0.12699999809E+01 0.  1.
       -4    1    3    3    0  502  0.53870146305E+02 -0.18935617286E+04 -0.60943022076E+03  0.19899459339E+04  0.12699999809E+01 0. -1.
</event>
<event>
 5   0  0.5147582E-08  0.3800313E+04  0.7818609E-02  0.8046088E-01
        2   -1    0    0  501    0  0.00000000000E+00  0.00000000000E+00  0.25965860466E+04  0.25965860466E+04  0.25500000920E-02 0.  1.
       -2   -1    0    0    0  501  0.00000000000E+00  0.00000000000E+00 -0.13905163955E+04  0.13905163955E+04  0.25500000920E-02 0. -1.
    10030    2    1    2    0    0  0.00000000000E+00  0.00000000000E+00  0.12060696511E+04  0.39871024422E+04  0.38003133924E+04 0.  0.
        1    1    3    3  502    0  0.11755496904E+04 -0.10194021028E+04 -0.54121220567E+03  0.16474247701E+04  0.50400001928E-02 0. -1.
       -1    1    3    3    0  502 -0.11755496904E+04  0.10194021028E+04  0.17472818568E+04  0.23396776720E+04  0.50400001928E-02 0.  1.
</event>
<event>
 5   0  0.1628250E-08  0.3796212E+04  0.7818609E-02  0.8046968E-01
       -1   -1    0    0    0  501  0.00000000000E+00  0.00000000000E+00  0.25222444621E+04  0.25222444621E+04  0.50400001928E-02 0. -1.
        1   -1    0    0  501    0  0.00000000000E+00  0.00000000000E+00 -0.14284126204E+04  0.14284126204E+04  0.50400001928E-02 0.  1.
    10030    2    1    2    0    0  0.00000000000E+00  0.00000000000E+00  0.10938318417E+04  0.39506570825E+04  0.37962117018E+04 0.  0.
        4    1    3    3  502    0  0.16556230867E+03  0.17504247073E+04 -0.19730539840E+03  0.17692734574E+04  0.12699999809E+01 0.  1.
       -4    1    3    3    0  502 -0.16556230867E+03 -0.17504247073E+04  0.12911372401E+04  0.21813836251E+04  0.12699999809E+01 0. -1.
</event>
<event>
 5   0  0.1628473E-08  0.3806248E+04  0.7818609E-02  0.8044815E-01
       -1   -1    0    0    0  501  0.00000000000E+00  0.00000000000E+00  0.14434002801E+04  0.14434002801E+04  0.50400001928E-02 0.  1.
        1   -1    0    0  501    0  0.00000000000E+00  0.00000000000E+00 -0.25092704693E+04  0.25092704693E+04  0.50400001928E-02 0. -1.
    10030    2    1    2    0    0  0.00000000000E+00  0.00000000000E+00 -0.10658701892E+04  0.39526707493E+04  0.38062483882E+04 0.  0.
        3    1    3    3  502    0  0.11744512257E+04  0.92716360362E+03  0.68827685944E+03  0.16470255234E+04  0.10100000352E+00 0.  1.
       -3    1    3    3    0  502 -0.11744512257E+04 -0.92716360362E+03 -0.17541470486E+04  0.23056452259E+04  0.10100000352E+00 0. -1.
</event>
<event>
 5   0  0.1666051E-08  0.3798395E+04  0.7818609E-02  0.8046499E-01
       -1   -1    0    0    0  501  0.00000000000E+00  0.00000000000E+00  0.16582518999E+04  0.16582518999E+04  0.50400001928E-02 0. -1.
        1   -1    0    0  501    0  0.00000000000E+00  0.00000000000E+00 -0.21751528234E+04  0.21751528234E+04  0.50400001928E-02 0.  1.
    10030    2    1    2    0    0  0.00000000000E+00  0.00000000000E+00 -0.51690092354E+03  0.38334047234E+04  0.37983950832E+04 0.  0.
        2    1    3    3  502    0 -0.16666089581E+04  0.61259509374E+03  0.42162484499E+03  0.18250001858E+04  0.25500000920E-02 0. -1.
       -2    1    3    3    0  502  0.16666089581E+04 -0.61259509374E+03 -0.93852576853E+03  0.20084045376E+04  0.25500000920E-02 0.  1.
</event>
<event>
 5   0  0.5147582E-08  0.3798668E+04  0.7818609E-02  0.8046441E-01
        2   -1    0    0  501    0  0.00000000000E+00  0.00000000000E+00  0.12275081201E+04  0.12275081201E+04  0.25500000920E-02 0.  1.
       -2   -1    0    0    0  501  0.00000000000E+00  0.00000000000E+00 -0.29388560193E+04  0.29388560193E+04  0.25500000920E-02 0. -1.
    10030    2    1    2    0    0  0.00000000000E+00  0.00000000000E+00 -0.17113478992E+04  0.41663641394E+04  0.37986679916E+04 0.  0.
        1    1    3    3  502    0  0.23681858173E+03 -0.17438498813E+04 -0.72117600360E+02  0.17613336985E+04  0.50400001928E-02 0.  1.
       -1    1    3    3    0  502 -0.23681858173E+03  0.17438498813E+04 -0.16392302988E+04  0.24050304409E+04  0.50400001928E-02 0. -1.
</event>
<event>
 5   0  0.5159761E-08  0.3808921E+04  0.7818609E-02  0.8044243E-01
        2   -1    0    0  501    0  0.00000000000E+00  0.00000000000E+00  0.23082993705E+04  0.23082993705E+04  0.25500000920E-02 0.  1.
       -2   -1    0    0    0  501  0.00000000000E+00  0.00000000000E+00 -0.15712736499E+04  0.15712736499E+04  0.25500000920E-02 0. -1.
    10030    2    1    2    0    0  0.00000000000E+00  0.00000000000E+00  0.73702572060E+03  0.38795730205E+04  0.38089210950E+04 0.  0.
        5    1    3    3  502    0 -0.12768061801E+04  0.64978433405E+03 -0.90955079533E+03  0.16969851035E+04  0.46999998093E+01 0. -1.
       -5    1    3    3    0  502  0.12768061801E+04 -0.64978433405E+03  0.16465765159E+04  0.21825879169E+04  0.46999998093E+01 0.  1.
</event>
<event>
 5   0  0.1628250E-08  0.3810372E+04  0.7818609E-02  0.8043933E-01
       -1   -1    0    0    0  501  0.00000000000E+00  0.00000000000E+00  0.16948992762E+04  0.16948992762E+04  0.50400001928E-02 0. -1.
        1   -1    0    0  501    0  0.00000000000E+00  0.00000000000E+00 -0.21415629707E+04  0.21415629707E+04  0.50400001928E-02 0.  1.
    10030    2    1    2    0    0  0.00000000000E+00  0.00000000000E+00 -0.44666369448E+03  0.38364622469E+04  0.38103719131E+04 0.  0.
        5    1    3    3  502    0  0.12347313916E+04 -0.14098149731E+04 -0.56856677125E+03  0.19584254214E+04  0.46999998093E+01 0.  1.
       -5    1    3    3    0  502 -0.12347313916E+04  0.14098149731E+04  0.12190307678E+03  0.18780368255E+04  0.46999998093E+01 0. -1.
</event>
<event>
 5   0  0.5207474E-08  0.3798798E+04  0.7818609E-02  0.8046413E-01
        2   -1    0    0  501    0  0.00000000000E+00  0.00000000000E+00  0.16707555616E+04  0.16707555616E+04  0.25500000920E-02 0. -1.
       -2   -1    0    0    0  501  0.00000000000E+00  0.00000000000E+00 -0.21593328506E+04  0.21593328506E+04  0.25500000920E-02 0.  1.
    10030    2    1    2    0    0  0.00000000000E+00  0.00000000000E+00 -0.48857728906E+03  0.38300884122E+04  0.37987984256E+04 0.  0.
        4    1    3    3  502    0  0.31465411195E+03 -0.53501054412E+03 -0.20541993292E+04  0.21459217109E+04  0.12699999809E+01 0.  1.
       -4    1    3    3    0  502 -0.31465411195E+03  0.53501054412E+03  0.15656220401E+04  0.16841667013E+04  0.12699999809E+01 0. -1.
</event>
<event>
 5   0  0.1628250E-08  0.3782139E+04  0.7818609E-02  0.8049999E-01
       -1   -1    0    0    0  501  0.00000000000E+00  0.00000000000E+00  0.12133123204E+04  0.12133123204E+04  0.50400001928E-02 0. -1.
        1   -1    0    0  501    0  0.00000000000E+00  0.00000000000E+00 -0.29474218282E+04  0.29474218282E+04  0.50400001928E-02 0.  1.
    10030    2    1    2    0    0  0.00000000000E+00  0.00000000000E+00 -0.17341095078E+04  0.41607341486E+04  0.37821386635E+04 0.  0.
        1    1    3    3  502    0  0.11556760181E+04 -0.49384336748E+03 -0.24215385449E+04  0.27282443540E+04  0.50400001928E-02 0.  1.
       -1    1    3    3    0  502 -0.11556760181E+04  0.49384336748E+03  0.68742903713E+03  0.14324897946E+04  0.50400001928E-02 0. -1.
</event>
<event>
 5   0  0.1628250E-08  0.3802010E+04  0.7818609E-02  0.8045724E-01
       -1   -1    0    0    0  501  0.00000000000E+00  0.00000000000E+00  0.13676016221E+04  0.13676016221E+04  0.50400001928E-02 0. -1.
        1   -1    0    0  501    0  0.00000000000E+00  0.00000000000E+00 -0.26424506544E+04  0.26424506544E+04  0.50400001928E-02 0.  1.
    10030    2    1    2    0    0  0.00000000000E+00  0.00000000000E+00 -0.12748490323E+04  0.40100522764E+04  0.38020098901E+04 0.  0.
        5    1    3    3  502    0 -0.26030693557E+03 -0.13875564344E+04  0.70531409654E+03  0.15781516481E+04  0.46999998093E+01 0. -1.
       -5    1    3    3    0  502  0.26030693557E+03  0.13875564344E+04 -0.19801631288E+04  0.24319006284E+04  0.46999998093E+01 0.  1.
</event>
<event>
 5   0  0.1666051E-08  0.3804515E+04  0.7818609E-02  0.8045187E-01
        1   -1    0    0  501    0  0.00000000000E+00  0.00000000000E+00  0.20993673979E+04  0.20993673979E+04  0.50400001928E-02 0. -1.
       -1   -1    0    0    0  501  0.00000000000E+00  0.00000000000E+00 -0.17236543831E+04  0.17236543831E+04  0.50400001928E-02 0.  1.
    10030    2    1    2    0    0  0.00000000000E+00  0.00000000000E+00  0.37571301478E+03  0.38230217810E+04  0.38045151161E+04 0.  0.
        2    1    3    3  502    0  0.10749078018E+04 -0.11963218153E+04  0.12086578587E+04  0.20118316250E+04  0.25500000920E-02 0. -1.
       -2    1    3    3    0  502 -0.10749078018E+04  0.11963218153E+04 -0.83294484392E+03  0.18111901560E+04  0.25500000920E-02 0.  1.
</event>
<event>
 5   0  0.1666051E-08  0.3800338E+04  0.7818609E-02  0.8046082E-01
       -1   -1    0    0    0  501  0.00000000000E+00  0.00000000000E+00  0.15610467056E+04  0.15610467056E+04  0.50400001928E-02 0. -1.
        1   -1    0    0  501    0  0.00000000000E+00  0.00000000000E+00 -0.23129629002E+04  0.23129629002E+04  0.50400001928E-02 0.  1.
    10030    2    1    2    0    0  0.00000000000E+00  0.00000000000E+00 -0.75191619463E+03  0.38740096058E+04  0.38003384667E+04 0.  0.
        2    1    3    3  502    0  0.87998619544E+02 -0.85795136532E+03 -0.21019491440E+04  0.22720067135E+04  0.25500000920E-02 0.  1.
       -2    1    3    3    0  502 -0.87998619544E+02  0.85795136532E+03  0.13500329494E+04  0.16020028922E+04  0.25500000920E-02 0. -1.
</event>
<event>
 5   0  0.1628250E-08  0.3801131E+04  0.7818609E-02  0.8045912E-01
       -3   -1    0    0    0  501  0.00000000000E+00  0.00000000000E+00  0.19735824851E+04  0.19735824877E+04  0.10100000352E+00 0. -1.
        3   -1    0    0  501    0  0.00000000000E+00  0.00000000000E+00 -0.18302495763E+04  0.18302495791E+04  0.10100000352E+00 0.  1.
    10030    2    1    2    0    0  0.00000000000E+00  0.00000000000E+00  0.14333290883E+03  0.38038320668E+04  0.38011306304E+04 0.  0.
        1    1    3    3  502    0 -0.15750572206E+04  0.73034793401E+03 -0.70214577278E+03  0.18727578699E+04  0.50400001928E-02 0.  1.
       -1    1    3    3    0  502  0.15750572206E+04 -0.73034793401E+03  0.84547868162E+03  0.19310741969E+04  0.50400001928E-02 0. -1.
</event>
<event>
 5   0  0.1628250E-08  0.3804449E+04  0.7818609E-02  0.8045201E-01
       -3   -1    0    0    0  501  0.00000000000E+00  0.00000000000E+00  0.18646151210E+04  0.18646151237E+04  0.10100000352E+00 0. -1.
        3   -1    0    0  501    0  0.00000000000E+00  0.00000000000E+00 -0.19405920959E+04  0.19405920985E+04  0.10100000352E+00 0.  1.
    10030    2    1    2    0    0  0.00000000000E+00  0.00000000000E+00 -0.75976974887E+02  0.38052072223E+04  0.38044486465E+04 0.  0.
        4    1    3    3  502    0 -0.96580552851E+03 -0.12522597185E+04  0.10193509732E+04  0.18814921581E+04  0.12699999809E+01 0. -1.
       -4    1    3    3    0  502  0.96580552851E+03  0.12522597185E+04 -0.10953279481E+04  0.19237150642E+04  0.12699999809E+01 0.  1.
</event>
<event>
 5   0  0.1666051E-08  0.3802496E+04  0.7818609E-02  0.8045619E-01
        1   -1    0    0  501    0  0.00000000000E+00  0.00000000000E+00  0.12768492755E+04  0.12768492755E+04  0.50400001928E-02 0.  1.
       -1   -1    0    0    0  501  0.00000000000E+00  0.00000000000E+00 -0.28309869439E+04  0.28309869439E+04  0.50400001928E-02 0. -1.
    10030    2    1    2    0    0  0.00000000000E+00  0.00000000000E+00 -0.15541376684E+04  0.41078362194E+04  0.38024958269E+04 0.  0.
        2    1    3    3  502    0 -0.17515716307E+04 -0.56323749836E+03 -0.12946035367E+04  0.22497195324E+04  0.25500000920E-02 0.  1.
       -2    1    3    3    0  502  0.17515716307E+04  0.56323749836E+03 -0.25953413173E+03  0.18581166871E+04  0.25500000920E-02 0. -1.
</event>
<event>
 5   0  0.1666051E-08  0.3814326E+04  0.7818609E-02  0.8043087E-01
       -1   -1    0    0    0  501  0.00000000000E+00  0.00000000000E+00  0.16206413929E+04  0.16206413929E+04  0.50400001928E-02 0. -1.
        1   -1    0    0  501    0  0.00000000000E+00  0.00000000000E+00 -0.22443406991E+04  0.22443406991E+04  0.50400001928E-02 0.  1.
    10030    2    1    2    0    0  0.00000000000E+00  0.00000000000E+00 -0.62369930628E+03  0.38649820920E+04  0.38143263818E+04 0.  0.
        2    1    3    3  502    0 -0.19253229968E+02 -0.12084759545E+03 -0.22403585151E+04  0.22436980867E+04  0.25500000920E-02 0.  1.
       -2    1    3    3    0  502  0.19253229968E+02  0.12084759545E+03  0.16166592088E+04  0.16212840053E+04  0.25500000920E-02 0. -1.
</event>
<event>
 5   0  0.1666051E-08  0.3804132E+04  0.7818609E-02  0.8045269E-01
        1   -1    0    0  501    0  0.00000000000E+00  0.00000000000E+00  0.28455691451E+04  0.28455691451E+04  0.50400001928E-02 0.  1.
       -1   -1    0    0    0  501  0.00000000000E+00  0.00000000000E+00 -0.12713997055E+04  0.12713997055E+04  0.50400001928E-02 0. -1.
    10030    2    1    2    0    0  0.00000000000E+00  0.00000000000E+00  0.15741694396E+04  0.41169688506E+04  0.38041323705E+04 0.  0.
        2    1    3    3  502    0 -0.18943690086E+04 -0.10089742307E+03  0.63774579413E+03  0.20013830040E+04  0.25500000920E-02 0.  1.
       -2    1    3    3    0  502  0.18943690086E+04  0.10089742307E+03  0.93642364552E+03  0.21155858467E+04  0.25500000920E-02 0. -1.
</event>
<event>
 5   0  0.5147582E-08  0.3784525E+04  0.7818609E-02  0.8049484E-01
       -2   -1    0    0    0  501  0.00000000000E+00  0.00000000000E+00  0.16164063916E+04  0.16164063916E+04  0.25500000920E-02 0. -1.
        2   -1    0    0  501    0  0.00000000000E+00  0.00000000000E+00 -0.22151961580E+04  0.22151961580E+04  0.25500000920E-02 0.  1.
    10030    2    1    2    0    0  0.00000000000E+00  0.00000000000E+00 -0.59878976635E+03  0.38316025496E+04  0.37845249258E+04 0.  0.
        1    1    3    3  502    0 -0.49745869361E+03 -0.30705312986E+03 -0.21214795527E+04  0.22005504468E+04  0.50400001928E-02 0.  1.
       -1    1    3    3    0  502  0.49745869361E+03  0.30705312986E+03  0.15226897864E+04  0.16310521028E+04  0.50400001928E-02 0. -1.
</event>
<event>
 5   0  0.1628250E-08  0.3800307E+04  0.7818609E-02  0.8046089E-01
       -1   -1    0    0    0  501  0.00000000000E+00  0.00000000000E+00  0.26425979804E+04  0.26425979804E+04  0.50400001928E-02 0.  1.
        1   -1    0    0  501    0  0.00000000000E+00  0.00000000000E+00 -0.13663008456E+04  0.13663008456E+04  0.50400001928E-02 0. -1.
    10030    2    1    2    0    0  0.00000000000E+00  0.00000000000E+00  0.12762971348E+04  0.40088988261E+04  0.38003072798E+04 0.  0.
        5    1    3    3  502    0 -0.46881176898E+03  0.27909451406E+03 -0.12818878545E+04  0.13931750730E+04  0.46999998093E+01 0. -1.
       -5    1    3    3    0  502  0.46881176898E+03 -0.27909451406E+03  0.25581849893E+04  0.26157237530E+04  0.46999998093E+01 0.  1.
</event>
<event>
 5   0  0.1666051E-08  0.3798922E+04  0.7818609E-02  0.8046386E-01
       -1   -1    0    0    0  501  0.00000000000E+00  0.00000000000E+00  0.20036169556E+04  0.20036169556E+04  0.50400001928E-02 0. -1.
        1   -1    0    0  501    0  0.00000000000E+00  0.00000000000E+00 -0.18007194256E+04  0.18007194256E+04  0.50400001928E-02 0.  1.
    10030    2    1    2    0    0  0.00000000000E+00  0.00000000000E+00  0.20289753000E+03  0.38043363811E+04  0.37989219383E+04 0.  0.
        2    1    3    3  502    0 -0.32588133231E+02  0.81586285993E+02 -0.17986837304E+04  0.18008279958E+04  0.25500000920E-02 0.  1.
       -2    1    3    3    0  502  0.32588133231E+02 -0.81586285993E+02  0.20015812604E+04  0.20035083854E+04  0.25500000920E-02 0. -1.
</event>
<event>
 5   0  0.1628250E-08  0.3802321E+04  0.7818609E-02  0.8045657E-01
       -1   -1    0    0    0  501  0.00000000000E+00  0.00000000000E+00  0.13771940054E+04  0.13771940054E+04  0.50400001928E-02 0.  1.
        1   -1    0    0  501    0  0.00000000000E+00  0.00000000000E+00 -0.26244752607E+04  0.26244752607E+04  0.50400001928E-02 0. -1.
    10030    2    1    2    0    0  0.00000000000E+00  0.00000000000E+00 -0.12472812553E+04  0.40016692660E+04  0.38023211838E+04 0.  0.
        1    1    3    3  502    0 -0.47930145918E+03  0.18339043790E+04 -0.46940897988E+03  0.19527621337E+04  0.50400001928E-02 0. -1.
       -1    1    3    3    0  502  0.47930145918E+03 -0.18339043790E+04 -0.77787227541E+03  0.20489071324E+04  0.50400001928E-02 0.  1.
</event>
<event>
 5   0  0.5159761E-08  0.3803444E+04  0.7818609E-02  0.8045416E-01
       -2   -1    0    0    0  501  0.00000000000E+00  0.00000000000E+00  0.18118395818E+04  0.18118395818E+04  0.25500000920E-02 0.  1.
        2   -1    0    0  501    0  0.00000000000E+00  0.00000000000E+00 -0.19960635684E+04  0.19960635684E+04  0.25500000920E-02 0. -1.
    10030    2    1    2    0    0  0.00000000000E+00  0.00000000000E+00 -0.18422398660E+03  0.38079031502E+04  0.38034442186E+04 0.  0.
        5    1    3    3  502    0  0.20609027177E+03  0.43587639724E+03 -0.19338510240E+04  0.19930537642E+04  0.46999998093E+01 0. -1.
       -5    1    3    3    0  502 -0.20609027177E+03 -0.43587639724E+03  0.17496270374E+04  0.18148493860E+04  0.46999998093E+01 0.  1.
</event>
<event>
 5   0  0.5159761E-08  0.3807640E+04  0.7818609E-02  0.8044517E-01
       -2   -1    0    0    0  501  0.00000000000E+00  0.00000000000E+00  0.17865269718E+04  0.17865269718E+04  0.25500000920E-02 0.  1.
        2   -1    0    0  501    0  0.00000000000E+00  0.00000000000E+00 -0.20288133712E+04  0.20288133712E+04  0.25500000920E-02 0. -1.
    10030    2    1    2    0    0  0.00000000000E+00  0.00000000000E+00 -0.24228639942E+03  0.38153403430E+04  0.38076395882E+04 0.  0.
        5    1    3    3  502    0 -0.12958101571E+04  0.39719949468E+03 -0.14608649440E+04  0.19927468170E+04  0.46999998093E+01 0. -1.
       -5    1    3    3    0  502  0.12958101571E+04 -0.39719949468E+03  0.12185785446E+04  0.18225935261E+04  0.46999998093E+01 0.  1.
</event>
<event>
 5   0  0.5207474E-08  0.3799909E+04  0.7818609E-02  0.8046174E-01
        2   -1    0    0  501    0  0.00000000000E+00  0.00000000000E+00  0.21846461509E+04  0.21846461509E+04  0.25500000920E-02 0.  1.
       -2   -1    0    0    0  501  0.00000000000E+00  0.00000000000E+00 -0.16523621469E+04  0.16523621469E+04  0.25500000920E-02 0. -1.
    10030    2    1    2    0    0  0.00000000000E+00  0.00000000000E+00  0.53228400404E+03  0.38370082978E+04  0.37999087379E+04 0.  0.
        4    1    3    3  502    0 -0.16114444669E+04  0.10063394238E+04  0.24717872634E+03  0.19158734930E+04  0.12699999809E+01 0. -1.
       -4    1    3    3    0  502  0.16114444669E+04 -0.10063394238E+04  0.28510527770E+03  0.19211348047E+04  0.12699999809E+01 0.  1.
</event>
<event>
 5   0  0.1628250E-08  0.3804882E+04  0.7818609E-02  0.8045108E-01
       -1   -1    0    0    0  501  0.00000000000E+00  0.00000000000E+00  0.15518127146E+04  0.15518127146E+04  0.50400001928E-02 0. -1.
        1   -1    0    0  501    0  0.00000000000E+00  0.00000000000E+00 -0.23322929298E+04  0.23322929298E+04  0.50400001928E-02 0.  1.
    10030    2    1    2    0    0  0.00000000000E+00  0.00000000000E+00 -0.78048021528E+03  0.38841056444E+04  0.38048820337E+04 0.  0.
        5    1    3    3  502    0 -0.28682003474E+03 -0.80599281051E+02  0.15278447079E+04  0.15566288954E+04  0.46999998093E+01 0. -1.
       -5    1    3    3    0  502  0.28682003474E+03  0.80599281051E+02 -0.23083249232E+04  0.23274767491E+04  0.46999998093E+01 0.  1.
</event>
<event>
 5   0  0.5140842E-08  0.3803644E+04  0.7818609E-02  0.8045373E-01
        2   -1    0    0  501    0  0.00000000000E+00  0.00000000000E+00  0.20736642915E+04  0.20736642915E+04  0.25500000920E-02 0.  1.
       -2   -1    0    0    0  501  0.00000000000E+00  0.00000000000E+00 -0.17442203152E+04  0.17442203152E+04  0.25500000920E-02 0. -1.
    10030    2    1    2    0    0  0.00000000000E+00  0.00000000000E+00  0.32944397627E+03  0.38178846067E+04  0.38036442442E+04 0.  0.
        2    1    3    3  502    0 -0.10126855367E+04  0.12445143063E+04  0.11896125746E+04  0.19973797667E+04  0.25500000920E-02 0.  1.
       -2    1    3    3    0  502  0.10126855367E+04 -0.12445143063E+04 -0.86016859830E+03  0.18205048400E+04  0.25500000920E-02 0. -1.
</event>
<event>
 5   0  0.1666051E-08  0.3800896E+04  0.7818609E-02  0.8045963E-01
       -1   -1    0    0    0  501  0.00000000000E+00  0.00000000000E+00  0.18795127763E+04  0.18795127763E+04  0.50400001928E-02 0. -1.
        1   -1    0    0  501    0  0.00000000000E+00  0.00000000000E+00 -0.19216166354E+04  0.19216166354E+04  0.50400001928E-02 0.  1.
    10030    2    1    2    0    0  0.00000000000E+00  0.00000000000E+00 -0.42103859067E+02  0.38011294117E+04  0.38008962192E+04 0.  0.
        2    1    3    3  502    0  0.13481903237E+04  0.48338735644E+03 -0.12702973049E+04  0.19144021856E+04  0.25500000920E-02 0.  1.
       -2    1    3    3    0  502 -0.13481903237E+04 -0.48338735644E+03  0.12281934459E+04  0.18867272261E+04  0.25500000920E-02 0. -1.
</event>
<event>
 5   0  0.5140842E-08  0.3801105E+04  0.7818609E-02  0.8045918E-01
        2   -1    0    0  501    0  0.00000000000E+00  0.00000000000E+00  0.20278051222E+04  0.20278051222E+04  0.25500000920E-02 0.  1.
       -2   -1    0    0    0  501  0.00000000000E+00  0.00000000000E+00 -0.17812852684E+04  0.17812852684E+04  0.25500000920E-02 0. -1.
    10030    2    1    2    0    0  0.00000000000E+00  0.00000000000E+00  0.24651985378E+03  0.38090903906E+04  0.38011047822E+04 0.  0.
        2    1    3    3  502    0  0.15093712002E+04 -0.11171090523E+04 -0.17055450295E+03  0.18855298707E+04  0.25500000920E-02 0.  1.
       -2    1    3    3    0  502 -0.15093712002E+04  0.11171090523E+04  0.41707435673E+03  0.19235605199E+04  0.25500000920E-02 0. -1.
</event>
<event>
 5   0  0.1628250E-08  0.3790882E+04  0.7818609E-02  0.8048114E-01
        1   -1    0    0  501    0  0.00000000000E+00  0.00000000000E+00  0.16028869539E+04  0.16028869539E+04  0.50400001928E-02 0.  1.
       -1   -1    0    0    0  501  0.00000000000E+00  0.00000000000E+00 -0.22413915388E+04  0.22413915388E+04  0.50400001928E-02 0. -1.
    10030    2    1    2    0    0  0.00000000000E+00  0.00000000000E+00 -0.63850458489E+03  0.38442784927E+04  0.37908823543E+04 0.  0.
        5    1    3    3  502    0 -0.19788418294E+03 -0.23904446700E+03 -0.22154495899E+04  0.22370827840E+04  0.46999998093E+01 0. -1.
       -5    1    3    3    0  502  0.19788418294E+03  0.23904446700E+03  0.15769450050E+04  0.16071957086E+04  0.46999998093E+01 0.  1.
</event>
<event>
 5   0  0.5207474E-08  0.3788255E+04  0.7818609E-02  0.8048680E-01
       -2   -1    0    0    0  501  0.00000000000E+00  0.00000000000E+00  0.13244239374E+04  0.13244239374E+04  0.25500000920E-02 0.  1.
        2   -1    0    0  501    0  0.00000000000E+00  0.00000000000E+00 -0.27088904964E+04  0.27088904964E+04  0.25500000920E-02 0. -1.
    10030    2    1    2    0    0  0.00000000000E+00  0.00000000000E+00 -0.13844665590E+04  0.40333144338E+04  0.37882552276E+04 0.  0.
        4    1    3    3  502    0 -0.81656858487E+03  0.11655753950E+04  0.63857181376E+03  0.15598480149E+04  0.12699999809E+01 0.  1.
       -4    1    3    3    0  502  0.81656858487E+03 -0.11655753950E+04 -0.20230383727E+04  0.24734664190E+04  0.12699999809E+01 0. -1.
</event>
<event>
 5   0  0.1628250E-08  0.3799339E+04  0.7818609E-02  0.8046297E-01
       -1   -1    0    0    0  501  0.00000000000E+00  0.00000000000E+00  0.25213414340E+04  0.25213414340E+04  0.50400001928E-02 0.  1.
        1   -1    0    0  501    0  0.00000000000E+00  0.00000000000E+00 -0.14312791085E+04  0.14312791085E+04  0.50400001928E-02 0. -1.
    10030    2    1    2    0    0  0.00000000000E+00  0.00000000000E+00  0.10900623256E+04  0.39526205425E+04  0.37993385318E+04 0.  0.
        1    1    3    3  502    0 -0.97904795294E+03  0.28665372638E+03  0.22121933819E+04  0.24360839091E+04  0.50400001928E-02 0.  1.
       -1    1    3    3    0  502  0.97904795294E+03 -0.28665372638E+03 -0.11221310563E+04  0.15165366335E+04  0.50400001928E-02 0. -1.
</event>
<event>
 5   0  0.1628250E-08  0.3807595E+04  0.7818609E-02  0.8044527E-01
        1   -1    0    0  501    0  0.00000000000E+00  0.00000000000E+00  0.22338132260E+04  0.22338132260E+04  0.50400001928E-02 0.  1.
       -1   -1    0    0    0  501  0.00000000000E+00  0.00000000000E+00 -0.16225371969E+04  0.16225371969E+04  0.50400001928E-02 0. -1.
    10030    2    1    2    0    0  0.00000000000E+00  0.00000000000E+00  0.61127602914E+03  0.38563504229E+04  0.38075950678E+04 0.  0.
        5    1    3    3  502    0  0.14588732724E+04 -0.12130170963E+04  0.46481683517E+03  0.19534068908E+04  0.46999998093E+01 0.  1.
       -5    1    3    3    0  502 -0.14588732724E+04  0.12130170963E+04  0.14645919397E+03  0.19029435321E+04  0.46999998093E+01 0. -1.
</event>
<event>
 5   0  0.1628250E-08  0.3799561E+04  0.7818609E-02  0.8046249E-01
       -1   -1    0    0    0  501  0.00000000000E+00  0.00000000000E+00  0.14927695394E+04  0.14927695394E+04  0.50400001928E-02 0. -1.
        1   -1    0    0  501    0  0.00000000000E+00  0.00000000000E+00 -0.24177654030E+04  0.24177654030E+04  0.50400001928E-02 0.  1.
    10030    2    1    2    0    0  0.00000000000E+00  0.00000000000E+00 -0.92499586362E+03  0.39105349424E+04  0.37995613152E+04 0.  0.
        1    1    3    3  502    0 -0.48189619096E+03  0.15693403482E+04 -0.14465153140E+04  0.21880264215E+04  0.50400001928E-02 0.  1.
       -1    1    3    3    0  502  0.48189619096E+03 -0.15693403482E+04  0.52151945041E+03  0.17225085209E+04  0.50400001928E-02 0. -1.
</event>
<event>
 5   0  0.5140842E-08  0.3795044E+04  0.7818609E-02  0.8047219E-01
       -2   -1    0    0    0  501  0.00000000000E+00  0.00000000000E+00  0.25876272761E+04  0.25876272761E+04  0.25500000920E-02 0.  1.
        2   -1    0    0  501    0  0.00000000000E+00  0.00000000000E+00 -0.13914638527E+04  0.13914638527E+04  0.25500000920E-02 0. -1.
    10030    2    1    2    0    0  0.00000000000E+00  0.00000000000E+00  0.11961634234E+04  0.39790911288E+04  0.37950440413E+04 0.  0.
        2    1    3    3  502    0  0.18749456649E+04  0.32849893206E+02  0.29403673032E+03  0.18981459271E+04  0.25500000920E-02 0. -1.
       -2    1    3    3    0  502 -0.18749456649E+04 -0.32849893206E+02  0.90212669307E+03  0.20809452016E+04  0.25500000920E-02 0.  1.
</event>
<event>
 5   0  0.5086209E-08  0.3794787E+04  0.7818609E-02  0.8047275E-01
        2   -1    0    0  501    0  0.00000000000E+00  0.00000000000E+00  0.28355000158E+04  0.28355000158E+04  0.25500000920E-02 0. -1.
       -2   -1    0    0    0  501  0.00000000000E+00  0.00000000000E+00 -0.12696533339E+04  0.12696533339E+04  0.25500000920E-02 0.  1.
    10030    2    1    2    0    0  0.00000000000E+00  0.00000000000E+00  0.15658466819E+04  0.41051533497E+04  0.37947869760E+04 0.  0.
        3    1    3    3  502    0 -0.10538238145E+04 -0.15509060793E+04  0.10969171689E+04  0.21723447205E+04  0.10100000352E+00 0.  1.
       -3    1    3    3    0  502  0.10538238145E+04  0.15509060793E+04  0.46892951295E+03  0.19328086292E+04  0.10100000352E+00 0. -1.
</event>
<event>
 5   0  0.1628250E-08  0.3802487E+04  0.7818609E-02  0.8045621E-01
       -1   -1    0    0    0  501  0.00000000000E+00  0.00000000000E+00  0.19101766143E+04  0.19101766143E+04  0.50400001928E-02 0.  1.
        1   -1    0    0  501    0  0.00000000000E+00  0.00000000000E+00 -0.18923523347E+04  0.18923523347E+04  0.50400001928E-02 0. -1.
    10030    2    1    2    0    0  0.00000000000E+00  0.00000000000E+00  0.17824279639E+02  0.38025289490E+04  0.38024871733E+04 0.  0.
        5    1    3    3  502    0  0.59328003324E+01  0.95913945268E+03  0.16504908339E+04  0.19089593423E+04  0.46999998093E+01 0.  1.
       -5    1    3    3    0  502 -0.59328003324E+01 -0.95913945268E+03 -0.16326665543E+04  0.18935696067E+04  0.46999998093E+01 0. -1.
</event>
<event>
 5   0  0.5159761E-08  0.3796723E+04  0.7818609E-02  0.8046858E-01
        2   -1    0    0  501    0  0.00000000000E+00  0.00000000000E+00  0.13017924756E+04  0.13017924756E+04  0.25500000920E-02 0.  1.
       -2   -1    0    0    0  501  0.00000000000E+00  0.00000000000E+00 -0.27683190911E+04  0.27683190911E+04  0.25500000920E-02 0. -1.
    10030    2    1    2    0    0  0.00000000000E+00  0.00000000000E+00 -0.14665266155E+04  0.40701115667E+04  0.37967233046E+04 0.  0.
        5    1    3    3  502    0 -0.17471192883E+04  0.22853185869E+03 -0.14906054640E+04  0.23079383348E+04  0.46999998093E+01 0. -1.
       -5    1    3    3    0  502  0.17471192883E+04 -0.22853185869E+03  0.24078848457E+02  0.17621732319E+04  0.46999998093E+01 0.  1.
</event>
<event>
 5   0  0.5159761E-08  0.3785246E+04  0.7818609E-02  0.8049328E-01
        2   -1    0    0  501    0  0.00000000000E+00  0.00000000000E+00  0.28303096560E+04  0.28303096560E+04  0.25500000920E-02 0. -1.
       -2   -1    0    0    0  501  0.00000000000E+00  0.00000000000E+00 -0.12655937548E+04  0.12655937548E+04  0.25500000920E-02 0.  1.
    10030    2    1    2    0    0  0.00000000000E+00  0.00000000000E+00  0.15647159013E+04  0.40959034108E+04  0.37852462138E+04 0.  0.
        5    1    3    3  502    0 -0.11123315517E+04 -0.15239732437E+04  0.62104519777E+03  0.19863270516E+04  0.46999998093E+01 0.  1.
       -5    1    3    3    0  502  0.11123315517E+04  0.15239732437E+04  0.94367070351E+03  0.21095763591E+04  0.46999998093E+01 0. -1.
</event>
<event>
 5   0  0.5159761E-08  0.3801700E+04  0.7818609E-02  0.8045790E-01
        2   -1    0    0  501    0  0.00000000000E+00  0.00000000000E+00  0.24506483596E+04  0.24506483596E+04  0.25500000920E-02 0. -1.
       -2   -1    0    0    0  501  0.00000000000E+00  0.00000000000E+00 -0.14743981016E+04  0.14743981016E+04  0.25500000920E-02 0.  1.
    10030    2    1    2    0    0  0.00000000000E+00  0.00000000000E+00  0.97625025806E+03  0.39250464612E+04  0.38017002980E+04 0.  0.
        5    1    3    3  502    0 -0.15484520061E+04 -0.75782287390E+03  0.13148615950E+04  0.21681517999E+04  0.46999998093E+01 0. -1.
       -5    1    3    3    0  502  0.15484520061E+04  0.75782287390E+03 -0.33861133694E+03  0.17568946613E+04  0.46999998093E+01 0.  1.
</event>
<event>
 5   0  0.1628250E-08  0.3797824E+04  0.7818609E-02  0.8046622E-01
        1   -1    0    0  501    0  0.00000000000E+00  0.00000000000E+00  0.22495837359E+04  0.22495837359E+04  0.50400001928E-02 0.  1.
       -1   -1    0    0    0  501  0.00000000000E+00  0.00000000000E+00 -0.16029037176E+04  0.16029037176E+04  0.50400001928E-02 0. -1.
    10030    2    1    2    0    0  0.00000000000E+00  0.00000000000E+00  0.64668001832E+03  0.38524874535E+04  0.37978236575E+04 0.  0.
        1    1    3    3  502    0 -0.38971354685E+03  0.99495670227E+03 -0.12689832998E+04  0.16589557267E+04  0.50400001928E-02 0. -1.
       -1    1    3    3    0  502  0.38971354685E+03 -0.99495670227E+03  0.19156633181E+04  0.21935317268E+04  0.50400001928E-02 0.  1.
</event>
<event>
 5   0  0.5207474E-08  0.3803091E+04  0.7818609E-02  0.8045492E-01
        2   -1    0    0  501    0  0.00000000000E+00  0.00000000000E+00  0.15533931843E+04  0.15533931843E+04  0.25500000920E-02 0. -1.
       -2   -1    0    0    0  501  0.00000000000E+00  0.00000000000E+00 -0.23277268394E+04  0.23277268394E+04  0.25500000920E-02 0.  1.
    10030    2    1    2    0    0  0.00000000000E+00  0.00000000000E+00 -0.77433365506E+03  0.38811200237E+04  0.38030908521E+04 0.  0.
        4    1    3    3  502    0  0.15739915997E+04 -0.68116616725E+03 -0.12252572993E+04  0.21077699034E+04  0.12699999809E+01 0.  1.
       -4    1    3    3    0  502 -0.15739915997E+04  0.68116616725E+03  0.45092364423E+03  0.17733501203E+04  0.12699999809E+01 0. -1.
</event>
<event>
 5   0  0.1628250E-08  0.3802328E+04  0.7818609E-02  0.8045655E-01
        1   -1    0    0  501    0  0.00000000000E+00  0.00000000000E+00  0.23412655085E+04  0.23412655085E+04  0.50400001928E-02 0. -1.
       -1   -1    0    0    0  501  0.00000000000E+00  0.00000000000E+00 -0.15437911534E+04  0.15437911534E+04  0.50400001928E-02 0.  1.
    10030    2    1    2    0    0  0.00000000000E+00  0.00000000000E+00  0.79747435513E+03  0.38850566619E+04  0.38023282235E+04 0.  0.
        1    1    3    3  502    0 -0.17401201306E+04  0.66769495233E+03  0.15625378319E+02  0.18638880789E+04  0.50400001928E-02 0.  1.
       -1    1    3    3    0  502  0.17401201306E+04 -0.66769495233E+03  0.78184897681E+03  0.20211685830E+04  0.50400001928E-02 0. -1.
</event>
<event>
 5   0  0.1628473E-08  0.3797321E+04  0.7818609E-02  0.8046730E-01
       -1   -1    0    0    0  501  0.00000000000E+00  0.00000000000E+00  0.19755913019E+04  0.19755913019E+04  0.50400001928E-02 0. -1.
        1   -1    0    0  501    0  0.00000000000E+00  0.00000000000E+00 -0.18247250175E+04  0.18247250175E+04  0.50400001928E-02 0.  1.
    10030    2    1    2    0    0  0.00000000000E+00  0.00000000000E+00  0.15086628439E+03  0.38003163194E+04  0.37973205674E+04 0.  0.
        3    1    3    3  502    0 -0.81828414766E+03 -0.15214755517E+04  0.86373091832E+03  0.19314522801E+04  0.10100000352E+00 0.  1.
       -3    1    3    3    0  502  0.81828414766E+03  0.15214755517E+04 -0.71286463393E+03  0.18688640393E+04  0.10100000352E+00 0. -1.
</event>
<event>
 5   0  0.1628250E-08  0.3800937E+04  0.7818609E-02  0.8045954E-01
        1   -1    0    0  501    0  0.00000000000E+00  0.00000000000E+00  0.21388087168E+04  0.21388087168E+04  0.50400001928E-02 0.  1.
       -1   -1    0    0    0  501  0.00000000000E+00  0.00000000000E+00 -0.16886878182E+04  0.16886878182E+04  0.50400001928E-02 0. -1.
    10030    2    1    2    0    0  0.00000000000E+00  0.00000000000E+00  0.45012089863E+03  0.38274965351E+04  0.38009368454E+04 0.  0.
        4    1    3    3  502    0  0.33778897682E+03  0.14453069209E+04  0.14202683310E+04  0.20543069959E+04  0.12699999809E+01 0.  1.
       -4    1    3    3    0  502 -0.33778897682E+03 -0.14453069209E+04 -0.97014743237E+03  0.17731895392E+04  0.12699999809E+01 0. -1.
</event>
<event>
 5   0  0.5207474E-08  0.3799742E+04  0.7818609E-02  0.8046210E-01
       -2   -1    0    0    0  501  0.00000000000E+00  0.00000000000E+00  0.16727027507E+04  0.16727027507E+04  0.25500000920E-02 0.  1.
        2   -1    0    0  501    0  0.00000000000E+00  0.00000000000E+00 -0.21578907496E+04  0.21578907496E+04  0.25500000920E-02 0. -1.
    10030    2    1    2    0    0  0.00000000000E+00  0.00000000000E+00 -0.48518799885E+03  0.38305935003E+04  0.37997419873E+04 0.  0.
        4    1    3    3  502    0 -0.14434247233E+04  0.56471970395E+03 -0.13502070506E+04  0.20555884725E+04  0.12699999809E+01 0.  1.
       -4    1    3    3    0  502  0.14434247233E+04 -0.56471970395E+03  0.86501905178E+03  0.17750050278E+04  0.12699999809E+01 0. -1.
</event>
<event>
 5   0  0.1628250E-08  0.3801460E+04  0.7818609E-02  0.8045842E-01
       -1   -1    0    0    0  501  0.00000000000E+00  0.00000000000E+00  0.13453274311E+04  0.13453274311E+04  0.50400001928E-02 0. -1.
        1   -1    0    0  501    0  0.00000000000E+00  0.00000000000E+00 -0.26854243937E+04  0.26854243937E+04  0.50400001928E-02 0.  1.
    10030    2    1    2    0    0  0.00000000000E+00  0.00000000000E+00 -0.13400969626E+04  0.40307518248E+04  0.38014602989E+04 0.  0.
        4    1    3    3  502    0  0.30396660173E+03 -0.45443230877E+02  0.13188051307E+04  0.13541452536E+04  0.12699999809E+01 0. -1.
       -4    1    3    3    0  502 -0.30396660173E+03  0.45443230877E+02 -0.26589020933E+04  0.26766065712E+04  0.12699999809E+01 0.  1.
</event>
<event>
 5   0  0.1628473E-08  0.3796988E+04  0.7818609E-02  0.8046802E-01
        1   -1    0    0  501    0  0.00000000000E+00  0.00000000000E+00  0.12618004861E+04  0.12618004861E+04  0.50400001928E-02 0. -1.
       -1   -1    0    0    0  501  0.00000000000E+00  0.00000000000E+00 -0.28564575647E+04  0.28564575647E+04  0.50400001928E-02 0.  1.
    10030    2    1    2    0    0  0.00000000000E+00  0.00000000000E+00 -0.15946570787E+04  0.41182580508E+04  0.37969880398E+04 0.  0.
        3    1    3    3  502    0  0.66759174240E+03  0.17021506967E+04 -0.24291915521E+03  0.18444526166E+04  0.10100000352E+00 0.  1.
       -3    1    3    3    0  502 -0.66759174240E+03 -0.17021506967E+04 -0.13517379235E+04  0.22738054342E+04  0.10100000352E+00 0. -1.
</event>
<event>
 5   0  0.5147582E-08  0.3809264E+04  0.7818609E-02  0.8044170E-01
       -2   -1    0    0    0  501  0.00000000000E+00  0.00000000000E+00  0.13542294695E+04  0.13542294695E+04  0.25500000920E-02 0. -1.
        2   -1    0    0  501    0  0.00000000000E+00  0.00000000000E+00 -0.26787354764E+04  0.26787354765E+04  0.25500000920E-02 0.  1.
    10030    2    1    2    0    0  0.00000000000E+00  0.00000000000E+00 -0.13245060070E+04  0.40329649459E+04  0.38092637205E+04 0.  0.
        1    1    3    3  502    0 -0.10697579695E+04  0.15591852546E+04 -0.42040487340E+03  0.19370547305E+04  0.50400001928E-02 0.  1.
       -1    1    3    3    0  502  0.10697579695E+04 -0.15591852546E+04 -0.90410113360E+03  0.20959102154E+04  0.50400001928E-02 0. -1.
</event>
<event>
 5   0  0.5159761E-08  0.3793869E+04  0.7818609E-02  0.8047472E-01
        2   -1    0    0  501    0  0.00000000000E+00  0.00000000000E+00  0.20835650641E+04  0.20835650641E+04  0.25500000920E-02 0.  1.
       -2   -1    0    0    0  501  0.00000000000E+00  0.00000000000E+00 -0.17270207749E+04  0.17270207749E+04  0.25500000920E-02 0. -1.
    10030    2    1    2    0    0  0.00000000000E+00  0.00000000000E+00  0.35654428921E+03  0.38105858391E+04  0.37938688178E+04 0.  0.
        5    1    3    3  502    0  0.49102471789E+03  0.10933180300E+04  0.16550871015E+04  0.20434737561E+04  0.46999998093E+01 0.  1.
       -5    1    3    3    0  502 -0.49102471789E+03 -0.10933180300E+04 -0.12985428123E+04  0.17671120830E+04  0.46999998093E+01 0. -1.
</event>
<event>
 5   0  0.1628250E-08  0.3801888E+04  0.7818609E-02  0.8045750E-01
       -1   -1    0    0    0  501  0.00000000000E+00  0.00000000000E+00  0.28823998415E+04  0.28823998415E+04  0.50400001928E-02 0. -1.
        1   -1    0    0  501    0  0.00000000000E+00  0.00000000000E+00 -0.12536737282E+04  0.12536737282E+04  0.50400001928E-02 0.  1.
    10030    2    1    2    0    0  0.00000000000E+00  0.00000000000E+00  0.16287261133E+04  0.41360735697E+04  0.38018884547E+04 0.  0.
        4    1    3    3  502    0  0.10563542375E+04 -0.18426518693E+03  0.25219670070E+04  0.27404665901E+04  0.12699999809E+01 0. -1.
       -4    1    3    3    0  502 -0.10563542375E+04  0.18426518693E+03 -0.89324089370E+03  0.13956069795E+04  0.12699999809E+01 0.  1.
</event>
<event>
 5   0  0.5207474E-08  0.3809871E+04  0.7818609E-02  0.8044040E-01
       -2   -1    0    0    0  501  0.00000000000E+00  0.00000000000E+00  0.21280222520E+04  0.21280222520E+04  0.25500000920E-02 0.  1.
        2   -1    0    0  501    0  0.00000000000E+00  0.00000000000E+00 -0.17052351587E+04  0.17052351587E+04  0.25500000920E-02 0. -1.
    10030    2    1    2    0    0  0.00000000000E+00  0.00000000000E+00  0.42278709323E+03  0.38332574107E+04  0.38098705293E+04 0.  0.
        4    1    3    3  502    0 -0.18909597128E+04 -0.19617173450E+03  0.33281893598E+03  0.19300212543E+04  0.12699999809E+01 0.  1.
       -4    1    3    3    0  502  0.18909597128E+04  0.19617173450E+03  0.89968157241E+02  0.19032361564E+04  0.12699999809E+01 0. -1.
</event>
<event>
 5   0  0.5140842E-08  0.3804538E+04  0.7818609E-02  0.8045182E-01
        2   -1    0    0  501    0  0.00000000000E+00  0.00000000000E+00  0.27723036657E+04  0.27723036657E+04  0.25500000920E-02 0.  1.
       -2   -1    0    0    0  501  0.00000000000E+00  0.00000000000E+00 -0.13052779985E+04  0.13052779985E+04  0.25500000920E-02 0. -1.
    10030    2    1    2    0    0  0.00000000000E+00  0.00000000000E+00  0.14670256672E+04  0.40775816642E+04  0.38045378063E+04 0.  0.
        2    1    3    3  502    0 -0.16210315961E+04  0.99397456066E+03  0.79121056504E+03  0.20595492276E+04  0.25500000920E-02 0. -1.
       -2    1    3    3    0  502  0.16210315961E+04 -0.99397456066E+03  0.67581510218E+03  0.20180324366E+04  0.25500000920E-02 0.  1.
</event>
<event>
 5   0  0.1628250E-08  0.3777543E+04  0.7818609E-02  0.8050991E-01
        1   -1    0    0  501    0  0.00000000000E+00  0.00000000000E+00  0.22791730261E+04  0.22791730261E+04  0.50400001928E-02 0.  1.
       -1   -1    0    0    0  501  0.00000000000E+00  0.00000000000E+00 -0.15652418196E+04  0.15652418197E+04  0.50400001928E-02 0. -1.
    10030    2    1    2    0    0  0.00000000000E+00  0.00000000000E+00  0.71393120646E+03  0.38444148458E+04  0.37775425529E+04 0.  0.
        1    1    3    3  502    0  0.62950709193E+03  0.87801375288E+03 -0.12197410249E+04  0.16294034175E+04  0.50400001928E-02 0. -1.
       -1    1    3    3    0  502 -0.62950709193E+03 -0.87801375288E+03  0.19336722314E+04  0.22150114283E+04  0.50400001928E-02 0.  1.
</event>
<event>
 5   0  0.5140842E-08  0.3799714E+04  0.7818609E-02  0.8046216E-01
       -2   -1    0    0    0  501  0.00000000000E+00  0.00000000000E+00  0.12314467040E+04  0.12314467040E+04  0.25500000920E-02 0.  1.
        2   -1    0    0  501    0  0.00000000000E+00  0.00000000000E+00 -0.29310701611E+04  0.29310701611E+04  0.25500000920E-02 0. -1.
    10030    2    1    2    0    0  0.00000000000E+00  0.00000000000E+00 -0.16996234571E+04  0.41625168650E+04  0.37997140360E+04 0.  0.
        2    1    3    3  502    0 -0.39168868545E+03 -0.84011139625E+03  0.96692142016E+03  0.13394566873E+04  0.25500000920E-02 0.  1.
       -2    1    3    3    0  502  0.39168868545E+03  0.84011139625E+03 -0.26665448773E+04  0.28230601777E+04  0.25500000920E-02 0. -1.
</event>
<event>
 5   0  0.1666051E-08  0.3787778E+04  0.7818609E-02  0.8048783E-01
        1   -1    0    0  501    0  0.00000000000E+00  0.00000000000E+00  0.21710427848E+04  0.21710427848E+04  0.50400001928E-02 0.  1.
       -1   -1    0    0    0  501  0.00000000000E+00  0.00000000000E+00 -0.16521166137E+04  0.16521166137E+04  0.50400001928E-02 0. -1.
    10030    2    1    2    0    0  0.00000000000E+00  0.00000000000E+00  0.51892617115E+03  0.38231593985E+04  0.37877781635E+04 0.  0.
        2    1    3    3  502    0  0.63174063598E+03 -0.54179764400E+02  0.20607291736E+04  0.21560696660E+04  0.25500000920E-02 0.  1.
       -2    1    3    3    0  502 -0.63174063598E+03  0.54179764400E+02 -0.15418030024E+04  0.16670897325E+04  0.25500000920E-02 0. -1.
</event>
<event>
 5   0  0.1628250E-08  0.3821501E+04  0.7818609E-02  0.8041557E-01
       -1   -1    0    0    0  501  0.00000000000E+00  0.00000000000E+00  0.30293355039E+04  0.30293355039E+04  0.50400001928E-02 0.  1.
        1   -1    0    0  501    0  0.00000000000E+00  0.00000000000E+00 -0.12052038589E+04  0.12052038589E+04  0.50400001928E-02 0. -1.
    10030    2    1    2    0    0  0.00000000000E+00  0.00000000000E+00  0.18241316450E+04  0.42345393629E+04  0.38215006682E+04 0.  0.
        1    1    3    3  502    0  0.14862035493E+04  0.80584831408E+03 -0.74547618949E+02  0.16922617536E+04  0.50400001928E-02 0. -1.
       -1    1    3    3    0  502 -0.14862035493E+04 -0.80584831408E+03  0.18986792640E+04  0.25422776093E+04  0.50400001928E-02 0.  1.
</event>
<event>
 5   0  0.5147582E-08  0.3801717E+04  0.7818609E-02  0.8045786E-01
        2   -1    0    0  501    0  0.00000000000E+00  0.00000000000E+00  0.24127201284E+04  0.24127201284E+04  0.25500000920E-02 0.  1.
       -2   -1    0    0    0  501  0.00000000000E+00  0.00000000000E+00 -0.14975891662E+04  0.14975891662E+04  0.25500000920E-02 0. -1.
    10030    2    1    2    0    0  0.00000000000E+00  0.00000000000E+00  0.91513096218E+03  0.39103092946E+04  0.38017172569E+04 0.  0.
        1    1    3    3  502    0 -0.16931913231E+04  0.73082670738E+03 -0.16310116558E+02  0.18442533863E+04  0.50400001928E-02 0. -1.
       -1    1    3    3    0  502  0.16931913231E+04 -0.73082670738E+03  0.93144107873E+03  0.20660559083E+04  0.50400001928E-02 0.  1.
</event>
<event>
 5   0  0.5140842E-08  0.3805403E+04  0.7818609E-02  0.8044996E-01
       -2   -1    0    0    0  501  0.00000000000E+00  0.00000000000E+00  0.26743261351E+04  0.26743261351E+04  0.25500000920E-02 0.  1.
        2   -1    0    0  501    0  0.00000000000E+00  0.00000000000E+00 -0.13537141782E+04  0.13537141782E+04  0.25500000920E-02 0. -1.
    10030    2    1    2    0    0  0.00000000000E+00  0.00000000000E+00  0.13206119569E+04  0.40280403134E+04  0.38054031095E+04 0.  0.
        2    1    3    3  502    0  0.18873125346E+03 -0.11390547309E+04  0.22611387787E+04  0.25388607175E+04  0.25500000920E-02 0.  1.
       -2    1    3    3    0  502 -0.18873125346E+03  0.11390547309E+04 -0.94052682187E+03  0.14891795959E+04  0.25500000920E-02 0. -1.
</event>
<event>
 5   0  0.1628250E-08  0.3792780E+04  0.7818609E-02  0.8047706E-01
       -1   -1    0    0    0  501  0.00000000000E+00  0.00000000000E+00  0.18820445761E+04  0.18820445761E+04  0.50400001928E-02 0.  1.
        1   -1    0    0  501    0  0.00000000000E+00  0.00000000000E+00 -0.19108448844E+04  0.19108448845E+04  0.50400001928E-02 0. -1.
    10030    2    1    2    0    0  0.00000000000E+00  0.00000000000E+00 -0.28800308387E+02  0.37928894605E+04  0.37927801152E+04 0.  0.
        1    1    3    3  502    0 -0.79077190536E+03  0.16199217737E+04  0.57453828888E+03  0.18919727811E+04  0.50400001928E-02 0.  1.
       -1    1    3    3    0  502  0.79077190536E+03 -0.16199217737E+04 -0.60333859726E+03  0.19009166794E+04  0.50400001928E-02 0. -1.
</event>
<event>
 5   0  0.1666051E-08  0.3801732E+04  0.7818609E-02  0.8045783E-01
       -1   -1    0    0    0  501  0.00000000000E+00  0.00000000000E+00  0.14421530579E+04  0.14421530579E+04  0.50400001928E-02 0.  1.
        1   -1    0    0  501    0  0.00000000000E+00  0.00000000000E+00 -0.25054847273E+04  0.25054847273E+04  0.50400001928E-02 0. -1.
    10030    2    1    2    0    0  0.00000000000E+00  0.00000000000E+00 -0.10633316695E+04  0.39476377852E+04  0.38017324793E+04 0.  0.
        2    1    3    3  502    0  0.88044076564E+03 -0.28760660674E+03  0.11919798209E+04  0.15095394647E+04  0.25500000920E-02 0.  1.
       -2    1    3    3    0  502 -0.88044076564E+03  0.28760660674E+03 -0.22553114903E+04  0.24380983205E+04  0.25500000920E-02 0. -1.
</event>
<event>
 5   0  0.5147582E-08  0.3798181E+04  0.7818609E-02  0.8046545E-01
       -2   -1    0    0    0  501  0.00000000000E+00  0.00000000000E+00  0.14302238014E+04  0.14302238014E+04  0.25500000920E-02 0.  1.
        2   -1    0    0  501    0  0.00000000000E+00  0.00000000000E+00 -0.25216649159E+04  0.25216649159E+04  0.25500000920E-02 0. -1.
    10030    2    1    2    0    0  0.00000000000E+00  0.00000000000E+00 -0.10914411145E+04  0.39518887174E+04  0.37981812395E+04 0.  0.
        1    1    3    3  502    0 -0.17455365536E+04  0.50555844729E+03  0.28008999604E+02  0.18174904973E+04  0.50400001928E-02 0.  1.
       -1    1    3    3    0  502  0.17455365536E+04 -0.50555844729E+03 -0.11194501141E+04  0.21343982200E+04  0.50400001928E-02 0. -1.
</event>
<event>
 5   0  0.1666051E-08  0.3799084E+04  0.7818609E-02  0.8046352E-01
        1   -1    0    0  501    0  0.00000000000E+00  0.00000000000E+00  0.17511085176E+04  0.17511085176E+04  0.50400001928E-02 0. -1.
       -1   -1    0    0    0  501  0.00000000000E+00  0.00000000000E+00 -0.20605570534E+04  0.20605570534E+04  0.50400001928E-02 0.  1.
    10030    2    1    2    0    0  0.00000000000E+00  0.00000000000E+00 -0.30944853574E+03  0.38116655710E+04  0.37990835775E+04 0.  0.
        2    1    3    3  502    0  0.10132445550E+04  0.58891673956E+03  0.13451418992E+04  0.17840667542E+04  0.25500000920E-02 0. -1.
       -2    1    3    3    0  502 -0.10132445550E+04 -0.58891673956E+03 -0.16545904350E+04  0.20275988168E+04  0.25500000920E-02 0.  1.
</event>
<event>
 5   0  0.1628473E-08  0.3800422E+04  0.7818609E-02  0.8046064E-01
       -1   -1    0    0    0  501  0.00000000000E+00  0.00000000000E+00  0.16408081448E+04  0.16408081448E+04  0.50400001928E-02 0. -1.
        1   -1    0    0  501    0  0.00000000000E+00  0.00000000000E+00 -0.22006237237E+04  0.22006237237E+04  0.50400001928E-02 0.  1.
    10030    2    1    2    0    0  0.00000000000E+00  0.00000000000E+00 -0.55981557894E+03  0.38414318686E+04  0.38004217290E+04 0.  0.
        3    1    3    3  502    0 -0.90330788472E+03  0.95108846286E+03 -0.16696137160E+04  0.21232391221E+04  0.10100000352E+00 0.  1.
       -3    1    3    3    0  502  0.90330788472E+03 -0.95108846286E+03  0.11097981371E+04  0.17181927465E+04  0.10100000352E+00 0. -1.
</event>
<event>
 5   0  0.5207474E-08  0.3804122E+04  0.7818609E-02  0.8045271E-01
        2   -1    0    0  501    0  0.00000000000E+00  0.00000000000E+00  0.13075918755E+04  0.13075918755E+04  0.25500000920E-02 0.  1.
       -2   -1    0    0    0  501  0.00000000000E+00  0.00000000000E+00 -0.27667923295E+04  0.27667923295E+04  0.25500000920E-02 0. -1.
    10030    2    1    2    0    0  0.00000000000E+00  0.00000000000E+00 -0.14592004540E+04  0.40743842051E+04  0.38041215393E+04 0.  0.
        4    1    3    3  502    0 -0.37917539569E+03 -0.11714907993E+04  0.82310760252E+03  0.14811051319E+04  0.12699999809E+01 0.  1.
       -4    1    3    3    0  502  0.37917539569E+03  0.11714907993E+04 -0.22823080565E+04  0.25932790732E+04  0.12699999809E+01 0. -1.
</event>
<event>
 5   0  0.5207474E-08  0.3804682E+04  0.7818609E-02  0.8045151E-01
        2   -1    0    0  501    0  0.00000000000E+00  0.00000000000E+00  0.17222687369E+04  0.17222687369E+04  0.25500000920E-02 0. -1.
       -2   -1    0    0    0  501  0.00000000000E+00  0.00000000000E+00 -0.21012411167E+04  0.21012411167E+04  0.25500000920E-02 0.  1.
    10030    2    1    2    0    0  0.00000000000E+00  0.00000000000E+00 -0.37897237983E+03  0.38235098536E+04  0.38046823173E+04 0.  0.
        4    1    3    3  502    0  0.16069959384E+04  0.29436573735E+03  0.78992012522E+03  0.18146797377E+04  0.12699999809E+01 0. -1.
       -4    1    3    3    0  502 -0.16069959384E+04 -0.29436573735E+03 -0.11688925050E+04  0.20088301159E+04  0.12699999809E+01 0.  1.
</event>
<event>
 5   0  0.5207474E-08  0.3795290E+04  0.7818609E-02  0.8047166E-01
       -2   -1    0    0    0  501  0.00000000000E+00  0.00000000000E+00  0.23177877658E+04  0.23177877658E+04  0.25500000920E-02 0. -1.
        2   -1    0    0  501    0  0.00000000000E+00  0.00000000000E+00 -0.15536606519E+04  0.15536606519E+04  0.25500000920E-02 0.  1.
    10030    2    1    2    0    0  0.00000000000E+00  0.00000000000E+00  0.76412711396E+03  0.38714484177E+04  0.37952895284E+04 0.  0.
        4    1    3    3  502    0 -0.17885290571E+04  0.10383652393E+03 -0.25613945736E+03  0.18097588918E+04  0.12699999809E+01 0.  1.
       -4    1    3    3    0  502  0.17885290571E+04 -0.10383652393E+03  0.10202665713E+04  0.20616895259E+04  0.12699999809E+01 0. -1.
</event>
<event>
 5   0  0.5086209E-08  0.3798512E+04  0.7818609E-02  0.8046474E-01
        2   -1    0    0  501    0  0.00000000000E+00  0.00000000000E+00  0.24683750647E+04  0.24683750647E+04  0.25500000920E-02 0.  1.
       -2   -1    0    0    0  501  0.00000000000E+00  0.00000000000E+00 -0.14613552814E+04  0.14613552814E+04  0.25500000920E-02 0. -1.
    10030    2    1    2    0    0  0.00000000000E+00  0.00000000000E+00  0.10070197834E+04  0.39297303461E+04  0.37985117808E+04 0.  0.
        3    1    3    3  502    0 -0.86467609819E+03 -0.16613080025E+04  0.17707226786E+03  0.18812133404E+04  0.10100000352E+00 0. -1.
       -3    1    3    3    0  502  0.86467609819E+03  0.16613080025E+04  0.82994751550E+03  0.20485170057E+04  0.10100000352E+00 0.  1.
</event>
<event>
 5   0  0.1628250E-08  0.3735582E+04  0.7818609E-02  0.8060122E-01
       -1   -1    0    0    0  501  0.00000000000E+00  0.00000000000E+00  0.13138991153E+04  0.13138991153E+04  0.50400001928E-02 0. -1.
        1   -1    0    0  501    0  0.00000000000E+00  0.00000000000E+00 -0.26551838029E+04  0.26551838029E+04  0.50400001928E-02 0.  1.
    10030    2    1    2    0    0  0.00000000000E+00  0.00000000000E+00 -0.13412846876E+04  0.39690829182E+04  0.37355822302E+04 0.  0.
        1    1    3    3  502    0  0.15638862149E+04 -0.93426760971E+03 -0.11087865887E+04  0.21326049233E+04  0.50400001928E-02 0.  1.
       -1    1    3    3    0  502 -0.15638862149E+04  0.93426760971E+03 -0.23249809894E+03  0.18364779949E+04  0.50400001928E-02 0. -1.
</event>
<event>
 5   0  0.5140842E-08  0.3806051E+04  0.7818609E-02  0.8044858E-01
        2   -1    0    0  501    0  0.00000000000E+00  0.00000000000E+00  0.15810217567E+04  0.15810217567E+04  0.25500000920E-02 0.  1.
       -2   -1    0    0    0  501  0.00000000000E+00  0.00000000000E+00 -0.22906113426E+04  0.22906113426E+04  0.25500000920E-02 0. -1.
    10030    2    1    2    0    0  0.00000000000E+00  0.00000000000E+00 -0.70958958595E+03  0.38716330993E+04  0.38060511656E+04 0.  0.
        2    1    3    3  502    0  0.18182304040E+04  0.29581015989E+02  0.21582511268E+03  0.18312338239E+04  0.25500000920E-02 0.  1.
       -2    1    3    3    0  502 -0.18182304040E+04 -0.29581015989E+02 -0.92541469863E+03  0.20403992754E+04  0.25500000920E-02 0. -1.
</event>
<event>
 5   0  0.5147582E-08  0.3794620E+04  0.7818609E-02  0.8047310E-01
       -2   -1    0    0    0  501  0.00000000000E+00  0.00000000000E+00  0.27182543403E+04  0.27182543403E+04  0.25500000920E-02 0. -1.
        2   -1    0    0  501    0  0.00000000000E+00  0.00000000000E+00 -0.13243005384E+04  0.13243005384E+04  0.25500000920E-02 0.  1.
    10030    2    1    2    0    0  0.00000000000E+00  0.00000000000E+00  0.13939538019E+04  0.40425548787E+04  0.37946202374E+04 0.  0.
        1    1    3    3  502    0 -0.14720365355E+04  0.56066421392E+02  0.19708253474E+04  0.24605258697E+04  0.50400001928E-02 0. -1.
       -1    1    3    3    0  502  0.14720365355E+04 -0.56066421392E+02 -0.57687154548E+03  0.15820290091E+04  0.50400001928E-02 0.  1.
</event>
<event>
 5   0  0.1666051E-08  0.3869230E+04  0.7818609E-02  0.8031459E-01
       -1   -1    0    0    0  501  0.00000000000E+00  0.00000000000E+00  0.32929941388E+04  0.32929941388E+04  0.50400001928E-02 0. -1.
        1   -1    0    0  501    0  0.00000000000E+00  0.00000000000E+00 -0.11365751550E+04  0.11365751550E+04  0.50400001928E-02 0.  1.
    10030    2    1    2    0    0  0.00000000000E+00  0.00000000000E+00  0.21564189838E+04  0.44295692938E+04  0.38692300648E+04 0.  0.
        2    1    3    3  502    0 -0.69646003699E+03  0.14779814016E+04 -0.10779774100E+03  0.16374083057E+04  0.25500000920E-02 0.  1.
       -2    1    3    3    0  502  0.69646003699E+03 -0.14779814016E+04  0.22642167248E+04  0.27921609881E+04  0.25500000920E-02 0. -1.
</event>
<event>
 5   0  0.1666051E-08  0.3799693E+04  0.7818609E-02  0.8046221E-01
       -1   -1    0    0    0  501  0.00000000000E+00  0.00000000000E+00  0.14485641514E+04  0.14485641514E+04  0.50400001928E-02 0. -1.
        1   -1    0    0  501    0  0.00000000000E+00  0.00000000000E+00 -0.24917207416E+04  0.24917207416E+04  0.50400001928E-02 0.  1.
    10030    2    1    2    0    0  0.00000000000E+00  0.00000000000E+00 -0.10431565902E+04  0.39402848930E+04  0.37996933253E+04 0.  0.
        2    1    3    3  502    0 -0.55737417143E+02  0.32132449421E+02  0.14474341820E+04  0.14488633011E+04  0.25500000920E-02 0. -1.
       -2    1    3    3    0  502  0.55737417143E+02 -0.32132449421E+02 -0.24905907722E+04  0.24914215919E+04  0.25500000920E-02 0.  1.
</event>
<event>
 5   0  0.5147582E-08  0.3781929E+04  0.7818609E-02  0.8050044E-01
       -2   -1    0    0    0  501  0.00000000000E+00  0.00000000000E+00  0.16445665827E+04  0.16445665827E+04  0.25500000920E-02 0. -1.
        2   -1    0    0  501    0  0.00000000000E+00  0.00000000000E+00 -0.21742787951E+04  0.21742787951E+04  0.25500000920E-02 0.  1.
    10030    2    1    2    0    0  0.00000000000E+00  0.00000000000E+00 -0.52971221232E+03  0.38188453778E+04  0.37819287396E+04 0.  0.
        1    1    3    3  502    0 -0.14336322557E+04 -0.64325736829E+03  0.79739397682E+03  0.17620779326E+04  0.50400001928E-02 0. -1.
       -1    1    3    3    0  502  0.14336322557E+04  0.64325736829E+03 -0.13271061891E+04  0.20567674452E+04  0.50400001928E-02 0.  1.
</event>
<event>
 5   0  0.5207474E-08  0.3800833E+04  0.7818609E-02  0.8045976E-01
       -2   -1    0    0    0  501  0.00000000000E+00  0.00000000000E+00  0.11058408608E+04  0.11058408608E+04  0.25500000920E-02 0.  1.
        2   -1    0    0  501    0  0.00000000000E+00  0.00000000000E+00 -0.32659154301E+04  0.32659154301E+04  0.25500000920E-02 0. -1.
    10030    2    1    2    0    0  0.00000000000E+00  0.00000000000E+00 -0.21600745694E+04  0.43717562909E+04  0.38008329247E+04 0.  0.
        4    1    3    3  502    0 -0.16210558929E+03  0.21457509104E+02 -0.32578082443E+04  0.32619096886E+04  0.12699999809E+01 0. -1.
       -4    1    3    3    0  502  0.16210558929E+03 -0.21457509104E+02  0.10977336749E+04  0.11098466023E+04  0.12699999809E+01 0.  1.
</event>
<event>
 5   0  0.5207474E-08  0.3789302E+04  0.7818609E-02  0.8048454E-01
        2   -1    0    0  501    0  0.00000000000E+00  0.00000000000E+00  0.13911503760E+04  0.13911503760E+04  0.25500000920E-02 0. -1.
       -2   -1    0    0    0  501  0.00000000000E+00  0.00000000000E+00 -0.25803846254E+04  0.25803846255E+04  0.25500000920E-02 0.  1.
    10030    2    1    2    0    0  0.00000000000E+00  0.00000000000E+00 -0.11892342495E+04  0.39715350014E+04  0.37893023326E+04 0.  0.
        4    1    3    3  502    0  0.17189342715E+04  0.42147457173E+03  0.11416358020E+03  0.17735305975E+04  0.12699999809E+01 0. -1.
       -4    1    3    3    0  502 -0.17189342715E+04 -0.42147457173E+03 -0.13033978297E+04  0.21980044039E+04  0.12699999809E+01 0.  1.
</event>
<event>
 5   0  0.1628473E-08  0.3800681E+04  0.7818609E-02  0.8046009E-01
       -1   -1    0    0    0  501  0.00000000000E+00  0.00000000000E+00  0.26337745010E+04  0.26337745010E+04  0.50400001928E-02 0. -1.
        1   -1    0    0  501    0  0.00000000000E+00  0.00000000000E+00 -0.13711479744E+04  0.13711479744E+04  0.50400001928E-02 0.  1.
    10030    2    1    2    0    0  0.00000000000E+00  0.00000000000E+00  0.12626265266E+04  0.40049224754E+04  0.38006812927E+04 0.  0.
        3    1    3    3  502    0  0.64078979958E+03  0.16676031978E+04  0.13140367779E+04  0.22177025627E+04  0.10100000352E+00 0.  1.
       -3    1    3    3    0  502 -0.64078979958E+03 -0.16676031978E+04 -0.51410251340E+02  0.17872199128E+04  0.10100000352E+00 0. -1.
</event>
<event>
 5   0  0.1628250E-08  0.3798214E+04  0.7818609E-02  0.8046538E-01
        1   -1    0    0  501    0  0.00000000000E+00  0.00000000000E+00  0.19048257584E+04  0.19048257584E+04  0.50400001928E-02 0. -1.
       -1   -1    0    0    0  501  0.00000000000E+00  0.00000000000E+00 -0.18934055552E+04  0.18934055552E+04  0.50400001928E-02 0.  1.
    10030    2    1    2    0    0  0.00000000000E+00  0.00000000000E+00  0.11420203197E+02  0.37982313136E+04  0.37982141450E+04 0.  0.
        5    1    3    3  502    0 -0.56613389340E+03 -0.12304241363E+04 -0.13255113162E+04  0.18951130520E+04  0.46999998093E+01 0.  1.
       -5    1    3    3    0  502  0.56613389340E+03  0.12304241363E+04  0.13369315193E+04  0.19031182617E+04  0.46999998093E+01 0. -1.
</event>
<event>
 5   0  0.5140842E-08  0.3782158E+04  0.7818609E-02  0.8049995E-01
       -2   -1    0    0    0  501  0.00000000000E+00  0.00000000000E+00  0.13647515215E+04  0.13647515215E+04  0.25500000920E-02 0. -1.
        2   -1    0    0  501    0  0.00000000000E+00  0.00000000000E+00 -0.26203886277E+04  0.26203886277E+04  0.25500000920E-02 0.  1.
    10030    2    1    2    0    0  0.00000000000E+00  0.00000000000E+00 -0.12556371062E+04  0.39851401492E+04  0.37821577791E+04 0.  0.
        2    1    3    3  502    0  0.45575231627E+03 -0.63692587331E+03 -0.24414737767E+04  0.25640161747E+04  0.25500000920E-02 0.  1.
       -2    1    3    3    0  502 -0.45575231627E+03  0.63692587331E+03  0.11858366704E+04  0.14211239745E+04  0.25500000920E-02 0. -1.
</event>
<event>
 5   0  0.1666051E-08  0.3799513E+04  0.7818609E-02  0.8046259E-01
        1   -1    0    0  501    0  0.00000000000E+00  0.00000000000E+00  0.24595682437E+04  0.24595682437E+04  0.50400001928E-02 0. -1.
       -1   -1    0    0    0  501  0.00000000000E+00  0.00000000000E+00 -0.14673607901E+04  0.14673607902E+04  0.50400001928E-02 0.  1.
    10030    2    1    2    0    0  0.00000000000E+00  0.00000000000E+00  0.99220745353E+03  0.39269290338E+04  0.37995126011E+04 0.  0.
        2    1    3    3  502    0  0.10741615067E+04 -0.43880326404E+03 -0.10585687730E+04  0.15706492588E+04  0.25500000920E-02 0.  1.
       -2    1    3    3    0  502 -0.10741615067E+04  0.43880326404E+03  0.20507762265E+04  0.23562797750E+04  0.25500000920E-02 0. -1.
</event>
<event>
 5   0  0.1666051E-08  0.3810029E+04  0.7818609E-02  0.8044006E-01
       -1   -1    0    0    0  501  0.00000000000E+00  0.00000000000E+00  0.20642549050E+04  0.20642549050E+04  0.50400001928E-02 0. -1.
        1   -1    0    0  501    0  0.00000000000E+00  0.00000000000E+00 -0.17580582506E+04  0.17580582507E+04  0.50400001928E-02 0.  1.
    10030    2    1    2    0    0  0.00000000000E+00  0.00000000000E+00  0.30619665432E+03  0.38223131556E+04  0.38100290640E+04 0.  0.
        2    1    3    3  502    0  0.33733143786E+03  0.33898911210E+03 -0.16968574038E+04  0.17629609088E+04  0.25500000920E-02 0.  1.
       -2    1    3    3    0  502 -0.33733143786E+03 -0.33898911210E+03  0.20030540581E+04  0.20593522469E+04  0.25500000920E-02 0. -1.
</event>
<event>
 5   0  0.1628250E-08  0.3791096E+04  0.7818609E-02  0.8048068E-01
       -1   -1    0    0    0  501  0.00000000000E+00  0.00000000000E+00  0.24309403647E+04  0.24309403647E+04  0.50400001928E-02 0.  1.
        1   -1    0    0  501    0  0.00000000000E+00  0.00000000000E+00 -0.14780705316E+04  0.14780705316E+04  0.50400001928E-02 0. -1.
    10030    2    1    2    0    0  0.00000000000E+00  0.00000000000E+00  0.95286983311E+03  0.39090108962E+04  0.37910955235E+04 0.  0.
        1    1    3    3  502    0  0.74376527447E+03  0.10290753429E+03 -0.13181956376E+04  0.15170420176E+04  0.50400001928E-02 0. -1.
       -1    1    3    3    0  502 -0.74376527447E+03 -0.10290753429E+03  0.22710654707E+04  0.23919688786E+04  0.50400001928E-02 0.  1.
</event>
<event>
 5   0  0.5140842E-08  0.3806745E+04  0.7818609E-02  0.8044709E-01
        2   -1    0    0  501    0  0.00000000000E+00  0.00000000000E+00  0.20553588492E+04  0.20553588492E+04  0.25500000920E-02 0. -1.
       -2   -1    0    0    0  501  0.00000000000E+00  0.00000000000E+00 -0.17626247512E+04  0.17626247512E+04  0.25500000920E-02 0.  1.
    10030    2    1    2    0    0  0.00000000000E+00  0.00000000000E+00  0.29273409794E+03  0.38179836004E+04  0.38067447407E+04 0.  0.
        2    1    3    3  502    0  0.17994657527E+03 -0.13678710930E+04  0.14614874521E+04  0.20098252833E+04  0.25500000920E-02 0. -1.
       -2    1    3    3    0  502 -0.17994657527E+03  0.13678710930E+04 -0.11687533541E+04  0.18081583171E+04  0.25500000920E-02 0.  1.
</event>
<event>
 5   0  0.5207474E-08  0.3796289E+04  0.7818609E-02  0.8046952E-01
       -2   -1    0    0    0  501  0.00000000000E+00  0.00000000000E+00  0.21013863034E+04  0.21013863034E+04  0.25500000920E-02 0.  1.
        2   -1    0    0  501    0  0.00000000000E+00  0.00000000000E+00 -0.17145599981E+04  0.17145599981E+04  0.25500000920E-02 0. -1.
    10030    2    1    2    0    0  0.00000000000E+00  0.00000000000E+00  0.38682630529E+03  0.38159463016E+04  0.37962891863E+04 0.  0.
        4    1    3    3  502    0  0.11055889115E+04 -0.14259142122E+04 -0.39903938222E+03  0.18479156429E+04  0.12699999809E+01 0.  1.
       -4    1    3    3    0  502 -0.11055889115E+04  0.14259142122E+04  0.78586568751E+03  0.19680306587E+04  0.12699999809E+01 0. -1.
</event>
<event>
 5   0  0.1628473E-08  0.3813370E+04  0.7818609E-02  0.8043292E-01
        1   -1    0    0  501    0  0.00000000000E+00  0.00000000000E+00  0.20304251651E+04  0.20304251651E+04  0.50400001928E-02 0. -1.
       -1   -1    0    0    0  501  0.00000000000E+00  0.00000000000E+00 -0.17904863936E+04  0.17904863936E+04  0.50400001928E-02 0.  1.
    10030    2    1    2    0    0  0.00000000000E+00  0.00000000000E+00  0.23993877145E+03  0.38209115587E+04  0.38133704941E+04 0.  0.
        3    1    3    3  502    0  0.43244881422E+03  0.30201718449E+03 -0.17159264246E+04  0.17951684772E+04  0.10100000352E+00 0.  1.
       -3    1    3    3    0  502 -0.43244881422E+03 -0.30201718449E+03  0.19558651961E+04  0.20257430815E+04  0.10100000352E+00 0. -1.
</event>
<event>
 5   0  0.5147582E-08  0.3789191E+04  0.7818609E-02  0.8048478E-01
        2   -1    0    0  501    0  0.00000000000E+00  0.00000000000E+00  0.36761199600E+04  0.36761199600E+04  0.25500000920E-02 0.  1.
       -2   -1    0    0    0  501  0.00000000000E+00  0.00000000000E+00 -0.97643518057E+03  0.97643518057E+03  0.25500000920E-02 0. -1.
    10030    2    1    2    0    0  0.00000000000E+00  0.00000000000E+00  0.26996847794E+04  0.46525551405E+04  0.37891913950E+04 0.  0.
        1    1    3    3  502    0  0.70089377259E+03  0.13864411409E+03  0.35043654253E+04  0.35764579271E+04  0.50400001928E-02 0.  1.
       -1    1    3    3    0  502 -0.70089377259E+03 -0.13864411409E+03 -0.80468064586E+03  0.10760972134E+04  0.50400001928E-02 0. -1.
</event>
<event>
 5   0  0.1666051E-08  0.3726943E+04  0.7818609E-02  0.8062017E-01
       -1   -1    0    0    0  501  0.00000000000E+00  0.00000000000E+00  0.14207171392E+04  0.14207171392E+04  0.50400001928E-02 0.  1.
        1   -1    0    0  501    0  0.00000000000E+00  0.00000000000E+00 -0.24442058205E+04  0.24442058205E+04  0.50400001928E-02 0. -1.
    10030    2    1    2    0    0  0.00000000000E+00  0.00000000000E+00 -0.10234886812E+04  0.38649229597E+04  0.37269425008E+04 0.  0.
        2    1    3    3  502    0  0.12746536058E+04 -0.10368556490E+04 -0.14233299084E+04  0.21738628015E+04  0.25500000920E-02 0. -1.
       -2    1    3    3    0  502 -0.12746536058E+04  0.10368556490E+04  0.39984122718E+03  0.16910601582E+04  0.25500000920E-02 0.  1.
</event>
<event>
 5   0  0.1628250E-08  0.3798566E+04  0.7818609E-02  0.8046463E-01
       -1   -1    0    0    0  501  0.00000000000E+00  0.00000000000E+00  0.19864046254E+04  0.19864046254E+04  0.50400001928E-02 0.  1.
        1   -1    0    0  501    0  0.00000000000E+00  0.00000000000E+00 -0.18159827038E+04  0.18159827038E+04  0.50400001928E-02 0. -1.
    10030    2    1    2    0    0  0.00000000000E+00  0.00000000000E+00  0.17042192162E+03  0.38023873292E+04  0.37985662782E+04 0.  0.
        1    1    3    3  502    0 -0.43142212046E+03  0.43351300761E+03 -0.17147128855E+04  0.18205215883E+04  0.50400001928E-02 0. -1.
       -1    1    3    3    0  502  0.43142212046E+03 -0.43351300761E+03  0.18851348071E+04  0.19818657409E+04  0.50400001928E-02 0.  1.
</event>
<event>
 5   0  0.1628473E-08  0.3785044E+04  0.7818609E-02  0.8049372E-01
       -1   -1    0    0    0  501  0.00000000000E+00  0.00000000000E+00  0.18549302880E+04  0.18549302880E+04  0.50400001928E-02 0.  1.
        1   -1    0    0  501    0  0.00000000000E+00  0.00000000000E+00 -0.19308756566E+04  0.19308756566E+04  0.50400001928E-02 0. -1.
    10030    2    1    2    0    0  0.00000000000E+00  0.00000000000E+00 -0.75945368657E+02  0.37858059446E+04  0.37850441148E+04 0.  0.
        3    1    3    3  502    0  0.14671944745E+04 -0.11681610752E+03 -0.12278902844E+04  0.19167733798E+04  0.10100000352E+00 0. -1.
       -3    1    3    3    0  502 -0.14671944745E+04  0.11681610752E+03  0.11519449158E+04  0.18690325647E+04  0.10100000352E+00 0.  1.
</event>
<event>
 5   0  0.1628250E-08  0.3799373E+04  0.7818609E-02  0.8046289E-01
       -1   -1    0    0    0  501  0.00000000000E+00  0.00000000000E+00  0.19741114680E+04  0.19741114680E+04  0.50400001928E-02 0.  1.
        1   -1    0    0  501    0  0.00000000000E+00  0.00000000000E+00 -0.18280675266E+04  0.18280675266E+04  0.50400001928E-02 0. -1.
    10030    2    1    2    0    0  0.00000000000E+00  0.00000000000E+00  0.14604394147E+03  0.38021789946E+04  0.37993731423E+04 0.  0.
        1    1    3    3  502    0  0.91358929586E+03 -0.16596950710E+04  0.21303933645E+03  0.19064676470E+04  0.50400001928E-02 0.  1.
       -1    1    3    3    0  502 -0.91358929586E+03  0.16596950710E+04 -0.66995394984E+02  0.18957113476E+04  0.50400001928E-02 0. -1.
</event>
<event>
 5   0  0.1628250E-08  0.3809233E+04  0.7818609E-02  0.8044176E-01
       -1   -1    0    0    0  501  0.00000000000E+00  0.00000000000E+00  0.23654300876E+04  0.23654300876E+04  0.50400001928E-02 0. -1.
        1   -1    0    0  501    0  0.00000000000E+00  0.00000000000E+00 -0.15335750696E+04  0.15335750696E+04  0.50400001928E-02 0.  1.
    10030    2    1    2    0    0  0.00000000000E+00  0.00000000000E+00  0.83185501797E+03  0.38990051572E+04  0.38092333146E+04 0.  0.
        1    1    3    3  502    0  0.64928203765E+03 -0.41042712890E+03  0.21998572268E+04  0.23301050215E+04  0.50400001928E-02 0. -1.
       -1    1    3    3    0  502 -0.64928203765E+03  0.41042712890E+03 -0.13680022089E+04  0.15689001358E+04  0.50400001928E-02 0.  1.
</event>
<event>
 5   0  0.1666051E-08  0.3803511E+04  0.7818609E-02  0.8045402E-01
       -1   -1    0    0    0  501  0.00000000000E+00  0.00000000000E+00  0.16711154914E+04  0.16711154915E+04  0.50400001928E-02 0.  1.
        1   -1    0    0  501    0  0.00000000000E+00  0.00000000000E+00 -0.21642268607E+04  0.21642268607E+04  0.50400001928E-02 0. -1.
    10030    2    1    2    0    0  0.00000000000E+00  0.00000000000E+00 -0.49311136929E+03  0.38353423522E+04  0.38035105016E+04 0.  0.
        2    1    3    3  502    0 -0.11145937821E+03  0.80176944711E+03 -0.19818342250E+04  0.21407765728E+04  0.25500000920E-02 0. -1.
       -2    1    3    3    0  502  0.11145937821E+03 -0.80176944711E+03  0.14887228557E+04  0.16945657793E+04  0.25500000920E-02 0.  1.
</event>
<event>
 5   0  0.1628250E-08  0.3800911E+04  0.7818609E-02  0.8045959E-01
       -1   -1    0    0    0  501  0.00000000000E+00  0.00000000000E+00  0.25469073575E+04  0.25469073575E+04  0.50400001928E-02 0.  1.
        1   -1    0    0  501    0  0.00000000000E+00  0.00000000000E+00 -0.14180852247E+04  0.14180852247E+04  0.50400001928E-02 0. -1.
    10030    2    1    2    0    0  0.00000000000E+00  0.00000000000E+00  0.11288221328E+04  0.39649925822E+04  0.38009113078E+04 0.  0.
        1    1    3    3  502    0 -0.86086256419E+03 -0.14238906443E+03  0.23255980530E+04  0.24839012267E+04  0.50400001928E-02 0.  1.
       -1    1    3    3    0  502  0.86086256419E+03  0.14238906443E+03 -0.11967759202E+04  0.14810913555E+04  0.50400001928E-02 0. -1.
</event>
<event>
 5   0  0.5140842E-08  0.3800292E+04  0.7818609E-02  0.8046092E-01
       -2   -1    0    0    0  501  0.00000000000E+00  0.00000000000E+00  0.20199866394E+04  0.20199866394E+04  0.25500000920E-02 0. -1.
        2   -1    0    0  501    0  0.00000000000E+00  0.00000000000E+00 -0.17874152382E+04  0.17874152382E+04  0.25500000920E-02 0.  1.
    10030    2    1    2    0    0  0.00000000000E+00  0.00000000000E+00  0.23257140123E+03  0.38074018776E+04  0.38002920415E+04 0.  0.
        2    1    3    3  502    0 -0.12416818667E+04  0.11886375649E+04 -0.69511947589E+03  0.18541370512E+04  0.25500000920E-02 0.  1.
       -2    1    3    3    0  502  0.12416818667E+04 -0.11886375649E+04  0.92769087711E+03  0.19532648264E+04  0.25500000920E-02 0. -1.
</event>
<event>
 5   0  0.1666051E-08  0.3764023E+04  0.7818609E-02  0.8053920E-01
        1   -1    0    0  501    0  0.00000000000E+00  0.00000000000E+00  0.17080090264E+04  0.17080090264E+04  0.50400001928E-02 0. -1.
       -1   -1    0    0    0  501  0.00000000000E+00  0.00000000000E+00 -0.20737408711E+04  0.20737408711E+04  0.50400001928E-02 0.  1.
    10030    2    1    2    0    0  0.00000000000E+00  0.00000000000E+00 -0.36573184471E+03  0.37817498975E+04  0.37640234464E+04 0.  0.
        2    1    3    3  502    0 -0.93972683592E+03 -0.92415465852E+03 -0.15326285626E+04  0.20214100697E+04  0.25500000920E-02 0.  1.
       -2    1    3    3    0  502  0.93972683592E+03  0.92415465852E+03  0.11668967179E+04  0.17603398278E+04  0.25500000920E-02 0. -1.
</event>
<event>
 5   0  0.1628250E-08  0.3804401E+04  0.7818609E-02  0.8045211E-01
        1   -1    0    0  501    0  0.00000000000E+00  0.00000000000E+00  0.17255823179E+04  0.17255823179E+04  0.50400001928E-02 0.  1.
       -1   -1    0    0    0  501  0.00000000000E+00  0.00000000000E+00 -0.20968956322E+04  0.20968956322E+04  0.50400001928E-02 0. -1.
    10030    2    1    2    0    0  0.00000000000E+00  0.00000000000E+00 -0.37131331430E+03  0.38224779501E+04  0.38044006232E+04 0.  0.
        5    1    3    3  502    0  0.13183712077E+04  0.54028110942E+03  0.10806245323E+04  0.17882331470E+04  0.46999998093E+01 0.  1.
       -5    1    3    3    0  502 -0.13183712077E+04 -0.54028110942E+03 -0.14519378466E+04  0.20342448031E+04  0.46999998093E+01 0. -1.
</event>
<event>
 5   0  0.5147582E-08  0.3803544E+04  0.7818609E-02  0.8045395E-01
       -2   -1    0    0    0  501  0.00000000000E+00  0.00000000000E+00  0.21204142021E+04  0.21204142021E+04  0.25500000920E-02 0. -1.
        2   -1    0    0  501    0  0.00000000000E+00  0.00000000000E+00 -0.17056745082E+04  0.17056745082E+04  0.25500000920E-02 0.  1.
    10030    2    1    2    0    0  0.00000000000E+00  0.00000000000E+00  0.41473969394E+03  0.38260887103E+04  0.38035438482E+04 0.  0.
        1    1    3    3  502    0 -0.35836107836E+03 -0.16750522310E+04  0.10384106169E+04  0.20031273670E+04  0.50400001928E-02 0. -1.
       -1    1    3    3    0  502  0.35836107836E+03  0.16750522310E+04 -0.62367092292E+03  0.18229613433E+04  0.50400001928E-02 0.  1.
</event>
<event>
 5   0  0.5147582E-08  0.3803603E+04  0.7818609E-02  0.8045382E-01
       -2   -1    0    0    0  501  0.00000000000E+00  0.00000000000E+00  0.28007524383E+04  0.28007524383E+04  0.25500000920E-02 0.  1.
        2   -1    0    0  501    0  0.00000000000E+00  0.00000000000E+00 -0.12913844112E+04  0.12913844112E+04  0.25500000920E-02 0. -1.
    10030    2    1    2    0    0  0.00000000000E+00  0.00000000000E+00  0.15093680271E+04  0.40921368495E+04  0.38036025230E+04 0.  0.
        1    1    3    3  502    0 -0.17259317684E+04  0.36604444965E+03 -0.91139378363E+01  0.17643446580E+04  0.50400001928E-02 0. -1.
       -1    1    3    3    0  502  0.17259317684E+04 -0.36604444965E+03  0.15184819650E+04  0.23277921914E+04  0.50400001928E-02 0.  1.
</event>
<event>
 5   0  0.5140842E-08  0.3800367E+04  0.7818609E-02  0.8046076E-01
        2   -1    0    0  501    0  0.00000000000E+00  0.00000000000E+00  0.13873101618E+04  0.13873101618E+04  0.25500000920E-02 0. -1.
       -2   -1    0    0    0  501  0.00000000000E+00  0.00000000000E+00 -0.26026607576E+04  0.26026607576E+04  0.25500000920E-02 0.  1.
    10030    2    1    2    0    0  0.00000000000E+00  0.00000000000E+00 -0.12153505957E+04  0.39899709194E+04  0.38003672016E+04 0.  0.
        2    1    3    3  502    0 -0.17091076479E+04  0.47115267559E+03 -0.13256532405E+04  0.22136825224E+04  0.25500000920E-02 0.  1.
       -2    1    3    3    0  502  0.17091076479E+04 -0.47115267559E+03  0.11030264477E+03  0.17762883970E+04  0.25500000920E-02 0. -1.
</event>
<event>
 5   0  0.5159761E-08  0.3779170E+04  0.7818609E-02  0.8050640E-01
        2   -1    0    0  501    0  0.00000000000E+00  0.00000000000E+00  0.11551170626E+04  0.11551170626E+04  0.25500000920E-02 0. -1.
       -2   -1    0    0    0  501  0.00000000000E+00  0.00000000000E+00 -0.30910553527E+04  0.30910553527E+04  0.25500000920E-02 0.  1.
    10030    2    1    2    0    0  0.00000000000E+00  0.00000000000E+00 -0.19359382901E+04  0.42461724153E+04  0.37791696333E+04 0.  0.
        5    1    3    3  502    0  0.47987448336E+02 -0.14609762871E+04 -0.23133293809E+04  0.27364702485E+04  0.46999998093E+01 0.  1.
       -5    1    3    3    0  502 -0.47987448336E+02  0.14609762871E+04  0.37739109080E+03  0.15097021667E+04  0.46999998093E+01 0. -1.
</event>
<event>
 5   0  0.1628250E-08  0.3812399E+04  0.7818609E-02  0.8043499E-01
       -1   -1    0    0    0  501  0.00000000000E+00  0.00000000000E+00  0.25397283267E+04  0.25397283267E+04  0.50400001928E-02 0.  1.
        1   -1    0    0  501    0  0.00000000000E+00  0.00000000000E+00 -0.14307029524E+04  0.14307029524E+04  0.50400001928E-02 0. -1.
    10030    2    1    2    0    0  0.00000000000E+00  0.00000000000E+00  0.11090253744E+04  0.39704312791E+04  0.38123991477E+04 0.  0.
        4    1    3    3  502    0  0.45145291684E+03  0.16318633984E+04 -0.35746128459E+03  0.17304820340E+04  0.12699999809E+01 0. -1.
       -4    1    3    3    0  502 -0.45145291684E+03 -0.16318633984E+04  0.14664866590E+04  0.22399492451E+04  0.12699999809E+01 0.  1.
</event>
<event>
 5   0  0.5147582E-08  0.3797190E+04  0.7818609E-02  0.8046758E-01
       -2   -1    0    0    0  501  0.00000000000E+00  0.00000000000E+00  0.24428662069E+04  0.24428662069E+04  0.25500000920E-02 0. -1.
        2   -1    0    0  501    0  0.00000000000E+00  0.00000000000E+00 -0.14755872205E+04  0.14755872205E+04  0.25500000920E-02 0.  1.
    10030    2    1    2    0    0  0.00000000000E+00  0.00000000000E+00  0.96727898640E+03  0.39184534273E+04  0.37971895692E+04 0.  0.
        1    1    3    3  502    0  0.13284135564E+04 -0.94911495414E+03  0.14836908244E+04  0.22060916199E+04  0.50400001928E-02 0. -1.
       -1    1    3    3    0  502 -0.13284135564E+04  0.94911495414E+03 -0.51641183804E+03  0.17123618074E+04  0.50400001928E-02 0.  1.
</event>
<event>
 5   0  0.1628250E-08  0.3793605E+04  0.7818609E-02  0.8047529E-01
        1   -1    0    0  501    0  0.00000000000E+00  0.00000000000E+00  0.26663696175E+04  0.26663696175E+04  0.50400001928E-02 0. -1.
       -1   -1    0    0    0  501  0.00000000000E+00  0.00000000000E+00 -0.13493477942E+04  0.13493477942E+04  0.50400001928E-02 0.  1.
    10030    2    1    2    0    0  0.00000000000E+00  0.00000000000E+00  0.13170218232E+04  0.40157174117E+04  0.37936051255E+04 0.  0.
        1    1    3    3  502    0  0.81111091362E+03  0.73119423382E+03  0.23002226878E+04  0.25462855957E+04  0.50400001928E-02 0. -1.
       -1    1    3    3    0  502 -0.81111091362E+03 -0.73119423382E+03 -0.98320086453E+03  0.14694318160E+04  0.50400001928E-02 0.  1.
</event>
<event>
 5   0  0.1666051E-08  0.3795871E+04  0.7818609E-02  0.8047041E-01
        1   -1    0    0  501    0  0.00000000000E+00  0.00000000000E+00  0.23106373829E+04  0.23106373829E+04  0.50400001928E-02 0.  1.
       -1   -1    0    0    0  501  0.00000000000E+00  0.00000000000E+00 -0.15589464796E+04  0.15589464796E+04  0.50400001928E-02 0. -1.
    10030    2    1    2    0    0  0.00000000000E+00  0.00000000000E+00  0.75169090330E+03  0.38695838626E+04  0.37958714488E+04 0.  0.
        2    1    3    3  502    0  0.17229858003E+04 -0.33855902833E+03  0.11101511743E+04  0.20774354174E+04  0.25500000920E-02 0.  1.
       -2    1    3    3    0  502 -0.17229858003E+04  0.33855902833E+03 -0.35846027095E+03  0.17921484452E+04  0.25500000920E-02 0. -1.
</event>
<event>
 5   0  0.1628473E-08  0.3798752E+04  0.7818609E-02  0.8046423E-01
        1   -1    0    0  501    0  0.00000000000E+00  0.00000000000E+00  0.23876903035E+04  0.23876903035E+04  0.50400001928E-02 0.  1.
       -1   -1    0    0    0  501  0.00000000000E+00  0.00000000000E+00 -0.15109286758E+04  0.15109286758E+04  0.50400001928E-02 0. -1.
    10030    2    1    2    0    0  0.00000000000E+00  0.00000000000E+00  0.87676162768E+03  0.38986189794E+04  0.37987522944E+04 0.  0.
        3    1    3    3  502    0  0.12032593119E+04 -0.62746725029E+03  0.18022578032E+04  0.22560322075E+04  0.10100000352E+00 0.  1.
       -3    1    3    3    0  502 -0.12032593119E+04  0.62746725029E+03 -0.92549617550E+03  0.16425867718E+04  0.10100000352E+00 0. -1.
</event>
<event>
 5   0  0.1628250E-08  0.3792565E+04  0.7818609E-02  0.8047752E-01
       -1   -1    0    0    0  501  0.00000000000E+00  0.00000000000E+00  0.24543771033E+04  0.24543771033E+04  0.50400001928E-02 0.  1.
        1   -1    0    0  501    0  0.00000000000E+00  0.00000000000E+00 -0.14650913344E+04  0.14650913344E+04  0.50400001928E-02 0. -1.
    10030    2    1    2    0    0  0.00000000000E+00  0.00000000000E+00  0.98928576890E+03  0.39194684377E+04  0.37925646338E+04 0.  0.
        5    1    3    3  502    0  0.41700137557E+03  0.11339105016E+04 -0.10158452135E+04  0.15784824233E+04  0.46999998093E+01 0. -1.
       -5    1    3    3    0  502 -0.41700137557E+03 -0.11339105016E+04  0.20051309825E+04  0.23409860144E+04  0.46999998093E+01 0.  1.
</event>
<event>
 5   0  0.1666051E-08  0.3847983E+04  0.7818609E-02  0.8035936E-01
        1   -1    0    0  501    0  0.00000000000E+00  0.00000000000E+00  0.26497979924E+04  0.26497979924E+04  0.50400001928E-02 0. -1.
       -1   -1    0    0    0  501  0.00000000000E+00  0.00000000000E+00 -0.13969909445E+04  0.13969909445E+04  0.50400001928E-02 0.  1.
    10030    2    1    2    0    0  0.00000000000E+00  0.00000000000E+00  0.12528070479E+04  0.40467889368E+04  0.38479832640E+04 0.  0.
        2    1    3    3  502    0  0.16632804841E+04 -0.75208666285E+03  0.12657669023E+04  0.22213289194E+04  0.25500000920E-02 0. -1.
       -2    1    3    3    0  502 -0.16632804841E+04  0.75208666285E+03 -0.12959854377E+02  0.18254600174E+04  0.25500000920E-02 0.  1.
</event>
<event>
 5   0  0.5147582E-08  0.3809955E+04  0.7818609E-02  0.8044022E-01
        2   -1    0    0  501    0  0.00000000000E+00  0.00000000000E+00  0.26721014920E+04  0.26721014920E+04  0.25500000920E-02 0. -1.
       -2   -1    0    0    0  501  0.00000000000E+00  0.00000000000E+00 -0.13580847105E+04  0.13580847105E+04  0.25500000920E-02 0.  1.
    10030    2    1    2    0    0  0.00000000000E+00  0.00000000000E+00  0.13140167815E+04  0.40301862025E+04  0.38099554755E+04 0.  0.
        1    1    3    3  502    0  0.92316731040E+03  0.12069214567E+04 -0.55833564358E+03  0.16188378475E+04  0.50400001928E-02 0.  1.
       -1    1    3    3    0  502 -0.92316731040E+03 -0.12069214567E+04  0.18723524251E+04  0.24113483550E+04  0.50400001928E-02 0. -1.
</event>
<event>
 5   0  0.5086209E-08  0.3807931E+04  0.7818609E-02  0.8044455E-01
        2   -1    0    0  501    0  0.00000000000E+00  0.00000000000E+00  0.23012557378E+04  0.23012557378E+04  0.25500000920E-02 0. -1.
       -2   -1    0    0    0  501  0.00000000000E+00  0.00000000000E+00 -0.15752634658E+04  0.15752634658E+04  0.25500000920E-02 0.  1.
    10030    2    1    2    0    0  0.00000000000E+00  0.00000000000E+00  0.72599227193E+03  0.38765192036E+04  0.38079307185E+04 0.  0.
        3    1    3    3  502    0 -0.16327584954E+04 -0.17664514704E+03  0.13436647411E+04  0.21219186504E+04  0.10100000352E+00 0. -1.
       -3    1    3    3    0  502  0.16327584954E+04  0.17664514704E+03 -0.61767246913E+03  0.17546005533E+04  0.10100000352E+00 0.  1.
</event>
<event>
 5   0  0.1628250E-08  0.3802004E+04  0.7818609E-02  0.8045725E-01
       -1   -1    0    0    0  501  0.00000000000E+00  0.00000000000E+00  0.29892513397E+04  0.29892513397E+04  0.50400001928E-02 0. -1.
        1   -1    0    0  501    0  0.00000000000E+00  0.00000000000E+00 -0.12089344266E+04  0.12089344266E+04  0.50400001928E-02 0.  1.
    10030    2    1    2    0    0  0.00000000000E+00  0.00000000000E+00  0.17803169131E+04  0.41981857662E+04  0.38020041316E+04 0.  0.
        1    1    3    3  502    0  0.41308478193E+03  0.18477927162E+04  0.10776517171E+04  0.21786028051E+04  0.50400001928E-02 0.  1.
       -1    1    3    3    0  502 -0.41308478193E+03 -0.18477927162E+04  0.70266519604E+03  0.20195829611E+04  0.50400001928E-02 0. -1.
</event>
<event>
 5   0  0.1666051E-08  0.3796136E+04  0.7818609E-02  0.8046985E-01
       -1   -1    0    0    0  501  0.00000000000E+00  0.00000000000E+00  0.22149512029E+04  0.22149512030E+04  0.50400001928E-02 0. -1.
        1   -1    0    0  501    0  0.00000000000E+00  0.00000000000E+00 -0.16265199069E+04  0.16265199069E+04  0.50400001928E-02 0.  1.
    10030    2    1    2    0    0  0.00000000000E+00  0.00000000000E+00  0.58843129606E+03  0.38414711098E+04  0.37961360484E+04 0.  0.
        2    1    3    3  502    0 -0.25436230395E+02 -0.77858359589E+03  0.20457306609E+04  0.21890302315E+04  0.25500000920E-02 0. -1.
       -2    1    3    3    0  502  0.25436230395E+02  0.77858359589E+03 -0.14572993648E+04  0.16524408783E+04  0.25500000920E-02 0.  1.
</event>
<event>
 5   0  0.1628250E-08  0.3801476E+04  0.7818609E-02  0.8045838E-01
       -1   -1    0    0    0  501  0.00000000000E+00  0.00000000000E+00  0.16170099063E+04  0.16170099063E+04  0.50400001928E-02 0. -1.
        1   -1    0    0  501    0  0.00000000000E+00  0.00000000000E+00 -0.22342498913E+04  0.22342498913E+04  0.50400001928E-02 0.  1.
    10030    2    1    2    0    0  0.00000000000E+00  0.00000000000E+00 -0.61723998496E+03  0.38512597976E+04  0.38014756121E+04 0.  0.
        1    1    3    3  502    0 -0.17493318394E+04  0.65467520357E+03  0.48189347710E+02  0.18684441977E+04  0.50400001928E-02 0. -1.
       -1    1    3    3    0  502  0.17493318394E+04 -0.65467520357E+03 -0.66542933267E+03  0.19828155999E+04  0.50400001928E-02 0.  1.
</event>
<event>
 5   0  0.1628250E-08  0.3774429E+04  0.7818609E-02  0.8051665E-01
        1   -1    0    0  501    0  0.00000000000E+00  0.00000000000E+00  0.21203532051E+04  0.21203532051E+04  0.50400001928E-02 0. -1.
       -1   -1    0    0    0  501  0.00000000000E+00  0.00000000000E+00 -0.16797098431E+04  0.16797098431E+04  0.50400001928E-02 0.  1.
    10030    2    1    2    0    0  0.00000000000E+00  0.00000000000E+00  0.44064336201E+03  0.38000630482E+04  0.37744287777E+04 0.  0.
        4    1    3    3  502    0 -0.15744791842E+04 -0.32829593504E+03  0.12143536693E+04  0.20152963478E+04  0.12699999809E+01 0. -1.
       -4    1    3    3    0  502  0.15744791842E+04  0.32829593504E+03 -0.77371030730E+03  0.17847667004E+04  0.12699999809E+01 0.  1.
</event>
<event>
 5   0  0.1628250E-08  0.3812926E+04  0.7818609E-02  0.8043387E-01
        1   -1    0    0  501    0  0.00000000000E+00  0.00000000000E+00  0.22912902872E+04  0.22912902872E+04  0.50400001928E-02 0. -1.
       -1   -1    0    0    0  501  0.00000000000E+00  0.00000000000E+00 -0.15862682919E+04  0.15862682919E+04  0.50400001928E-02 0.  1.
    10030    2    1    2    0    0  0.00000000000E+00  0.00000000000E+00  0.70502199532E+03  0.38775585792E+04  0.38129259790E+04 0.  0.
        5    1    3    3  502    0 -0.14397372752E+03  0.95403713304E+03  0.20246652310E+04  0.22428122242E+04  0.46999998093E+01 0. -1.
       -5    1    3    3    0  502  0.14397372752E+03 -0.95403713304E+03 -0.13196432357E+04  0.16347463549E+04  0.46999998093E+01 0.  1.
</event>
<event>
 5   0  0.5147582E-08  0.3796947E+04  0.7818609E-02  0.8046810E-01
       -2   -1    0    0    0  501  0.00000000000E+00  0.00000000000E+00  0.23601930075E+04  0.23601930075E+04  0.25500000920E-02 0. -1.
        2   -1    0    0  501    0  0.00000000000E+00  0.00000000000E+00 -0.15270793117E+04  0.15270793117E+04  0.25500000920E-02 0.  1.
    10030    2    1    2    0    0  0.00000000000E+00  0.00000000000E+00  0.83311369579E+03  0.38872723193E+04  0.37969471492E+04 0.  0.
        1    1    3    3  502    0 -0.10242196445E+04 -0.12148125211E+04 -0.64710343409E+03  0.17156742687E+04  0.50400001928E-02 0. -1.
       -1    1    3    3    0  502  0.10242196445E+04  0.12148125211E+04  0.14802171299E+04  0.21715980506E+04  0.50400001928E-02 0.  1.
</event>
<event>
 5   0  0.1628250E-08  0.3795880E+04  0.7818609E-02  0.8047040E-01
       -1   -1    0    0    0  501  0.00000000000E+00  0.00000000000E+00  0.20643738839E+04  0.20643738839E+04  0.50400001928E-02 0.  1.
        1   -1    0    0  501    0  0.00000000000E+00  0.00000000000E+00 -0.17449246228E+04  0.17449246228E+04  0.50400001928E-02 0. -1.
    10030    2    1    2    0    0  0.00000000000E+00  0.00000000000E+00  0.31944926112E+03  0.38092985067E+04  0.37958803041E+04 0.  0.
        5    1    3    3  502    0 -0.35575717953E+03  0.64371348399E+03 -0.15960957596E+04  0.17574054694E+04  0.46999998093E+01 0. -1.
       -5    1    3    3    0  502  0.35575717953E+03 -0.64371348399E+03  0.19155450207E+04  0.20518930373E+04  0.46999998093E+01 0.  1.
</event>
<event>
 5   0  0.5140842E-08  0.3816435E+04  0.7818609E-02  0.8042637E-01
       -2   -1    0    0    0  501  0.00000000000E+00  0.00000000000E+00  0.12530060963E+04  0.12530060963E+04  0.25500000920E-02 0. -1.
        2   -1    0    0  501    0  0.00000000000E+00  0.00000000000E+00 -0.29060463985E+04  0.29060463985E+04  0.25500000920E-02 0.  1.
    10030    2    1    2    0    0  0.00000000000E+00  0.00000000000E+00 -0.16530403022E+04  0.41590524947E+04  0.38164349088E+04 0.  0.
        2    1    3    3  502    0  0.45849409190E+03 -0.32643107585E+03  0.11604941941E+04  0.12897755054E+04  0.25500000920E-02 0. -1.
       -2    1    3    3    0  502 -0.45849409190E+03  0.32643107585E+03 -0.28135344963E+04  0.28692769894E+04  0.25500000920E-02 0.  1.
</event>
<event>
 5   0  0.1628250E-08  0.3805422E+04  0.7818609E-02  0.8044992E-01
        1   -1    0    0  501    0  0.00000000000E+00  0.00000000000E+00  0.20854241970E+04  0.20854241970E+04  0.50400001928E-02 0.  1.
       -1   -1    0    0    0  501  0.00000000000E+00  0.00000000000E+00 -0.17360063946E+04  0.17360063946E+04  0.50400001928E-02 0. -1.
    10030    2    1    2    0    0  0.00000000000E+00  0.00000000000E+00  0.34941780241E+03  0.38214305917E+04  0.38054223112E+04 0.  0.
        4    1    3    3  502    0  0.77281703307E+03  0.88781591038E+03 -0.13265196211E+04  0.17734483853E+04  0.12699999809E+01 0. -1.
       -4    1    3    3    0  502 -0.77281703307E+03 -0.88781591038E+03  0.16759374235E+04  0.20479822064E+04  0.12699999809E+01 0.  1.
</event>
<event>
 5   0  0.5086209E-08  0.3864932E+04  0.7818609E-02  0.8032363E-01
        2   -1    0    0  501    0  0.00000000000E+00  0.00000000000E+00  0.16789135590E+04  0.16789135590E+04  0.25500000920E-02 0.  1.
       -2   -1    0    0    0  501  0.00000000000E+00  0.00000000000E+00 -0.22243100162E+04  0.22243100162E+04  0.25500000920E-02 0. -1.
    10030    2    1    2    0    0  0.00000000000E+00  0.00000000000E+00 -0.54539645721E+03  0.39032235752E+04  0.38649316919E+04 0.  0.
        3    1    3    3  502    0 -0.10913628645E+04 -0.18159901484E+02  0.13377865553E+04  0.17265791502E+04  0.10100000352E+00 0.  1.
       -3    1    3    3    0  502  0.10913628645E+04  0.18159901484E+02 -0.18831830126E+04  0.21766444250E+04  0.10100000352E+00 0. -1.
</event>
<event>
 5   0  0.1628250E-08  0.3792907E+04  0.7818609E-02  0.8047679E-01
       -1   -1    0    0    0  501  0.00000000000E+00  0.00000000000E+00  0.21703662367E+04  0.21703662368E+04  0.50400001928E-02 0.  1.
        1   -1    0    0  501    0  0.00000000000E+00  0.00000000000E+00 -0.16571097243E+04  0.16571097243E+04  0.50400001928E-02 0. -1.
    10030    2    1    2    0    0  0.00000000000E+00  0.00000000000E+00  0.51325651243E+03  0.38274759611E+04  0.37929065352E+04 0.  0.
        1    1    3    3  502    0 -0.65899389114E+03 -0.53120878947E+03  0.19691754615E+04  0.21433869750E+04  0.50400001928E-02 0.  1.
       -1    1    3    3    0  502  0.65899389114E+03  0.53120878947E+03 -0.14559189491E+04  0.16840889860E+04  0.50400001928E-02 0. -1.
</event>
<event>
 5   0  0.5086209E-08  0.3801481E+04  0.7818609E-02  0.8045837E-01
        2   -1    0    0  501    0  0.00000000000E+00  0.00000000000E+00  0.16403762324E+04  0.16403762324E+04  0.25500000920E-02 0. -1.
       -2   -1    0    0    0  501  0.00000000000E+00  0.00000000000E+00 -0.22024307331E+04  0.22024307331E+04  0.25500000920E-02 0.  1.
    10030    2    1    2    0    0  0.00000000000E+00  0.00000000000E+00 -0.56205450070E+03  0.38428069654E+04  0.38014813049E+04 0.  0.
        3    1    3    3  502    0  0.60338678210E+03 -0.16592423568E+04  0.43065332107E+03  0.18173120538E+04  0.10100000352E+00 0. -1.
       -3    1    3    3    0  502 -0.60338678210E+03  0.16592423568E+04 -0.99270782177E+03  0.20254949117E+04  0.10100000352E+00 0.  1.
</event>
<event>
 5   0  0.1628250E-08  0.3799060E+04  0.7818609E-02  0.8046357E-01
       -1   -1    0    0    0  501  0.00000000000E+00  0.00000000000E+00  0.12997563881E+04  0.12997563881E+04  0.50400001928E-02 0. -1.
        1   -1    0    0  501    0  0.00000000000E+00  0.00000000000E+00 -0.27760696505E+04  0.27760696505E+04  0.50400001928E-02 0.  1.
    10030    2    1    2    0    0  0.00000000000E+00  0.00000000000E+00 -0.14763132624E+04  0.40758260387E+04  0.37990600217E+04 0.  0.
        5    1    3    3  502    0 -0.60576577918E+03  0.62955982919E+03  0.10714015898E+04  0.13824692454E+04  0.46999998093E+01 0. -1.
       -5    1    3    3    0  502  0.60576577918E+03 -0.62955982919E+03 -0.25477148522E+04  0.26933567933E+04  0.46999998093E+01 0.  1.
</event>
<event>
 5   0  0.1628250E-08  0.3790048E+04  0.7818609E-02  0.8048294E-01
       -1   -1    0    0    0  501  0.00000000000E+00  0.00000000000E+00  0.15082739987E+04  0.15082739987E+04  0.50400001928E-02 0. -1.
        1   -1    0    0  501    0  0.00000000000E+00  0.00000000000E+00 -0.23809440120E+04  0.23809440120E+04  0.50400001928E-02 0.  1.
    10030    2    1    2    0    0  0.00000000000E+00  0.00000000000E+00 -0.87267001332E+03  0.38892180107E+04  0.37900479921E+04 0.  0.
        5    1    3    3  502    0  0.87447708547E+03 -0.90114544148E+03  0.10200690282E+04  0.16178183433E+04  0.46999998093E+01 0. -1.
       -5    1    3    3    0  502 -0.87447708547E+03  0.90114544148E+03 -0.18927390415E+04  0.22713996674E+04  0.46999998093E+01 0.  1.
</event>
<event>
 5   0  0.1628473E-08  0.3808295E+04  0.7818609E-02  0.8044377E-01
        1   -1    0    0  501    0  0.00000000000E+00  0.00000000000E+00  0.29313654540E+04  0.29313654540E+04  0.50400001928E-02 0. -1.
       -1   -1    0    0    0  501  0.00000000000E+00  0.00000000000E+00 -0.12368901935E+04  0.12368901935E+04  0.50400001928E-02 0.  1.
    10030    2    1    2    0    0  0.00000000000E+00  0.00000000000E+00  0.16944752605E+04  0.41682556475E+04  0.38082947279E+04 0.  0.
        3    1    3    3  502    0  0.36689414541E+03  0.12728754464E+04 -0.64987800428E+03  0.14755218218E+04  0.10100000352E+00 0.  1.
       -3    1    3    3    0  502 -0.36689414541E+03 -0.12728754464E+04  0.23443532648E+04  0.26927338258E+04  0.10100000352E+00 0. -1.
</event>
<event>
 5   0  0.5159761E-08  0.3778293E+04  0.7818609E-02  0.8050829E-01
       -2   -1    0    0    0  501  0.00000000000E+00  0.00000000000E+00  0.14536298663E+04  0.14536298663E+04  0.25500000920E-02 0.  1.
        2   -1    0    0  501    0  0.00000000000E+00  0.00000000000E+00 -0.24551472216E+04  0.24551472216E+04  0.25500000920E-02 0. -1.
    10030    2    1    2    0    0  0.00000000000E+00  0.00000000000E+00 -0.10015173552E+04  0.39087770879E+04  0.37782934389E+04 0.  0.
        5    1    3    3  502    0 -0.47255932643E+03 -0.44045473142E+03  0.13358078700E+04  0.14838185344E+04  0.46999998093E+01 0.  1.
       -5    1    3    3    0  502  0.47255932643E+03  0.44045473142E+03 -0.23373252253E+04  0.24249585535E+04  0.46999998093E+01 0. -1.
</event>
<event>
 5   0  0.5147582E-08  0.3797856E+04  0.7818609E-02  0.8046615E-01
       -2   -1    0    0    0  501  0.00000000000E+00  0.00000000000E+00  0.20150434195E+04  0.20150434195E+04  0.25500000920E-02 0.  1.
        2   -1    0    0  501    0  0.00000000000E+00  0.00000000000E+00 -0.17895034695E+04  0.17895034695E+04  0.25500000920E-02 0. -1.
    10030    2    1    2    0    0  0.00000000000E+00  0.00000000000E+00  0.22553994992E+03  0.38045468890E+04  0.37978558111E+04 0.  0.
        1    1    3    3  502    0 -0.51117637663E+03  0.15897081866E+03 -0.17123493603E+04  0.17940772951E+04  0.50400001928E-02 0. -1.
       -1    1    3    3    0  502  0.51117637663E+03 -0.15897081866E+03  0.19378893102E+04  0.20104695939E+04  0.50400001928E-02 0.  1.
</event>
<event>
 5   0  0.5147582E-08  0.3795290E+04  0.7818609E-02  0.8047166E-01
        2   -1    0    0  501    0  0.00000000000E+00  0.00000000000E+00  0.23267878357E+04  0.23267878357E+04  0.25500000920E-02 0.  1.
       -2   -1    0    0    0  501  0.00000000000E+00  0.00000000000E+00 -0.15476512164E+04  0.15476512164E+04  0.25500000920E-02 0. -1.
    10030    2    1    2    0    0  0.00000000000E+00  0.00000000000E+00  0.77913661922E+03  0.38744390521E+04  0.37952897250E+04 0.  0.
        1    1    3    3  502    0 -0.56710276100E+03  0.12148604479E+04  0.17605439775E+04  0.22129181066E+04  0.50400001928E-02 0.  1.
       -1    1    3    3    0  502  0.56710276100E+03 -0.12148604479E+04 -0.98140735830E+03  0.16615209455E+04  0.50400001928E-02 0. -1.
</event>
<event>
 5   0  0.1666051E-08  0.3805732E+04  0.7818609E-02  0.8044926E-01
       -1   -1    0    0    0  501  0.00000000000E+00  0.00000000000E+00  0.24606241377E+04  0.24606241377E+04  0.50400001928E-02 0. -1.
        1   -1    0    0  501    0  0.00000000000E+00  0.00000000000E+00 -0.14715368015E+04  0.14715368015E+04  0.50400001928E-02 0.  1.
    10030    2    1    2    0    0  0.00000000000E+00  0.00000000000E+00  0.98908733619E+03  0.39321609392E+04  0.38057319786E+04 0.  0.
        2    1    3    3  502    0  0.10594509839E+03  0.16256139525E+04  0.15106014879E+04  0.22216574762E+04  0.25500000920E-02 0. -1.
       -2    1    3    3    0  502 -0.10594509839E+03 -0.16256139525E+04 -0.52151415169E+03  0.17105034630E+04  0.25500000920E-02 0.  1.
</event>
<event>
 5   0  0.1628250E-08  0.3804504E+04  0.7818609E-02  0.8045189E-01
       -4   -1    0    0    0  501  0.00000000000E+00  0.00000000000E+00  0.18639562566E+04  0.18639566892E+04  0.12699999809E+01 0.  1.
        4   -1    0    0  501    0  0.00000000000E+00  0.00000000000E+00 -0.19413333401E+04  0.19413337555E+04  0.12699999809E+01 0. -1.
    10030    2    1    2    0    0  0.00000000000E+00  0.00000000000E+00 -0.77377083524E+02  0.38052904448E+04  0.38045036675E+04 0.  0.
        5    1    3    3  502    0  0.13853525803E+03 -0.18454721084E+04 -0.47875751626E+03  0.19115936205E+04  0.46999998093E+01 0. -1.
       -5    1    3    3    0  502 -0.13853525803E+03  0.18454721084E+04  0.40138043274E+03  0.18936968243E+04  0.46999998093E+01 0.  1.
</event>
<event>
 5   0  0.5140842E-08  0.3794681E+04  0.7818609E-02  0.8047297E-01
        2   -1    0    0  501    0  0.00000000000E+00  0.00000000000E+00  0.21720605687E+04  0.21720605687E+04  0.25500000920E-02 0.  1.
       -2   -1    0    0    0  501  0.00000000000E+00  0.00000000000E+00 -0.16573666797E+04  0.16573666797E+04  0.25500000920E-02 0. -1.
    10030    2    1    2    0    0  0.00000000000E+00  0.00000000000E+00  0.51469388902E+03  0.38294272484E+04  0.37946809156E+04 0.  0.
        2    1    3    3  502    0  0.48194495666E+03  0.69960898548E+03  0.19694003968E+04  0.21448220431E+04  0.25500000920E-02 0.  1.
       -2    1    3    3    0  502 -0.48194495666E+03 -0.69960898548E+03 -0.14547065078E+04  0.16846052052E+04  0.25500000920E-02 0. -1.
</event>
<event>
 5   0  0.1628250E-08  0.3806414E+04  0.7818609E-02  0.8044780E-01
        1   -1    0    0  501    0  0.00000000000E+00  0.00000000000E+00  0.19477650050E+04  0.19477650050E+04  0.50400001928E-02 0.  1.
       -1   -1    0    0    0  501  0.00000000000E+00  0.00000000000E+00 -0.18596681116E+04  0.18596681116E+04  0.50400001928E-02 0. -1.
    10030    2    1    2    0    0  0.00000000000E+00  0.00000000000E+00  0.88096893417E+02  0.38074331166E+04  0.38064137813E+04 0.  0.
        5    1    3    3  502    0 -0.13755346651E+04 -0.97060998953E+03 -0.84388010294E+03  0.18831715495E+04  0.46999998093E+01 0. -1.
       -5    1    3    3    0  502  0.13755346651E+04  0.97060998953E+03  0.93197699636E+03  0.19242615671E+04  0.46999998093E+01 0.  1.
</event>
<event>
 5   0  0.1628250E-08  0.3802014E+04  0.7818609E-02  0.8045723E-01
       -1   -1    0    0    0  501  0.00000000000E+00  0.00000000000E+00  0.27499805927E+04  0.27499805927E+04  0.50400001928E-02 0. -1.
        1   -1    0    0  501    0  0.00000000000E+00  0.00000000000E+00 -0.13141284215E+04  0.13141284215E+04  0.50400001928E-02 0.  1.
    10030    2    1    2    0    0  0.00000000000E+00  0.00000000000E+00  0.14358521712E+04  0.40641090142E+04  0.38020140218E+04 0.  0.
        4    1    3    3  502    0  0.96384002968E+03  0.16370281660E+04  0.79333891071E+03  0.20586979038E+04  0.12699999809E+01 0.  1.
       -4    1    3    3    0  502 -0.96384002968E+03 -0.16370281660E+04  0.64251326045E+03  0.20054111104E+04  0.12699999809E+01 0. -1.
</event>
<event>
 5   0  0.1628473E-08  0.3791108E+04  0.7818609E-02  0.8048066E-01
       -1   -1    0    0    0  501  0.00000000000E+00  0.00000000000E+00  0.23454136692E+04  0.23454136692E+04  0.50400001928E-02 0.  1.
        1   -1    0    0  501    0  0.00000000000E+00  0.00000000000E+00 -0.15319792282E+04  0.15319792282E+04  0.50400001928E-02 0. -1.
    10030    2    1    2    0    0  0.00000000000E+00  0.00000000000E+00  0.81343444100E+03  0.38773928974E+04  0.37911080295E+04 0.  0.
        3    1    3    3  502    0 -0.85517459532E+03  0.30163330162E+03  0.21091803351E+04  0.22958545105E+04  0.10100000352E+00 0.  1.
       -3    1    3    3    0  502  0.85517459532E+03 -0.30163330162E+03 -0.12957458941E+04  0.15815383869E+04  0.10100000352E+00 0. -1.
</event>
<event>
 5   0  0.1628250E-08  0.3775364E+04  0.7818609E-02  0.8051462E-01
       -1   -1    0    0    0  501  0.00000000000E+00  0.00000000000E+00  0.19314141659E+04  0.19314141659E+04  0.50400001928E-02 0. -1.
        1   -1    0    0  501    0  0.00000000000E+00  0.00000000000E+00 -0.18449404209E+04  0.18449404209E+04  0.50400001928E-02 0.  1.
    10030    2    1    2    0    0  0.00000000000E+00  0.00000000000E+00  0.86473744953E+02  0.37763545868E+04  0.37753643873E+04 0.  0.
        5    1    3    3  502    0  0.78409165787E+03 -0.17168136817E+04  0.10471165542E+02  0.18874270001E+04  0.46999998093E+01 0. -1.
       -5    1    3    3    0  502 -0.78409165787E+03  0.17168136817E+04  0.76002579411E+02  0.18889275867E+04  0.46999998093E+01 0.  1.
</event>
<event>
 5   0  0.5140842E-08  0.3810004E+04  0.7818609E-02  0.8044012E-01
        2   -1    0    0  501    0  0.00000000000E+00  0.00000000000E+00  0.19568558020E+04  0.19568558020E+04  0.25500000920E-02 0.  1.
       -2   -1    0    0    0  501  0.00000000000E+00  0.00000000000E+00 -0.18545220264E+04  0.18545220264E+04  0.25500000920E-02 0. -1.
    10030    2    1    2    0    0  0.00000000000E+00  0.00000000000E+00  0.10233377558E+03  0.38113778284E+04  0.38100037728E+04 0.  0.
        2    1    3    3  502    0  0.16483579930E+04  0.95031080179E+03  0.14531509171E+03  0.19082167510E+04  0.25500000920E-02 0.  1.
       -2    1    3    3    0  502 -0.16483579930E+04 -0.95031080179E+03 -0.42981316129E+02  0.19031610774E+04  0.25500000920E-02 0. -1.
</event>
<event>
 5   0  0.5140842E-08  0.3834634E+04  0.7818609E-02  0.8038763E-01
        2   -1    0    0  501    0  0.00000000000E+00  0.00000000000E+00  0.27497778633E+04  0.27497778633E+04  0.25500000920E-02 0.  1.
       -2   -1    0    0    0  501  0.00000000000E+00  0.00000000000E+00 -0.13368731284E+04  0.13368731284E+04  0.25500000920E-02 0. -1.
    10030    2    1    2    0    0  0.00000000000E+00  0.00000000000E+00  0.14129047349E+04  0.40866509917E+04  0.38346338206E+04 0.  0.
        2    1    3    3  502    0 -0.12006277797E+04 -0.14205757637E+04  0.12023983148E+04  0.22147921512E+04  0.25500000920E-02 0.  1.
       -2    1    3    3    0  502  0.12006277797E+04  0.14205757637E+04  0.21050642004E+03  0.18718588405E+04  0.25500000920E-02 0. -1.
</event>
<event>
 5   0  0.1628250E-08  0.3798808E+04  0.7818609E-02  0.8046411E-01
       -1   -1    0    0    0  501  0.00000000000E+00  0.00000000000E+00  0.23883322865E+04  0.23883322865E+04  0.50400001928E-02 0.  1.
        1   -1    0    0  501    0  0.00000000000E+00  0.00000000000E+00 -0.15105671938E+04  0.15105671938E+04  0.50400001928E-02 0. -1.
    10030    2    1    2    0    0  0.00000000000E+00  0.00000000000E+00  0.87776509265E+03  0.38988994803E+04  0.37988084447E+04 0.  0.
        4    1    3    3  502    0 -0.10328454159E+04  0.27270366135E+03 -0.11730386932E+04  0.15865554918E+04  0.12699999809E+01 0. -1.
       -4    1    3    3    0  502  0.10328454159E+04 -0.27270366135E+03  0.20508037858E+04  0.23123439884E+04  0.12699999809E+01 0.  1.
</event>
<event>
 5   0  0.1628473E-08  0.3801665E+04  0.7818609E-02  0.8045798E-01
        1   -1    0    0  501    0  0.00000000000E+00  0.00000000000E+00  0.18162374779E+04  0.18162374779E+04  0.50400001928E-02 0.  1.
       -1   -1    0    0    0  501  0.00000000000E+00  0.00000000000E+00 -0.19893675041E+04  0.19893675041E+04  0.50400001928E-02 0. -1.
    10030    2    1    2    0    0  0.00000000000E+00  0.00000000000E+00 -0.17313002623E+03  0.38056049821E+04  0.38016648029E+04 0.  0.
        3    1    3    3  502    0 -0.15394606761E+04  0.49506140713E+03  0.91353944278E+03  0.18573043083E+04  0.10100000352E+00 0.  1.
       -3    1    3    3    0  502  0.15394606761E+04 -0.49506140713E+03 -0.10866694690E+04  0.19483006737E+04  0.10100000352E+00 0. -1.
</event>
<event>
 5   0  0.1628250E-08  0.3799687E+04  0.7818609E-02  0.8046222E-01
       -1   -1    0    0    0  501  0.00000000000E+00  0.00000000000E+00  0.30320404572E+04  0.30320404572E+04  0.50400001928E-02 0.  1.
        1   -1    0    0  501    0  0.00000000000E+00  0.00000000000E+00 -0.11904211065E+04  0.11904211065E+04  0.50400001928E-02 0. -1.
    10030    2    1    2    0    0  0.00000000000E+00  0.00000000000E+00  0.18416193507E+04  0.42224615637E+04  0.37996868061E+04 0.  0.
        1    1    3    3  502    0  0.15461392248E+04 -0.75351524194E+03  0.18174800576E+04  0.25023120273E+04  0.50400001928E-02 0. -1.
       -1    1    3    3    0  502 -0.15461392248E+04  0.75351524194E+03  0.24139293158E+02  0.17201495364E+04  0.50400001928E-02 0.  1.
</event>
<event>
 5   0  0.1628250E-08  0.3805927E+04  0.7818609E-02  0.8044884E-01
        1   -1    0    0  501    0  0.00000000000E+00  0.00000000000E+00  0.32884137513E+04  0.32884137513E+04  0.50400001928E-02 0. -1.
       -1   -1    0    0    0  501  0.00000000000E+00  0.00000000000E+00 -0.11012207264E+04  0.11012207264E+04  0.50400001928E-02 0.  1.
    10030    2    1    2    0    0  0.00000000000E+00  0.00000000000E+00  0.21871930249E+04  0.43896344777E+04  0.38059266309E+04 0.  0.
        5    1    3    3  502    0  0.39586145356E+03  0.17524453079E+04  0.18170778192E+04  0.25553013009E+04  0.46999998093E+01 0. -1.
       -5    1    3    3    0  502 -0.39586145356E+03 -0.17524453079E+04  0.37011520571E+03  0.18343331767E+04  0.46999998093E+01 0.  1.
</event>
<event>
 5   0  0.5147582E-08  0.3753330E+04  0.7818609E-02  0.8056245E-01
       -2   -1    0    0    0  501  0.00000000000E+00  0.00000000000E+00  0.16762965215E+04  0.16762965215E+04  0.25500000920E-02 0. -1.
        2   -1    0    0  501    0  0.00000000000E+00  0.00000000000E+00 -0.21009834951E+04  0.21009834951E+04  0.25500000920E-02 0.  1.
    10030    2    1    2    0    0  0.00000000000E+00  0.00000000000E+00 -0.42468697364E+03  0.37772800166E+04  0.37533298947E+04 0.  0.
        1    1    3    3  502    0 -0.14767032793E+04 -0.11420771497E+04 -0.40560673081E+03  0.19103689725E+04  0.50400001928E-02 0. -1.
       -1    1    3    3    0  502  0.14767032793E+04  0.11420771497E+04 -0.19080242830E+02  0.18669110441E+04  0.50400001928E-02 0.  1.
</event>
<event>
 5   0  0.5086209E-08  0.3798433E+04  0.7818609E-02  0.8046491E-01
        2   -1    0    0  501    0  0.00000000000E+00  0.00000000000E+00  0.34458573807E+04  0.34458573807E+04  0.25500000920E-02 0. -1.
       -2   -1    0    0    0  501  0.00000000000E+00  0.00000000000E+00 -0.10467707653E+04  0.10467707653E+04  0.25500000920E-02 0.  1.
    10030    2    1    2    0    0  0.00000000000E+00  0.00000000000E+00  0.23990866154E+04  0.44926281459E+04  0.37984327122E+04 0.  0.
        3    1    3    3  502    0  0.12402655578E+03  0.18258884345E+04  0.59904254138E+03  0.19256435647E+04  0.10100000352E+00 0. -1.
       -3    1    3    3    0  502 -0.12402655578E+03 -0.18258884345E+04  0.18000440740E+04  0.25669845812E+04  0.10100000352E+00 0.  1.
</event>
<event>
 5   0  0.5147582E-08  0.3800097E+04  0.7818609E-02  0.8046134E-01
        2   -1    0    0  501    0  0.00000000000E+00  0.00000000000E+00  0.19403518328E+04  0.19403518328E+04  0.25500000920E-02 0. -1.
       -2   -1    0    0    0  501  0.00000000000E+00  0.00000000000E+00 -0.18605818875E+04  0.18605818875E+04  0.25500000920E-02 0.  1.
    10030    2    1    2    0    0  0.00000000000E+00  0.00000000000E+00  0.79769945268E+02  0.38009337203E+04  0.38000965649E+04 0.  0.
        1    1    3    3  502    0  0.33328968251E+03 -0.13580611369E+04  0.13265475465E+04  0.19274699627E+04  0.50400001928E-02 0. -1.
       -1    1    3    3    0  502 -0.33328968251E+03  0.13580611369E+04 -0.12467776013E+04  0.18734637576E+04  0.50400001928E-02 0.  1.
</event>
<event>
 5   0  0.5086209E-08  0.3797397E+04  0.7818609E-02  0.8046714E-01
       -2   -1    0    0    0  501  0.00000000000E+00  0.00000000000E+00  0.16742648273E+04  0.16742648273E+04  0.25500000920E-02 0.  1.
        2   -1    0    0  501    0  0.00000000000E+00  0.00000000000E+00 -0.21532178276E+04  0.21532178276E+04  0.25500000920E-02 0. -1.
    10030    2    1    2    0    0  0.00000000000E+00  0.00000000000E+00 -0.47895300038E+03  0.38274826549E+04  0.37973974636E+04 0.  0.
        3    1    3    3  502    0  0.12803272266E+04 -0.37984433903E+03 -0.15998125705E+04  0.20839673222E+04  0.10100000352E+00 0. -1.
       -3    1    3    3    0  502 -0.12803272266E+04  0.37984433903E+03  0.11208595702E+04  0.17435153327E+04  0.10100000352E+00 0.  1.
</event>
<event>
 5   0  0.5159761E-08  0.3917981E+04  0.7818609E-02  0.8021300E-01
       -2   -1    0    0    0  501  0.00000000000E+00  0.00000000000E+00  0.25247446901E+04  0.25247446901E+04  0.25500000920E-02 0.  1.
        2   -1    0    0  501    0  0.00000000000E+00  0.00000000000E+00 -0.15200125120E+04  0.15200125120E+04  0.25500000920E-02 0. -1.
    10030    2    1    2    0    0  0.00000000000E+00  0.00000000000E+00  0.10047321781E+04  0.40447572021E+04  0.39179808670E+04 0.  0.
        5    1    3    3  502    0  0.22064229047E+02  0.19089453557E+04  0.95597210154E+03  0.21350559595E+04  0.46999998093E+01 0. -1.
       -5    1    3    3    0  502 -0.22064229047E+02 -0.19089453557E+04  0.48760076594E+02  0.19097012427E+04  0.46999998093E+01 0.  1.
</event>
<event>
 5   0  0.1628250E-08  0.3801525E+04  0.7818609E-02  0.8045828E-01
       -4   -1    0    0    0  501  0.00000000000E+00  0.00000000000E+00  0.20254697136E+04  0.20254701118E+04  0.12699999809E+01 0. -1.
        4   -1    0    0  501    0  0.00000000000E+00  0.00000000000E+00 -0.17837329194E+04  0.17837333715E+04  0.12699999809E+01 0.  1.
    10030    2    1    2    0    0  0.00000000000E+00  0.00000000000E+00  0.24173679419E+03  0.38092034833E+04  0.38015252860E+04 0.  0.
        2    1    3    3  502    0 -0.19883296922E+03 -0.15716818462E+04  0.11733136856E+04  0.19713912296E+04  0.25500000920E-02 0. -1.
       -2    1    3    3    0  502  0.19883296922E+03  0.15716818462E+04 -0.93157689140E+03  0.18378122537E+04  0.25500000920E-02 0.  1.
</event>
<event>
 5   0  0.1628473E-08  0.3804295E+04  0.7818609E-02  0.8045234E-01
       -1   -1    0    0    0  501  0.00000000000E+00  0.00000000000E+00  0.27599913457E+04  0.27599913457E+04  0.50400001928E-02 0.  1.
        1   -1    0    0  501    0  0.00000000000E+00  0.00000000000E+00 -0.13109337026E+04  0.13109337026E+04  0.50400001928E-02 0. -1.
    10030    2    1    2    0    0  0.00000000000E+00  0.00000000000E+00  0.14490576431E+04  0.40709250482E+04  0.38042952955E+04 0.  0.
        3    1    3    3  502    0  0.17274289433E+04  0.32746966811E+03 -0.52237916442E+02  0.17589701384E+04  0.10100000352E+00 0. -1.
       -3    1    3    3    0  502 -0.17274289433E+04 -0.32746966811E+03  0.15012955596E+04  0.23119549098E+04  0.10100000352E+00 0.  1.
</event>
<event>
 5   0  0.5147582E-08  0.3802731E+04  0.7818609E-02  0.8045569E-01
        2   -1    0    0  501    0  0.00000000000E+00  0.00000000000E+00  0.27640174923E+04  0.27640174923E+04  0.25500000920E-02 0. -1.
       -2   -1    0    0    0  501  0.00000000000E+00  0.00000000000E+00 -0.13079476137E+04  0.13079476137E+04  0.25500000920E-02 0.  1.
    10030    2    1    2    0    0  0.00000000000E+00  0.00000000000E+00  0.14560698786E+04  0.40719651060E+04  0.38027306416E+04 0.  0.
        1    1    3    3  502    0 -0.14263272995E+04 -0.12569365706E+04  0.69607239421E+03  0.20245532558E+04  0.50400001928E-02 0.  1.
       -1    1    3    3    0  502  0.14263272995E+04  0.12569365706E+04  0.75999748441E+03  0.20474118501E+04  0.50400001928E-02 0. -1.
</event>
<event>
 5   0  0.1628473E-08  0.3805672E+04  0.7818609E-02  0.8044939E-01
       -1   -1    0    0    0  501  0.00000000000E+00  0.00000000000E+00  0.22038170540E+04  0.22038170540E+04  0.50400001928E-02 0.  1.
        1   -1    0    0  501    0  0.00000000000E+00  0.00000000000E+00 -0.16429607728E+04  0.16429607728E+04  0.50400001928E-02 0. -1.
    10030    2    1    2    0    0  0.00000000000E+00  0.00000000000E+00  0.56085628111E+03  0.38467778268E+04  0.38056720669E+04 0.  0.
        3    1    3    3  502    0  0.59043726308E+03 -0.14765994314E+04  0.13366176376E+04  0.20773802641E+04  0.10100000352E+00 0.  1.
       -3    1    3    3    0  502 -0.59043726308E+03  0.14765994314E+04 -0.77576135650E+03  0.17693975627E+04  0.10100000352E+00 0. -1.
</event>
<event>
 5   0  0.1666051E-08  0.3798937E+04  0.7818609E-02  0.8046383E-01
       -1   -1    0    0    0  501  0.00000000000E+00  0.00000000000E+00  0.17278760277E+04  0.17278760277E+04  0.50400001928E-02 0. -1.
        1   -1    0    0  501    0  0.00000000000E+00  0.00000000000E+00 -0.20881014951E+04  0.20881014952E+04  0.50400001928E-02 0.  1.
    10030    2    1    2    0    0  0.00000000000E+00  0.00000000000E+00 -0.36022546748E+03  0.38159775228E+04  0.37989369654E+04 0.  0.
        2    1    3    3  502    0  0.27779278252E+03  0.18392710083E+04 -0.56640745212E+03  0.19444546983E+04  0.25500000920E-02 0. -1.
       -2    1    3    3    0  502 -0.27779278252E+03 -0.18392710083E+04  0.20618198464E+03  0.18715228245E+04  0.25500000920E-02 0.  1.
</event>
<event>
 5   0  0.1628250E-08  0.3806082E+04  0.7818609E-02  0.8044851E-01
        1   -1    0    0  501    0  0.00000000000E+00  0.00000000000E+00  0.18040005008E+04  0.18040005008E+04  0.50400001928E-02 0.  1.
       -1   -1    0    0    0  501  0.00000000000E+00  0.00000000000E+00 -0.20075193696E+04  0.20075193696E+04  0.50400001928E-02 0. -1.
    10030    2    1    2    0    0  0.00000000000E+00  0.00000000000E+00 -0.20351886887E+03  0.38115198704E+04  0.38060824731E+04 0.  0.
        4    1    3    3  502    0 -0.12523608662E+04  0.11966963352E+04  0.68744921212E+03  0.18636195669E+04  0.12699999809E+01 0.  1.
       -4    1    3    3    0  502  0.12523608662E+04 -0.11966963352E+04 -0.89096808099E+03  0.19479003035E+04  0.12699999809E+01 0. -1.
</event>
<event>
 5   0  0.5207474E-08  0.3798186E+04  0.7818609E-02  0.8046544E-01
       -2   -1    0    0    0  501  0.00000000000E+00  0.00000000000E+00  0.23410592597E+04  0.23410592597E+04  0.25500000920E-02 0. -1.
        2   -1    0    0  501    0  0.00000000000E+00  0.00000000000E+00 -0.15405654841E+04  0.15405654841E+04  0.25500000920E-02 0.  1.
    10030    2    1    2    0    0  0.00000000000E+00  0.00000000000E+00  0.80049377559E+03  0.38816247438E+04  0.37981864577E+04 0.  0.
        4    1    3    3  502    0 -0.57358055982E+03 -0.86272619697E+03 -0.12263403076E+04  0.16053670336E+04  0.12699999809E+01 0.  1.
       -4    1    3    3    0  502  0.57358055982E+03  0.86272619697E+03  0.20268340832E+04  0.22762577102E+04  0.12699999809E+01 0. -1.
</event>
<event>
 5   0  0.1628250E-08  0.3807326E+04  0.7818609E-02  0.8044585E-01
       -3   -1    0    0    0  501  0.00000000000E+00  0.00000000000E+00  0.17569977544E+04  0.17569977573E+04  0.10100000352E+00 0. -1.
        3   -1    0    0  501    0  0.00000000000E+00  0.00000000000E+00 -0.20625714609E+04  0.20625714634E+04  0.10100000352E+00 0.  1.
    10030    2    1    2    0    0  0.00000000000E+00  0.00000000000E+00 -0.30557370651E+03  0.38195692207E+04  0.38073263246E+04 0.  0.
        1    1    3    3  502    0  0.10677020956E+04  0.10394993714E+04  0.10356687588E+04  0.18147056197E+04  0.50400001928E-02 0. -1.
       -1    1    3    3    0  502 -0.10677020956E+04 -0.10394993714E+04 -0.13412424653E+04  0.20048636011E+04  0.50400001928E-02 0.  1.
</event>
<event>
 5   0  0.1628250E-08  0.3795079E+04  0.7818609E-02  0.8047212E-01
        1   -1    0    0  501    0  0.00000000000E+00  0.00000000000E+00  0.25944877206E+04  0.25944877206E+04  0.50400001928E-02 0.  1.
       -1   -1    0    0    0  501  0.00000000000E+00  0.00000000000E+00 -0.13878101051E+04  0.13878101051E+04  0.50400001928E-02 0. -1.
    10030    2    1    2    0    0  0.00000000000E+00  0.00000000000E+00  0.12066776155E+04  0.39822978258E+04  0.37950790644E+04 0.  0.
        5    1    3    3  502    0  0.12429429361E+04  0.29113016306E+03  0.20765090767E+04  0.24375348099E+04  0.46999998093E+01 0.  1.
       -5    1    3    3    0  502 -0.12429429361E+04 -0.29113016306E+03 -0.86983146120E+03  0.15447630158E+04  0.46999998093E+01 0. -1.
</event>
<event>
 5   0  0.1628250E-08  0.3803867E+04  0.7818609E-02  0.8045325E-01
       -1   -1    0    0    0  501  0.00000000000E+00  0.00000000000E+00  0.24380825213E+04  0.24380825214E+04  0.50400001928E-02 0. -1.
        1   -1    0    0  501    0  0.00000000000E+00  0.00000000000E+00 -0.14836870394E+04  0.14836870394E+04  0.50400001928E-02 0.  1.
    10030    2    1    2    0    0  0.00000000000E+00  0.00000000000E+00  0.95439548193E+03  0.39217695608E+04  0.38038672101E+04 0.  0.
        5    1    3    3  502    0 -0.11257025653E+04  0.52678160343E+03 -0.10070862682E+04  0.15996718304E+04  0.46999998093E+01 0.  1.
       -5    1    3    3    0  502  0.11257025653E+04 -0.52678160343E+03  0.19614817502E+04  0.23220977304E+04  0.46999998093E+01 0. -1.
</event>
<event>
 5   0  0.5159761E-08  0.3803092E+04  0.7818609E-02  0.8045492E-01
        2   -1    0    0  501    0  0.00000000000E+00  0.00000000000E+00  0.16707944455E+04  0.16707944455E+04  0.25500000920E-02 0. -1.
       -2   -1    0    0    0  501  0.00000000000E+00  0.00000000000E+00 -0.21641663997E+04  0.21641663997E+04  0.25500000920E-02 0.  1.
    10030    2    1    2    0    0  0.00000000000E+00  0.00000000000E+00 -0.49337195423E+03  0.38349608452E+04  0.38030920051E+04 0.  0.
        5    1    3    3  502    0 -0.16291642503E+04  0.51433818244E+03 -0.10886288108E+04  0.20257972994E+04  0.46999998093E+01 0.  1.
       -5    1    3    3    0  502  0.16291642503E+04 -0.51433818244E+03  0.59525685660E+03  0.18091635458E+04  0.46999998093E+01 0. -1.
</event>
<event>
 5   0  0.5147582E-08  0.3796219E+04  0.7818609E-02  0.8046967E-01
        2   -1    0    0  501    0  0.00000000000E+00  0.00000000000E+00  0.12183267716E+04  0.12183267716E+04  0.25500000920E-02 0. -1.
       -2   -1    0    0    0  501  0.00000000000E+00  0.00000000000E+00 -0.29571868213E+04  0.29571868213E+04  0.25500000920E-02 0.  1.
    10030    2    1    2    0    0  0.00000000000E+00  0.00000000000E+00 -0.17388600498E+04  0.41755135929E+04  0.37962191048E+04 0.  0.
        1    1    3    3  502    0  0.15960788603E+04  0.68813472236E+03 -0.17084146075E+04  0.24371453784E+04  0.50400001928E-02 0.  1.
       -1    1    3    3    0  502 -0.15960788603E+04 -0.68813472236E+03 -0.30445442325E+02  0.17383682145E+04  0.50400001928E-02 0. -1.
</event>
<event>
 5   0  0.1666051E-08  0.3800757E+04  0.7818609E-02  0.8045993E-01
        1   -1    0    0  501    0  0.00000000000E+00  0.00000000000E+00  0.20013576357E+04  0.20013576357E+04  0.50400001928E-02 0.  1.
       -1   -1    0    0    0  501  0.00000000000E+00  0.00000000000E+00 -0.18044939038E+04  0.18044939038E+04  0.50400001928E-02 0. -1.
    10030    2    1    2    0    0  0.00000000000E+00  0.00000000000E+00  0.19686373197E+03  0.38058515395E+04  0.38007565841E+04 0.  0.
        2    1    3    3  502    0  0.61683527573E+03  0.17974455515E+04  0.86525384598E+02  0.19023098880E+04  0.25500000920E-02 0.  1.
       -2    1    3    3    0  502 -0.61683527573E+03 -0.17974455515E+04  0.11033834737E+03  0.19035416515E+04  0.25500000920E-02 0. -1.
</event>
<event>
 5   0  0.5159761E-08  0.3802977E+04  0.7818609E-02  0.8045516E-01
        2   -1    0    0  501    0  0.00000000000E+00  0.00000000000E+00  0.17073300717E+04  0.17073300717E+04  0.25500000920E-02 0.  1.
       -2   -1    0    0    0  501  0.00000000000E+00  0.00000000000E+00 -0.21177267509E+04  0.21177267509E+04  0.25500000920E-02 0. -1.
    10030    2    1    2    0    0  0.00000000000E+00  0.00000000000E+00 -0.41039667927E+03  0.38250568226E+04  0.38029770262E+04 0.  0.
        5    1    3    3  502    0  0.57249373469E+03  0.10475441801E+04 -0.16938381995E+04  0.20722470465E+04  0.46999998093E+01 0. -1.
       -5    1    3    3    0  502 -0.57249373469E+03 -0.10475441801E+04  0.12834415203E+04  0.17528097761E+04  0.46999998093E+01 0.  1.
</event>
<event>
 5   0  0.5147582E-08  0.3806573E+04  0.7818609E-02  0.8044746E-01
        2   -1    0    0  501    0  0.00000000000E+00  0.00000000000E+00  0.25855934290E+04  0.25855934290E+04  0.25500000920E-02 0.  1.
       -2   -1    0    0    0  501  0.00000000000E+00  0.00000000000E+00 -0.14010324981E+04  0.14010324981E+04  0.25500000920E-02 0. -1.
    10030    2    1    2    0    0  0.00000000000E+00  0.00000000000E+00  0.11845609309E+04  0.39866259272E+04  0.38065734833E+04 0.  0.
        1    1    3    3  502    0  0.16407384769E+04  0.10071748244E+03 -0.41243693081E+03  0.16947775615E+04  0.50400001928E-02 0. -1.
       -1    1    3    3    0  502 -0.16407384769E+04 -0.10071748244E+03  0.15969978617E+04  0.22918483657E+04  0.50400001928E-02 0.  1.
</event>
<event>
 5   0  0.5147582E-08  0.3796301E+04  0.7818609E-02  0.8046949E-01
       -2   -1    0    0    0  501  0.00000000000E+00  0.00000000000E+00  0.17032511407E+04  0.17032511407E+04  0.25500000920E-02 0.  1.
        2   -1    0    0  501    0  0.00000000000E+00  0.00000000000E+00 -0.21153523012E+04  0.21153523012E+04  0.25500000920E-02 0. -1.
    10030    2    1    2    0    0  0.00000000000E+00  0.00000000000E+00 -0.41210116047E+03  0.38186034419E+04  0.37963014738E+04 0.  0.
        1    1    3    3  502    0 -0.88150580792E+03  0.85334061457E+03  0.12508134666E+04  0.17520779155E+04  0.50400001928E-02 0.  1.
       -1    1    3    3    0  502  0.88150580792E+03 -0.85334061457E+03 -0.16629146271E+04  0.20665255263E+04  0.50400001928E-02 0. -1.
</event>
<event>
 5   0  0.5086209E-08  0.3790951E+04  0.7818609E-02  0.8048100E-01
        2   -1    0    0  501    0  0.00000000000E+00  0.00000000000E+00  0.15552391329E+04  0.15552391329E+04  0.25500000920E-02 0. -1.
       -2   -1    0    0    0  501  0.00000000000E+00  0.00000000000E+00 -0.23101444028E+04  0.23101444028E+04  0.25500000920E-02 0.  1.
    10030    2    1    2    0    0  0.00000000000E+00  0.00000000000E+00 -0.75490526986E+03  0.38653835357E+04  0.37909507925E+04 0.  0.
        3    1    3    3  502    0  0.70295523820E+03 -0.10130189217E+04 -0.18453271997E+04  0.22193661002E+04  0.10100000352E+00 0.  1.
       -3    1    3    3    0  502 -0.70295523820E+03  0.10130189217E+04  0.10904219298E+04  0.16460174355E+04  0.10100000352E+00 0. -1.
</event>
<event>
 5   0  0.1628250E-08  0.3804112E+04  0.7818609E-02  0.8045273E-01
       -1   -1    0    0    0  501  0.00000000000E+00  0.00000000000E+00  0.14367788090E+04  0.14367788090E+04  0.50400001928E-02 0.  1.
        1   -1    0    0  501    0  0.00000000000E+00  0.00000000000E+00 -0.25180053262E+04  0.25180053262E+04  0.50400001928E-02 0. -1.
    10030    2    1    2    0    0  0.00000000000E+00  0.00000000000E+00 -0.10812265171E+04  0.39547841352E+04  0.38041118247E+04 0.  0.
        4    1    3    3  502    0  0.14405555463E+04 -0.96372288769E+03  0.27390663873E+03  0.17547046891E+04  0.12699999809E+01 0.  1.
       -4    1    3    3    0  502 -0.14405555463E+04  0.96372288769E+03 -0.13551331559E+04  0.22000794461E+04  0.12699999809E+01 0. -1.
</event>
<event>
 5   0  0.1628250E-08  0.3787819E+04  0.7818609E-02  0.8048774E-01
       -1   -1    0    0    0  501  0.00000000000E+00  0.00000000000E+00  0.11217120316E+04  0.11217120316E+04  0.50400001928E-02 0. -1.
        1   -1    0    0  501    0  0.00000000000E+00  0.00000000000E+00 -0.31976951737E+04  0.31976951737E+04  0.50400001928E-02 0.  1.
    10030    2    1    2    0    0  0.00000000000E+00  0.00000000000E+00 -0.20759831421E+04  0.43194072053E+04  0.37878189765E+04 0.  0.
        4    1    3    3  502    0  0.15387827437E+04  0.14458491640E+03 -0.22862017011E+04  0.27596153647E+04  0.12699999809E+01 0.  1.
       -4    1    3    3    0  502 -0.15387827437E+04 -0.14458491640E+03  0.21021855893E+03  0.15597918406E+04  0.12699999809E+01 0. -1.
</event>
<event>
 5   0  0.1628250E-08  0.3799771E+04  0.7818609E-02  0.8046204E-01
       -1   -1    0    0    0  501  0.00000000000E+00  0.00000000000E+00  0.24661754393E+04  0.24661754393E+04  0.50400001928E-02 0.  1.
        1   -1    0    0  501    0  0.00000000000E+00  0.00000000000E+00 -0.14636286698E+04  0.14636286698E+04  0.50400001928E-02 0. -1.
    10030    2    1    2    0    0  0.00000000000E+00  0.00000000000E+00  0.10025467695E+04  0.39298041091E+04  0.37997710866E+04 0.  0.
        1    1    3    3  502    0 -0.13160324260E+04 -0.45111707808E+03 -0.83688150870E+03  0.16235204416E+04  0.50400001928E-02 0. -1.
       -1    1    3    3    0  502  0.13160324260E+04  0.45111707808E+03  0.18394282782E+04  0.23062836675E+04  0.50400001928E-02 0.  1.
</event>
<event>
 5   0  0.5159761E-08  0.3795917E+04  0.7818609E-02  0.8047032E-01
       -2   -1    0    0    0  501  0.00000000000E+00  0.00000000000E+00  0.16575579418E+04  0.16575579418E+04  0.25500000920E-02 0. -1.
        2   -1    0    0  501    0  0.00000000000E+00  0.00000000000E+00 -0.21732249321E+04  0.21732249321E+04  0.25500000920E-02 0.  1.
    10030    2    1    2    0    0  0.00000000000E+00  0.00000000000E+00 -0.51566699030E+03  0.38307828739E+04  0.37959168829E+04 0.  0.
        5    1    3    3  502    0 -0.54857249311E+03 -0.15213259764E+04 -0.12603661758E+04  0.20503437501E+04  0.46999998093E+01 0.  1.
       -5    1    3    3    0  502  0.54857249311E+03  0.15213259764E+04  0.74469918547E+03  0.17804391238E+04  0.46999998093E+01 0. -1.
</event>
<event>
 5   0  0.1628473E-08  0.3783987E+04  0.7818609E-02  0.8049600E-01
        1   -1    0    0  501    0  0.00000000000E+00  0.00000000000E+00  0.30022753701E+04  0.30022753701E+04  0.50400001928E-02 0. -1.
       -1   -1    0    0    0  501  0.00000000000E+00  0.00000000000E+00 -0.11923086436E+04  0.11923086436E+04  0.50400001928E-02 0.  1.
    10030    2    1    2    0    0  0.00000000000E+00  0.00000000000E+00  0.18099667265E+04  0.41945840137E+04  0.37839867200E+04 0.  0.
        3    1    3    3  502    0 -0.11699033734E+04  0.12268423347E+02 -0.74323762729E+03  0.13860831859E+04  0.10100000352E+00 0.  1.
       -3    1    3    3    0  502  0.11699033734E+04 -0.12268423347E+02  0.25532043538E+04  0.28085008278E+04  0.10100000352E+00 0. -1.
</event>
<event>
 5   0  0.5159761E-08  0.3800611E+04  0.7818609E-02  0.8046024E-01
       -2   -1    0    0    0  501  0.00000000000E+00  0.00000000000E+00  0.14559730188E+04  0.14559730188E+04  0.25500000920E-02 0.  1.
        2   -1    0    0  501    0  0.00000000000E+00  0.00000000000E+00 -0.24802388343E+04  0.24802388343E+04  0.25500000920E-02 0. -1.
    10030    2    1    2    0    0  0.00000000000E+00  0.00000000000E+00 -0.10242658155E+04  0.39362118531E+04  0.38006109103E+04 0.  0.
        5    1    3    3  502    0 -0.89176913136E+03 -0.22302834047E+02 -0.22499108045E+04  0.24203037657E+04  0.46999998093E+01 0. -1.
       -5    1    3    3    0  502  0.89176913136E+03  0.22302834047E+02  0.12256449890E+04  0.15159080873E+04  0.46999998093E+01 0.  1.
</event>
<event>
 5   0  0.5147582E-08  0.3806531E+04  0.7818609E-02  0.8044755E-01
        2   -1    0    0  501    0  0.00000000000E+00  0.00000000000E+00  0.22190953422E+04  0.22190953422E+04  0.25500000920E-02 0. -1.
       -2   -1    0    0    0  501  0.00000000000E+00  0.00000000000E+00 -0.16323855923E+04  0.16323855924E+04  0.25500000920E-02 0.  1.
    10030    2    1    2    0    0  0.00000000000E+00  0.00000000000E+00  0.58670974989E+03  0.38514809346E+04  0.38065308430E+04 0.  0.
        1    1    3    3  502    0 -0.73181770650E+03 -0.10327450035E+04 -0.11448021828E+04  0.17066609023E+04  0.50400001928E-02 0.  1.
       -1    1    3    3    0  502  0.73181770650E+03  0.10327450035E+04  0.17315119327E+04  0.21448200323E+04  0.50400001928E-02 0. -1.
</event>
<event>
 5   0  0.5207474E-08  0.3862077E+04  0.7818609E-02  0.8032963E-01
       -2   -1    0    0    0  501  0.00000000000E+00  0.00000000000E+00  0.22432551201E+04  0.22432551201E+04  0.25500000920E-02 0. -1.
        2   -1    0    0  501    0  0.00000000000E+00  0.00000000000E+00 -0.16622765449E+04  0.16622765449E+04  0.25500000920E-02 0.  1.
    10030    2    1    2    0    0  0.00000000000E+00  0.00000000000E+00  0.58097857520E+03  0.39055316649E+04  0.38620773531E+04 0.  0.
        4    1    3    3  502    0  0.84177993275E+03 -0.23384177370E+03 -0.14509884305E+04  0.16937073149E+04  0.12699999809E+01 0.  1.
       -4    1    3    3    0  502 -0.84177993275E+03  0.23384177370E+03  0.20319670057E+04  0.22118243500E+04  0.12699999809E+01 0. -1.
</event>
<event>
 5   0  0.5159761E-08  0.3800555E+04  0.7818609E-02  0.8046036E-01
        2   -1    0    0  501    0  0.00000000000E+00  0.00000000000E+00  0.16202688806E+04  0.16202688806E+04  0.25500000920E-02 0.  1.
       -2   -1    0    0    0  501  0.00000000000E+00  0.00000000000E+00 -0.22286762948E+04  0.22286762948E+04  0.25500000920E-02 0. -1.
    10030    2    1    2    0    0  0.00000000000E+00  0.00000000000E+00 -0.60840741424E+03  0.38489451754E+04  0.38005551412E+04 0.  0.
        5    1    3    3  502    0 -0.64716569859E+02 -0.93593826885E+03 -0.19777769718E+04  0.21890163357E+04  0.46999998093E+01 0. -1.
       -5    1    3    3    0  502  0.64716569859E+02  0.93593826885E+03  0.13693695576E+04  0.16599288397E+04  0.46999998093E+01 0.  1.
</event>
<event>
 5   0  0.1628250E-08  0.3802778E+04  0.7818609E-02  0.8045559E-01
       -1   -1    0    0    0  501  0.00000000000E+00  0.00000000000E+00  0.24474929097E+04  0.24474929097E+04  0.50400001928E-02 0. -1.
        1   -1    0    0  501    0  0.00000000000E+00  0.00000000000E+00 -0.14771358582E+04  0.14771358582E+04  0.50400001928E-02 0.  1.
    10030    2    1    2    0    0  0.00000000000E+00  0.00000000000E+00  0.97035705152E+03  0.39246287679E+04  0.38027776898E+04 0.  0.
        4    1    3    3  502    0  0.10313010616E+04  0.15216716127E+04  0.98676776434E+03  0.20863313760E+04  0.12699999809E+01 0. -1.
       -4    1    3    3    0  502 -0.10313010616E+04 -0.15216716127E+04 -0.16410712818E+02  0.18382973919E+04  0.12699999809E+01 0.  1.
</event>
<event>
 5   0  0.5147582E-08  0.3799462E+04  0.7818609E-02  0.8046270E-01
        2   -1    0    0  501    0  0.00000000000E+00  0.00000000000E+00  0.18504850206E+04  0.18504850206E+04  0.25500000920E-02 0.  1.
       -2   -1    0    0    0  501  0.00000000000E+00  0.00000000000E+00 -0.19502873353E+04  0.19502873353E+04  0.25500000920E-02 0. -1.
    10030    2    1    2    0    0  0.00000000000E+00  0.00000000000E+00 -0.99802314675E+02  0.38007723558E+04  0.37994618038E+04 0.  0.
        1    1    3    3  502    0 -0.70426692154E+02 -0.19496685461E+03 -0.19389395323E+04  0.19499893598E+04  0.50400001928E-02 0. -1.
       -1    1    3    3    0  502  0.70426692154E+02  0.19496685461E+03  0.18391372176E+04  0.18507829961E+04  0.50400001928E-02 0.  1.
</event>
<event>
 5   0  0.1628250E-08  0.3787846E+04  0.7818609E-02  0.8048768E-01
       -1   -1    0    0    0  501  0.00000000000E+00  0.00000000000E+00  0.18326702019E+04  0.18326702019E+04  0.50400001928E-02 0. -1.
        1   -1    0    0  501    0  0.00000000000E+00  0.00000000000E+00 -0.19572229514E+04  0.19572229514E+04  0.50400001928E-02 0.  1.
    10030    2    1    2    0    0  0.00000000000E+00  0.00000000000E+00 -0.12455274944E+03  0.37898931533E+04  0.37878459217E+04 0.  0.
        1    1    3    3  502    0 -0.65773472170E+03 -0.14147173262E+04 -0.11365904211E+04  0.19302533156E+04  0.50400001928E-02 0.  1.
       -1    1    3    3    0  502  0.65773472170E+03  0.14147173262E+04  0.10120376717E+04  0.18596398377E+04  0.50400001928E-02 0. -1.
</event>
<event>
 5   0  0.1666051E-08  0.3796743E+04  0.7818609E-02  0.8046854E-01
        1   -1    0    0  501    0  0.00000000000E+00  0.00000000000E+00  0.13271635771E+04  0.13271635771E+04  0.50400001928E-02 0. -1.
       -1   -1    0    0    0  501  0.00000000000E+00  0.00000000000E+00 -0.27154252677E+04  0.27154252677E+04  0.50400001928E-02 0.  1.
    10030    2    1    2    0    0  0.00000000000E+00  0.00000000000E+00 -0.13882616906E+04  0.40425888448E+04  0.37967425573E+04 0.  0.
        2    1    3    3  502    0 -0.11916764683E+04 -0.31392408182E+03 -0.22316459979E+04  0.25492910768E+04  0.25500000920E-02 0.  1.
       -2    1    3    3    0  502  0.11916764683E+04  0.31392408182E+03  0.84338430729E+03  0.14932977680E+04  0.25500000920E-02 0. -1.
</event>
<event>
 5   0  0.1666051E-08  0.3800973E+04  0.7818609E-02  0.8045946E-01
       -1   -1    0    0    0  501  0.00000000000E+00  0.00000000000E+00  0.22018673424E+04  0.22018673424E+04  0.50400001928E-02 0. -1.
        1   -1    0    0  501    0  0.00000000000E+00  0.00000000000E+00 -0.16403570569E+04  0.16403570570E+04  0.50400001928E-02 0.  1.
    10030    2    1    2    0    0  0.00000000000E+00  0.00000000000E+00  0.56151028542E+03  0.38422243993E+04  0.38009728405E+04 0.  0.
        2    1    3    3  502    0 -0.17706512545E+04 -0.26361334626E+03 -0.36425358405E+03  0.18268493465E+04  0.25500000920E-02 0.  1.
       -2    1    3    3    0  502  0.17706512545E+04  0.26361334626E+03  0.92576386947E+03  0.20153750528E+04  0.25500000920E-02 0. -1.
</event>
<event>
 5   0  0.1628250E-08  0.3803774E+04  0.7818609E-02  0.8045346E-01
       -1   -1    0    0    0  501  0.00000000000E+00  0.00000000000E+00  0.19703389700E+04  0.19703389700E+04  0.50400001928E-02 0. -1.
        1   -1    0    0  501    0  0.00000000000E+00  0.00000000000E+00 -0.18358126613E+04  0.18358126613E+04  0.50400001928E-02 0.  1.
    10030    2    1    2    0    0  0.00000000000E+00  0.00000000000E+00  0.13452630866E+03  0.38061516313E+04  0.38037735097E+04 0.  0.
        1    1    3    3  502    0  0.90234518315E+03  0.12733264516E+04  0.11549506393E+04  0.19415195238E+04  0.50400001928E-02 0. -1.
       -1    1    3    3    0  502 -0.90234518315E+03 -0.12733264516E+04 -0.10204243307E+04  0.18646321075E+04  0.50400001928E-02 0.  1.
</event>
<event>
 5   0  0.1628250E-08  0.3798764E+04  0.7818609E-02  0.8046420E-01
        1   -1    0    0  501    0  0.00000000000E+00  0.00000000000E+00  0.12169295471E+04  0.12169295471E+04  0.50400001928E-02 0. -1.
       -1   -1    0    0    0  501  0.00000000000E+00  0.00000000000E+00 -0.29645530284E+04  0.29645530284E+04  0.50400001928E-02 0.  1.
    10030    2    1    2    0    0  0.00000000000E+00  0.00000000000E+00 -0.17476234813E+04  0.41814825755E+04  0.37987641012E+04 0.  0.
        4    1    3    3  502    0 -0.11026000278E+04 -0.15298286608E+04 -0.62389582699E+03  0.19862905550E+04  0.12699999809E+01 0. -1.
       -4    1    3    3    0  502  0.11026000278E+04  0.15298286608E+04 -0.11237276544E+04  0.21951920205E+04  0.12699999809E+01 0.  1.
</event>
<event>
 5   0  0.5207474E-08  0.3800866E+04  0.7818609E-02  0.8045969E-01
        2   -1    0    0  501    0  0.00000000000E+00  0.00000000000E+00  0.28693538076E+04  0.28693538076E+04  0.25500000920E-02 0.  1.
       -2   -1    0    0    0  501  0.00000000000E+00  0.00000000000E+00 -0.12586963446E+04  0.12586963446E+04  0.25500000920E-02 0. -1.
    10030    2    1    2    0    0  0.00000000000E+00  0.00000000000E+00  0.16106574630E+04  0.41280501522E+04  0.38008657693E+04 0.  0.
        4    1    3    3  502    0  0.26951016280E+03  0.79439888798E+03 -0.10467311313E+04  0.13413996404E+04  0.12699999809E+01 0. -1.
       -4    1    3    3    0  502 -0.26951016280E+03 -0.79439888798E+03  0.26573885943E+04  0.27866505118E+04  0.12699999809E+01 0.  1.
</event>
<event>
 5   0  0.5207474E-08  0.3809321E+04  0.7818609E-02  0.8044158E-01
        2   -1    0    0  501    0  0.00000000000E+00  0.00000000000E+00  0.17820457207E+04  0.17820457207E+04  0.25500000920E-02 0. -1.
       -2   -1    0    0    0  501  0.00000000000E+00  0.00000000000E+00 -0.20357117569E+04  0.20357117569E+04  0.25500000920E-02 0.  1.
    10030    2    1    2    0    0  0.00000000000E+00  0.00000000000E+00 -0.25366603626E+03  0.38177574776E+04  0.38093208974E+04 0.  0.
        4    1    3    3  502    0 -0.80973018403E+03 -0.14322115067E+04 -0.10885608126E+04  0.19727795180E+04  0.12699999809E+01 0.  1.
       -4    1    3    3    0  502  0.80973018403E+03  0.14322115067E+04  0.83489477639E+03  0.18449779596E+04  0.12699999809E+01 0. -1.
</event>
<event>
 5   0  0.1628250E-08  0.3798096E+04  0.7818609E-02  0.8046564E-01
        1   -1    0    0  501    0  0.00000000000E+00  0.00000000000E+00  0.25131428053E+04  0.25131428053E+04  0.50400001928E-02 0.  1.
       -1   -1    0    0    0  501  0.00000000000E+00  0.00000000000E+00 -0.14350096041E+04  0.14350096041E+04  0.50400001928E-02 0. -1.
    10030    2    1    2    0    0  0.00000000000E+00  0.00000000000E+00  0.10781332013E+04  0.39481524094E+04  0.37980963980E+04 0.  0.
        5    1    3    3  502    0 -0.17167676104E+04 -0.23051074278E+03  0.13482392805E+04  0.21950392885E+04  0.46999998093E+01 0.  1.
       -5    1    3    3    0  502  0.17167676104E+04  0.23051074278E+03 -0.27010607928E+03  0.17531131209E+04  0.46999998093E+01 0. -1.
</event>
<event>
 5   0  0.5140842E-08  0.3788752E+04  0.7818609E-02  0.8048573E-01
        2   -1    0    0  501    0  0.00000000000E+00  0.00000000000E+00  0.18791503043E+04  0.18791503043E+04  0.25500000920E-02 0.  1.
       -2   -1    0    0    0  501  0.00000000000E+00  0.00000000000E+00 -0.19097249624E+04  0.19097249624E+04  0.25500000920E-02 0. -1.
    10030    2    1    2    0    0  0.00000000000E+00  0.00000000000E+00 -0.30574658095E+02  0.37888752666E+04  0.37887519022E+04 0.  0.
        2    1    3    3  502    0 -0.14523678678E+04 -0.31697535712E+03 -0.11895548606E+04  0.19039134872E+04  0.25500000920E-02 0. -1.
       -2    1    3    3    0  502  0.14523678678E+04  0.31697535712E+03  0.11589802025E+04  0.18849617795E+04  0.25500000920E-02 0.  1.
</event>
<event>
 5   0  0.1628250E-08  0.3795287E+04  0.7818609E-02  0.8047167E-01
        3   -1    0    0  501    0  0.00000000000E+00  0.00000000000E+00  0.15355442018E+04  0.15355442051E+04  0.10100000352E+00 0. -1.
       -3   -1    0    0    0  501  0.00000000000E+00  0.00000000000E+00 -0.23451303977E+04  0.23451303998E+04  0.10100000352E+00 0.  1.
    10030    2    1    2    0    0  0.00000000000E+00  0.00000000000E+00 -0.80958619591E+03  0.38806746049E+04  0.37952872856E+04 0.  0.
        4    1    3    3  502    0 -0.18179813776E+04 -0.51482752147E+03 -0.22492023481E+03  0.19028122322E+04  0.12699999809E+01 0. -1.
       -4    1    3    3    0  502  0.18179813776E+04  0.51482752147E+03 -0.58466596110E+03  0.19778623727E+04  0.12699999809E+01 0.  1.
</event>
<event>
 5   0  0.5147582E-08  0.3805028E+04  0.7818609E-02  0.8045077E-01
        2   -1    0    0  501    0  0.00000000000E+00  0.00000000000E+00  0.26974806581E+04  0.26974806581E+04  0.25500000920E-02 0.  1.
       -2   -1    0    0    0  501  0.00000000000E+00  0.00000000000E+00 -0.13418295332E+04  0.13418295332E+04  0.25500000920E-02 0. -1.
    10030    2    1    2    0    0  0.00000000000E+00  0.00000000000E+00  0.13556511250E+04  0.40393101913E+04  0.38050278382E+04 0.  0.
        1    1    3    3  502    0  0.16547591322E+04  0.33426178085E+03 -0.25345820714E+03  0.17071027463E+04  0.50400001928E-02 0. -1.
       -1    1    3    3    0  502 -0.16547591322E+04 -0.33426178085E+03  0.16091093321E+04  0.23322074450E+04  0.50400001928E-02 0.  1.
</event>
<event>
 5   0  0.5207474E-08  0.3798274E+04  0.7818609E-02  0.8046525E-01
       -2   -1    0    0    0  501  0.00000000000E+00  0.00000000000E+00  0.17618192117E+04  0.17618192117E+04  0.25500000920E-02 0.  1.
        2   -1    0    0  501    0  0.00000000000E+00  0.00000000000E+00 -0.20471577944E+04  0.20471577944E+04  0.25500000920E-02 0. -1.
    10030    2    1    2    0    0  0.00000000000E+00  0.00000000000E+00 -0.28533858270E+03  0.38089770062E+04  0.37982743090E+04 0.  0.
        4    1    3    3  502    0 -0.17015644588E+04 -0.73278401115E+03  0.27615128911E+03  0.18731137611E+04  0.12699999809E+01 0.  1.
       -4    1    3    3    0  502  0.17015644588E+04  0.73278401115E+03 -0.56148987181E+03  0.19358632451E+04  0.12699999809E+01 0. -1.
</event>
<event>
 5   0  0.1628250E-08  0.3799725E+04  0.7818609E-02  0.8046214E-01
       -1   -1    0    0    0  501  0.00000000000E+00  0.00000000000E+00  0.31333609016E+04  0.31333609016E+04  0.50400001928E-02 0. -1.
        1   -1    0    0  501    0  0.00000000000E+00  0.00000000000E+00 -0.11519506044E+04  0.11519506044E+04  0.50400001928E-02 0.  1.
    10030    2    1    2    0    0  0.00000000000E+00  0.00000000000E+00  0.19814102972E+04  0.42853115059E+04  0.37997247186E+04 0.  0.
        5    1    3    3  502    0  0.63642343686E+03  0.72682727398E+03  0.28356562388E+04  0.29957104452E+04  0.46999998093E+01 0. -1.
       -5    1    3    3    0  502 -0.63642343686E+03 -0.72682727398E+03 -0.85424594155E+03  0.12896010607E+04  0.46999998093E+01 0.  1.
</event>
<event>
 5   0  0.5207474E-08  0.3790572E+04  0.7818609E-02  0.8048181E-01
        2   -1    0    0  501    0  0.00000000000E+00  0.00000000000E+00  0.14271278849E+04  0.14271278849E+04  0.25500000920E-02 0.  1.
       -2   -1    0    0    0  501  0.00000000000E+00  0.00000000000E+00 -0.25170199829E+04  0.25170199829E+04  0.25500000920E-02 0. -1.
    10030    2    1    2    0    0  0.00000000000E+00  0.00000000000E+00 -0.10898920980E+04  0.39441478678E+04  0.37905722019E+04 0.  0.
        4    1    3    3  502    0  0.11911446734E+04  0.12985797327E+04 -0.12710533164E+04  0.21727202077E+04  0.12699999809E+01 0. -1.
       -4    1    3    3    0  502 -0.11911446734E+04 -0.12985797327E+04  0.18116121839E+03  0.17714276601E+04  0.12699999809E+01 0.  1.
</event>
<event>
 5   0  0.5159761E-08  0.3802617E+04  0.7818609E-02  0.8045593E-01
       -2   -1    0    0    0  501  0.00000000000E+00  0.00000000000E+00  0.17778460556E+04  0.17778460556E+04  0.25500000920E-02 0. -1.
        2   -1    0    0  501    0  0.00000000000E+00  0.00000000000E+00 -0.20333452296E+04  0.20333452296E+04  0.25500000920E-02 0.  1.
    10030    2    1    2    0    0  0.00000000000E+00  0.00000000000E+00 -0.25549917403E+03  0.38111912853E+04  0.38026174124E+04 0.  0.
        5    1    3    3  502    0  0.28455212352E+03  0.16973196456E+04  0.68221165459E+03  0.18512964976E+04  0.46999998093E+01 0. -1.
       -5    1    3    3    0  502 -0.28455212352E+03 -0.16973196456E+04 -0.93771082862E+03  0.19598947876E+04  0.46999998093E+01 0.  1.
</event>
<event>
 5   0  0.5147582E-08  0.3802312E+04  0.7818609E-02  0.8045659E-01
        2   -1    0    0  501    0  0.00000000000E+00  0.00000000000E+00  0.21987014433E+04  0.21987014433E+04  0.25500000920E-02 0.  1.
       -2   -1    0    0    0  501  0.00000000000E+00  0.00000000000E+00 -0.16438768701E+04  0.16438768701E+04  0.25500000920E-02 0. -1.
    10030    2    1    2    0    0  0.00000000000E+00  0.00000000000E+00  0.55482457317E+03  0.38425783133E+04  0.38023121633E+04 0.  0.
        1    1    3    3  502    0  0.22175471518E+03 -0.11028347752E+04  0.18262793082E+04  0.21449279258E+04  0.50400001928E-02 0.  1.
       -1    1    3    3    0  502 -0.22175471518E+03  0.11028347752E+04 -0.12714547350E+04  0.16976503876E+04  0.50400001928E-02 0. -1.
</event>
<event>
 5   0  0.1628250E-08  0.3804606E+04  0.7818609E-02  0.8045167E-01
       -1   -1    0    0    0  501  0.00000000000E+00  0.00000000000E+00  0.29376401520E+04  0.29376401520E+04  0.50400001928E-02 0.  1.
        1   -1    0    0  501    0  0.00000000000E+00  0.00000000000E+00 -0.12318585971E+04  0.12318585971E+04  0.50400001928E-02 0. -1.
    10030    2    1    2    0    0  0.00000000000E+00  0.00000000000E+00  0.17057815549E+04  0.41694987491E+04  0.38046063010E+04 0.  0.
        4    1    3    3  502    0  0.15711219467E+04 -0.10356596535E+04  0.54732972515E+03  0.19597414448E+04  0.12699999809E+01 0. -1.
       -4    1    3    3    0  502 -0.15711219467E+04  0.10356596535E+04  0.11584518297E+04  0.22097573043E+04  0.12699999809E+01 0.  1.
</event>
<event>
 5   0  0.5147582E-08  0.3796629E+04  0.7818609E-02  0.8046879E-01
        2   -1    0    0  501    0  0.00000000000E+00  0.00000000000E+00  0.18377384925E+04  0.18377384925E+04  0.25500000920E-02 0.  1.
       -2   -1    0    0    0  501  0.00000000000E+00  0.00000000000E+00 -0.19608876711E+04  0.19608876711E+04  0.25500000920E-02 0. -1.
    10030    2    1    2    0    0  0.00000000000E+00  0.00000000000E+00 -0.12314917858E+03  0.37986261636E+04  0.37966294276E+04 0.  0.
        1    1    3    3  502    0 -0.14796301524E+04 -0.75812609428E+03  0.85517046119E+03  0.18695927579E+04  0.50400001928E-02 0.  1.
       -1    1    3    3    0  502  0.14796301524E+04  0.75812609428E+03 -0.97831963977E+03  0.19290334057E+04  0.50400001928E-02 0. -1.
</event>
<event>
 5   0  0.1666051E-08  0.3801018E+04  0.7818609E-02  0.8045936E-01
       -1   -1    0    0    0  501  0.00000000000E+00  0.00000000000E+00  0.23240975331E+04  0.23240975331E+04  0.50400001928E-02 0.  1.
        1   -1    0    0  501    0  0.00000000000E+00  0.00000000000E+00 -0.15541236523E+04  0.15541236523E+04  0.50400001928E-02 0. -1.
    10030    2    1    2    0    0  0.00000000000E+00  0.00000000000E+00  0.76997388085E+03  0.38782211854E+04  0.38010182564E+04 0.  0.
        2    1    3    3  502    0 -0.11107066277E+04  0.62062737859E+03 -0.10554551051E+04  0.16531282572E+04  0.25500000920E-02 0. -1.
       -2    1    3    3    0  502  0.11107066277E+04 -0.62062737859E+03  0.18254289860E+04  0.22250929281E+04  0.25500000920E-02 0.  1.
</event>
<event>
 5   0  0.5086209E-08  0.3796213E+04  0.7818609E-02  0.8046968E-01
       -2   -1    0    0    0  501  0.00000000000E+00  0.00000000000E+00  0.16079947721E+04  0.16079947721E+04  0.25500000920E-02 0. -1.
        2   -1    0    0  501    0  0.00000000000E+00  0.00000000000E+00 -0.22405593695E+04  0.22405593695E+04  0.25500000920E-02 0.  1.
    10030    2    1    2    0    0  0.00000000000E+00  0.00000000000E+00 -0.63256459747E+03  0.38485541416E+04  0.37962127194E+04 0.  0.
        3    1    3    3  502    0  0.73098821042E+03 -0.84666471296E+03 -0.18709260861E+04  0.21798048834E+04  0.10100000352E+00 0.  1.
       -3    1    3    3    0  502 -0.73098821042E+03  0.84666471296E+03  0.12383614886E+04  0.16687492582E+04  0.10100000352E+00 0. -1.
</event>
<event>
 5   0  0.1628250E-08  0.3804066E+04  0.7818609E-02  0.8045283E-01
        1   -1    0    0  501    0  0.00000000000E+00  0.00000000000E+00  0.19904901592E+04  0.19904901592E+04  0.50400001928E-02 0. -1.
       -1   -1    0    0    0  501  0.00000000000E+00  0.00000000000E+00 -0.18175068896E+04  0.18175068896E+04  0.50400001928E-02 0.  1.
    10030    2    1    2    0    0  0.00000000000E+00  0.00000000000E+00  0.17298326955E+03  0.38079970488E+04  0.38040660236E+04 0.  0.
        4    1    3    3  502    0  0.76602480124E+03  0.15858027739E+04 -0.63269600621E+03  0.18713284808E+04  0.12699999809E+01 0.  1.
       -4    1    3    3    0  502 -0.76602480124E+03 -0.15858027739E+04  0.80567927576E+03  0.19366685680E+04  0.12699999809E+01 0. -1.
</event>
<event>
 5   0  0.1628250E-08  0.3864330E+04  0.7818609E-02  0.8032489E-01
        1   -1    0    0  501    0  0.00000000000E+00  0.00000000000E+00  0.21738844495E+04  0.21738844495E+04  0.50400001928E-02 0.  1.
       -1   -1    0    0    0  501  0.00000000000E+00  0.00000000000E+00 -0.17173231813E+04  0.17173231813E+04  0.50400001928E-02 0. -1.
    10030    2    1    2    0    0  0.00000000000E+00  0.00000000000E+00  0.45656126819E+03  0.38912076308E+04  0.38643302957E+04 0.  0.
        1    1    3    3  502    0  0.10843765178E+04 -0.69861803928E+03  0.16767998523E+04  0.21155607630E+04  0.50400001928E-02 0.  1.
       -1    1    3    3    0  502 -0.10843765178E+04  0.69861803928E+03 -0.12202385841E+04  0.17756468678E+04  0.50400001928E-02 0. -1.
</event>
<event>
 5   0  0.5147582E-08  0.3794786E+04  0.7818609E-02  0.8047275E-01
        2   -1    0    0  501    0  0.00000000000E+00  0.00000000000E+00  0.27999152041E+04  0.27999152041E+04  0.25500000920E-02 0.  1.
       -2   -1    0    0    0  501  0.00000000000E+00  0.00000000000E+00 -0.12857888910E+04  0.12857888910E+04  0.25500000920E-02 0. -1.
    10030    2    1    2    0    0  0.00000000000E+00  0.00000000000E+00  0.15141263130E+04  0.40857040951E+04  0.37947858254E+04 0.  0.
        1    1    3    3  502    0  0.65639486397E+03 -0.10551297229E+04 -0.78671747782E+03  0.14707404052E+04  0.50400001928E-02 0. -1.
       -1    1    3    3    0  502 -0.65639486397E+03  0.10551297229E+04  0.23008437909E+04  0.26149636899E+04  0.50400001928E-02 0.  1.
</event>
<event>
 5   0  0.5207474E-08  0.3874911E+04  0.7818609E-02  0.8030268E-01
       -2   -1    0    0    0  501  0.00000000000E+00  0.00000000000E+00  0.20232645308E+04  0.20232645308E+04  0.25500000920E-02 0.  1.
        2   -1    0    0  501    0  0.00000000000E+00  0.00000000000E+00 -0.18552855452E+04  0.18552855452E+04  0.25500000920E-02 0. -1.
    10030    2    1    2    0    0  0.00000000000E+00  0.00000000000E+00  0.16797898559E+03  0.38785500760E+04  0.38749108057E+04 0.  0.
        4    1    3    3  502    0 -0.29766749263E+03 -0.18490579199E+04 -0.41257188658E+03  0.19177690950E+04  0.12699999809E+01 0. -1.
       -4    1    3    3    0  502  0.29766749263E+03  0.18490579199E+04  0.58055087217E+03  0.19607809810E+04  0.12699999809E+01 0.  1.
</event>
<event>
 5   0  0.1628250E-08  0.3806578E+04  0.7818609E-02  0.8044745E-01
        3   -1    0    0  501    0  0.00000000000E+00  0.00000000000E+00  0.21393930924E+04  0.21393930948E+04  0.10100000352E+00 0. -1.
       -3   -1    0    0    0  501  0.00000000000E+00  0.00000000000E+00 -0.16932418431E+04  0.16932418461E+04  0.10100000352E+00 0.  1.
    10030    2    1    2    0    0  0.00000000000E+00  0.00000000000E+00  0.44615124927E+03  0.38326349409E+04  0.38065784707E+04 0.  0.
        1    1    3    3  502    0  0.20536370587E+03 -0.18921267744E+04  0.20912686621E+03  0.19146937165E+04  0.50400001928E-02 0.  1.
       -1    1    3    3    0  502 -0.20536370587E+03  0.18921267744E+04  0.23702438306E+03  0.19179412244E+04  0.50400001928E-02 0. -1.
</event>
<event>
 5   0  0.5147582E-08  0.3808491E+04  0.7818609E-02  0.8044335E-01
        2   -1    0    0  501    0  0.00000000000E+00  0.00000000000E+00  0.28498498080E+04  0.28498498080E+04  0.25500000920E-02 0.  1.
       -2   -1    0    0    0  501  0.00000000000E+00  0.00000000000E+00 -0.12724005300E+04  0.12724005300E+04  0.25500000920E-02 0. -1.
    10030    2    1    2    0    0  0.00000000000E+00  0.00000000000E+00  0.15774492780E+04  0.41222503380E+04  0.38084907279E+04 0.  0.
        1    1    3    3  502    0 -0.69929447210E+03 -0.17607939040E+04  0.99619958681E+03  0.21405189903E+04  0.50400001928E-02 0. -1.
       -1    1    3    3    0  502  0.69929447210E+03  0.17607939040E+04  0.58124969121E+03  0.19817313477E+04  0.50400001928E-02 0.  1.
</event>
<event>
 5   0  0.5086209E-08  0.3795113E+04  0.7818609E-02  0.8047205E-01
       -2   -1    0    0    0  501  0.00000000000E+00  0.00000000000E+00  0.16122471501E+04  0.16122471501E+04  0.25500000920E-02 0.  1.
        2   -1    0    0  501    0  0.00000000000E+00  0.00000000000E+00 -0.22333547530E+04  0.22333547530E+04  0.25500000920E-02 0. -1.
    10030    2    1    2    0    0  0.00000000000E+00  0.00000000000E+00 -0.62110760291E+03  0.38456019031E+04  0.37951125600E+04 0.  0.
        3    1    3    3  502    0 -0.16498199908E+03 -0.18787159179E+04 -0.98177161487E+02  0.18884997552E+04  0.10100000352E+00 0.  1.
       -3    1    3    3    0  502  0.16498199908E+03  0.18787159179E+04 -0.52293044143E+03  0.19571021478E+04  0.10100000352E+00 0. -1.
</event>
<event>
 5   0  0.1628250E-08  0.3799503E+04  0.7818609E-02  0.8046262E-01
        1   -1    0    0  501    0  0.00000000000E+00  0.00000000000E+00  0.16258433627E+04  0.16258433627E+04  0.50400001928E-02 0. -1.
       -1   -1    0    0    0  501  0.00000000000E+00  0.00000000000E+00 -0.22198049938E+04  0.22198049939E+04  0.50400001928E-02 0.  1.
    10030    2    1    2    0    0  0.00000000000E+00  0.00000000000E+00 -0.59396163119E+03  0.38456483565E+04  0.37995027125E+04 0.  0.
        1    1    3    3  502    0 -0.11588208043E+03  0.14585723044E+04  0.92942568474E+03  0.17334052980E+04  0.50400001928E-02 0. -1.
       -1    1    3    3    0  502  0.11588208043E+03 -0.14585723044E+04 -0.15233873159E+04  0.21122430585E+04  0.50400001928E-02 0.  1.
</event>
<event>
 5   0  0.1628250E-08  0.3802347E+04  0.7818609E-02  0.8045651E-01
        1   -1    0    0  501    0  0.00000000000E+00  0.00000000000E+00  0.14034601598E+04  0.14034601598E+04  0.50400001928E-02 0. -1.
       -1   -1    0    0    0  501  0.00000000000E+00  0.00000000000E+00 -0.25753925848E+04  0.25753925848E+04  0.50400001928E-02 0.  1.
    10030    2    1    2    0    0  0.00000000000E+00  0.00000000000E+00 -0.11719324250E+04  0.39788527446E+04  0.38023471112E+04 0.  0.
        1    1    3    3  502    0  0.73462852319E+03 -0.14112652274E+03  0.12429850230E+04  0.14507265525E+04  0.50400001928E-02 0. -1.
       -1    1    3    3    0  502 -0.73462852319E+03  0.14112652274E+03 -0.24149174480E+04  0.25281261921E+04  0.50400001928E-02 0.  1.
</event>
<event>
 5   0  0.1628473E-08  0.3808732E+04  0.7818609E-02  0.8044284E-01
       -1   -1    0    0    0  501  0.00000000000E+00  0.00000000000E+00  0.13688422990E+04  0.13688422990E+04  0.50400001928E-02 0.  1.
        1   -1    0    0  501    0  0.00000000000E+00  0.00000000000E+00 -0.26493989584E+04  0.26493989584E+04  0.50400001928E-02 0. -1.
    10030    2    1    2    0    0  0.00000000000E+00  0.00000000000E+00 -0.12805566593E+04  0.40182412574E+04  0.38087317371E+04 0.  0.
        3    1    3    3  502    0  0.13325573997E+04 -0.70288886931E+03  0.58863462239E+03  0.16174834512E+04  0.10100000352E+00 0.  1.
       -3    1    3    3    0  502 -0.13325573997E+04  0.70288886931E+03 -0.18691912817E+04  0.24007578062E+04  0.10100000352E+00 0. -1.
</event>
<event>
 5   0  0.1628250E-08  0.3805294E+04  0.7818609E-02  0.8045020E-01
       -1   -1    0    0    0  501  0.00000000000E+00  0.00000000000E+00  0.23664773051E+04  0.23664773051E+04  0.50400001928E-02 0.  1.
        1   -1    0    0  501    0  0.00000000000E+00  0.00000000000E+00 -0.15297278686E+04  0.15297278686E+04  0.50400001928E-02 0. -1.
    10030    2    1    2    0    0  0.00000000000E+00  0.00000000000E+00  0.83674943651E+03  0.38962051737E+04  0.38052943561E+04 0.  0.
        5    1    3    3  502    0  0.18955500209E+04  0.33840992263E+02  0.25394827872E+03  0.19127903473E+04  0.46999998093E+01 0.  1.
       -5    1    3    3    0  502 -0.18955500209E+04 -0.33840992263E+02  0.58280115779E+03  0.19834148265E+04  0.46999998093E+01 0. -1.
</event>
<event>
 5   0  0.1628250E-08  0.3702502E+04  0.7818609E-02  0.8067408E-01
       -1   -1    0    0    0  501  0.00000000000E+00  0.00000000000E+00  0.16588542540E+04  0.16588542540E+04  0.50400001928E-02 0.  1.
        1   -1    0    0  501    0  0.00000000000E+00  0.00000000000E+00 -0.20659617166E+04  0.20659617166E+04  0.50400001928E-02 0. -1.
    10030    2    1    2    0    0  0.00000000000E+00  0.00000000000E+00 -0.40710746263E+03  0.37248159706E+04  0.37025015231E+04 0.  0.
        5    1    3    3  502    0 -0.18070087809E+04 -0.27189829840E+03 -0.50181630302E+03  0.18950068894E+04  0.46999998093E+01 0. -1.
       -5    1    3    3    0  502  0.18070087809E+04  0.27189829840E+03  0.94708840394E+02  0.18298090811E+04  0.46999998093E+01 0.  1.
</event>
<event>
 5   0  0.5207474E-08  0.3800404E+04  0.7818609E-02  0.8046068E-01
        2   -1    0    0  501    0  0.00000000000E+00  0.00000000000E+00  0.24048295684E+04  0.24048295684E+04  0.25500000920E-02 0. -1.
       -2   -1    0    0    0  501  0.00000000000E+00  0.00000000000E+00 -0.15014650100E+04  0.15014650100E+04  0.25500000920E-02 0.  1.
    10030    2    1    2    0    0  0.00000000000E+00  0.00000000000E+00  0.90336455845E+03  0.39062945785E+04  0.38004039007E+04 0.  0.
        4    1    3    3  502    0 -0.41189760694E+03  0.17631335712E+04  0.10443468858E+04  0.20902061285E+04  0.12699999809E+01 0. -1.
       -4    1    3    3    0  502  0.41189760694E+03 -0.17631335712E+04 -0.14098232737E+03  0.18160884500E+04  0.12699999809E+01 0.  1.
</event>
<event>
 5   0  0.5147582E-08  0.3771862E+04  0.7818609E-02  0.8052220E-01
       -2   -1    0    0    0  501  0.00000000000E+00  0.00000000000E+00  0.18919786213E+04  0.18919786213E+04  0.25500000920E-02 0. -1.
        2   -1    0    0  501    0  0.00000000000E+00  0.00000000000E+00 -0.18799024118E+04  0.18799024118E+04  0.25500000920E-02 0.  1.
    10030    2    1    2    0    0  0.00000000000E+00  0.00000000000E+00  0.12076209539E+02  0.37718810331E+04  0.37718617012E+04 0.  0.
        1    1    3    3  502    0  0.14581564112E+04 -0.77159978716E+03  0.91990756089E+03  0.18888663986E+04  0.50400001928E-02 0. -1.
       -1    1    3    3    0  502 -0.14581564112E+04  0.77159978716E+03 -0.90783135135E+03  0.18830146345E+04  0.50400001928E-02 0.  1.
</event>
<event>
 5   0  0.1666051E-08  0.3796153E+04  0.7818609E-02  0.8046981E-01
        1   -1    0    0  501    0  0.00000000000E+00  0.00000000000E+00  0.13701661592E+04  0.13701661592E+04  0.50400001928E-02 0.  1.
       -1   -1    0    0    0  501  0.00000000000E+00  0.00000000000E+00 -0.26293849082E+04  0.26293849082E+04  0.50400001928E-02 0. -1.
    10030    2    1    2    0    0  0.00000000000E+00  0.00000000000E+00 -0.12592187490E+04  0.39995510675E+04  0.37961529057E+04 0.  0.
        2    1    3    3  502    0  0.11825653735E+04 -0.67710040211E+02 -0.21921963976E+04  0.24917404676E+04  0.25500000920E-02 0. -1.
       -2    1    3    3    0  502 -0.11825653735E+04  0.67710040211E+02  0.93297764865E+03  0.15078105999E+04  0.25500000920E-02 0.  1.
</event>
<event>
 5   0  0.5159761E-08  0.3801574E+04  0.7818609E-02  0.8045817E-01
       -2   -1    0    0    0  501  0.00000000000E+00  0.00000000000E+00  0.15639498239E+04  0.15639498239E+04  0.25500000920E-02 0.  1.
        2   -1    0    0  501    0  0.00000000000E+00  0.00000000000E+00 -0.23101703224E+04  0.23101703224E+04  0.25500000920E-02 0. -1.
    10030    2    1    2    0    0  0.00000000000E+00  0.00000000000E+00 -0.74622049853E+03  0.38741201463E+04  0.38015736051E+04 0.  0.
        5    1    3    3  502    0 -0.11379442248E+04 -0.66017341314E+03 -0.17712325036E+04  0.22063618620E+04  0.46999998093E+01 0. -1.
       -5    1    3    3    0  502  0.11379442248E+04  0.66017341314E+03  0.10250120051E+04  0.16677582843E+04  0.46999998093E+01 0.  1.
</event>
<event>
 5   0  0.1666051E-08  0.3800438E+04  0.7818609E-02  0.8046061E-01
        1   -1    0    0  501    0  0.00000000000E+00  0.00000000000E+00  0.26547928052E+04  0.26547928052E+04  0.50400001928E-02 0.  1.
       -1   -1    0    0    0  501  0.00000000000E+00  0.00000000000E+00 -0.13601183350E+04  0.13601183350E+04  0.50400001928E-02 0. -1.
    10030    2    1    2    0    0  0.00000000000E+00  0.00000000000E+00  0.12946744702E+04  0.40149111402E+04  0.38004380642E+04 0.  0.
        2    1    3    3  502    0  0.49979978986E+03  0.38469071157E+03  0.25409916418E+04  0.26180957387E+04  0.25500000920E-02 0.  1.
       -2    1    3    3    0  502 -0.49979978986E+03 -0.38469071157E+03 -0.12463171716E+04  0.13968154014E+04  0.25500000920E-02 0. -1.
</event>
<event>
 5   0  0.5140842E-08  0.3798493E+04  0.7818609E-02  0.8046478E-01
        2   -1    0    0  501    0  0.00000000000E+00  0.00000000000E+00  0.25990802827E+04  0.25990802827E+04  0.25500000920E-02 0. -1.
       -2   -1    0    0    0  501  0.00000000000E+00  0.00000000000E+00 -0.13878511657E+04  0.13878511657E+04  0.25500000920E-02 0.  1.
    10030    2    1    2    0    0  0.00000000000E+00  0.00000000000E+00  0.12112291169E+04  0.39869314484E+04  0.37984926484E+04 0.  0.
        2    1    3    3  502    0  0.45439679993E+03 -0.10412894135E+04 -0.99185302450E+03  0.15081553357E+04  0.25500000920E-02 0.  1.
       -2    1    3    3    0  502 -0.45439679993E+03  0.10412894135E+04  0.22030821414E+04  0.24787761126E+04  0.25500000920E-02 0. -1.
</event>
<event>
 5   0  0.5086209E-08  0.3801175E+04  0.7818609E-02  0.8045903E-01
        2   -1    0    0  501    0  0.00000000000E+00  0.00000000000E+00  0.20251068364E+04  0.20251068364E+04  0.25500000920E-02 0. -1.
       -2   -1    0    0    0  501  0.00000000000E+00  0.00000000000E+00 -0.17837241721E+04  0.17837241721E+04  0.25500000920E-02 0.  1.
    10030    2    1    2    0    0  0.00000000000E+00  0.00000000000E+00  0.24138266430E+03  0.38088310085E+04  0.38011745633E+04 0.  0.
        3    1    3    3  502    0 -0.50391879503E+03 -0.60398446114E+02 -0.17145682062E+04  0.17881068951E+04  0.10100000352E+00 0.  1.
       -3    1    3    3    0  502  0.50391879503E+03  0.60398446114E+02  0.19559508705E+04  0.20207241134E+04  0.10100000352E+00 0. -1.
</event>
<event>
 5   0  0.5147582E-08  0.3797882E+04  0.7818609E-02  0.8046610E-01
       -2   -1    0    0    0  501  0.00000000000E+00  0.00000000000E+00  0.20044161094E+04  0.20044161094E+04  0.25500000920E-02 0. -1.
        2   -1    0    0  501    0  0.00000000000E+00  0.00000000000E+00 -0.17990158528E+04  0.17990158528E+04  0.25500000920E-02 0.  1.
    10030    2    1    2    0    0  0.00000000000E+00  0.00000000000E+00  0.20540025657E+03  0.38034319622E+04  0.37978817024E+04 0.  0.
        1    1    3    3  502    0 -0.12036007930E+04  0.13601063162E+04 -0.45257594862E+03  0.18717288932E+04  0.50400001928E-02 0.  1.
       -1    1    3    3    0  502  0.12036007930E+04 -0.13601063162E+04  0.65797620519E+03  0.19317030690E+04  0.50400001928E-02 0. -1.
</event>
<event>
 5   0  0.5207474E-08  0.3805251E+04  0.7818609E-02  0.8045029E-01
        2   -1    0    0  501    0  0.00000000000E+00  0.00000000000E+00  0.27768114247E+04  0.27768114247E+04  0.25500000920E-02 0.  1.
       -2   -1    0    0    0  501  0.00000000000E+00  0.00000000000E+00 -0.13036473618E+04  0.13036473618E+04  0.25500000920E-02 0. -1.
    10030    2    1    2    0    0  0.00000000000E+00  0.00000000000E+00  0.14731640629E+04  0.40804587865E+04  0.38052505242E+04 0.  0.
        4    1    3    3  502    0 -0.22887635203E+03 -0.81924417816E+03  0.25615603099E+04  0.26990995243E+04  0.12699999809E+01 0.  1.
       -4    1    3    3    0  502  0.22887635203E+03  0.81924417816E+03 -0.10883962470E+04  0.13813592622E+04  0.12699999809E+01 0. -1.
</event>
<event>
 5   0  0.1628250E-08  0.3780490E+04  0.7818609E-02  0.8050355E-01
       -1   -1    0    0    0  501  0.00000000000E+00  0.00000000000E+00  0.28915101636E+04  0.28915101636E+04  0.50400001928E-02 0.  1.
        1   -1    0    0  501    0  0.00000000000E+00  0.00000000000E+00 -0.12356956598E+04  0.12356956598E+04  0.50400001928E-02 0. -1.
    10030    2    1    2    0    0  0.00000000000E+00  0.00000000000E+00  0.16558145037E+04  0.41272058234E+04  0.37804902113E+04 0.  0.
        5    1    3    3  502    0  0.70000848167E+03 -0.94160343570E+03 -0.79002864779E+03  0.14144950544E+04  0.46999998093E+01 0. -1.
       -5    1    3    3    0  502 -0.70000848167E+03  0.94160343570E+03  0.24458431515E+04  0.27127107690E+04  0.46999998093E+01 0.  1.
</event>
<event>
 5   0  0.1628250E-08  0.3798808E+04  0.7818609E-02  0.8046411E-01
       -1   -1    0    0    0  501  0.00000000000E+00  0.00000000000E+00  0.20379619784E+04  0.20379619784E+04  0.50400001928E-02 0.  1.
        1   -1    0    0  501    0  0.00000000000E+00  0.00000000000E+00 -0.17702664249E+04  0.17702664249E+04  0.50400001928E-02 0. -1.
    10030    2    1    2    0    0  0.00000000000E+00  0.00000000000E+00  0.26769555354E+03  0.38082284033E+04  0.37988080581E+04 0.  0.
        4    1    3    3  502    0 -0.10723483899E+04  0.56880664433E+03  0.15983819223E+04  0.20070621442E+04  0.12699999809E+01 0.  1.
       -4    1    3    3    0  502  0.10723483899E+04 -0.56880664433E+03 -0.13306863688E+04  0.18011662591E+04  0.12699999809E+01 0. -1.
</event>
<event>
 5   0  0.1628250E-08  0.3795063E+04  0.7818609E-02  0.8047215E-01
       -3   -1    0    0    0  501  0.00000000000E+00  0.00000000000E+00  0.24811836122E+04  0.24811836143E+04  0.10100000352E+00 0. -1.
        3   -1    0    0  501    0  0.00000000000E+00  0.00000000000E+00 -0.14511729636E+04  0.14511729671E+04  0.10100000352E+00 0.  1.
    10030    2    1    2    0    0  0.00000000000E+00  0.00000000000E+00  0.10300106486E+04  0.39323565814E+04  0.37950634181E+04 0.  0.
        3    1    3    3  502    0 -0.22126067710E+03 -0.18272393195E+04  0.99307123644E+03  0.20913991271E+04  0.10100000352E+00 0. -1.
       -3    1    3    3    0  502  0.22126067710E+03  0.18272393195E+04  0.36939412161E+02  0.18409574543E+04  0.10100000352E+00 0.  1.
</event>
<event>
 5   0  0.5086209E-08  0.3774381E+04  0.7818609E-02  0.8051675E-01
        2   -1    0    0  501    0  0.00000000000E+00  0.00000000000E+00  0.18273892986E+04  0.18273892986E+04  0.25500000920E-02 0.  1.
       -2   -1    0    0    0  501  0.00000000000E+00  0.00000000000E+00 -0.19489487653E+04  0.19489487653E+04  0.25500000920E-02 0. -1.
    10030    2    1    2    0    0  0.00000000000E+00  0.00000000000E+00 -0.12155946676E+03  0.37763380639E+04  0.37743810709E+04 0.  0.
        3    1    3    3  502    0 -0.16156687460E+04  0.42439535696E+03  0.81773657649E+03  0.18598897909E+04  0.10100000352E+00 0.  1.
       -3    1    3    3    0  502  0.16156687460E+04 -0.42439535696E+03 -0.93929604325E+03  0.19164482729E+04  0.10100000352E+00 0. -1.
</event>
<event>
 5   0  0.5140842E-08  0.3769671E+04  0.7818609E-02  0.8052695E-01
       -2   -1    0    0    0  501  0.00000000000E+00  0.00000000000E+00  0.13124153684E+04  0.13124153684E+04  0.25500000920E-02 0. -1.
        2   -1    0    0  501    0  0.00000000000E+00  0.00000000000E+00 -0.27069209458E+04  0.27069209458E+04  0.25500000920E-02 0.  1.
    10030    2    1    2    0    0  0.00000000000E+00  0.00000000000E+00 -0.13945055774E+04  0.40193363142E+04  0.37696708876E+04 0.  0.
        2    1    3    3  502    0 -0.47677256436E+03 -0.16853223524E+04  0.45276068502E+02  0.17520483533E+04  0.25500000920E-02 0. -1.
       -2    1    3    3    0  502  0.47677256436E+03  0.16853223524E+04 -0.14397816459E+04  0.22672879609E+04  0.25500000920E-02 0.  1.
</event>
<event>
 5   0  0.5159761E-08  0.3807157E+04  0.7818609E-02  0.8044621E-01
       -2   -1    0    0    0  501  0.00000000000E+00  0.00000000000E+00  0.18493629858E+04  0.18493629858E+04  0.25500000920E-02 0.  1.
        2   -1    0    0  501    0  0.00000000000E+00  0.00000000000E+00 -0.19593837100E+04  0.19593837100E+04  0.25500000920E-02 0. -1.
    10030    2    1    2    0    0  0.00000000000E+00  0.00000000000E+00 -0.11002072422E+03  0.38087466957E+04  0.38071573165E+04 0.  0.
        5    1    3    3  502    0 -0.21271793428E+03  0.47551703253E+03  0.17766620294E+04  0.18514630498E+04  0.46999998093E+01 0.  1.
       -5    1    3    3    0  502  0.21271793428E+03 -0.47551703253E+03 -0.18866827537E+04  0.19572836460E+04  0.46999998093E+01 0. -1.
</event>
<event>
 5   0  0.1628250E-08  0.3792304E+04  0.7818609E-02  0.8047809E-01
        1   -1    0    0  501    0  0.00000000000E+00  0.00000000000E+00  0.12562628769E+04  0.12562628769E+04  0.50400001928E-02 0.  1.
       -1   -1    0    0    0  501  0.00000000000E+00  0.00000000000E+00 -0.28619740751E+04  0.28619740751E+04  0.50400001928E-02 0. -1.
    10030    2    1    2    0    0  0.00000000000E+00  0.00000000000E+00 -0.16057111982E+04  0.41182369520E+04  0.37923036720E+04 0.  0.
        4    1    3    3  502    0 -0.30419035635E+03 -0.91494840610E+03  0.97017457315E+03  0.13678094436E+04  0.12699999809E+01 0.  1.
       -4    1    3    3    0  502  0.30419035635E+03  0.91494840610E+03 -0.25758857714E+04  0.27504275084E+04  0.12699999809E+01 0. -1.
</event>
<event>
 5   0  0.1628250E-08  0.3814156E+04  0.7818609E-02  0.8043124E-01
       -1   -1    0    0    0  501  0.00000000000E+00  0.00000000000E+00  0.19647303498E+04  0.19647303498E+04  0.50400001928E-02 0.  1.
        1   -1    0    0  501    0  0.00000000000E+00  0.00000000000E+00 -0.18511173897E+04  0.18511173897E+04  0.50400001928E-02 0. -1.
    10030    2    1    2    0    0  0.00000000000E+00  0.00000000000E+00  0.11361296016E+03  0.38158477395E+04  0.38141560097E+04 0.  0.
        1    1    3    3  502    0  0.13608794557E+04  0.85682126798E+03  0.10823518462E+04  0.19384584332E+04  0.50400001928E-02 0.  1.
       -1    1    3    3    0  502 -0.13608794557E+04 -0.85682126798E+03 -0.96873888604E+03  0.18773893063E+04  0.50400001928E-02 0. -1.
</event>
<event>
 5   0  0.5140842E-08  0.3801147E+04  0.7818609E-02  0.8045909E-01
       -2   -1    0    0    0  501  0.00000000000E+00  0.00000000000E+00  0.16872014640E+04  0.16872014640E+04  0.25500000920E-02 0. -1.
        2   -1    0    0  501    0  0.00000000000E+00  0.00000000000E+00 -0.21409294998E+04  0.21409294998E+04  0.25500000920E-02 0.  1.
    10030    2    1    2    0    0  0.00000000000E+00  0.00000000000E+00 -0.45372803583E+03  0.38281309638E+04  0.38011468724E+04 0.  0.
        2    1    3    3  502    0  0.13179599717E+04 -0.91041457156E+03  0.80328852107E+03  0.17919669716E+04  0.25500000920E-02 0. -1.
       -2    1    3    3    0  502 -0.13179599717E+04  0.91041457156E+03 -0.12570165569E+04  0.20361639923E+04  0.25500000920E-02 0.  1.
</event>
<event>
 5   0  0.1628250E-08  0.3792601E+04  0.7818609E-02  0.8047745E-01
        1   -1    0    0  501    0  0.00000000000E+00  0.00000000000E+00  0.19242575794E+04  0.19242575794E+04  0.50400001928E-02 0. -1.
       -1   -1    0    0    0  501  0.00000000000E+00  0.00000000000E+00 -0.18687493089E+04  0.18687493089E+04  0.50400001928E-02 0.  1.
    10030    2    1    2    0    0  0.00000000000E+00  0.00000000000E+00  0.55508270433E+02  0.37930068883E+04  0.37926007022E+04 0.  0.
        4    1    3    3  502    0 -0.15663959645E+04 -0.22240725113E+03  0.10732808995E+04  0.19118040708E+04  0.12699999809E+01 0. -1.
       -4    1    3    3    0  502  0.15663959645E+04  0.22240725113E+03 -0.10177726291E+04  0.18812028175E+04  0.12699999809E+01 0.  1.
</event>
<event>
 5   0  0.5207474E-08  0.3798223E+04  0.7818609E-02  0.8046536E-01
       -2   -1    0    0    0  501  0.00000000000E+00  0.00000000000E+00  0.13861020201E+04  0.13861020201E+04  0.25500000920E-02 0.  1.
        2   -1    0    0  501    0  0.00000000000E+00  0.00000000000E+00 -0.26019899634E+04  0.26019899634E+04  0.25500000920E-02 0. -1.
    10030    2    1    2    0    0  0.00000000000E+00  0.00000000000E+00 -0.12158879433E+04  0.39880919835E+04  0.37982225024E+04 0.  0.
        4    1    3    3  502    0 -0.33823159133E+03 -0.36710366506E+03 -0.25318769695E+04  0.25806139409E+04  0.12699999809E+01 0. -1.
       -4    1    3    3    0  502  0.33823159133E+03  0.36710366506E+03  0.13159890262E+04  0.14074780426E+04  0.12699999809E+01 0.  1.
</event>
<event>
 5   0  0.1628250E-08  0.3789741E+04  0.7818609E-02  0.8048360E-01
        1   -1    0    0  501    0  0.00000000000E+00  0.00000000000E+00  0.16964432884E+04  0.16964432884E+04  0.50400001928E-02 0.  1.
       -1   -1    0    0    0  501  0.00000000000E+00  0.00000000000E+00 -0.21165075509E+04  0.21165075509E+04  0.50400001928E-02 0. -1.
    10030    2    1    2    0    0  0.00000000000E+00  0.00000000000E+00 -0.42006426243E+03  0.38129508393E+04  0.37897414316E+04 0.  0.
        5    1    3    3  502    0 -0.12962067340E+04  0.96338046574E+03  0.78712743777E+03  0.17966205811E+04  0.46999998093E+01 0.  1.
       -5    1    3    3    0  502  0.12962067340E+04 -0.96338046574E+03 -0.12071917002E+04  0.20163302582E+04  0.46999998093E+01 0. -1.
</event>
<event>
 5   0  0.5086209E-08  0.3780594E+04  0.7818609E-02  0.8050332E-01
        2   -1    0    0  501    0  0.00000000000E+00  0.00000000000E+00  0.29281768618E+04  0.29281768618E+04  0.25500000920E-02 0. -1.
       -2   -1    0    0    0  501  0.00000000000E+00  0.00000000000E+00 -0.12202889976E+04  0.12202889976E+04  0.25500000920E-02 0.  1.
    10030    2    1    2    0    0  0.00000000000E+00  0.00000000000E+00  0.17078878641E+04  0.41484658594E+04  0.37805936082E+04 0.  0.
        3    1    3    3  502    0 -0.58162945209E+03 -0.16857722431E+03  0.28188594599E+04  0.28831718237E+04  0.10100000352E+00 0. -1.
       -3    1    3    3    0  502  0.58162945209E+03  0.16857722431E+03 -0.11109715958E+04  0.12652940357E+04  0.10100000352E+00 0.  1.
</event>
<event>
 5   0  0.5147582E-08  0.3803752E+04  0.7818609E-02  0.8045350E-01
       -2   -1    0    0    0  501  0.00000000000E+00  0.00000000000E+00  0.16362564990E+04  0.16362564990E+04  0.25500000920E-02 0. -1.
        2   -1    0    0  501    0  0.00000000000E+00  0.00000000000E+00 -0.22106139709E+04  0.22106139709E+04  0.25500000920E-02 0.  1.
    10030    2    1    2    0    0  0.00000000000E+00  0.00000000000E+00 -0.57435747192E+03  0.38468704699E+04  0.38037515569E+04 0.  0.
        1    1    3    3  502    0  0.77892272716E+03 -0.35493381102E+03 -0.20047929944E+04  0.21798838445E+04  0.50400001928E-02 0.  1.
       -1    1    3    3    0  502 -0.77892272716E+03  0.35493381102E+03  0.14304355225E+04  0.16669866254E+04  0.50400001928E-02 0. -1.
</event>
<event>
 5   0  0.1628473E-08  0.3794571E+04  0.7818609E-02  0.8047321E-01
        1   -1    0    0  501    0  0.00000000000E+00  0.00000000000E+00  0.20922172081E+04  0.20922172081E+04  0.50400001928E-02 0. -1.
       -1   -1    0    0    0  501  0.00000000000E+00  0.00000000000E+00 -0.17205153589E+04  0.17205153589E+04  0.50400001928E-02 0.  1.
    10030    2    1    2    0    0  0.00000000000E+00  0.00000000000E+00  0.37170184915E+03  0.38127325670E+04  0.37945707746E+04 0.  0.
        3    1    3    3  502    0  0.74603219587E+03  0.10365450268E+04  0.15956710305E+04  0.20438091099E+04  0.10100000352E+00 0. -1.
       -3    1    3    3    0  502 -0.74603219587E+03 -0.10365450268E+04 -0.12239691814E+04  0.17689234571E+04  0.10100000352E+00 0.  1.
</event>
<event>
 5   0  0.1628250E-08  0.3788250E+04  0.7818609E-02  0.8048681E-01
       -1   -1    0    0    0  501  0.00000000000E+00  0.00000000000E+00  0.13699005406E+04  0.13699005406E+04  0.50400001928E-02 0.  1.
        1   -1    0    0  501    0  0.00000000000E+00  0.00000000000E+00 -0.26189555884E+04  0.26189555884E+04  0.50400001928E-02 0. -1.
    10030    2    1    2    0    0  0.00000000000E+00  0.00000000000E+00 -0.12490550478E+04  0.39888561291E+04  0.37882495570E+04 0.  0.
        4    1    3    3  502    0  0.97751256840E+03  0.53526944264E+03 -0.22371866832E+04  0.24994099436E+04  0.12699999809E+01 0. -1.
       -4    1    3    3    0  502 -0.97751256840E+03 -0.53526944264E+03  0.98813163540E+03  0.14894461855E+04  0.12699999809E+01 0.  1.
</event>
<event>
 5   0  0.1628250E-08  0.3805800E+04  0.7818609E-02  0.8044911E-01
        1   -1    0    0  501    0  0.00000000000E+00  0.00000000000E+00  0.20147800626E+04  0.20147800626E+04  0.50400001928E-02 0. -1.
       -1   -1    0    0    0  501  0.00000000000E+00  0.00000000000E+00 -0.17972324842E+04  0.17972324842E+04  0.50400001928E-02 0.  1.
    10030    2    1    2    0    0  0.00000000000E+00  0.00000000000E+00  0.21754757834E+03  0.38120125468E+04  0.38057998776E+04 0.  0.
        4    1    3    3  502    0  0.56290558666E+03  0.12260514418E+04 -0.12354160720E+04  0.18292947607E+04  0.12699999809E+01 0.  1.
       -4    1    3    3    0  502 -0.56290558666E+03 -0.12260514418E+04  0.14529636504E+04  0.19827177862E+04  0.12699999809E+01 0. -1.
</event>
<event>
 5   0  0.1628250E-08  0.3784506E+04  0.7818609E-02  0.8049488E-01
        1   -1    0    0  501    0  0.00000000000E+00  0.00000000000E+00  0.12200031641E+04  0.12200031641E+04  0.50400001928E-02 0.  1.
       -1   -1    0    0    0  501  0.00000000000E+00  0.00000000000E+00 -0.29349281856E+04  0.29349281857E+04  0.50400001928E-02 0. -1.
    10030    2    1    2    0    0  0.00000000000E+00  0.00000000000E+00 -0.17149250216E+04  0.41549313498E+04  0.37845061358E+04 0.  0.
        4    1    3    3  502    0 -0.13240732472E+04 -0.12959734189E+04 -0.12796867103E+04  0.22517363868E+04  0.12699999809E+01 0. -1.
       -4    1    3    3    0  502  0.13240732472E+04  0.12959734189E+04 -0.43523831130E+03  0.19031949629E+04  0.12699999809E+01 0.  1.
</event>
<event>
 5   0  0.1628473E-08  0.3794666E+04  0.7818609E-02  0.8047300E-01
       -1   -1    0    0    0  501  0.00000000000E+00  0.00000000000E+00  0.21811433766E+04  0.21811433766E+04  0.50400001928E-02 0. -1.
        1   -1    0    0  501    0  0.00000000000E+00  0.00000000000E+00 -0.16504522354E+04  0.16504522354E+04  0.50400001928E-02 0.  1.
    10030    2    1    2    0    0  0.00000000000E+00  0.00000000000E+00  0.53069114124E+03  0.38315956120E+04  0.37946662365E+04 0.  0.
        3    1    3    3  502    0  0.14536501175E+04 -0.99444811631E+03  0.97779514645E+03  0.20144748891E+04  0.10100000352E+00 0. -1.
       -3    1    3    3    0  502 -0.14536501175E+04  0.99444811631E+03 -0.44710400522E+03  0.18171207229E+04  0.10100000352E+00 0.  1.
</event>
<event>
 5   0  0.5159761E-08  0.3797340E+04  0.7818609E-02  0.8046726E-01
        2   -1    0    0  501    0  0.00000000000E+00  0.00000000000E+00  0.27946101855E+04  0.27946101855E+04  0.25500000920E-02 0.  1.
       -2   -1    0    0    0  501  0.00000000000E+00  0.00000000000E+00 -0.12899642052E+04  0.12899642053E+04  0.25500000920E-02 0. -1.
    10030    2    1    2    0    0  0.00000000000E+00  0.00000000000E+00  0.15046459803E+04  0.40845743908E+04  0.37973396514E+04 0.  0.
        5    1    3    3  502    0  0.16969135482E+04 -0.38305174724E+03  0.15705746542E+04  0.23437088270E+04  0.46999998093E+01 0.  1.
       -5    1    3    3    0  502 -0.16969135482E+04  0.38305174724E+03 -0.65928673952E+02  0.17408655638E+04  0.46999998093E+01 0. -1.
</event>
<event>
 5   0  0.5140842E-08  0.3798912E+04  0.7818609E-02  0.8046388E-01
        2   -1    0    0  501    0  0.00000000000E+00  0.00000000000E+00  0.11372358070E+04  0.11372358070E+04  0.25500000920E-02 0.  1.
       -2   -1    0    0    0  501  0.00000000000E+00  0.00000000000E+00 -0.31725463198E+04  0.31725463198E+04  0.25500000920E-02 0. -1.
    10030    2    1    2    0    0  0.00000000000E+00  0.00000000000E+00 -0.20353105127E+04  0.43097821268E+04  0.37989120939E+04 0.  0.
        2    1    3    3  502    0 -0.48087615949E+03  0.18549257257E+03 -0.30916981792E+04  0.31343654870E+04  0.25500000920E-02 0. -1.
       -2    1    3    3    0  502  0.48087615949E+03 -0.18549257257E+03  0.10563876664E+04  0.11754166398E+04  0.25500000920E-02 0.  1.
</event>
<event>
 5   0  0.1666051E-08  0.3795400E+04  0.7818609E-02  0.8047143E-01
       -1   -1    0    0    0  501  0.00000000000E+00  0.00000000000E+00  0.12090822136E+04  0.12090822136E+04  0.50400001928E-02 0. -1.
        1   -1    0    0  501    0  0.00000000000E+00  0.00000000000E+00 -0.29785108951E+04  0.29785108951E+04  0.50400001928E-02 0.  1.
    10030    2    1    2    0    0  0.00000000000E+00  0.00000000000E+00 -0.17694286815E+04  0.41875931087E+04  0.37953996081E+04 0.  0.
        2    1    3    3  502    0  0.15466595145E+04 -0.10937382496E+04 -0.10097641545E+04  0.21466351949E+04  0.25500000920E-02 0. -1.
       -2    1    3    3    0  502 -0.15466595145E+04  0.10937382496E+04 -0.75966452702E+03  0.20409579138E+04  0.25500000920E-02 0.  1.
</event>
<event>
 5   0  0.1628250E-08  0.3795825E+04  0.7818609E-02  0.8047051E-01
       -1   -1    0    0    0  501  0.00000000000E+00  0.00000000000E+00  0.11648708862E+04  0.11648708862E+04  0.50400001928E-02 0. -1.
        1   -1    0    0  501    0  0.00000000000E+00  0.00000000000E+00 -0.30922500077E+04  0.30922500077E+04  0.50400001928E-02 0.  1.
    10030    2    1    2    0    0  0.00000000000E+00  0.00000000000E+00 -0.19273791215E+04  0.42571208939E+04  0.37958250786E+04 0.  0.
        1    1    3    3  502    0 -0.11947761762E+02 -0.17430083900E+04 -0.12153467217E+03  0.17472812233E+04  0.50400001928E-02 0. -1.
       -1    1    3    3    0  502  0.11947761762E+02  0.17430083900E+04 -0.18058444494E+04  0.25098396706E+04  0.50400001928E-02 0.  1.
</event>
<event>
 5   0  0.1628473E-08  0.3798064E+04  0.7818609E-02  0.8046571E-01
        1   -1    0    0  501    0  0.00000000000E+00  0.00000000000E+00  0.34420223523E+04  0.34420223523E+04  0.50400001928E-02 0. -1.
       -1   -1    0    0    0  501  0.00000000000E+00  0.00000000000E+00 -0.10477335313E+04  0.10477335313E+04  0.50400001928E-02 0.  1.
    10030    2    1    2    0    0  0.00000000000E+00  0.00000000000E+00  0.23942888210E+04  0.44897558836E+04  0.37980638405E+04 0.  0.
        3    1    3    3  502    0  0.13153472755E+04  0.45800802296E+03  0.27231345056E+04  0.30586551538E+04  0.10100000352E+00 0. -1.
       -3    1    3    3    0  502 -0.13153472755E+04 -0.45800802296E+03 -0.32884568464E+03  0.14311007298E+04  0.10100000352E+00 0.  1.
</event>
<event>
 5   0  0.1628250E-08  0.3805219E+04  0.7818609E-02  0.8045036E-01
       -1   -1    0    0    0  501  0.00000000000E+00  0.00000000000E+00  0.17648015790E+04  0.17648015790E+04  0.50400001928E-02 0.  1.
        1   -1    0    0  501    0  0.00000000000E+00  0.00000000000E+00 -0.20511779169E+04  0.20511779169E+04  0.50400001928E-02 0. -1.
    10030    2    1    2    0    0  0.00000000000E+00  0.00000000000E+00 -0.28637633792E+03  0.38159794960E+04  0.38052185360E+04 0.  0.
        1    1    3    3  502    0  0.34234517381E+03  0.10063941770E+04  0.14392135040E+04  0.17892358614E+04  0.50400001928E-02 0.  1.
       -1    1    3    3    0  502 -0.34234517381E+03 -0.10063941770E+04 -0.17255898420E+04  0.20267436346E+04  0.50400001928E-02 0. -1.
</event>
<event>
 5   0  0.1628250E-08  0.3795617E+04  0.7818609E-02  0.8047096E-01
       -1   -1    0    0    0  501  0.00000000000E+00  0.00000000000E+00  0.19981328920E+04  0.19981328920E+04  0.50400001928E-02 0.  1.
        1   -1    0    0  501    0  0.00000000000E+00  0.00000000000E+00 -0.18025216274E+04  0.18025216274E+04  0.50400001928E-02 0. -1.
    10030    2    1    2    0    0  0.00000000000E+00  0.00000000000E+00  0.19561126461E+03  0.38006545193E+04  0.37956173422E+04 0.  0.
        4    1    3    3  502    0  0.46115203221E+03  0.68051070429E+02  0.19399165982E+04  0.19951366283E+04  0.12699999809E+01 0.  1.
       -4    1    3    3    0  502 -0.46115203221E+03 -0.68051070429E+02 -0.17443053336E+04  0.18055178910E+04  0.12699999809E+01 0. -1.
</event>
<event>
 5   0  0.1628250E-08  0.3799607E+04  0.7818609E-02  0.8046239E-01
       -1   -1    0    0    0  501  0.00000000000E+00  0.00000000000E+00  0.15842290579E+04  0.15842290579E+04  0.50400001928E-02 0.  1.
        1   -1    0    0  501    0  0.00000000000E+00  0.00000000000E+00 -0.22782391189E+04  0.22782391189E+04  0.50400001928E-02 0. -1.
    10030    2    1    2    0    0  0.00000000000E+00  0.00000000000E+00 -0.69401006101E+03  0.38624681768E+04  0.37996066181E+04 0.  0.
        4    1    3    3  502    0  0.14776761049E+04 -0.38292767171E+03  0.80267491053E+03  0.17246590671E+04  0.12699999809E+01 0.  1.
       -4    1    3    3    0  502 -0.14776761049E+04  0.38292767171E+03 -0.14966849715E+04  0.21378091098E+04  0.12699999809E+01 0. -1.
</event>
<event>
 5   0  0.1628473E-08  0.3814652E+04  0.7818609E-02  0.8043018E-01
       -1   -1    0    0    0  501  0.00000000000E+00  0.00000000000E+00  0.13747571496E+04  0.13747571496E+04  0.50400001928E-02 0.  1.
        1   -1    0    0  501    0  0.00000000000E+00  0.00000000000E+00 -0.26462073338E+04  0.26462073338E+04  0.50400001928E-02 0. -1.
    10030    2    1    2    0    0  0.00000000000E+00  0.00000000000E+00 -0.12714501842E+04  0.40209644834E+04  0.38146519902E+04 0.  0.
        3    1    3    3  502    0  0.17091383156E+04  0.82162874556E+03 -0.42056570541E+03  0.19424477085E+04  0.10100000352E+00 0.  1.
       -3    1    3    3    0  502 -0.17091383156E+04 -0.82162874556E+03 -0.85088447880E+03  0.20785167750E+04  0.10100000352E+00 0. -1.
</event>
<event>
 5   0  0.5140842E-08  0.3805983E+04  0.7818609E-02  0.8044872E-01
       -2   -1    0    0    0  501  0.00000000000E+00  0.00000000000E+00  0.14766466254E+04  0.14766466254E+04  0.25500000920E-02 0. -1.
        2   -1    0    0  501    0  0.00000000000E+00  0.00000000000E+00 -0.24524334512E+04  0.24524334512E+04  0.25500000920E-02 0.  1.
    10030    2    1    2    0    0  0.00000000000E+00  0.00000000000E+00 -0.97578682579E+03  0.39290800766E+04  0.38059834890E+04 0.  0.
        2    1    3    3  502    0  0.15746738867E+04  0.18179906093E+03  0.59912437449E+03  0.16945792292E+04  0.25500000920E-02 0. -1.
       -2    1    3    3    0  502 -0.15746738867E+04 -0.18179906093E+03 -0.15749112003E+04  0.22345008473E+04  0.25500000920E-02 0.  1.
</event>
<event>
 5   0  0.1628250E-08  0.3802576E+04  0.7818609E-02  0.8045602E-01
       -3   -1    0    0    0  501  0.00000000000E+00  0.00000000000E+00  0.17057975824E+04  0.17057975854E+04  0.10100000352E+00 0. -1.
        3   -1    0    0  501    0  0.00000000000E+00  0.00000000000E+00 -0.21191824737E+04  0.21191824761E+04  0.10100000352E+00 0.  1.
    10030    2    1    2    0    0  0.00000000000E+00  0.00000000000E+00 -0.41338489127E+03  0.38249800615E+04  0.38025761534E+04 0.  0.
        3    1    3    3  502    0 -0.54931827936E+03  0.33813922707E+03 -0.20057510761E+04  0.21069233727E+04  0.10100000352E+00 0.  1.
       -3    1    3    3    0  502  0.54931827936E+03 -0.33813922707E+03  0.15923661849E+04  0.17180566888E+04  0.10100000352E+00 0. -1.
</event>
<event>
 5   0  0.5147582E-08  0.3801502E+04  0.7818609E-02  0.8045833E-01
        2   -1    0    0  501    0  0.00000000000E+00  0.00000000000E+00  0.14135830171E+04  0.14135830171E+04  0.25500000920E-02 0. -1.
       -2   -1    0    0    0  501  0.00000000000E+00  0.00000000000E+00 -0.25558136911E+04  0.25558136911E+04  0.25500000920E-02 0.  1.
    10030    2    1    2    0    0  0.00000000000E+00  0.00000000000E+00 -0.11422306740E+04  0.39693967082E+04  0.38015022444E+04 0.  0.
        1    1    3    3  502    0  0.18495012686E+04 -0.24769676227E+03 -0.19341287915E+03  0.18760109729E+04  0.50400001928E-02 0. -1.
       -1    1    3    3    0  502 -0.18495012686E+04  0.24769676227E+03 -0.94881779485E+03  0.20933857352E+04  0.50400001928E-02 0.  1.
</event>
<event>
 5   0  0.1628473E-08  0.3809832E+04  0.7818609E-02  0.8044048E-01
       -1   -1    0    0    0  501  0.00000000000E+00  0.00000000000E+00  0.22964387172E+04  0.22964387172E+04  0.50400001928E-02 0.  1.
        1   -1    0    0  501    0  0.00000000000E+00  0.00000000000E+00 -0.15801448135E+04  0.15801448135E+04  0.50400001928E-02 0. -1.
    10030    2    1    2    0    0  0.00000000000E+00  0.00000000000E+00  0.71629390370E+03  0.38765835308E+04  0.38098323998E+04 0.  0.
        3    1    3    3  502    0  0.20791758483E+03  0.10491517677E+04 -0.12457822665E+04  0.16419264963E+04  0.10100000352E+00 0. -1.
       -3    1    3    3    0  502 -0.20791758483E+03 -0.10491517677E+04  0.19620761702E+04  0.22346570344E+04  0.10100000352E+00 0.  1.
</event>
<event>
 5   0  0.5147582E-08  0.3801320E+04  0.7818609E-02  0.8045872E-01
       -2   -1    0    0    0  501  0.00000000000E+00  0.00000000000E+00  0.20452610118E+04  0.20452610119E+04  0.25500000920E-02 0.  1.
        2   -1    0    0  501    0  0.00000000000E+00  0.00000000000E+00 -0.17662825755E+04  0.17662825755E+04  0.25500000920E-02 0. -1.
    10030    2    1    2    0    0  0.00000000000E+00  0.00000000000E+00  0.27897843637E+03  0.38115435873E+04  0.38013202378E+04 0.  0.
        1    1    3    3  502    0  0.16735225287E+04 -0.70877050233E+03 -0.41831224038E+03  0.18649446130E+04  0.50400001928E-02 0. -1.
       -1    1    3    3    0  502 -0.16735225287E+04  0.70877050233E+03  0.69729067675E+03  0.19465989743E+04  0.50400001928E-02 0.  1.
</event>
<event>
 5   0  0.1628250E-08  0.3808272E+04  0.7818609E-02  0.8044382E-01
        1   -1    0    0  501    0  0.00000000000E+00  0.00000000000E+00  0.25832128829E+04  0.25832128829E+04  0.50400001928E-02 0.  1.
       -1   -1    0    0    0  501  0.00000000000E+00  0.00000000000E+00 -0.14035752322E+04  0.14035752322E+04  0.50400001928E-02 0. -1.
    10030    2    1    2    0    0  0.00000000000E+00  0.00000000000E+00  0.11796376507E+04  0.39867881151E+04  0.38082718505E+04 0.  0.
        1    1    3    3  502    0  0.14528424704E+03  0.18677883235E+03 -0.13881228976E+04  0.14081473728E+04  0.50400001928E-02 0. -1.
       -1    1    3    3    0  502 -0.14528424704E+03 -0.18677883235E+03  0.25677605483E+04  0.25786407423E+04  0.50400001928E-02 0.  1.
</event>
<event>
 5   0  0.5159761E-08  0.3801435E+04  0.7818609E-02  0.8045847E-01
       -2   -1    0    0    0  501  0.00000000000E+00  0.00000000000E+00  0.17927281468E+04  0.17927281468E+04  0.25500000920E-02 0. -1.
        2   -1    0    0  501    0  0.00000000000E+00  0.00000000000E+00 -0.20152120917E+04  0.20152120917E+04  0.25500000920E-02 0.  1.
    10030    2    1    2    0    0  0.00000000000E+00  0.00000000000E+00 -0.22248394497E+03  0.38079402385E+04  0.38014352229E+04 0.  0.
        5    1    3    3  502    0 -0.14800523469E+04 -0.61011347754E+03 -0.11376474656E+04  0.19639392177E+04  0.46999998093E+01 0.  1.
       -5    1    3    3    0  502  0.14800523469E+04  0.61011347754E+03  0.91516352058E+03  0.18440010207E+04  0.46999998093E+01 0. -1.
</event>
<event>
 5   0  0.1666051E-08  0.3803021E+04  0.7818609E-02  0.8045507E-01
       -1   -1    0    0    0  501  0.00000000000E+00  0.00000000000E+00  0.15934223269E+04  0.15934223269E+04  0.50400001928E-02 0.  1.
        1   -1    0    0  501    0  0.00000000000E+00  0.00000000000E+00 -0.22691671933E+04  0.22691671933E+04  0.50400001928E-02 0. -1.
    10030    2    1    2    0    0  0.00000000000E+00  0.00000000000E+00 -0.67574486646E+03  0.38625895202E+04  0.38030207306E+04 0.  0.
        2    1    3    3  502    0 -0.98170216386E+03 -0.58784526192E+03 -0.18803575802E+04  0.22011464786E+04  0.25500000920E-02 0. -1.
       -2    1    3    3    0  502  0.98170216386E+03  0.58784526192E+03  0.12046127138E+04  0.16614430417E+04  0.25500000920E-02 0.  1.
</event>
<event>
 5   0  0.5086209E-08  0.3792257E+04  0.7818609E-02  0.8047819E-01
       -2   -1    0    0    0  501  0.00000000000E+00  0.00000000000E+00  0.18651566689E+04  0.18651566689E+04  0.25500000920E-02 0. -1.
        2   -1    0    0  501    0  0.00000000000E+00  0.00000000000E+00 -0.19276146594E+04  0.19276146594E+04  0.25500000920E-02 0.  1.
    10030    2    1    2    0    0  0.00000000000E+00  0.00000000000E+00 -0.62457990572E+02  0.37927713283E+04  0.37922570256E+04 0.  0.
        3    1    3    3  502    0  0.74500393063E+03  0.15278822505E+04  0.80903272877E+03  0.18825485371E+04  0.10100000352E+00 0. -1.
       -3    1    3    3    0  502 -0.74500393063E+03 -0.15278822505E+04 -0.87149071935E+03  0.19102227912E+04  0.10100000352E+00 0.  1.
</event>
<event>
 5   0  0.5140842E-08  0.3808231E+04  0.7818609E-02  0.8044391E-01
        2   -1    0    0  501    0  0.00000000000E+00  0.00000000000E+00  0.11762346035E+04  0.11762346035E+04  0.25500000920E-02 0. -1.
       -2   -1    0    0    0  501  0.00000000000E+00  0.00000000000E+00 -0.30824261409E+04  0.30824261409E+04  0.25500000920E-02 0.  1.
    10030    2    1    2    0    0  0.00000000000E+00  0.00000000000E+00 -0.19061915374E+04  0.42586607444E+04  0.38082312376E+04 0.  0.
        2    1    3    3  502    0  0.48597044230E+03 -0.88286379618E+03  0.85355146153E+03  0.13206687135E+04  0.25500000920E-02 0. -1.
       -2    1    3    3    0  502 -0.48597044230E+03  0.88286379618E+03 -0.27597429990E+04  0.29379920309E+04  0.25500000920E-02 0.  1.
</event>
<event>
 5   0  0.1666051E-08  0.3792647E+04  0.7818609E-02  0.8047735E-01
        1   -1    0    0  501    0  0.00000000000E+00  0.00000000000E+00  0.31769695139E+04  0.31769695139E+04  0.50400001928E-02 0. -1.
       -1   -1    0    0    0  501  0.00000000000E+00  0.00000000000E+00 -0.11319098292E+04  0.11319098292E+04  0.50400001928E-02 0.  1.
    10030    2    1    2    0    0  0.00000000000E+00  0.00000000000E+00  0.20450596847E+04  0.43088793431E+04  0.37926471072E+04 0.  0.
        2    1    3    3  502    0  0.18738281084E+04  0.24295786900E+03  0.84010406207E+03  0.20678576211E+04  0.25500000920E-02 0. -1.
       -2    1    3    3    0  502 -0.18738281084E+04 -0.24295786900E+03  0.12049556227E+04  0.22410217220E+04  0.25500000920E-02 0.  1.
</event>
<event>
 5   0  0.5159761E-08  0.3813199E+04  0.7818609E-02  0.8043328E-01
       -2   -1    0    0    0  501  0.00000000000E+00  0.00000000000E+00  0.27296364465E+04  0.27296364465E+04  0.25500000920E-02 0. -1.
        2   -1    0    0  501    0  0.00000000000E+00  0.00000000000E+00 -0.13317239806E+04  0.13317239806E+04  0.25500000920E-02 0.  1.
    10030    2    1    2    0    0  0.00000000000E+00  0.00000000000E+00  0.13979124659E+04  0.40613604271E+04  0.38131993466E+04 0.  0.
        5    1    3    3  502    0 -0.59428956050E+03  0.18714171189E+03 -0.12202266163E+04  0.13701011595E+04  0.46999998093E+01 0.  1.
       -5    1    3    3    0  502  0.59428956050E+03 -0.18714171189E+03  0.26181390822E+04  0.26912592676E+04  0.46999998093E+01 0. -1.
</event>
<event>
 5   0  0.5159761E-08  0.3810297E+04  0.7818609E-02  0.8043949E-01
       -2   -1    0    0    0  501  0.00000000000E+00  0.00000000000E+00  0.11662366901E+04  0.11662366901E+04  0.25500000920E-02 0. -1.
        2   -1    0    0  501    0  0.00000000000E+00  0.00000000000E+00 -0.31122243720E+04  0.31122243720E+04  0.25500000920E-02 0.  1.
    10030    2    1    2    0    0  0.00000000000E+00  0.00000000000E+00 -0.19459876820E+04  0.42784610621E+04  0.38102967079E+04 0.  0.
        5    1    3    3  502    0 -0.10811338130E+03  0.62122312473E+03 -0.29916477952E+04  0.30573820982E+04  0.46999998093E+01 0.  1.
       -5    1    3    3    0  502  0.10811338130E+03 -0.62122312473E+03  0.10456601132E+04  0.12210789640E+04  0.46999998093E+01 0. -1.
</event>
<event>
 5   0  0.5086209E-08  0.3799629E+04  0.7818609E-02  0.8046234E-01
       -2   -1    0    0    0  501  0.00000000000E+00  0.00000000000E+00  0.15307383909E+04  0.15307383909E+04  0.25500000920E-02 0.  1.
        2   -1    0    0  501    0  0.00000000000E+00  0.00000000000E+00 -0.23578790525E+04  0.23578790525E+04  0.25500000920E-02 0. -1.
    10030    2    1    2    0    0  0.00000000000E+00  0.00000000000E+00 -0.82714066154E+03  0.38886174434E+04  0.37996294487E+04 0.  0.
        3    1    3    3  502    0 -0.85523586752E+03  0.76930397687E+03  0.11338054340E+04  0.16151692699E+04  0.10100000352E+00 0.  1.
       -3    1    3    3    0  502  0.85523586752E+03 -0.76930397687E+03 -0.19609460955E+04  0.22734481735E+04  0.10100000352E+00 0. -1.
</event>
<event>
 5   0  0.5147582E-08  0.3798404E+04  0.7818609E-02  0.8046497E-01
        2   -1    0    0  501    0  0.00000000000E+00  0.00000000000E+00  0.21095699080E+04  0.21095699080E+04  0.25500000920E-02 0. -1.
       -2   -1    0    0    0  501  0.00000000000E+00  0.00000000000E+00 -0.17098123974E+04  0.17098123974E+04  0.25500000920E-02 0.  1.
    10030    2    1    2    0    0  0.00000000000E+00  0.00000000000E+00  0.39975751058E+03  0.38193823054E+04  0.37984042870E+04 0.  0.
        1    1    3    3  502    0 -0.16323898248E+04 -0.83954956707E+03 -0.29007897280E+03  0.18584094883E+04  0.50400001928E-02 0.  1.
       -1    1    3    3    0  502  0.16323898248E+04  0.83954956707E+03  0.68983648338E+03  0.19609728171E+04  0.50400001928E-02 0. -1.
</event>
<event>
 5   0  0.1628250E-08  0.3798239E+04  0.7818609E-02  0.8046533E-01
        1   -1    0    0  501    0  0.00000000000E+00  0.00000000000E+00  0.14725210708E+04  0.14725210708E+04  0.50400001928E-02 0. -1.
       -1   -1    0    0    0  501  0.00000000000E+00  0.00000000000E+00 -0.24493057505E+04  0.24493057505E+04  0.50400001928E-02 0.  1.
    10030    2    1    2    0    0  0.00000000000E+00  0.00000000000E+00 -0.97678467976E+03  0.39218268213E+04  0.37982387110E+04 0.  0.
        5    1    3    3  502    0 -0.13469552028E+04 -0.77630795052E+03  0.63782715576E+03  0.16804130215E+04  0.46999998093E+01 0. -1.
       -5    1    3    3    0  502  0.13469552028E+04  0.77630795052E+03 -0.16146118355E+04  0.22414137998E+04  0.46999998093E+01 0.  1.
</event>
<event>
 5   0  0.1628250E-08  0.3797983E+04  0.7818609E-02  0.8046588E-01
       -1   -1    0    0    0  501  0.00000000000E+00  0.00000000000E+00  0.14713227531E+04  0.14713227531E+04  0.50400001928E-02 0. -1.
        1   -1    0    0  501    0  0.00000000000E+00  0.00000000000E+00 -0.24509710886E+04  0.24509710886E+04  0.50400001928E-02 0.  1.
    10030    2    1    2    0    0  0.00000000000E+00  0.00000000000E+00 -0.97964833550E+03  0.39222938418E+04  0.37979834281E+04 0.  0.
        1    1    3    3  502    0 -0.94438749939E+03 -0.15382241014E+04  0.11954676342E+03  0.18089479163E+04  0.50400001928E-02 0. -1.
       -1    1    3    3    0  502  0.94438749939E+03  0.15382241014E+04 -0.10991950989E+04  0.21133459255E+04  0.50400001928E-02 0.  1.
</event>
<event>
 5   0  0.5140842E-08  0.3797501E+04  0.7818609E-02  0.8046691E-01
       -2   -1    0    0    0  501  0.00000000000E+00  0.00000000000E+00  0.13754753563E+04  0.13754753563E+04  0.25500000920E-02 0.  1.
        2   -1    0    0  501    0  0.00000000000E+00  0.00000000000E+00 -0.26210961276E+04  0.26210961276E+04  0.25500000920E-02 0. -1.
    10030    2    1    2    0    0  0.00000000000E+00  0.00000000000E+00 -0.12456207713E+04  0.39965714839E+04  0.37975008256E+04 0.  0.
        2    1    3    3  502    0  0.49305299301E+03 -0.14029282308E+04 -0.18653562024E+04  0.23855528995E+04  0.25500000920E-02 0. -1.
       -2    1    3    3    0  502 -0.49305299301E+03  0.14029282308E+04  0.61973543103E+03  0.16110185844E+04  0.25500000920E-02 0.  1.
</event>
<event>
 5   0  0.1666051E-08  0.3809141E+04  0.7818609E-02  0.8044196E-01
        1   -1    0    0  501    0  0.00000000000E+00  0.00000000000E+00  0.27362608359E+04  0.27362608359E+04  0.50400001928E-02 0.  1.
       -1   -1    0    0    0  501  0.00000000000E+00  0.00000000000E+00 -0.13256738035E+04  0.13256738035E+04  0.50400001928E-02 0. -1.
    10030    2    1    2    0    0  0.00000000000E+00  0.00000000000E+00  0.14105870324E+04  0.40619346394E+04  0.38091412731E+04 0.  0.
        2    1    3    3  502    0 -0.10709807514E+04 -0.12827167603E+04  0.16797359229E+04  0.23693616920E+04  0.25500000920E-02 0.  1.
       -2    1    3    3    0  502  0.10709807514E+04  0.12827167603E+04 -0.26914889045E+03  0.16925729474E+04  0.25500000920E-02 0. -1.
</event>
<event>
 5   0  0.5147582E-08  0.3805153E+04  0.7818609E-02  0.8045050E-01
        2   -1    0    0  501    0  0.00000000000E+00  0.00000000000E+00  0.12539599390E+04  0.12539599390E+04  0.25500000920E-02 0. -1.
       -2   -1    0    0    0  501  0.00000000000E+00  0.00000000000E+00 -0.28866936586E+04  0.28866936586E+04  0.25500000920E-02 0.  1.
    10030    2    1    2    0    0  0.00000000000E+00  0.00000000000E+00 -0.16327337196E+04  0.41406535976E+04  0.38051534550E+04 0.  0.
        1    1    3    3  502    0  0.11610860165E+04  0.44598759166E+03  0.75028517214E+03  0.14525679018E+04  0.50400001928E-02 0. -1.
       -1    1    3    3    0  502 -0.11610860165E+04 -0.44598759166E+03 -0.23830188917E+04  0.26880856958E+04  0.50400001928E-02 0.  1.
</event>
<event>
 5   0  0.5159761E-08  0.3811476E+04  0.7818609E-02  0.8043697E-01
        2   -1    0    0  501    0  0.00000000000E+00  0.00000000000E+00  0.21721459398E+04  0.21721459398E+04  0.25500000920E-02 0. -1.
       -2   -1    0    0    0  501  0.00000000000E+00  0.00000000000E+00 -0.16720043794E+04  0.16720043794E+04  0.25500000920E-02 0.  1.
    10030    2    1    2    0    0  0.00000000000E+00  0.00000000000E+00  0.50014156035E+03  0.38441503192E+04  0.38114761047E+04 0.  0.
        5    1    3    3  502    0 -0.16671505232E+04  0.20070371981E+03 -0.65884428492E+03  0.18038211474E+04  0.46999998093E+01 0.  1.
       -5    1    3    3    0  502  0.16671505232E+04 -0.20070371981E+03  0.11589858453E+04  0.20403291719E+04  0.46999998093E+01 0. -1.
</event>
<event>
 5   0  0.1628250E-08  0.3807725E+04  0.7818609E-02  0.8044499E-01
        1   -1    0    0  501    0  0.00000000000E+00  0.00000000000E+00  0.15178759085E+04  0.15178759085E+04  0.50400001928E-02 0.  1.
       -1   -1    0    0    0  501  0.00000000000E+00  0.00000000000E+00 -0.23880030454E+04  0.23880030454E+04  0.50400001928E-02 0. -1.
    10030    2    1    2    0    0  0.00000000000E+00  0.00000000000E+00 -0.87012713688E+03  0.39058789539E+04  0.38077249334E+04 0.  0.
        5    1    3    3  502    0 -0.18947904145E+04 -0.18303813869E+02 -0.24562919480E+03  0.19107384791E+04  0.46999998093E+01 0.  1.
       -5    1    3    3    0  502  0.18947904145E+04  0.18303813869E+02 -0.62449794207E+03  0.19951404748E+04  0.46999998093E+01 0. -1.
</event>
<event>
 5   0  0.1628250E-08  0.3802145E+04  0.7818609E-02  0.8045695E-01
        1   -1    0    0  501    0  0.00000000000E+00  0.00000000000E+00  0.26560559346E+04  0.26560559346E+04  0.50400001928E-02 0. -1.
       -1   -1    0    0    0  501  0.00000000000E+00  0.00000000000E+00 -0.13606926776E+04  0.13606926776E+04  0.50400001928E-02 0.  1.
    10030    2    1    2    0    0  0.00000000000E+00  0.00000000000E+00  0.12953632571E+04  0.40167486122E+04  0.38021445851E+04 0.  0.
        5    1    3    3  502    0 -0.59674313099E+02 -0.11692651697E+04 -0.93462568782E+03  0.14980952330E+04  0.46999998093E+01 0.  1.
       -5    1    3    3    0  502  0.59674313099E+02  0.11692651697E+04  0.22299889449E+04  0.25186533793E+04  0.46999998093E+01 0. -1.
</event>
<event>
 5   0  0.5147582E-08  0.3791769E+04  0.7818609E-02  0.8047924E-01
        2   -1    0    0  501    0  0.00000000000E+00  0.00000000000E+00  0.23817153782E+04  0.23817153782E+04  0.25500000920E-02 0. -1.
       -2   -1    0    0    0  501  0.00000000000E+00  0.00000000000E+00 -0.15091550997E+04  0.15091550997E+04  0.25500000920E-02 0.  1.
    10030    2    1    2    0    0  0.00000000000E+00  0.00000000000E+00  0.87256027849E+03  0.38908704778E+04  0.37917689323E+04 0.  0.
        1    1    3    3  502    0 -0.20088910730E+03  0.10137919472E+04  0.20672383996E+04  0.23111912830E+04  0.50400001928E-02 0. -1.
       -1    1    3    3    0  502  0.20088910730E+03 -0.10137919472E+04 -0.11946781211E+04  0.15796791949E+04  0.50400001928E-02 0.  1.
</event>
<event>
 5   0  0.5207474E-08  0.3822828E+04  0.7818609E-02  0.8041274E-01
       -2   -1    0    0    0  501  0.00000000000E+00  0.00000000000E+00  0.21294261026E+04  0.21294261026E+04  0.25500000920E-02 0. -1.
        2   -1    0    0  501    0  0.00000000000E+00  0.00000000000E+00 -0.17157220510E+04  0.17157220510E+04  0.25500000920E-02 0.  1.
    10030    2    1    2    0    0  0.00000000000E+00  0.00000000000E+00  0.41370405155E+03  0.38451481536E+04  0.38228279167E+04 0.  0.
        4    1    3    3  502    0  0.12835114445E+04  0.13097862882E+03 -0.12116817493E+04  0.17699523450E+04  0.12699999809E+01 0.  1.
       -4    1    3    3    0  502 -0.12835114445E+04 -0.13097862882E+03  0.16253858008E+04  0.20751958085E+04  0.12699999809E+01 0. -1.
</event>
<event>
 5   0  0.1666051E-08  0.3797939E+04  0.7818609E-02  0.8046597E-01
        1   -1    0    0  501    0  0.00000000000E+00  0.00000000000E+00  0.18607740113E+04  0.18607740113E+04  0.50400001928E-02 0. -1.
       -1   -1    0    0    0  501  0.00000000000E+00  0.00000000000E+00 -0.19379488342E+04  0.19379488342E+04  0.50400001928E-02 0.  1.
    10030    2    1    2    0    0  0.00000000000E+00  0.00000000000E+00 -0.77174822840E+02  0.37987228455E+04  0.37979388230E+04 0.  0.
        2    1    3    3  502    0 -0.63136815732E+03  0.10999075799E+04  0.13750912105E+04  0.18706411392E+04  0.25500000920E-02 0. -1.
       -2    1    3    3    0  502  0.63136815732E+03 -0.10999075799E+04 -0.14522660333E+04  0.19280817063E+04  0.25500000920E-02 0.  1.
</event>
<event>
 5   0  0.1628250E-08  0.3802723E+04  0.7818609E-02  0.8045571E-01
        1   -1    0    0  501    0  0.00000000000E+00  0.00000000000E+00  0.13575312110E+04  0.13575312110E+04  0.50400001928E-02 0.  1.
       -1   -1    0    0    0  501  0.00000000000E+00  0.00000000000E+00 -0.26630519798E+04  0.26630519798E+04  0.50400001928E-02 0. -1.
    10030    2    1    2    0    0  0.00000000000E+00  0.00000000000E+00 -0.13055207689E+04  0.40205831908E+04  0.38027233289E+04 0.  0.
        4    1    3    3  502    0 -0.14700197508E+03 -0.11184226942E+04 -0.22710351436E+04  0.25357604659E+04  0.12699999809E+01 0. -1.
       -4    1    3    3    0  502  0.14700197508E+03  0.11184226942E+04  0.96551437479E+03  0.14848227249E+04  0.12699999809E+01 0.  1.
</event>
<event>
 5   0  0.5086209E-08  0.3803374E+04  0.7818609E-02  0.8045431E-01
        2   -1    0    0  501    0  0.00000000000E+00  0.00000000000E+00  0.33759874803E+04  0.33759874803E+04  0.25500000920E-02 0.  1.
       -2   -1    0    0    0  501  0.00000000000E+00  0.00000000000E+00 -0.10712166290E+04  0.10712166290E+04  0.25500000920E-02 0. -1.
    10030    2    1    2    0    0  0.00000000000E+00  0.00000000000E+00  0.23047708513E+04  0.44472041093E+04  0.38033742536E+04 0.  0.
        3    1    3    3  502    0 -0.45170456174E+03  0.94560003769E+03 -0.70313020354E+03  0.12619780250E+04  0.10100000352E+00 0. -1.
       -3    1    3    3    0  502  0.45170456174E+03 -0.94560003769E+03  0.30079010548E+04  0.31852260843E+04  0.10100000352E+00 0.  1.
</event>
<event>
 5   0  0.1628250E-08  0.3795661E+04  0.7818609E-02  0.8047087E-01
        1   -1    0    0  501    0  0.00000000000E+00  0.00000000000E+00  0.18085917200E+04  0.18085917201E+04  0.50400001928E-02 0. -1.
       -1   -1    0    0    0  501  0.00000000000E+00  0.00000000000E+00 -0.19914721489E+04  0.19914721489E+04  0.50400001928E-02 0.  1.
    10030    2    1    2    0    0  0.00000000000E+00  0.00000000000E+00 -0.18288042887E+03  0.38000638690E+04  0.37956607010E+04 0.  0.
        1    1    3    3  502    0 -0.47612785448E+03 -0.28898668220E+03 -0.19078075164E+04  0.19874457366E+04  0.50400001928E-02 0.  1.
       -1    1    3    3    0  502  0.47612785448E+03  0.28898668220E+03  0.17249270876E+04  0.18126181323E+04  0.50400001928E-02 0. -1.
</event>
<event>
 5   0  0.5086209E-08  0.3800052E+04  0.7818609E-02  0.8046144E-01
        2   -1    0    0  501    0  0.00000000000E+00  0.00000000000E+00  0.23151801307E+04  0.23151801307E+04  0.25500000920E-02 0.  1.
       -2   -1    0    0    0  501  0.00000000000E+00  0.00000000000E+00 -0.15593163428E+04  0.15593163428E+04  0.25500000920E-02 0. -1.
    10030    2    1    2    0    0  0.00000000000E+00  0.00000000000E+00  0.75586378788E+03  0.38744964736E+04  0.38000516915E+04 0.  0.
        3    1    3    3  502    0 -0.13173447450E+04  0.78107136167E+03 -0.76865575069E+03  0.17135639242E+04  0.10100000352E+00 0. -1.
       -3    1    3    3    0  502  0.13173447450E+04 -0.78107136167E+03  0.15245195386E+04  0.21609325493E+04  0.10100000352E+00 0.  1.
</event>
<event>
 5   0  0.1666051E-08  0.3801214E+04  0.7818609E-02  0.8045894E-01
        1   -1    0    0  501    0  0.00000000000E+00  0.00000000000E+00  0.15876231684E+04  0.15876231684E+04  0.50400001928E-02 0.  1.
       -1   -1    0    0    0  501  0.00000000000E+00  0.00000000000E+00 -0.22752928110E+04  0.22752928110E+04  0.50400001928E-02 0. -1.
    10030    2    1    2    0    0  0.00000000000E+00  0.00000000000E+00 -0.68766964255E+03  0.38629159794E+04  0.38012143226E+04 0.  0.
        2    1    3    3  502    0 -0.12099925502E+04  0.75994410714E+03  0.92978845496E+03  0.17047297699E+04  0.25500000920E-02 0.  1.
       -2    1    3    3    0  502  0.12099925502E+04 -0.75994410714E+03 -0.16174580975E+04  0.21581862095E+04  0.25500000920E-02 0. -1.
</event>
<event>
 5   0  0.5147582E-08  0.3774582E+04  0.7818609E-02  0.8051632E-01
       -2   -1    0    0    0  501  0.00000000000E+00  0.00000000000E+00  0.21537889535E+04  0.21537889535E+04  0.25500000920E-02 0. -1.
        2   -1    0    0  501    0  0.00000000000E+00  0.00000000000E+00 -0.16537680584E+04  0.16537680584E+04  0.25500000920E-02 0.  1.
    10030    2    1    2    0    0  0.00000000000E+00  0.00000000000E+00  0.50002089509E+03  0.38075570119E+04  0.37745820303E+04 0.  0.
        1    1    3    3  502    0  0.15396519698E+04  0.10640942360E+04  0.49007758703E+01  0.18715898987E+04  0.50400001928E-02 0. -1.
       -1    1    3    3    0  502 -0.15396519698E+04 -0.10640942360E+04  0.49512011922E+03  0.19359671133E+04  0.50400001928E-02 0.  1.
</event>
<event>
 5   0  0.5140842E-08  0.3798299E+04  0.7818609E-02  0.8046520E-01
       -2   -1    0    0    0  501  0.00000000000E+00  0.00000000000E+00  0.14148593131E+04  0.14148593131E+04  0.25500000920E-02 0. -1.
        2   -1    0    0  501    0  0.00000000000E+00  0.00000000000E+00 -0.25492062290E+04  0.25492062290E+04  0.25500000920E-02 0.  1.
    10030    2    1    2    0    0  0.00000000000E+00  0.00000000000E+00 -0.11343469159E+04  0.39640655421E+04  0.37982986581E+04 0.  0.
        2    1    3    3  502    0 -0.12661963020E+04 -0.13760935211E+03 -0.20374055102E+04  0.24027506367E+04  0.25500000920E-02 0.  1.
       -2    1    3    3    0  502  0.12661963020E+04  0.13760935211E+03  0.90305859435E+03  0.15613149054E+04  0.25500000920E-02 0. -1.
</event>
<event>
 5   0  0.1628250E-08  0.3793869E+04  0.7818609E-02  0.8047472E-01
        1   -1    0    0  501    0  0.00000000000E+00  0.00000000000E+00  0.22258409920E+04  0.22258409920E+04  0.50400001928E-02 0.  1.
       -1   -1    0    0    0  501  0.00000000000E+00  0.00000000000E+00 -0.16166295039E+04  0.16166295039E+04  0.50400001928E-02 0. -1.
    10030    2    1    2    0    0  0.00000000000E+00  0.00000000000E+00  0.60921148815E+03  0.38424704959E+04  0.37938688531E+04 0.  0.
        4    1    3    3  502    0  0.35520367642E+02 -0.52819866913E+02 -0.16155471447E+04  0.16168011085E+04  0.12699999809E+01 0. -1.
       -4    1    3    3    0  502 -0.35520367642E+02  0.52819866913E+02  0.22247586328E+04  0.22256693874E+04  0.12699999809E+01 0.  1.
</event>
<event>
 5   0  0.5207474E-08  0.3770561E+04  0.7818609E-02  0.8052502E-01
       -2   -1    0    0    0  501  0.00000000000E+00  0.00000000000E+00  0.17422598495E+04  0.17422598495E+04  0.25500000920E-02 0. -1.
        2   -1    0    0  501    0  0.00000000000E+00  0.00000000000E+00 -0.20400420855E+04  0.20400420855E+04  0.25500000920E-02 0.  1.
    10030    2    1    2    0    0  0.00000000000E+00  0.00000000000E+00 -0.29778223596E+03  0.37823019349E+04  0.37705614525E+04 0.  0.
        4    1    3    3  502    0 -0.80335084902E+03 -0.10696771042E+04  0.11836653696E+04  0.17862382299E+04  0.12699999809E+01 0. -1.
       -4    1    3    3    0  502  0.80335084902E+03  0.10696771042E+04 -0.14814476056E+04  0.19960637051E+04  0.12699999809E+01 0.  1.
</event>
<event>
 5   0  0.5159761E-08  0.3797655E+04  0.7818609E-02  0.8046658E-01
       -2   -1    0    0    0  501  0.00000000000E+00  0.00000000000E+00  0.12761295112E+04  0.12761295112E+04  0.25500000920E-02 0. -1.
        2   -1    0    0  501    0  0.00000000000E+00  0.00000000000E+00 -0.28253757995E+04  0.28253757995E+04  0.25500000920E-02 0.  1.
    10030    2    1    2    0    0  0.00000000000E+00  0.00000000000E+00 -0.15492462883E+04  0.41015053108E+04  0.37976547701E+04 0.  0.
        5    1    3    3  502    0 -0.12791803391E+04  0.62614540451E+03  0.58170907344E+03  0.15384303506E+04  0.46999998093E+01 0. -1.
       -5    1    3    3    0  502  0.12791803391E+04 -0.62614540451E+03 -0.21309553617E+04  0.25630749601E+04  0.46999998093E+01 0.  1.
</event>
<event>
 5   0  0.1628250E-08  0.3788753E+04  0.7818609E-02  0.8048573E-01
       -1   -1    0    0    0  501  0.00000000000E+00  0.00000000000E+00  0.25420240606E+04  0.25420240606E+04  0.50400001928E-02 0.  1.
        1   -1    0    0  501    0  0.00000000000E+00  0.00000000000E+00 -0.14117345239E+04  0.14117345239E+04  0.50400001928E-02 0. -1.
    10030    2    1    2    0    0  0.00000000000E+00  0.00000000000E+00  0.11302895367E+04  0.39537585845E+04  0.37887534240E+04 0.  0.
        1    1    3    3  502    0  0.54013909170E+03 -0.59802240621E+03 -0.12239545086E+04  0.14654165537E+04  0.50400001928E-02 0. -1.
       -1    1    3    3    0  502 -0.54013909170E+03  0.59802240621E+03  0.23542440454E+04  0.24883420307E+04  0.50400001928E-02 0.  1.
</event>
<event>
 5   0  0.5207474E-08  0.3769593E+04  0.7818609E-02  0.8052712E-01
        2   -1    0    0  501    0  0.00000000000E+00  0.00000000000E+00  0.22928093082E+04  0.22928093082E+04  0.25500000920E-02 0. -1.
       -2   -1    0    0    0  501  0.00000000000E+00  0.00000000000E+00 -0.15493907444E+04  0.15493907444E+04  0.25500000920E-02 0.  1.
    10030    2    1    2    0    0  0.00000000000E+00  0.00000000000E+00  0.74341856376E+03  0.38422000526E+04  0.37695928273E+04 0.  0.
        4    1    3    3  502    0  0.12465118420E+04 -0.11779590989E+04  0.11684799198E+04  0.20752653678E+04  0.12699999809E+01 0.  1.
       -4    1    3    3    0  502 -0.12465118420E+04  0.11779590989E+04 -0.42506135607E+03  0.17669346848E+04  0.12699999809E+01 0. -1.
</event>
<event>
 5   0  0.1628473E-08  0.3797617E+04  0.7818609E-02  0.8046666E-01
        1   -1    0    0  501    0  0.00000000000E+00  0.00000000000E+00  0.23481564998E+04  0.23481564998E+04  0.50400001928E-02 0.  1.
       -1   -1    0    0    0  501  0.00000000000E+00  0.00000000000E+00 -0.15354484934E+04  0.15354484934E+04  0.50400001928E-02 0. -1.
    10030    2    1    2    0    0  0.00000000000E+00  0.00000000000E+00  0.81270800642E+03  0.38836049931E+04  0.37976168105E+04 0.  0.
        3    1    3    3  502    0 -0.18982425830E+04  0.44470480851E+02  0.41971982801E+03  0.19445995145E+04  0.10100000352E+00 0.  1.
       -3    1    3    3    0  502  0.18982425830E+04 -0.44470480851E+02  0.39298817841E+03  0.19390054786E+04  0.10100000352E+00 0. -1.
</event>
<event>
 5   0  0.1666051E-08  0.3772929E+04  0.7818609E-02  0.8051989E-01
       -1   -1    0    0    0  501  0.00000000000E+00  0.00000000000E+00  0.21979550548E+04  0.21979550548E+04  0.50400001928E-02 0.  1.
        1   -1    0    0  501    0  0.00000000000E+00  0.00000000000E+00 -0.16191176023E+04  0.16191176023E+04  0.50400001928E-02 0. -1.
    10030    2    1    2    0    0  0.00000000000E+00  0.00000000000E+00  0.57883745257E+03  0.38170726571E+04  0.37729286864E+04 0.  0.
        2    1    3    3  502    0 -0.14564118130E+04 -0.69208073218E+03  0.12799742756E+04  0.20587484681E+04  0.25500000920E-02 0.  1.
       -2    1    3    3    0  502  0.14564118130E+04  0.69208073218E+03 -0.70113682302E+03  0.17583241890E+04  0.25500000920E-02 0. -1.
</event>
<event>
 5   0  0.1666051E-08  0.3789692E+04  0.7818609E-02  0.8048371E-01
       -1   -1    0    0    0  501  0.00000000000E+00  0.00000000000E+00  0.17348261956E+04  0.17348261956E+04  0.50400001928E-02 0.  1.
        1   -1    0    0  501    0  0.00000000000E+00  0.00000000000E+00 -0.20696254553E+04  0.20696254553E+04  0.50400001928E-02 0. -1.
    10030    2    1    2    0    0  0.00000000000E+00  0.00000000000E+00 -0.33479925974E+03  0.38044516509E+04  0.37896915204E+04 0.  0.
        2    1    3    3  502    0  0.18807496766E+04 -0.23055273765E+03 -0.17558884560E+03  0.19029464926E+04  0.25500000920E-02 0. -1.
       -2    1    3    3    0  502 -0.18807496766E+04  0.23055273765E+03 -0.15921041414E+03  0.19015051583E+04  0.25500000920E-02 0.  1.
</event>
<event>
 5   0  0.1628250E-08  0.3801456E+04  0.7818609E-02  0.8045843E-01
       -1   -1    0    0    0  501  0.00000000000E+00  0.00000000000E+00  0.15027487850E+04  0.15027487851E+04  0.50400001928E-02 0. -1.
        1   -1    0    0  501    0  0.00000000000E+00  0.00000000000E+00 -0.24041053975E+04  0.24041053975E+04  0.50400001928E-02 0.  1.
    10030    2    1    2    0    0  0.00000000000E+00  0.00000000000E+00 -0.90135661246E+03  0.39068541826E+04  0.38014557555E+04 0.  0.
        1    1    3    3  502    0 -0.17014199401E+04 -0.50366504119E+03 -0.11509346369E+04  0.21149843557E+04  0.50400001928E-02 0.  1.
       -1    1    3    3    0  502  0.17014199401E+04  0.50366504119E+03  0.24957802449E+03  0.17918698269E+04  0.50400001928E-02 0. -1.
</event>
<event>
 5   0  0.1628250E-08  0.3797414E+04  0.7818609E-02  0.8046710E-01
        1   -1    0    0  501    0  0.00000000000E+00  0.00000000000E+00  0.16425320147E+04  0.16425320147E+04  0.50400001928E-02 0.  1.
       -1   -1    0    0    0  501  0.00000000000E+00  0.00000000000E+00 -0.21948362313E+04  0.21948362314E+04  0.50400001928E-02 0. -1.
    10030    2    1    2    0    0  0.00000000000E+00  0.00000000000E+00 -0.55230421661E+03  0.38373682461E+04  0.37974142661E+04 0.  0.
        5    1    3    3  502    0 -0.17642875624E+04  0.69950419567E+03 -0.22034456591E+03  0.19106518627E+04  0.46999998093E+01 0.  1.
       -5    1    3    3    0  502  0.17642875624E+04 -0.69950419567E+03 -0.33195965070E+03  0.19267163834E+04  0.46999998093E+01 0. -1.
</event>
<event>
 5   0  0.1666051E-08  0.3810801E+04  0.7818609E-02  0.8043841E-01
        1   -1    0    0  501    0  0.00000000000E+00  0.00000000000E+00  0.15549947244E+04  0.15549947244E+04  0.50400001928E-02 0.  1.
       -1   -1    0    0    0  501  0.00000000000E+00  0.00000000000E+00 -0.23347677941E+04  0.23347677942E+04  0.50400001928E-02 0. -1.
    10030    2    1    2    0    0  0.00000000000E+00  0.00000000000E+00 -0.77977306979E+03  0.38897625185E+04  0.38108012819E+04 0.  0.
        2    1    3    3  502    0 -0.15402102152E+04 -0.66761174276E+03 -0.13100073056E+04  0.21293360671E+04  0.25500000920E-02 0. -1.
       -2    1    3    3    0  502  0.15402102152E+04  0.66761174276E+03  0.53023423578E+03  0.17604264514E+04  0.25500000920E-02 0.  1.
</event>
<event>
 5   0  0.5207474E-08  0.3794668E+04  0.7818609E-02  0.8047300E-01
       -2   -1    0    0    0  501  0.00000000000E+00  0.00000000000E+00  0.26351294997E+04  0.26351294997E+04  0.25500000920E-02 0. -1.
        2   -1    0    0  501    0  0.00000000000E+00  0.00000000000E+00 -0.13661101721E+04  0.13661101721E+04  0.25500000920E-02 0.  1.
    10030    2    1    2    0    0  0.00000000000E+00  0.00000000000E+00  0.12690193277E+04  0.40012396718E+04  0.37946684779E+04 0.  0.
        4    1    3    3  502    0  0.17208694913E+04 -0.73705480462E+03  0.30911025249E+03  0.18974172847E+04  0.12699999809E+01 0. -1.
       -4    1    3    3    0  502 -0.17208694913E+04  0.73705480462E+03  0.95990907516E+03  0.21038223871E+04  0.12699999809E+01 0.  1.
</event>
<event>
 5   0  0.5207474E-08  0.3801488E+04  0.7818609E-02  0.8045836E-01
       -2   -1    0    0    0  501  0.00000000000E+00  0.00000000000E+00  0.32068106951E+04  0.32068106951E+04  0.25500000920E-02 0.  1.
        2   -1    0    0  501    0  0.00000000000E+00  0.00000000000E+00 -0.11266109697E+04  0.11266109697E+04  0.25500000920E-02 0. -1.
    10030    2    1    2    0    0  0.00000000000E+00  0.00000000000E+00  0.20801997254E+04  0.43334216648E+04  0.38014881859E+04 0.  0.
        4    1    3    3  502    0  0.10147792395E+04 -0.15177073793E+04  0.43732284792E+03  0.18773559813E+04  0.12699999809E+01 0.  1.
       -4    1    3    3    0  502 -0.10147792395E+04  0.15177073793E+04  0.16428768775E+04  0.24560656835E+04  0.12699999809E+01 0. -1.
</event>
<event>
 5   0  0.5147582E-08  0.3796972E+04  0.7818609E-02  0.8046805E-01
        2   -1    0    0  501    0  0.00000000000E+00  0.00000000000E+00  0.24713144625E+04  0.24713144625E+04  0.25500000920E-02 0.  1.
       -2   -1    0    0    0  501  0.00000000000E+00  0.00000000000E+00 -0.14584339348E+04  0.14584339348E+04  0.25500000920E-02 0. -1.
    10030    2    1    2    0    0  0.00000000000E+00  0.00000000000E+00  0.10128805277E+04  0.39297483972E+04  0.37969718859E+04 0.  0.
        1    1    3    3  502    0  0.10255404021E+03 -0.31878281530E+03 -0.14276256159E+04  0.14663746839E+04  0.50400001928E-02 0. -1.
       -1    1    3    3    0  502 -0.10255404021E+03  0.31878281530E+03  0.24405061436E+04  0.24633737133E+04  0.50400001928E-02 0.  1.
</event>
<event>
 5   0  0.1628250E-08  0.3797396E+04  0.7818609E-02  0.8046714E-01
       -1   -1    0    0    0  501  0.00000000000E+00  0.00000000000E+00  0.19334967611E+04  0.19334967611E+04  0.50400001928E-02 0. -1.
        1   -1    0    0  501    0  0.00000000000E+00  0.00000000000E+00 -0.18645254706E+04  0.18645254706E+04  0.50400001928E-02 0.  1.
    10030    2    1    2    0    0  0.00000000000E+00  0.00000000000E+00  0.68971290530E+02  0.37980222317E+04  0.37973959280E+04 0.  0.
        4    1    3    3  502    0  0.40832191300E+03 -0.27377195419E+03 -0.17997673392E+04  0.18657014647E+04  0.12699999809E+01 0.  1.
       -4    1    3    3    0  502 -0.40832191300E+03  0.27377195419E+03  0.18687386297E+04  0.19323207670E+04  0.12699999809E+01 0. -1.
</event>
<event>
 5   0  0.1628250E-08  0.3798696E+04  0.7818609E-02  0.8046435E-01
        1   -1    0    0  501    0  0.00000000000E+00  0.00000000000E+00  0.29779829907E+04  0.29779829907E+04  0.50400001928E-02 0.  1.
       -1   -1    0    0    0  501  0.00000000000E+00  0.00000000000E+00 -0.12113977741E+04  0.12113977741E+04  0.50400001928E-02 0. -1.
    10030    2    1    2    0    0  0.00000000000E+00  0.00000000000E+00  0.17665852166E+04  0.41893807648E+04  0.37986955478E+04 0.  0.
        4    1    3    3  502    0 -0.81565018095E+03  0.13982927529E+04 -0.21236958402E+03  0.16326696829E+04  0.12699999809E+01 0. -1.
       -4    1    3    3    0  502  0.81565018095E+03 -0.13982927529E+04  0.19789548006E+04  0.25567110819E+04  0.12699999809E+01 0.  1.
</event>
<event>
 5   0  0.5159761E-08  0.3810842E+04  0.7818609E-02  0.8043832E-01
        2   -1    0    0  501    0  0.00000000000E+00  0.00000000000E+00  0.18053998239E+04  0.18053998239E+04  0.25500000920E-02 0.  1.
       -2   -1    0    0    0  501  0.00000000000E+00  0.00000000000E+00 -0.20109838251E+04  0.20109838251E+04  0.25500000920E-02 0. -1.
    10030    2    1    2    0    0  0.00000000000E+00  0.00000000000E+00 -0.20558400122E+03  0.38163836489E+04  0.38108423445E+04 0.  0.
        5    1    3    3  502    0  0.15491500567E+04  0.10062871799E+04 -0.57051283970E+03  0.19333873840E+04  0.46999998093E+01 0. -1.
       -5    1    3    3    0  502 -0.15491500567E+04 -0.10062871799E+04  0.36492883848E+03  0.18829962649E+04  0.46999998093E+01 0.  1.
</event>
<event>
 5   0  0.1628250E-08  0.3795893E+04  0.7818609E-02  0.8047037E-01
       -1   -1    0    0    0  501  0.00000000000E+00  0.00000000000E+00  0.16797576063E+04  0.16797576063E+04  0.50400001928E-02 0. -1.
        1   -1    0    0  501    0  0.00000000000E+00  0.00000000000E+00 -0.21444767218E+04  0.21444767218E+04  0.50400001928E-02 0.  1.
    10030    2    1    2    0    0  0.00000000000E+00  0.00000000000E+00 -0.46471911555E+03  0.38242343281E+04  0.37958930886E+04 0.  0.
        5    1    3    3  502    0 -0.14654238288E+04  0.12030102553E+04 -0.14523659827E+03  0.19015300239E+04  0.46999998093E+01 0. -1.
       -5    1    3    3    0  502  0.14654238288E+04 -0.12030102553E+04 -0.31948251727E+03  0.19227043042E+04  0.46999998093E+01 0.  1.
</event>
<event>
 5   0  0.1628250E-08  0.3798744E+04  0.7818609E-02  0.8046424E-01
       -3   -1    0    0    0  501  0.00000000000E+00  0.00000000000E+00  0.15159546299E+04  0.15159546333E+04  0.10100000352E+00 0.  1.
        3   -1    0    0  501    0  0.00000000000E+00  0.00000000000E+00 -0.23797643189E+04  0.23797643210E+04  0.10100000352E+00 0. -1.
    10030    2    1    2    0    0  0.00000000000E+00  0.00000000000E+00 -0.86380968894E+03  0.38957189543E+04  0.37987443968E+04 0.  0.
        3    1    3    3  502    0  0.37613566183E+03  0.16949065181E+04  0.35810368668E+03  0.17726884672E+04  0.10100000352E+00 0.  1.
       -3    1    3    3    0  502 -0.37613566183E+03 -0.16949065181E+04 -0.12219133756E+04  0.21230304871E+04  0.10100000352E+00 0. -1.
</event>
<event>
 5   0  0.5140842E-08  0.3773516E+04  0.7818609E-02  0.8051862E-01
       -2   -1    0    0    0  501  0.00000000000E+00  0.00000000000E+00  0.27072430157E+04  0.27072430157E+04  0.25500000920E-02 0.  1.
        2   -1    0    0  501    0  0.00000000000E+00  0.00000000000E+00 -0.13149378749E+04  0.13149378749E+04  0.25500000920E-02 0. -1.
    10030    2    1    2    0    0  0.00000000000E+00  0.00000000000E+00  0.13923051408E+04  0.40221808906E+04  0.37735163325E+04 0.  0.
        2    1    3    3  502    0  0.72810888100E+03  0.10411779998E+04 -0.79063556236E+03  0.14964286693E+04  0.25500000920E-02 0. -1.
       -2    1    3    3    0  502 -0.72810888100E+03 -0.10411779998E+04  0.21829407032E+04  0.25257522213E+04  0.25500000920E-02 0.  1.
</event>
<event>
 5   0  0.1628473E-08  0.3799081E+04  0.7818609E-02  0.8046352E-01
        1   -1    0    0  501    0  0.00000000000E+00  0.00000000000E+00  0.28301683304E+04  0.28301683304E+04  0.50400001928E-02 0.  1.
       -1   -1    0    0    0  501  0.00000000000E+00  0.00000000000E+00 -0.12749259274E+04  0.12749259274E+04  0.50400001928E-02 0. -1.
    10030    2    1    2    0    0  0.00000000000E+00  0.00000000000E+00  0.15552424029E+04  0.41050942578E+04  0.37990814592E+04 0.  0.
        3    1    3    3  502    0  0.84346317129E+03  0.17016217465E+04  0.81670488424E+03  0.20673542434E+04  0.10100000352E+00 0.  1.
       -3    1    3    3    0  502 -0.84346317129E+03 -0.17016217465E+04  0.73853751869E+03  0.20377400144E+04  0.10100000352E+00 0. -1.
</event>
<event>
 5   0  0.5086209E-08  0.3796829E+04  0.7818609E-02  0.8046836E-01
       -2   -1    0    0    0  501  0.00000000000E+00  0.00000000000E+00  0.16946626254E+04  0.16946626254E+04  0.25500000920E-02 0.  1.
        2   -1    0    0  501    0  0.00000000000E+00  0.00000000000E+00 -0.21266641715E+04  0.21266641715E+04  0.25500000920E-02 0. -1.
    10030    2    1    2    0    0  0.00000000000E+00  0.00000000000E+00 -0.43200154609E+03  0.38213267968E+04  0.37968293552E+04 0.  0.
        3    1    3    3  502    0  0.15800710159E+04 -0.72262046433E+03 -0.98590275308E+03  0.19977009284E+04  0.10100000352E+00 0. -1.
       -3    1    3    3    0  502 -0.15800710159E+04  0.72262046433E+03  0.55390120699E+03  0.18236258684E+04  0.10100000352E+00 0.  1.
</event>
<event>
 5   0  0.5207474E-08  0.3799324E+04  0.7818609E-02  0.8046300E-01
       -2   -1    0    0    0  501  0.00000000000E+00  0.00000000000E+00  0.16062299171E+04  0.16062299171E+04  0.25500000920E-02 0. -1.
        2   -1    0    0  501    0  0.00000000000E+00  0.00000000000E+00 -0.22466997466E+04  0.22466997466E+04  0.25500000920E-02 0.  1.
    10030    2    1    2    0    0  0.00000000000E+00  0.00000000000E+00 -0.64046982955E+03  0.38529296637E+04  0.37993243335E+04 0.  0.
        4    1    3    3  502    0  0.13709329129E+03 -0.15219066627E+04  0.82428075393E+03  0.17362127849E+04  0.12699999809E+01 0. -1.
       -4    1    3    3    0  502 -0.13709329129E+03  0.15219066627E+04 -0.14647505835E+04  0.21167168788E+04  0.12699999809E+01 0.  1.
</event>
<event>
 5   0  0.5207474E-08  0.3796073E+04  0.7818609E-02  0.8046998E-01
       -2   -1    0    0    0  501  0.00000000000E+00  0.00000000000E+00  0.14706556522E+04  0.14706556522E+04  0.25500000920E-02 0.  1.
        2   -1    0    0  501    0  0.00000000000E+00  0.00000000000E+00 -0.24496165079E+04  0.24496165079E+04  0.25500000920E-02 0. -1.
    10030    2    1    2    0    0  0.00000000000E+00  0.00000000000E+00 -0.97896085569E+03  0.39202721601E+04  0.37960728987E+04 0.  0.
        4    1    3    3  502    0  0.17446233506E+04 -0.74602122208E+03 -0.53881852269E+03  0.19724566694E+04  0.12699999809E+01 0. -1.
       -4    1    3    3    0  502 -0.17446233506E+04  0.74602122208E+03 -0.44014233300E+03  0.19478154906E+04  0.12699999809E+01 0.  1.
</event>
<event>
 5   0  0.1666051E-08  0.3808982E+04  0.7818609E-02  0.8044230E-01
       -1   -1    0    0    0  501  0.00000000000E+00  0.00000000000E+00  0.10729289176E+04  0.10729289176E+04  0.50400001928E-02 0.  1.
        1   -1    0    0  501    0  0.00000000000E+00  0.00000000000E+00 -0.33805471705E+04  0.33805471705E+04  0.50400001928E-02 0. -1.
    10030    2    1    2    0    0  0.00000000000E+00  0.00000000000E+00 -0.23076182529E+04  0.44534760880E+04  0.38089824449E+04 0.  0.
        2    1    3    3  502    0 -0.15127064728E+04 -0.30684850234E+02 -0.25061812180E+04  0.29274847106E+04  0.25500000920E-02 0. -1.
       -2    1    3    3    0  502  0.15127064728E+04  0.30684850234E+02  0.19856296513E+03  0.15259913775E+04  0.25500000920E-02 0.  1.
</event>
<event>
 5   0  0.5147582E-08  0.3797836E+04  0.7818609E-02  0.8046619E-01
       -2   -1    0    0    0  501  0.00000000000E+00  0.00000000000E+00  0.13216598818E+04  0.13216598818E+04  0.25500000920E-02 0. -1.
        2   -1    0    0  501    0  0.00000000000E+00  0.00000000000E+00 -0.27283034868E+04  0.27283034868E+04  0.25500000920E-02 0.  1.
    10030    2    1    2    0    0  0.00000000000E+00  0.00000000000E+00 -0.14066436050E+04  0.40499633686E+04  0.37978358384E+04 0.  0.
        1    1    3    3  502    0  0.16155155641E+04  0.35535854918E+03  0.29117729307E+03  0.16795697223E+04  0.50400001928E-02 0.  1.
       -1    1    3    3    0  502 -0.16155155641E+04 -0.35535854918E+03 -0.16978208981E+04  0.23703936462E+04  0.50400001928E-02 0. -1.
</event>
<event>
 5   0  0.1628250E-08  0.3801797E+04  0.7818609E-02  0.8045769E-01
        1   -1    0    0  501    0  0.00000000000E+00  0.00000000000E+00  0.16821014689E+04  0.16821014689E+04  0.50400001928E-02 0.  1.
       -1   -1    0    0    0  501  0.00000000000E+00  0.00000000000E+00 -0.21481549995E+04  0.21481549995E+04  0.50400001928E-02 0. -1.
    10030    2    1    2    0    0  0.00000000000E+00  0.00000000000E+00 -0.46605353059E+03  0.38302564684E+04  0.38017967752E+04 0.  0.
        1    1    3    3  502    0 -0.79741291149E+03  0.75401698471E+03 -0.17967427364E+04  0.21053962633E+04  0.50400001928E-02 0. -1.
       -1    1    3    3    0  502  0.79741291149E+03 -0.75401698471E+03  0.13306892058E+04  0.17248602051E+04  0.50400001928E-02 0.  1.
</event>
<event>
 5   0  0.1628250E-08  0.3797513E+04  0.7818609E-02  0.8046689E-01
        3   -1    0    0  501    0  0.00000000000E+00  0.00000000000E+00  0.16479422502E+04  0.16479422533E+04  0.10100000352E+00 0. -1.
       -3   -1    0    0    0  501  0.00000000000E+00  0.00000000000E+00 -0.21877442893E+04  0.21877442917E+04  0.10100000352E+00 0.  1.
    10030    2    1    2    0    0  0.00000000000E+00  0.00000000000E+00 -0.53980203918E+03  0.38356865449E+04  0.37975130058E+04 0.  0.
        2    1    3    3  502    0 -0.79602393581E+03 -0.71272487562E+03  0.13154773873E+04  0.16947305424E+04  0.25500000920E-02 0. -1.
       -2    1    3    3    0  502  0.79602393581E+03  0.71272487562E+03 -0.18552794265E+04  0.21409560026E+04  0.25500000920E-02 0.  1.
</event>
<event>
 5   0  0.5147582E-08  0.3785972E+04  0.7818609E-02  0.8049172E-01
        2   -1    0    0  501    0  0.00000000000E+00  0.00000000000E+00  0.19738164420E+04  0.19738164420E+04  0.25500000920E-02 0. -1.
       -2   -1    0    0    0  501  0.00000000000E+00  0.00000000000E+00 -0.18154653950E+04  0.18154653950E+04  0.25500000920E-02 0.  1.
    10030    2    1    2    0    0  0.00000000000E+00  0.00000000000E+00  0.15835104706E+03  0.37892818370E+04  0.37859717097E+04 0.  0.
        1    1    3    3  502    0  0.12600783318E+04  0.10913280699E+04  0.97695536899E+03  0.19321584178E+04  0.50400001928E-02 0. -1.
       -1    1    3    3    0  502 -0.12600783318E+04 -0.10913280699E+04 -0.81860432193E+03  0.18571234193E+04  0.50400001928E-02 0.  1.
</event>
<event>
 5   0  0.1628250E-08  0.3800642E+04  0.7818609E-02  0.8046017E-01
        1   -1    0    0  501    0  0.00000000000E+00  0.00000000000E+00  0.21072848936E+04  0.21072848936E+04  0.50400001928E-02 0. -1.
       -1   -1    0    0    0  501  0.00000000000E+00  0.00000000000E+00 -0.17136835773E+04  0.17136835773E+04  0.50400001928E-02 0.  1.
    10030    2    1    2    0    0  0.00000000000E+00  0.00000000000E+00  0.39360131626E+03  0.38209684709E+04  0.38006417958E+04 0.  0.
        5    1    3    3  502    0  0.13138518710E+04  0.45775107823E+03  0.14981169019E+04  0.20445339640E+04  0.46999998093E+01 0.  1.
       -5    1    3    3    0  502 -0.13138518710E+04 -0.45775107823E+03 -0.11045155856E+04  0.17764345069E+04  0.46999998093E+01 0. -1.
</event>
<event>
 5   0  0.1628250E-08  0.3795527E+04  0.7818609E-02  0.8047115E-01
       -1   -1    0    0    0  501  0.00000000000E+00  0.00000000000E+00  0.16478551636E+04  0.16478551636E+04  0.50400001928E-02 0. -1.
        1   -1    0    0  501    0  0.00000000000E+00  0.00000000000E+00 -0.21855721006E+04  0.21855721006E+04  0.50400001928E-02 0.  1.
    10030    2    1    2    0    0  0.00000000000E+00  0.00000000000E+00 -0.53771693700E+03  0.38334272642E+04  0.37955269839E+04 0.  0.
        5    1    3    3  502    0 -0.15447653643E+04 -0.97053423020E+03  0.25909203672E+03  0.18426577262E+04  0.46999998093E+01 0. -1.
       -5    1    3    3    0  502  0.15447653643E+04  0.97053423020E+03 -0.79680897372E+03  0.19907695379E+04  0.46999998093E+01 0.  1.
</event>
<event>
 5   0  0.1628250E-08  0.3814172E+04  0.7818609E-02  0.8043120E-01
        1   -1    0    0  501    0  0.00000000000E+00  0.00000000000E+00  0.19753085524E+04  0.19753085524E+04  0.50400001928E-02 0.  1.
       -1   -1    0    0    0  501  0.00000000000E+00  0.00000000000E+00 -0.18412201518E+04  0.18412201518E+04  0.50400001928E-02 0. -1.
    10030    2    1    2    0    0  0.00000000000E+00  0.00000000000E+00  0.13408840063E+03  0.38165287042E+04  0.38141724726E+04 0.  0.
        4    1    3    3  502    0  0.13421171604E+04 -0.81505664901E+03  0.11500161254E+04  0.19463130567E+04  0.12699999809E+01 0.  1.
       -4    1    3    3    0  502 -0.13421171604E+04  0.81505664901E+03 -0.10159277248E+04  0.18702156475E+04  0.12699999809E+01 0. -1.
</event>
<event>
 5   0  0.5159761E-08  0.3799032E+04  0.7818609E-02  0.8046363E-01
        2   -1    0    0  501    0  0.00000000000E+00  0.00000000000E+00  0.17021891733E+04  0.17021891733E+04  0.25500000920E-02 0.  1.
       -2   -1    0    0    0  501  0.00000000000E+00  0.00000000000E+00 -0.21197178456E+04  0.21197178456E+04  0.25500000920E-02 0. -1.
    10030    2    1    2    0    0  0.00000000000E+00  0.00000000000E+00 -0.41752867235E+03  0.38219070189E+04  0.37990318594E+04 0.  0.
        5    1    3    3  502    0 -0.17500574359E+04 -0.10823651708E+03  0.52619775536E+03  0.18306617219E+04  0.46999998093E+01 0.  1.
       -5    1    3    3    0  502  0.17500574359E+04  0.10823651708E+03 -0.94372642772E+03  0.19912452970E+04  0.46999998093E+01 0. -1.
</event>
<event>
 5   0  0.5147582E-08  0.3800230E+04  0.7818609E-02  0.8046106E-01
        2   -1    0    0  501    0  0.00000000000E+00  0.00000000000E+00  0.26194301172E+04  0.26194301172E+04  0.25500000920E-02 0.  1.
       -2   -1    0    0    0  501  0.00000000000E+00  0.00000000000E+00 -0.13783288529E+04  0.13783288529E+04  0.25500000920E-02 0. -1.
    10030    2    1    2    0    0  0.00000000000E+00  0.00000000000E+00  0.12411012643E+04  0.39977589701E+04  0.38002295239E+04 0.  0.
        1    1    3    3  502    0 -0.41199891520E+03 -0.57131332221E+03  0.24770148786E+04  0.25752174135E+04  0.50400001928E-02 0.  1.
       -1    1    3    3    0  502  0.41199891520E+03  0.57131332221E+03 -0.12359136142E+04  0.14225415566E+04  0.50400001928E-02 0. -1.
</event>
<event>
 5   0  0.1666051E-08  0.3790524E+04  0.7818609E-02  0.8048191E-01
       -1   -1    0    0    0  501  0.00000000000E+00  0.00000000000E+00  0.23011595437E+04  0.23011595437E+04  0.50400001928E-02 0. -1.
        1   -1    0    0  501    0  0.00000000000E+00  0.00000000000E+00 -0.15609602076E+04  0.15609602076E+04  0.50400001928E-02 0.  1.
    10030    2    1    2    0    0  0.00000000000E+00  0.00000000000E+00  0.74019933613E+03  0.38621197512E+04  0.37905242270E+04 0.  0.
        2    1    3    3  502    0 -0.67015612847E+03  0.86813097117E+03 -0.12048184185E+04  0.16292170025E+04  0.25500000920E-02 0.  1.
       -2    1    3    3    0  502  0.67015612847E+03 -0.86813097117E+03  0.19450177546E+04  0.22329027488E+04  0.25500000920E-02 0. -1.
</event>
<event>
 5   0  0.1628250E-08  0.3803717E+04  0.7818609E-02  0.8045358E-01
       -1   -1    0    0    0  501  0.00000000000E+00  0.00000000000E+00  0.10397629384E+04  0.10397629384E+04  0.50400001928E-02 0. -1.
        1   -1    0    0  501    0  0.00000000000E+00  0.00000000000E+00 -0.34787416506E+04  0.34787416506E+04  0.50400001928E-02 0.  1.
    10030    2    1    2    0    0  0.00000000000E+00  0.00000000000E+00 -0.24389787122E+04  0.45185045889E+04  0.38037174661E+04 0.  0.
        5    1    3    3  502    0 -0.78105733716E+03  0.10980363284E+04  0.37484987239E+03  0.13986668150E+04  0.46999998093E+01 0. -1.
       -5    1    3    3    0  502  0.78105733716E+03 -0.10980363284E+04 -0.28138285846E+04  0.31198377740E+04  0.46999998093E+01 0.  1.
</event>
<event>
 5   0  0.5086209E-08  0.3805472E+04  0.7818609E-02  0.8044982E-01
        2   -1    0    0  501    0  0.00000000000E+00  0.00000000000E+00  0.18309489269E+04  0.18309489269E+04  0.25500000920E-02 0. -1.
       -2   -1    0    0    0  501  0.00000000000E+00  0.00000000000E+00 -0.19773380063E+04  0.19773380063E+04  0.25500000920E-02 0.  1.
    10030    2    1    2    0    0  0.00000000000E+00  0.00000000000E+00 -0.14638907937E+03  0.38082869331E+04  0.38054723232E+04 0.  0.
        3    1    3    3  502    0  0.11877969755E+04  0.14804343439E+04  0.60535838381E+02  0.18990029225E+04  0.10100000352E+00 0. -1.
       -3    1    3    3    0  502 -0.11877969755E+04 -0.14804343439E+04 -0.20692491775E+03  0.19092840107E+04  0.10100000352E+00 0.  1.
</event>
<event>
 5   0  0.5147582E-08  0.3824709E+04  0.7818609E-02  0.8040873E-01
        2   -1    0    0  501    0  0.00000000000E+00  0.00000000000E+00  0.22153903759E+04  0.22153903759E+04  0.25500000920E-02 0.  1.
       -2   -1    0    0    0  501  0.00000000000E+00  0.00000000000E+00 -0.16507697196E+04  0.16507697196E+04  0.25500000920E-02 0. -1.
    10030    2    1    2    0    0  0.00000000000E+00  0.00000000000E+00  0.56462065631E+03  0.38661600955E+04  0.38247087991E+04 0.  0.
        1    1    3    3  502    0  0.19015212297E+04  0.10735847117E+03  0.45678022690E+03  0.19585599312E+04  0.50400001928E-02 0.  1.
       -1    1    3    3    0  502 -0.19015212297E+04 -0.10735847117E+03  0.10784042941E+03  0.19076001642E+04  0.50400001928E-02 0. -1.
</event>
<event>
 5   0  0.1666051E-08  0.3804210E+04  0.7818609E-02  0.8045252E-01
        1   -1    0    0  501    0  0.00000000000E+00  0.00000000000E+00  0.12617044145E+04  0.12617044145E+04  0.50400001928E-02 0.  1.
       -1   -1    0    0    0  501  0.00000000000E+00  0.00000000000E+00 -0.28675530159E+04  0.28675530159E+04  0.50400001928E-02 0. -1.
    10030    2    1    2    0    0  0.00000000000E+00  0.00000000000E+00 -0.16058486014E+04  0.41292574304E+04  0.38042104564E+04 0.  0.
        2    1    3    3  502    0  0.55836324535E+01 -0.12661750955E+04 -0.23436331107E+04  0.26638030533E+04  0.25500000920E-02 0. -1.
       -2    1    3    3    0  502 -0.55836324535E+01  0.12661750955E+04  0.73778450928E+03  0.14654543771E+04  0.25500000920E-02 0.  1.
</event>
<event>
 5   0  0.1628250E-08  0.3806946E+04  0.7818609E-02  0.8044666E-01
       -1   -1    0    0    0  501  0.00000000000E+00  0.00000000000E+00  0.19640235731E+04  0.19640235731E+04  0.50400001928E-02 0.  1.
        1   -1    0    0  501    0  0.00000000000E+00  0.00000000000E+00 -0.18447890901E+04  0.18447890901E+04  0.50400001928E-02 0. -1.
    10030    2    1    2    0    0  0.00000000000E+00  0.00000000000E+00  0.11923448301E+03  0.38088126633E+04  0.38069458943E+04 0.  0.
        5    1    3    3  502    0  0.11643099758E+04 -0.87354337600E+03  0.12867958201E+04  0.19428230290E+04  0.46999998093E+01 0. -1.
       -5    1    3    3    0  502 -0.11643099758E+04  0.87354337600E+03 -0.11675613371E+04  0.18659896343E+04  0.46999998093E+01 0.  1.
</event>
<event>
 5   0  0.1666051E-08  0.3794233E+04  0.7818609E-02  0.8047394E-01
       -1   -1    0    0    0  501  0.00000000000E+00  0.00000000000E+00  0.14019904859E+04  0.14019904859E+04  0.50400001928E-02 0. -1.
        1   -1    0    0  501    0  0.00000000000E+00  0.00000000000E+00 -0.25671012939E+04  0.25671012939E+04  0.50400001928E-02 0.  1.
    10030    2    1    2    0    0  0.00000000000E+00  0.00000000000E+00 -0.11651108081E+04  0.39690917798E+04  0.37942333035E+04 0.  0.
        2    1    3    3  502    0  0.70339524780E+03 -0.14496369083E+04  0.46501407414E+03  0.16770361146E+04  0.25500000920E-02 0. -1.
       -2    1    3    3    0  502 -0.70339524780E+03  0.14496369083E+04 -0.16301248822E+04  0.22920556652E+04  0.25500000920E-02 0.  1.
</event>
<event>
 5   0  0.1628250E-08  0.3800584E+04  0.7818609E-02  0.8046029E-01
        1   -1    0    0  501    0  0.00000000000E+00  0.00000000000E+00  0.18793557765E+04  0.18793557765E+04  0.50400001928E-02 0. -1.
       -1   -1    0    0    0  501  0.00000000000E+00  0.00000000000E+00 -0.19214617848E+04  0.19214617848E+04  0.50400001928E-02 0.  1.
    10030    2    1    2    0    0  0.00000000000E+00  0.00000000000E+00 -0.42106008365E+02  0.38008175613E+04  0.38005843259E+04 0.  0.
        5    1    3    3  502    0 -0.75861736895E+03  0.85888363204E+03  0.14949248501E+04  0.18836145581E+04  0.46999998093E+01 0. -1.
       -5    1    3    3    0  502  0.75861736895E+03 -0.85888363204E+03 -0.15370308585E+04  0.19172030033E+04  0.46999998093E+01 0.  1.
</event>
<event>
 5   0  0.1666051E-08  0.3805072E+04  0.7818609E-02  0.8045067E-01
        1   -1    0    0  501    0  0.00000000000E+00  0.00000000000E+00  0.17165373121E+04  0.17165373121E+04  0.50400001928E-02 0. -1.
       -1   -1    0    0    0  501  0.00000000000E+00  0.00000000000E+00 -0.21086884676E+04  0.21086884677E+04  0.50400001928E-02 0.  1.
    10030    2    1    2    0    0  0.00000000000E+00  0.00000000000E+00 -0.39215115552E+03  0.38252257798E+04  0.38050715811E+04 0.  0.
        2    1    3    3  502    0 -0.64216796011E+02  0.25922835716E+03 -0.20897512041E+04  0.21067470738E+04  0.25500000920E-02 0.  1.
       -2    1    3    3    0  502  0.64216796011E+02 -0.25922835716E+03  0.16976000486E+04  0.17184787060E+04  0.25500000920E-02 0. -1.
</event>
<event>
 5   0  0.5086209E-08  0.3793110E+04  0.7818609E-02  0.8047635E-01
       -2   -1    0    0    0  501  0.00000000000E+00  0.00000000000E+00  0.27749675162E+04  0.27749675162E+04  0.25500000920E-02 0.  1.
        2   -1    0    0  501    0  0.00000000000E+00  0.00000000000E+00 -0.12962028705E+04  0.12962028705E+04  0.25500000920E-02 0. -1.
    10030    2    1    2    0    0  0.00000000000E+00  0.00000000000E+00  0.14787646457E+04  0.40711703867E+04  0.37931099958E+04 0.  0.
        3    1    3    3  502    0 -0.14147602127E+04 -0.10771485537E+04  0.14473787264E+04  0.22927495838E+04  0.10100000352E+00 0. -1.
       -3    1    3    3    0  502  0.14147602127E+04  0.10771485537E+04  0.31385919272E+02  0.17784208029E+04  0.10100000352E+00 0.  1.
</event>
<event>
 5   0  0.5140842E-08  0.3798746E+04  0.7818609E-02  0.8046424E-01
        2   -1    0    0  501    0  0.00000000000E+00  0.00000000000E+00  0.22162526873E+04  0.22162526873E+04  0.25500000920E-02 0. -1.
       -2   -1    0    0    0  501  0.00000000000E+00  0.00000000000E+00 -0.16278008804E+04  0.16278008804E+04  0.25500000920E-02 0.  1.
    10030    2    1    2    0    0  0.00000000000E+00  0.00000000000E+00  0.58845180693E+03  0.38440535678E+04  0.37987461488E+04 0.  0.
        2    1    3    3  502    0 -0.10169391530E+03  0.10831728673E+04  0.18697194451E+04  0.21632050102E+04  0.25500000920E-02 0. -1.
       -2    1    3    3    0  502  0.10169391530E+03 -0.10831728673E+04 -0.12812676382E+04  0.16808485576E+04  0.25500000920E-02 0.  1.
</event>
<event>
 5   0  0.5147582E-08  0.3800997E+04  0.7818609E-02  0.8045941E-01
        2   -1    0    0  501    0  0.00000000000E+00  0.00000000000E+00  0.15940465444E+04  0.15940465444E+04  0.25500000920E-02 0.  1.
       -2   -1    0    0    0  501  0.00000000000E+00  0.00000000000E+00 -0.22658652296E+04  0.22658652296E+04  0.25500000920E-02 0. -1.
    10030    2    1    2    0    0  0.00000000000E+00  0.00000000000E+00 -0.67181868516E+03  0.38599117740E+04  0.38009970478E+04 0.  0.
        1    1    3    3  502    0 -0.56138777016E+03  0.16525348086E+04  0.42799165053E+03  0.17969987131E+04  0.50400001928E-02 0.  1.
       -1    1    3    3    0  502  0.56138777016E+03 -0.16525348086E+04 -0.10998103357E+04  0.20629130608E+04  0.50400001928E-02 0. -1.
</event>
<event>
 5   0  0.1666051E-08  0.3770369E+04  0.7818609E-02  0.8052544E-01
        1   -1    0    0  501    0  0.00000000000E+00  0.00000000000E+00  0.16522834145E+04  0.16522834145E+04  0.50400001928E-02 0.  1.
       -1   -1    0    0    0  501  0.00000000000E+00  0.00000000000E+00 -0.21509140783E+04  0.21509140784E+04  0.50400001928E-02 0. -1.
    10030    2    1    2    0    0  0.00000000000E+00  0.00000000000E+00 -0.49863066387E+03  0.38031974928E+04  0.37703685006E+04 0.  0.
        2    1    3    3  502    0 -0.32392783603E+03  0.15388052114E+02  0.16239364934E+04  0.16559999304E+04  0.25500000920E-02 0.  1.
       -2    1    3    3    0  502  0.32392783603E+03 -0.15388052114E+02 -0.21225671572E+04  0.21471975624E+04  0.25500000920E-02 0. -1.
</event>
<event>
 5   0  0.5207474E-08  0.3798181E+04  0.7818609E-02  0.8046545E-01
       -2   -1    0    0    0  501  0.00000000000E+00  0.00000000000E+00  0.11518088506E+04  0.11518088506E+04  0.25500000920E-02 0.  1.
        2   -1    0    0  501    0  0.00000000000E+00  0.00000000000E+00 -0.31312009879E+04  0.31312009879E+04  0.25500000920E-02 0. -1.
    10030    2    1    2    0    0  0.00000000000E+00  0.00000000000E+00 -0.19793921373E+04  0.42830098385E+04  0.37981811494E+04 0.  0.
        4    1    3    3  502    0 -0.17090475419E+04 -0.30492286323E+03 -0.18578543282E+04  0.25427240847E+04  0.12699999809E+01 0. -1.
       -4    1    3    3    0  502  0.17090475419E+04  0.30492286323E+03 -0.12153780905E+03  0.17402857538E+04  0.12699999809E+01 0.  1.
</event>
<event>
 5   0  0.1628250E-08  0.3801861E+04  0.7818609E-02  0.8045756E-01
       -1   -1    0    0    0  501  0.00000000000E+00  0.00000000000E+00  0.18093171197E+04  0.18093171197E+04  0.50400001928E-02 0.  1.
        1   -1    0    0  501    0  0.00000000000E+00  0.00000000000E+00 -0.19971822461E+04  0.19971822461E+04  0.50400001928E-02 0. -1.
    10030    2    1    2    0    0  0.00000000000E+00  0.00000000000E+00 -0.18786512635E+03  0.38064993658E+04  0.38018606124E+04 0.  0.
        1    1    3    3  502    0  0.14154577067E+04  0.80346405839E+03  0.88933544830E+03  0.18547216913E+04  0.50400001928E-02 0.  1.
       -1    1    3    3    0  502 -0.14154577067E+04 -0.80346405839E+03 -0.10772005746E+04  0.19517776745E+04  0.50400001928E-02 0. -1.
</event>
<event>
 5   0  0.1628250E-08  0.3803018E+04  0.7818609E-02  0.8045507E-01
       -1   -1    0    0    0  501  0.00000000000E+00  0.00000000000E+00  0.18273899740E+04  0.18273899740E+04  0.50400001928E-02 0.  1.
        1   -1    0    0  501    0  0.00000000000E+00  0.00000000000E+00 -0.19786344988E+04  0.19786344988E+04  0.50400001928E-02 0. -1.
    10030    2    1    2    0    0  0.00000000000E+00  0.00000000000E+00 -0.15124452482E+03  0.38060244728E+04  0.38030181937E+04 0.  0.
        4    1    3    3  502    0  0.34443108516E+03 -0.97980290677E+03 -0.16697055217E+04  0.19663582203E+04  0.12699999809E+01 0. -1.
       -4    1    3    3    0  502 -0.34443108516E+03  0.97980290677E+03  0.15184609969E+04  0.18396662525E+04  0.12699999809E+01 0.  1.
</event>
<event>
 5   0  0.5086209E-08  0.3801622E+04  0.7818609E-02  0.8045807E-01
        2   -1    0    0  501    0  0.00000000000E+00  0.00000000000E+00  0.13049816290E+04  0.13049816290E+04  0.25500000920E-02 0.  1.
       -2   -1    0    0    0  501  0.00000000000E+00  0.00000000000E+00 -0.27686849382E+04  0.27686849382E+04  0.25500000920E-02 0. -1.
    10030    2    1    2    0    0  0.00000000000E+00  0.00000000000E+00 -0.14637033092E+04  0.40736665671E+04  0.38016222751E+04 0.  0.
        3    1    3    3  502    0 -0.13437179538E+03 -0.18959219521E+04 -0.75598300645E+03  0.20455038851E+04  0.10100000352E+00 0.  1.
       -3    1    3    3    0  502  0.13437179538E+03  0.18959219521E+04 -0.70772030279E+03  0.20281626821E+04  0.10100000352E+00 0. -1.
</event>
<event>
 5   0  0.1628250E-08  0.3792029E+04  0.7818609E-02  0.8047868E-01
        1   -1    0    0  501    0  0.00000000000E+00  0.00000000000E+00  0.25255935571E+04  0.25255935571E+04  0.50400001928E-02 0. -1.
       -1   -1    0    0    0  501  0.00000000000E+00  0.00000000000E+00 -0.14233764261E+04  0.14233764261E+04  0.50400001928E-02 0.  1.
    10030    2    1    2    0    0  0.00000000000E+00  0.00000000000E+00  0.11022171310E+04  0.39489699832E+04  0.37920286556E+04 0.  0.
        5    1    3    3  502    0 -0.12024052845E+04  0.13839429333E+04  0.47598429092E+02  0.18339477122E+04  0.46999998093E+01 0.  1.
       -5    1    3    3    0  502  0.12024052845E+04 -0.13839429333E+04  0.10546187019E+04  0.21150222710E+04  0.46999998093E+01 0. -1.
</event>
<event>
 5   0  0.5086209E-08  0.3799041E+04  0.7818609E-02  0.8046361E-01
       -2   -1    0    0    0  501  0.00000000000E+00  0.00000000000E+00  0.19978075284E+04  0.19978075284E+04  0.25500000920E-02 0.  1.
        2   -1    0    0  501    0  0.00000000000E+00  0.00000000000E+00 -0.18060686725E+04  0.18060686725E+04  0.25500000920E-02 0. -1.
    10030    2    1    2    0    0  0.00000000000E+00  0.00000000000E+00  0.19173885585E+03  0.38038762009E+04  0.37990407162E+04 0.  0.
        3    1    3    3  502    0 -0.95040723821E+03  0.12412679265E+04 -0.98446524366E+03  0.18474825601E+04  0.10100000352E+00 0. -1.
       -3    1    3    3    0  502  0.95040723821E+03 -0.12412679265E+04  0.11762040995E+04  0.19563936408E+04  0.10100000352E+00 0.  1.
</event>
<event>
 5   0  0.1628250E-08  0.3797753E+04  0.7818609E-02  0.8046637E-01
        1   -1    0    0  501    0  0.00000000000E+00  0.00000000000E+00  0.12672210155E+04  0.12672210155E+04  0.50400001928E-02 0. -1.
       -1   -1    0    0    0  501  0.00000000000E+00  0.00000000000E+00 -0.28453852212E+04  0.28453852212E+04  0.50400001928E-02 0.  1.
    10030    2    1    2    0    0  0.00000000000E+00  0.00000000000E+00 -0.15781642057E+04  0.41126062367E+04  0.37977529932E+04 0.  0.
        4    1    3    3  502    0  0.14332848776E+03  0.16767310723E+04  0.16348067359E+03  0.16907683720E+04  0.12699999809E+01 0. -1.
       -4    1    3    3    0  502 -0.14332848776E+03 -0.16767310723E+04 -0.17416448793E+04  0.24218378647E+04  0.12699999809E+01 0.  1.
</event>
<event>
 5   0  0.1628250E-08  0.3801502E+04  0.7818609E-02  0.8045833E-01
       -3   -1    0    0    0  501  0.00000000000E+00  0.00000000000E+00  0.12894258893E+04  0.12894258932E+04  0.10100000352E+00 0. -1.
        3   -1    0    0  501    0  0.00000000000E+00  0.00000000000E+00 -0.28019097975E+04  0.28019097993E+04  0.10100000352E+00 0.  1.
    10030    2    1    2    0    0  0.00000000000E+00  0.00000000000E+00 -0.15124839082E+04  0.40913356925E+04  0.38015023578E+04 0.  0.
        2    1    3    3  502    0  0.24046250697E+03  0.13578445712E+04  0.65165794226E+03  0.15251957810E+04  0.25500000920E-02 0. -1.
       -2    1    3    3    0  502 -0.24046250697E+03 -0.13578445712E+04 -0.21641418504E+04  0.25661399115E+04  0.25500000920E-02 0.  1.
</event>
<event>
 5   0  0.5159761E-08  0.3730947E+04  0.7818609E-02  0.8061138E-01
       -2   -1    0    0    0  501  0.00000000000E+00  0.00000000000E+00  0.16896193628E+04  0.16896193628E+04  0.25500000920E-02 0. -1.
        2   -1    0    0  501    0  0.00000000000E+00  0.00000000000E+00 -0.20596307574E+04  0.20596307574E+04  0.25500000920E-02 0.  1.
    10030    2    1    2    0    0  0.00000000000E+00  0.00000000000E+00 -0.37001139464E+03  0.37492501202E+04  0.37309473370E+04 0.  0.
        5    1    3    3  502    0  0.11090245692E+04  0.39193218837E+03  0.12700004002E+04  0.17310313232E+04  0.46999998093E+01 0. -1.
       -5    1    3    3    0  502 -0.11090245692E+04 -0.39193218837E+03 -0.16400117948E+04  0.20182187970E+04  0.46999998093E+01 0.  1.
</event>
<event>
 5   0  0.1628250E-08  0.3805497E+04  0.7818609E-02  0.8044976E-01
       -1   -1    0    0    0  501  0.00000000000E+00  0.00000000000E+00  0.12454148163E+04  0.12454148163E+04  0.50400001928E-02 0. -1.
        1   -1    0    0  501    0  0.00000000000E+00  0.00000000000E+00 -0.29070243596E+04  0.29070243596E+04  0.50400001928E-02 0.  1.
    10030    2    1    2    0    0  0.00000000000E+00  0.00000000000E+00 -0.16616095433E+04  0.41524391759E+04  0.38054966608E+04 0.  0.
        1    1    3    3  502    0 -0.41353372553E+03  0.18570791315E+04 -0.80197300104E+03  0.20646824785E+04  0.50400001928E-02 0.  1.
       -1    1    3    3    0  502  0.41353372553E+03 -0.18570791315E+04 -0.85963654224E+03  0.20877566974E+04  0.50400001928E-02 0. -1.
</event>
<event>
 5   0  0.5159761E-08  0.3798453E+04  0.7818609E-02  0.8046487E-01
        2   -1    0    0  501    0  0.00000000000E+00  0.00000000000E+00  0.23708419793E+04  0.23708419793E+04  0.25500000920E-02 0.  1.
       -2   -1    0    0    0  501  0.00000000000E+00  0.00000000000E+00 -0.15214263957E+04  0.15214263957E+04  0.25500000920E-02 0. -1.
    10030    2    1    2    0    0  0.00000000000E+00  0.00000000000E+00  0.84941558362E+03  0.38922683750E+04  0.37984531417E+04 0.  0.
        5    1    3    3  502    0  0.27344856627E+03  0.13432526751E+04 -0.92226875223E+03  0.16521814697E+04  0.46999998093E+01 0. -1.
       -5    1    3    3    0  502 -0.27344856627E+03 -0.13432526751E+04  0.17716843359E+04  0.22400869053E+04  0.46999998093E+01 0.  1.
</event>
<event>
 5   0  0.1666051E-08  0.3793368E+04  0.7818609E-02  0.8047579E-01
       -1   -1    0    0    0  501  0.00000000000E+00  0.00000000000E+00  0.27358974590E+04  0.27358974590E+04  0.50400001928E-02 0. -1.
        1   -1    0    0  501    0  0.00000000000E+00  0.00000000000E+00 -0.13148925313E+04  0.13148925313E+04  0.50400001928E-02 0.  1.
    10030    2    1    2    0    0  0.00000000000E+00  0.00000000000E+00  0.14210049276E+04  0.40507899903E+04  0.37933684953E+04 0.  0.
        2    1    3    3  502    0  0.12226339809E+04  0.13494076171E+04  0.14375458875E+03  0.18265815476E+04  0.25500000920E-02 0.  1.
       -2    1    3    3    0  502 -0.12226339809E+04 -0.13494076171E+04  0.12772503389E+04  0.22242084427E+04  0.25500000920E-02 0. -1.
</event>
<event>
 5   0  0.1628473E-08  0.3796621E+04  0.7818609E-02  0.8046880E-01
        1   -1    0    0  501    0  0.00000000000E+00  0.00000000000E+00  0.17627798123E+04  0.17627798123E+04  0.50400001928E-02 0.  1.
       -1   -1    0    0    0  501  0.00000000000E+00  0.00000000000E+00 -0.20442613639E+04  0.20442613639E+04  0.50400001928E-02 0. -1.
    10030    2    1    2    0    0  0.00000000000E+00  0.00000000000E+00 -0.28148155162E+03  0.38070411762E+04  0.37966209520E+04 0.  0.
        3    1    3    3  502    0  0.59496424376E+03 -0.17107283389E+04  0.42915767858E+03  0.18613839539E+04  0.10100000352E+00 0.  1.
       -3    1    3    3    0  502 -0.59496424376E+03  0.17107283389E+04 -0.71063923020E+03  0.19456572222E+04  0.10100000352E+00 0. -1.
</event>
<event>
 5   0  0.1628250E-08  0.3796833E+04  0.7818609E-02  0.8046835E-01
       -1   -1    0    0    0  501  0.00000000000E+00  0.00000000000E+00  0.17688747030E+04  0.17688747030E+04  0.50400001928E-02 0. -1.
        1   -1    0    0  501    0  0.00000000000E+00  0.00000000000E+00 -0.20374452355E+04  0.20374452355E+04  0.50400001928E-02 0.  1.
    10030    2    1    2    0    0  0.00000000000E+00  0.00000000000E+00 -0.26857053245E+03  0.38063199385E+04  0.37968330676E+04 0.  0.
        5    1    3    3  502    0  0.17352372889E+04 -0.74433598655E+03 -0.33195485348E+03  0.19171073586E+04  0.46999998093E+01 0. -1.
       -5    1    3    3    0  502 -0.17352372889E+04  0.74433598655E+03  0.63384321027E+02  0.18892125799E+04  0.46999998093E+01 0.  1.
</event>
<event>
 5   0  0.5140842E-08  0.3800691E+04  0.7818609E-02  0.8046007E-01
        2   -1    0    0  501    0  0.00000000000E+00  0.00000000000E+00  0.23726585756E+04  0.23726585756E+04  0.25500000920E-02 0. -1.
       -2   -1    0    0    0  501  0.00000000000E+00  0.00000000000E+00 -0.15220534845E+04  0.15220534845E+04  0.25500000920E-02 0.  1.
    10030    2    1    2    0    0  0.00000000000E+00  0.00000000000E+00  0.85060509113E+03  0.38947120601E+04  0.38006911227E+04 0.  0.
        2    1    3    3  502    0  0.94549423248E+03 -0.81541365633E+03  0.18933819488E+04  0.22679845631E+04  0.25500000920E-02 0. -1.
       -2    1    3    3    0  502 -0.94549423248E+03  0.81541365633E+03 -0.10427768577E+04  0.16267274970E+04  0.25500000920E-02 0.  1.
</event>
<event>
 5   0  0.5147582E-08  0.3777588E+04  0.7818609E-02  0.8050982E-01
       -2   -1    0    0    0  501  0.00000000000E+00  0.00000000000E+00  0.21079035893E+04  0.21079035893E+04  0.25500000920E-02 0. -1.
        2   -1    0    0  501    0  0.00000000000E+00  0.00000000000E+00 -0.16924604445E+04  0.16924604446E+04  0.25500000920E-02 0.  1.
    10030    2    1    2    0    0  0.00000000000E+00  0.00000000000E+00  0.41544314477E+03  0.38003640339E+04  0.37775883555E+04 0.  0.
        1    1    3    3  502    0  0.47410927976E+03  0.18230754516E+04  0.34697481326E+03  0.19154047177E+04  0.50400001928E-02 0. -1.
       -1    1    3    3    0  502 -0.47410927976E+03 -0.18230754516E+04  0.68468331503E+02  0.18849593162E+04  0.50400001928E-02 0.  1.
</event>
<event>
 5   0  0.1628250E-08  0.3800490E+04  0.7818609E-02  0.8046050E-01
       -1   -1    0    0    0  501  0.00000000000E+00  0.00000000000E+00  0.24949911640E+04  0.24949911640E+04  0.50400001928E-02 0. -1.
        1   -1    0    0  501    0  0.00000000000E+00  0.00000000000E+00 -0.14472722186E+04  0.14472722186E+04  0.50400001928E-02 0.  1.
    10030    2    1    2    0    0  0.00000000000E+00  0.00000000000E+00  0.10477189454E+04  0.39422633826E+04  0.38004901774E+04 0.  0.
        1    1    3    3  502    0 -0.12264277754E+04 -0.76995150445E+03  0.18001990396E+04  0.23103391504E+04  0.50400001928E-02 0. -1.
       -1    1    3    3    0  502  0.12264277754E+04  0.76995150445E+03 -0.75248009417E+03  0.16319242322E+04  0.50400001928E-02 0.  1.
</event>
<event>
 5   0  0.1628473E-08  0.3766362E+04  0.7818609E-02  0.8053412E-01
       -1   -1    0    0    0  501  0.00000000000E+00  0.00000000000E+00  0.11224687656E+04  0.11224687656E+04  0.50400001928E-02 0. -1.
        1   -1    0    0  501    0  0.00000000000E+00  0.00000000000E+00 -0.31594388990E+04  0.31594388990E+04  0.50400001928E-02 0.  1.
    10030    2    1    2    0    0  0.00000000000E+00  0.00000000000E+00 -0.20369701333E+04  0.42819076646E+04  0.37663624260E+04 0.  0.
        3    1    3    3  502    0 -0.74274655839E+03  0.94406949394E+03  0.63035832571E+03  0.13565733627E+04  0.10100000352E+00 0. -1.
       -3    1    3    3    0  502  0.74274655839E+03 -0.94406949394E+03 -0.26673284590E+04  0.29253343019E+04  0.10100000352E+00 0.  1.
</event>
<event>
 5   0  0.1628473E-08  0.3795895E+04  0.7818609E-02  0.8047036E-01
        1   -1    0    0  501    0  0.00000000000E+00  0.00000000000E+00  0.23619161740E+04  0.23619161740E+04  0.50400001928E-02 0.  1.
       -1   -1    0    0    0  501  0.00000000000E+00  0.00000000000E+00 -0.15251192667E+04  0.15251192667E+04  0.50400001928E-02 0. -1.
    10030    2    1    2    0    0  0.00000000000E+00  0.00000000000E+00  0.83679690735E+03  0.38870354407E+04  0.37958945524E+04 0.  0.
        3    1    3    3  502    0  0.79863320588E+03  0.65278948038E+03 -0.12130447712E+04  0.15923023363E+04  0.10100000352E+00 0. -1.
       -3    1    3    3    0  502 -0.79863320588E+03 -0.65278948038E+03  0.20498416785E+04  0.22947331044E+04  0.10100000352E+00 0.  1.
</event>
<event>
 5   0  0.1628250E-08  0.3795708E+04  0.7818609E-02  0.8047077E-01
        1   -1    0    0  501    0  0.00000000000E+00  0.00000000000E+00  0.19735967140E+04  0.19735967140E+04  0.50400001928E-02 0.  1.
       -1   -1    0    0    0  501  0.00000000000E+00  0.00000000000E+00 -0.18250179679E+04  0.18250179679E+04  0.50400001928E-02 0. -1.
    10030    2    1    2    0    0  0.00000000000E+00  0.00000000000E+00  0.14857874613E+03  0.37986146819E+04  0.37957078204E+04 0.  0.
        4    1    3    3  502    0  0.10713179391E+04  0.42926418221E+03 -0.14334692158E+04  0.18403329781E+04  0.12699999809E+01 0. -1.
       -4    1    3    3    0  502 -0.10713179391E+04 -0.42926418221E+03  0.15820479619E+04  0.19582817038E+04  0.12699999809E+01 0.  1.
</event>
<event>
 5   0  0.5147582E-08  0.3800454E+04  0.7818609E-02  0.8046057E-01
       -2   -1    0    0    0  501  0.00000000000E+00  0.00000000000E+00  0.11199159038E+04  0.11199159038E+04  0.25500000920E-02 0.  1.
        2   -1    0    0  501    0  0.00000000000E+00  0.00000000000E+00 -0.32242266645E+04  0.32242266645E+04  0.25500000920E-02 0. -1.
    10030    2    1    2    0    0  0.00000000000E+00  0.00000000000E+00 -0.21043107607E+04  0.43441425682E+04  0.38004540355E+04 0.  0.
        1    1    3    3  502    0  0.18872311120E+04  0.21869445760E+03 -0.10094749817E+04  0.21513968194E+04  0.50400001928E-02 0. -1.
       -1    1    3    3    0  502 -0.18872311120E+04 -0.21869445760E+03 -0.10948357790E+04  0.21927457488E+04  0.50400001928E-02 0.  1.
</event>
<event>
 5   0  0.5086209E-08  0.3806489E+04  0.7818609E-02  0.8044764E-01
       -2   -1    0    0    0  501  0.00000000000E+00  0.00000000000E+00  0.16396476372E+04  0.16396476372E+04  0.25500000920E-02 0.  1.
        2   -1    0    0  501    0  0.00000000000E+00  0.00000000000E+00 -0.22092180584E+04  0.22092180584E+04  0.25500000920E-02 0. -1.
    10030    2    1    2    0    0  0.00000000000E+00  0.00000000000E+00 -0.56957042122E+03  0.38488656956E+04  0.38064887598E+04 0.  0.
        3    1    3    3  502    0  0.11785181128E+04  0.11903172079E+04 -0.11984930513E+04  0.20596469604E+04  0.10100000352E+00 0. -1.
       -3    1    3    3    0  502 -0.11785181128E+04 -0.11903172079E+04  0.62892263003E+03  0.17892187352E+04  0.10100000352E+00 0.  1.
</event>
<event>
 5   0  0.1628473E-08  0.3783272E+04  0.7818609E-02  0.8049754E-01
        1   -1    0    0  501    0  0.00000000000E+00  0.00000000000E+00  0.23061193386E+04  0.23061193386E+04  0.50400001928E-02 0. -1.
       -1   -1    0    0    0  501  0.00000000000E+00  0.00000000000E+00 -0.15516489438E+04  0.15516489438E+04  0.50400001928E-02 0.  1.
    10030    2    1    2    0    0  0.00000000000E+00  0.00000000000E+00  0.75447039477E+03  0.38577682824E+04  0.37832724650E+04 0.  0.
        3    1    3    3  502    0  0.95670862179E+03  0.92409475019E+03 -0.99425661524E+03  0.16606591226E+04  0.10100000352E+00 0.  1.
       -3    1    3    3    0  502 -0.95670862179E+03 -0.92409475019E+03  0.17487270100E+04  0.21971091598E+04  0.10100000352E+00 0. -1.
</event>
<event>
 5   0  0.5207474E-08  0.3800114E+04  0.7818609E-02  0.8046131E-01
       -2   -1    0    0    0  501  0.00000000000E+00  0.00000000000E+00  0.18572357562E+04  0.18572357562E+04  0.25500000920E-02 0. -1.
        2   -1    0    0  501    0  0.00000000000E+00  0.00000000000E+00 -0.19438650426E+04  0.19438650426E+04  0.25500000920E-02 0.  1.
    10030    2    1    2    0    0  0.00000000000E+00  0.00000000000E+00 -0.86629286461E+02  0.38011007988E+04  0.38001135048E+04 0.  0.
        4    1    3    3  502    0 -0.35350839779E+03 -0.11512657756E+04  0.14267041998E+04  0.18670478194E+04  0.12699999809E+01 0. -1.
       -4    1    3    3    0  502  0.35350839779E+03  0.11512657756E+04 -0.15133334863E+04  0.19340529794E+04  0.12699999809E+01 0.  1.
</event>
<event>
 5   0  0.1628473E-08  0.3800251E+04  0.7818609E-02  0.8046101E-01
       -1   -1    0    0    0  501  0.00000000000E+00  0.00000000000E+00  0.23646645136E+04  0.23646645136E+04  0.50400001928E-02 0. -1.
        1   -1    0    0  501    0  0.00000000000E+00  0.00000000000E+00 -0.15268454043E+04  0.15268454043E+04  0.50400001928E-02 0.  1.
    10030    2    1    2    0    0  0.00000000000E+00  0.00000000000E+00  0.83781910925E+03  0.38915099179E+04  0.38002511208E+04 0.  0.
        3    1    3    3  502    0 -0.81696677584E+03 -0.16607349503E+03 -0.13295658988E+04  0.15693185171E+04  0.10100000352E+00 0.  1.
       -3    1    3    3    0  502  0.81696677584E+03  0.16607349503E+03  0.21673850081E+04  0.23221914008E+04  0.10100000352E+00 0. -1.
</event>
<event>
 5   0  0.1628473E-08  0.3803152E+04  0.7818609E-02  0.8045479E-01
        1   -1    0    0  501    0  0.00000000000E+00  0.00000000000E+00  0.17625189976E+04  0.17625189976E+04  0.50400001928E-02 0.  1.
       -1   -1    0    0    0  501  0.00000000000E+00  0.00000000000E+00 -0.20516045949E+04  0.20516045949E+04  0.50400001928E-02 0. -1.
    10030    2    1    2    0    0  0.00000000000E+00  0.00000000000E+00 -0.28908559727E+03  0.38141235925E+04  0.38031524156E+04 0.  0.
        3    1    3    3  502    0  0.99641451727E+03 -0.55509123408E+03 -0.16704522754E+04  0.20227157444E+04  0.10100000352E+00 0. -1.
       -3    1    3    3    0  502 -0.99641451727E+03  0.55509123408E+03  0.13813666781E+04  0.17914078480E+04  0.10100000352E+00 0.  1.
</event>
<event>
 5   0  0.5086209E-08  0.3799087E+04  0.7818609E-02  0.8046351E-01
       -2   -1    0    0    0  501  0.00000000000E+00  0.00000000000E+00  0.12980620976E+04  0.12980620976E+04  0.25500000920E-02 0.  1.
        2   -1    0    0  501    0  0.00000000000E+00  0.00000000000E+00 -0.27797330281E+04  0.27797330281E+04  0.25500000920E-02 0. -1.
    10030    2    1    2    0    0  0.00000000000E+00  0.00000000000E+00 -0.14816709305E+04  0.40777951257E+04  0.37990873037E+04 0.  0.
        3    1    3    3  502    0  0.60785506010E+03 -0.63654180441E+03 -0.25476553072E+04  0.26954073565E+04  0.10100000352E+00 0. -1.
       -3    1    3    3    0  502 -0.60785506010E+03  0.63654180441E+03  0.10659843767E+04  0.13823877692E+04  0.10100000352E+00 0.  1.
</event>
<event>
 5   0  0.1628250E-08  0.3788812E+04  0.7818609E-02  0.8048560E-01
        1   -1    0    0  501    0  0.00000000000E+00  0.00000000000E+00  0.19001924842E+04  0.19001924842E+04  0.50400001928E-02 0.  1.
       -1   -1    0    0    0  501  0.00000000000E+00  0.00000000000E+00 -0.18886372721E+04  0.18886372721E+04  0.50400001928E-02 0. -1.
    10030    2    1    2    0    0  0.00000000000E+00  0.00000000000E+00  0.11555212185E+02  0.37888297563E+04  0.37888121357E+04 0.  0.
        4    1    3    3  502    0  0.18236067106E+04  0.19278753080E+03  0.48124198175E+03  0.18958649543E+04  0.12699999809E+01 0.  1.
       -4    1    3    3    0  502 -0.18236067106E+04 -0.19278753080E+03 -0.46968676956E+03  0.18929648020E+04  0.12699999809E+01 0. -1.
</event>
<event>
 5   0  0.1628473E-08  0.3806471E+04  0.7818609E-02  0.8044768E-01
        1   -1    0    0  501    0  0.00000000000E+00  0.00000000000E+00  0.22119077397E+04  0.22119077397E+04  0.50400001928E-02 0.  1.
       -1   -1    0    0    0  501  0.00000000000E+00  0.00000000000E+00 -0.16376385803E+04  0.16376385803E+04  0.50400001928E-02 0. -1.
    10030    2    1    2    0    0  0.00000000000E+00  0.00000000000E+00  0.57426915942E+03  0.38495463200E+04  0.38064710431E+04 0.  0.
        3    1    3    3  502    0 -0.84288030852E+03 -0.15952088029E+04 -0.32566562212E+03  0.18333566066E+04  0.10100000352E+00 0. -1.
       -3    1    3    3    0  502  0.84288030852E+03  0.15952088029E+04  0.89993478154E+03  0.20161897134E+04  0.10100000352E+00 0.  1.
</event>
<event>
 5   0  0.5140842E-08  0.3796481E+04  0.7818609E-02  0.8046910E-01
       -2   -1    0    0    0  501  0.00000000000E+00  0.00000000000E+00  0.16221287905E+04  0.16221287905E+04  0.25500000920E-02 0. -1.
        2   -1    0    0  501    0  0.00000000000E+00  0.00000000000E+00 -0.22213512510E+04  0.22213512510E+04  0.25500000920E-02 0.  1.
    10030    2    1    2    0    0  0.00000000000E+00  0.00000000000E+00 -0.59922246050E+03  0.38434800415E+04  0.37964814332E+04 0.  0.
        2    1    3    3  502    0  0.61912784810E+03 -0.64617091478E+03  0.13951682261E+04  0.16575133551E+04  0.25500000920E-02 0. -1.
       -2    1    3    3    0  502 -0.61912784810E+03  0.64617091478E+03 -0.19943906866E+04  0.21859666864E+04  0.25500000920E-02 0.  1.
</event>
<event>
 5   0  0.1628250E-08  0.3779912E+04  0.7818609E-02  0.8050480E-01
        1   -1    0    0  501    0  0.00000000000E+00  0.00000000000E+00  0.24055283503E+04  0.24055283503E+04  0.50400001928E-02 0. -1.
       -1   -1    0    0    0  501  0.00000000000E+00  0.00000000000E+00 -0.14848852405E+04  0.14848852405E+04  0.50400001928E-02 0.  1.
    10030    2    1    2    0    0  0.00000000000E+00  0.00000000000E+00  0.92064310981E+03  0.38904135907E+04  0.37799119264E+04 0.  0.
        1    1    3    3  502    0 -0.11050195809E+04  0.15122986523E+04  0.20031405515E+03  0.18836775755E+04  0.50400001928E-02 0.  1.
       -1    1    3    3    0  502  0.11050195809E+04 -0.15122986523E+04  0.72032905466E+03  0.20067360152E+04  0.50400001928E-02 0. -1.
</event>
<event>
 5   0  0.5147582E-08  0.3749347E+04  0.7818609E-02  0.8057113E-01
        2   -1    0    0  501    0  0.00000000000E+00  0.00000000000E+00  0.15147626162E+04  0.15147626162E+04  0.25500000920E-02 0.  1.
       -2   -1    0    0    0  501  0.00000000000E+00  0.00000000000E+00 -0.23200995098E+04  0.23200995098E+04  0.25500000920E-02 0. -1.
    10030    2    1    2    0    0  0.00000000000E+00  0.00000000000E+00 -0.80533689361E+03  0.38348621260E+04  0.37493466116E+04 0.  0.
        1    1    3    3  502    0 -0.15864002966E+04 -0.94265854560E+03 -0.74054977195E+03  0.19883875376E+04  0.50400001928E-02 0.  1.
       -1    1    3    3    0  502  0.15864002966E+04  0.94265854560E+03 -0.64787121665E+02  0.18464745885E+04  0.50400001928E-02 0. -1.
</event>
<event>
 5   0  0.1666051E-08  0.3789584E+04  0.7818609E-02  0.8048394E-01
        1   -1    0    0  501    0  0.00000000000E+00  0.00000000000E+00  0.25412316352E+04  0.25412316352E+04  0.50400001928E-02 0.  1.
       -1   -1    0    0    0  501  0.00000000000E+00  0.00000000000E+00 -0.14127941758E+04  0.14127941758E+04  0.50400001928E-02 0. -1.
    10030    2    1    2    0    0  0.00000000000E+00  0.00000000000E+00  0.11284374594E+04  0.39540258109E+04  0.37895842798E+04 0.  0.
        2    1    3    3  502    0  0.31079233087E+03 -0.14091389551E+04 -0.71706314260E+03  0.16113485093E+04  0.25500000920E-02 0. -1.
       -2    1    3    3    0  502 -0.31079233087E+03  0.14091389551E+04  0.18455006020E+04  0.23426773017E+04  0.25500000920E-02 0.  1.
</event>
<event>
 5   0  0.1628250E-08  0.3773429E+04  0.7818609E-02  0.8051881E-01
       -1   -1    0    0    0  501  0.00000000000E+00  0.00000000000E+00  0.21208371206E+04  0.21208371206E+04  0.50400001928E-02 0.  1.
        1   -1    0    0  501    0  0.00000000000E+00  0.00000000000E+00 -0.16784369981E+04  0.16784369981E+04  0.50400001928E-02 0. -1.
    10030    2    1    2    0    0  0.00000000000E+00  0.00000000000E+00  0.44240012258E+03  0.37992741187E+04  0.37734289394E+04 0.  0.
        4    1    3    3  502    0 -0.17974248322E+04 -0.20606759430E+03 -0.31771358926E+03  0.18368841603E+04  0.12699999809E+01 0. -1.
       -4    1    3    3    0  502  0.17974248322E+04  0.20606759430E+03  0.76011371184E+03  0.19623899584E+04  0.12699999809E+01 0.  1.
</event>
<event>
 5   0  0.5086209E-08  0.3800334E+04  0.7818609E-02  0.8046083E-01
        2   -1    0    0  501    0  0.00000000000E+00  0.00000000000E+00  0.25277173191E+04  0.25277173191E+04  0.25500000920E-02 0.  1.
       -2   -1    0    0    0  501  0.00000000000E+00  0.00000000000E+00 -0.14284172302E+04  0.14284172302E+04  0.25500000920E-02 0. -1.
    10030    2    1    2    0    0  0.00000000000E+00  0.00000000000E+00  0.10993000889E+04  0.39561345493E+04  0.38003341810E+04 0.  0.
        3    1    3    3  502    0 -0.17545220843E+04 -0.63822492438E+03  0.18166674709E+03  0.18758149204E+04  0.10100000352E+00 0.  1.
       -3    1    3    3    0  502  0.17545220843E+04  0.63822492438E+03  0.91763334185E+03  0.20803196290E+04  0.10100000352E+00 0. -1.
</event>
<event>
 5   0  0.1628473E-08  0.3798767E+04  0.7818609E-02  0.8046420E-01
       -1   -1    0    0    0  501  0.00000000000E+00  0.00000000000E+00  0.13833248276E+04  0.13833248276E+04  0.50400001928E-02 0. -1.
        1   -1    0    0  501    0  0.00000000000E+00  0.00000000000E+00 -0.26079615173E+04  0.26079615173E+04  0.50400001928E-02 0.  1.
    10030    2    1    2    0    0  0.00000000000E+00  0.00000000000E+00 -0.12246366897E+04  0.39912863449E+04  0.37987671243E+04 0.  0.
        3    1    3    3  502    0  0.12391505632E+04 -0.23431606768E+03 -0.21046011299E+04  0.24535166729E+04  0.10100000352E+00 0.  1.
       -3    1    3    3    0  502 -0.12391505632E+04  0.23431606768E+03  0.87996444021E+03  0.15377696720E+04  0.10100000352E+00 0. -1.
</event>
<event>
 5   0  0.5140842E-08  0.3802806E+04  0.7818609E-02  0.8045553E-01
       -2   -1    0    0    0  501  0.00000000000E+00  0.00000000000E+00  0.17805483593E+04  0.17805483593E+04  0.25500000920E-02 0.  1.
        2   -1    0    0  501    0  0.00000000000E+00  0.00000000000E+00 -0.20304609552E+04  0.20304609552E+04  0.25500000920E-02 0. -1.
    10030    2    1    2    0    0  0.00000000000E+00  0.00000000000E+00 -0.24991259596E+03  0.38110093145E+04  0.38028062914E+04 0.  0.
        2    1    3    3  502    0 -0.61351110155E+03  0.78624076146E+03 -0.17473256129E+04  0.20118939347E+04  0.25500000920E-02 0. -1.
       -2    1    3    3    0  502  0.61351110155E+03 -0.78624076146E+03  0.14974130170E+04  0.17991153799E+04  0.25500000920E-02 0.  1.
</event>
<event>
 5   0  0.5086209E-08  0.3780513E+04  0.7818609E-02  0.8050350E-01
        2   -1    0    0  501    0  0.00000000000E+00  0.00000000000E+00  0.29649010616E+04  0.29649010616E+04  0.25500000920E-02 0. -1.
       -2   -1    0    0    0  501  0.00000000000E+00  0.00000000000E+00 -0.12051225374E+04  0.12051225374E+04  0.25500000920E-02 0.  1.
    10030    2    1    2    0    0  0.00000000000E+00  0.00000000000E+00  0.17597785241E+04  0.41700235990E+04  0.37805127116E+04 0.  0.
        3    1    3    3  502    0  0.25216020663E+03 -0.14915739734E+04 -0.37033296938E+03  0.15574094536E+04  0.10100000352E+00 0.  1.
       -3    1    3    3    0  502 -0.25216020663E+03  0.14915739734E+04  0.21301114935E+04  0.26126141454E+04  0.10100000352E+00 0. -1.
</event>
<event>
 5   0  0.5140842E-08  0.3793101E+04  0.7818609E-02  0.8047637E-01
        2   -1    0    0  501    0  0.00000000000E+00  0.00000000000E+00  0.20309088630E+04  0.20309088630E+04  0.25500000920E-02 0. -1.
       -2   -1    0    0    0  501  0.00000000000E+00  0.00000000000E+00 -0.17710810513E+04  0.17710810513E+04  0.25500000920E-02 0.  1.
    10030    2    1    2    0    0  0.00000000000E+00  0.00000000000E+00  0.25982781168E+03  0.38019899143E+04  0.37931012136E+04 0.  0.
        2    1    3    3  502    0  0.10951633263E+04  0.87188502023E+02 -0.14196453189E+04  0.17950981527E+04  0.25500000920E-02 0.  1.
       -2    1    3    3    0  502 -0.10951633263E+04 -0.87188502023E+02  0.16794731306E+04  0.20068917616E+04  0.25500000920E-02 0. -1.
</event>
<event>
 5   0  0.5140842E-08  0.3797125E+04  0.7818609E-02  0.8046772E-01
       -2   -1    0    0    0  501  0.00000000000E+00  0.00000000000E+00  0.12483960245E+04  0.12483960245E+04  0.25500000920E-02 0. -1.
        2   -1    0    0  501    0  0.00000000000E+00  0.00000000000E+00 -0.28873361275E+04  0.28873361275E+04  0.25500000920E-02 0.  1.
    10030    2    1    2    0    0  0.00000000000E+00  0.00000000000E+00 -0.16389401030E+04  0.41357321520E+04  0.37971246716E+04 0.  0.
        2    1    3    3  502    0  0.47569121536E+03 -0.21113938416E+03 -0.28081244038E+04  0.28559454896E+04  0.25500000920E-02 0.  1.
       -2    1    3    3    0  502 -0.47569121536E+03  0.21113938416E+03  0.11691843008E+04  0.12797866624E+04  0.25500000920E-02 0. -1.
</event>
<event>
 5   0  0.1628250E-08  0.3790900E+04  0.7818609E-02  0.8048111E-01
       -1   -1    0    0    0  501  0.00000000000E+00  0.00000000000E+00  0.31151232966E+04  0.31151232966E+04  0.50400001928E-02 0. -1.
        1   -1    0    0  501    0  0.00000000000E+00  0.00000000000E+00 -0.11533187803E+04  0.11533187804E+04  0.50400001928E-02 0.  1.
    10030    2    1    2    0    0  0.00000000000E+00  0.00000000000E+00  0.19618045162E+04  0.42684420770E+04  0.37908997355E+04 0.  0.
        5    1    3    3  502    0  0.98178375240E+03 -0.11688442530E+04  0.22461105549E+04  0.27157192305E+04  0.46999998093E+01 0. -1.
       -5    1    3    3    0  502 -0.98178375240E+03  0.11688442530E+04 -0.28430603867E+03  0.15527228464E+04  0.46999998093E+01 0.  1.
</event>
<event>
 5   0  0.1628250E-08  0.3790462E+04  0.7818609E-02  0.8048205E-01
       -1   -1    0    0    0  501  0.00000000000E+00  0.00000000000E+00  0.17639895536E+04  0.17639895536E+04  0.50400001928E-02 0.  1.
        1   -1    0    0  501    0  0.00000000000E+00  0.00000000000E+00 -0.20362369489E+04  0.20362369489E+04  0.50400001928E-02 0. -1.
    10030    2    1    2    0    0  0.00000000000E+00  0.00000000000E+00 -0.27224739527E+03  0.38002265026E+04  0.37904620861E+04 0.  0.
        1    1    3    3  502    0 -0.76493759700E+03 -0.75591857782E+03 -0.17007072362E+04  0.20121996737E+04  0.50400001928E-02 0. -1.
       -1    1    3    3    0  502  0.76493759700E+03  0.75591857782E+03  0.14284598409E+04  0.17880268289E+04  0.50400001928E-02 0.  1.
</event>
<event>
 5   0  0.5140842E-08  0.3813948E+04  0.7818609E-02  0.8043168E-01
       -2   -1    0    0    0  501  0.00000000000E+00  0.00000000000E+00  0.14372618577E+04  0.14372618577E+04  0.25500000920E-02 0. -1.
        2   -1    0    0  501    0  0.00000000000E+00  0.00000000000E+00 -0.25301931142E+04  0.25301931142E+04  0.25500000920E-02 0.  1.
    10030    2    1    2    0    0  0.00000000000E+00  0.00000000000E+00 -0.10929312565E+04  0.39674549719E+04  0.38139481149E+04 0.  0.
        2    1    3    3  502    0  0.59844516831E+03 -0.16333478195E+04  0.26638637062E+03  0.17598077785E+04  0.25500000920E-02 0. -1.
       -2    1    3    3    0  502 -0.59844516831E+03  0.16333478195E+04 -0.13593176272E+04  0.22076471934E+04  0.25500000920E-02 0.  1.
</event>
<event>
 5   0  0.5140842E-08  0.3795462E+04  0.7818609E-02  0.8047129E-01
        2   -1    0    0  501    0  0.00000000000E+00  0.00000000000E+00  0.23582520638E+04  0.23582520638E+04  0.25500000920E-02 0. -1.
       -2   -1    0    0    0  501  0.00000000000E+00  0.00000000000E+00 -0.15271405859E+04  0.15271405859E+04  0.25500000920E-02 0.  1.
    10030    2    1    2    0    0  0.00000000000E+00  0.00000000000E+00  0.83111147786E+03  0.38853926497E+04  0.37954617313E+04 0.  0.
        2    1    3    3  502    0  0.66939344499E+02  0.10951333335E+04  0.20006579163E+04  0.22817602836E+04  0.25500000920E-02 0. -1.
       -2    1    3    3    0  502 -0.66939344499E+02 -0.10951333335E+04 -0.11695464384E+04  0.16036323661E+04  0.25500000920E-02 0.  1.
</event>
<event>
 5   0  0.5086209E-08  0.3803370E+04  0.7818609E-02  0.8045432E-01
       -2   -1    0    0    0  501  0.00000000000E+00  0.00000000000E+00  0.14093193044E+04  0.14093193044E+04  0.25500000920E-02 0.  1.
        2   -1    0    0  501    0  0.00000000000E+00  0.00000000000E+00 -0.25660658747E+04  0.25660658747E+04  0.25500000920E-02 0. -1.
    10030    2    1    2    0    0  0.00000000000E+00  0.00000000000E+00 -0.11567465703E+04  0.39753851790E+04  0.38033701757E+04 0.  0.
        3    1    3    3  502    0 -0.23761712760E+02 -0.13912810263E+04 -0.19332143408E+04  0.23819204879E+04  0.10100000352E+00 0. -1.
       -3    1    3    3    0  502  0.23761712760E+02  0.13912810263E+04  0.77646777052E+03  0.15934646911E+04  0.10100000352E+00 0.  1.
</event>
<event>
 5   0  0.1666051E-08  0.3805913E+04  0.7818609E-02  0.8044887E-01
       -1   -1    0    0    0  501  0.00000000000E+00  0.00000000000E+00  0.14892337173E+04  0.14892337173E+04  0.50400001928E-02 0. -1.
        1   -1    0    0  501    0  0.00000000000E+00  0.00000000000E+00 -0.24316153961E+04  0.24316153961E+04  0.50400001928E-02 0.  1.
    10030    2    1    2    0    0  0.00000000000E+00  0.00000000000E+00 -0.94238167877E+03  0.39208491134E+04  0.38059131022E+04 0.  0.
        2    1    3    3  502    0 -0.88855049904E+03 -0.16076175474E+04 -0.98348843181E+03  0.20835560140E+04  0.25500000920E-02 0. -1.
       -2    1    3    3    0  502  0.88855049904E+03  0.16076175474E+04  0.41106753037E+02  0.18372930994E+04  0.25500000920E-02 0.  1.
</event>
<event>
 5   0  0.1628250E-08  0.3808864E+04  0.7818609E-02  0.8044255E-01
       -1   -1    0    0    0  501  0.00000000000E+00  0.00000000000E+00  0.14848247317E+04  0.14848247317E+04  0.50400001928E-02 0. -1.
        1   -1    0    0  501    0  0.00000000000E+00  0.00000000000E+00 -0.24426193989E+04  0.24426193989E+04  0.50400001928E-02 0.  1.
    10030    2    1    2    0    0  0.00000000000E+00  0.00000000000E+00 -0.95779466719E+03  0.39274441306E+04  0.38088642368E+04 0.  0.
        1    1    3    3  502    0  0.13025076710E+04  0.62841864905E+03  0.79880265807E+03  0.16521264836E+04  0.50400001928E-02 0. -1.
       -1    1    3    3    0  502 -0.13025076710E+04 -0.62841864905E+03 -0.17565973253E+04  0.22753176469E+04  0.50400001928E-02 0.  1.
</event>
<event>
 5   0  0.5140842E-08  0.3800026E+04  0.7818609E-02  0.8046149E-01
        2   -1    0    0  501    0  0.00000000000E+00  0.00000000000E+00  0.17997364029E+04  0.17997364029E+04  0.25500000920E-02 0.  1.
       -2   -1    0    0    0  501  0.00000000000E+00  0.00000000000E+00 -0.20058767309E+04  0.20058767309E+04  0.25500000920E-02 0. -1.
    10030    2    1    2    0    0  0.00000000000E+00  0.00000000000E+00 -0.20614032797E+03  0.38056131338E+04  0.38000259854E+04 0.  0.
        2    1    3    3  502    0  0.13703296559E+04 -0.98832831930E+03  0.76737584035E+03  0.18556567336E+04  0.25500000920E-02 0.  1.
       -2    1    3    3    0  502 -0.13703296559E+04  0.98832831930E+03 -0.97351616832E+03  0.19499564002E+04  0.25500000920E-02 0. -1.
</event>
<event>
 5   0  0.5159761E-08  0.3800463E+04  0.7818609E-02  0.8046056E-01
       -2   -1    0    0    0  501  0.00000000000E+00  0.00000000000E+00  0.20899559221E+04  0.20899559221E+04  0.25500000920E-02 0. -1.
        2   -1    0    0  501    0  0.00000000000E+00  0.00000000000E+00 -0.17277301613E+04  0.17277301613E+04  0.25500000920E-02 0.  1.
    10030    2    1    2    0    0  0.00000000000E+00  0.00000000000E+00  0.36222576081E+03  0.38176860834E+04  0.38004630678E+04 0.  0.
        5    1    3    3  502    0  0.84959770119E+03 -0.55639841680E+03  0.17944617687E+04  0.20619191500E+04  0.46999998093E+01 0. -1.
       -5    1    3    3    0  502 -0.84959770119E+03  0.55639841680E+03 -0.14322360078E+04  0.17557669334E+04  0.46999998093E+01 0.  1.
</event>
<event>
 5   0  0.1666051E-08  0.3810156E+04  0.7818609E-02  0.8043979E-01
       -1   -1    0    0    0  501  0.00000000000E+00  0.00000000000E+00  0.12929055371E+04  0.12929055371E+04  0.50400001928E-02 0.  1.
        1   -1    0    0  501    0  0.00000000000E+00  0.00000000000E+00 -0.28071055005E+04  0.28071055005E+04  0.50400001928E-02 0. -1.
    10030    2    1    2    0    0  0.00000000000E+00  0.00000000000E+00 -0.15141999634E+04  0.41000110377E+04  0.38101560309E+04 0.  0.
        2    1    3    3  502    0 -0.22194004570E+03  0.13299994810E+04  0.69107627328E+03  0.15151707556E+04  0.25500000920E-02 0.  1.
       -2    1    3    3    0  502  0.22194004570E+03 -0.13299994810E+04 -0.22052762367E+04  0.25848402820E+04  0.25500000920E-02 0. -1.
</event>
<event>
 5   0  0.1628250E-08  0.3805045E+04  0.7818609E-02  0.8045073E-01
        1   -1    0    0  501    0  0.00000000000E+00  0.00000000000E+00  0.23497178786E+04  0.23497178786E+04  0.50400001928E-02 0.  1.
       -1   -1    0    0    0  501  0.00000000000E+00  0.00000000000E+00 -0.15404365130E+04  0.15404365130E+04  0.50400001928E-02 0. -1.
    10030    2    1    2    0    0  0.00000000000E+00  0.00000000000E+00  0.80928136552E+03  0.38901543916E+04  0.38050446597E+04 0.  0.
        5    1    3    3  502    0 -0.76551873804E+03  0.45530948731E+03 -0.13141059663E+04  0.15875207867E+04  0.46999998093E+01 0. -1.
       -5    1    3    3    0  502  0.76551873804E+03 -0.45530948731E+03  0.21233873318E+04  0.23026336049E+04  0.46999998093E+01 0.  1.
</event>
<event>
 5   0  0.5207474E-08  0.3794206E+04  0.7818609E-02  0.8047399E-01
        2   -1    0    0  501    0  0.00000000000E+00  0.00000000000E+00  0.17896499571E+04  0.17896499571E+04  0.25500000920E-02 0. -1.
       -2   -1    0    0    0  501  0.00000000000E+00  0.00000000000E+00 -0.20110079266E+04  0.20110079266E+04  0.25500000920E-02 0.  1.
    10030    2    1    2    0    0  0.00000000000E+00  0.00000000000E+00 -0.22135796958E+03  0.38006578837E+04  0.37942062409E+04 0.  0.
        4    1    3    3  502    0  0.75512518520E+03 -0.12054964233E+04  0.11466696835E+04  0.18270984231E+04  0.12699999809E+01 0. -1.
       -4    1    3    3    0  502 -0.75512518520E+03  0.12054964233E+04 -0.13680276531E+04  0.19735594606E+04  0.12699999809E+01 0.  1.
</event>
<event>
 5   0  0.1628473E-08  0.3791652E+04  0.7818609E-02  0.8047949E-01
       -1   -1    0    0    0  501  0.00000000000E+00  0.00000000000E+00  0.17297525987E+04  0.17297525987E+04  0.50400001928E-02 0. -1.
        1   -1    0    0  501    0  0.00000000000E+00  0.00000000000E+00 -0.20778442789E+04  0.20778442789E+04  0.50400001928E-02 0.  1.
    10030    2    1    2    0    0  0.00000000000E+00  0.00000000000E+00 -0.34809168018E+03  0.38075968777E+04  0.37916521682E+04 0.  0.
        3    1    3    3  502    0  0.88734907292E+03 -0.11224682101E+04 -0.14229934593E+04  0.20179776151E+04  0.10100000352E+00 0.  1.
       -3    1    3    3    0  502 -0.88734907292E+03  0.11224682101E+04  0.10749017791E+04  0.17896192625E+04  0.10100000352E+00 0. -1.
</event>
<event>
 5   0  0.1666051E-08  0.3794034E+04  0.7818609E-02  0.8047436E-01
        1   -1    0    0  501    0  0.00000000000E+00  0.00000000000E+00  0.23841858452E+04  0.23841858452E+04  0.50400001928E-02 0.  1.
       -1   -1    0    0    0  501  0.00000000000E+00  0.00000000000E+00 -0.15093931087E+04  0.15093931088E+04  0.50400001928E-02 0. -1.
    10030    2    1    2    0    0  0.00000000000E+00  0.00000000000E+00  0.87479273644E+03  0.38935789539E+04  0.37940340983E+04 0.  0.
        2    1    3    3  502    0 -0.14085600023E+04 -0.12666741382E+04  0.33390894704E+03  0.19235383639E+04  0.25500000920E-02 0.  1.
       -2    1    3    3    0  502  0.14085600023E+04  0.12666741382E+04  0.54088378940E+03  0.19700405900E+04  0.25500000920E-02 0. -1.
</event>
<event>
 5   0  0.5140842E-08  0.3799562E+04  0.7818609E-02  0.8046249E-01
        2   -1    0    0  501    0  0.00000000000E+00  0.00000000000E+00  0.14368292624E+04  0.14368292624E+04  0.25500000920E-02 0.  1.
       -2   -1    0    0    0  501  0.00000000000E+00  0.00000000000E+00 -0.25118973432E+04  0.25118973432E+04  0.25500000920E-02 0. -1.
    10030    2    1    2    0    0  0.00000000000E+00  0.00000000000E+00 -0.10750680808E+04  0.39487266056E+04  0.37995618731E+04 0.  0.
        2    1    3    3  502    0  0.13000518811E+04  0.12167188530E+04 -0.12258244114E+04  0.21617551083E+04  0.25500000920E-02 0. -1.
       -2    1    3    3    0  502 -0.13000518811E+04 -0.12167188530E+04  0.15075633051E+03  0.17869714973E+04  0.25500000920E-02 0.  1.
</event>
<event>
 5   0  0.5086209E-08  0.3801685E+04  0.7818609E-02  0.8045793E-01
        2   -1    0    0  501    0  0.00000000000E+00  0.00000000000E+00  0.18849703672E+04  0.18849703672E+04  0.25500000920E-02 0. -1.
       -2   -1    0    0    0  501  0.00000000000E+00  0.00000000000E+00 -0.19168482417E+04  0.19168482417E+04  0.25500000920E-02 0.  1.
    10030    2    1    2    0    0  0.00000000000E+00  0.00000000000E+00 -0.31877874589E+02  0.38018186089E+04  0.38016849601E+04 0.  0.
        3    1    3    3  502    0  0.15401952357E+04 -0.89650681445E+03 -0.67723088257E+03  0.19064541723E+04  0.10100000352E+00 0.  1.
       -3    1    3    3    0  502 -0.15401952357E+04  0.89650681445E+03  0.64535300798E+03  0.18953644366E+04  0.10100000352E+00 0. -1.
</event>
<event>
 5   0  0.1628250E-08  0.3804359E+04  0.7818609E-02  0.8045220E-01
       -1   -1    0    0    0  501  0.00000000000E+00  0.00000000000E+00  0.11832554013E+04  0.11832554013E+04  0.50400001928E-02 0. -1.
        1   -1    0    0  501    0  0.00000000000E+00  0.00000000000E+00 -0.30579082847E+04  0.30579082847E+04  0.50400001928E-02 0.  1.
    10030    2    1    2    0    0  0.00000000000E+00  0.00000000000E+00 -0.18746528834E+04  0.42411636860E+04  0.38043588130E+04 0.  0.
        4    1    3    3  502    0  0.59822874400E+03 -0.14800582408E+04  0.21576018301E+03  0.16109016406E+04  0.12699999809E+01 0. -1.
       -4    1    3    3    0  502 -0.59822874400E+03  0.14800582408E+04 -0.20904130664E+04  0.26302620454E+04  0.12699999809E+01 0.  1.
</event>
<event>
 5   0  0.5086209E-08  0.3796449E+04  0.7818609E-02  0.8046917E-01
       -2   -1    0    0    0  501  0.00000000000E+00  0.00000000000E+00  0.14515887066E+04  0.14515887066E+04  0.25500000920E-02 0. -1.
        2   -1    0    0  501    0  0.00000000000E+00  0.00000000000E+00 -0.24822845006E+04  0.24822845006E+04  0.25500000920E-02 0.  1.
    10030    2    1    2    0    0  0.00000000000E+00  0.00000000000E+00 -0.10306957940E+04  0.39338732072E+04  0.37964489448E+04 0.  0.
        3    1    3    3  502    0 -0.11086922112E+04  0.11591938693E+04 -0.15671411876E+04  0.22425120641E+04  0.10100000352E+00 0.  1.
       -3    1    3    3    0  502  0.11086922112E+04 -0.11591938693E+04  0.53644539355E+03  0.16913611431E+04  0.10100000352E+00 0. -1.
</event>
<event>
 5   0  0.1628473E-08  0.3855478E+04  0.7818609E-02  0.8034353E-01
        1   -1    0    0  501    0  0.00000000000E+00  0.00000000000E+00  0.24090899034E+04  0.24090899034E+04  0.50400001928E-02 0. -1.
       -1   -1    0    0    0  501  0.00000000000E+00  0.00000000000E+00 -0.15425650896E+04  0.15425650896E+04  0.50400001928E-02 0.  1.
    10030    2    1    2    0    0  0.00000000000E+00  0.00000000000E+00  0.86652481384E+03  0.39516549930E+04  0.38554781715E+04 0.  0.
        3    1    3    3  502    0  0.62325167492E+03  0.12404691288E+03  0.22986484819E+04  0.23848721434E+04  0.10100000352E+00 0. -1.
       -3    1    3    3    0  502 -0.62325167492E+03 -0.12404691288E+03 -0.14321236681E+04  0.15667828496E+04  0.10100000352E+00 0.  1.
</event>
<event>
 5   0  0.5140842E-08  0.3798801E+04  0.7818609E-02  0.8046412E-01
       -2   -1    0    0    0  501  0.00000000000E+00  0.00000000000E+00  0.27294456188E+04  0.27294456188E+04  0.25500000920E-02 0.  1.
        2   -1    0    0  501    0  0.00000000000E+00  0.00000000000E+00 -0.13217782289E+04  0.13217782289E+04  0.25500000920E-02 0. -1.
    10030    2    1    2    0    0  0.00000000000E+00  0.00000000000E+00  0.14076673899E+04  0.40512238477E+04  0.37988007560E+04 0.  0.
        2    1    3    3  502    0 -0.70558862448E+03  0.17475115388E+04  0.45130853363E+03  0.19378677142E+04  0.25500000920E-02 0.  1.
       -2    1    3    3    0  502  0.70558862448E+03 -0.17475115388E+04  0.95635885626E+03  0.21133561335E+04  0.25500000920E-02 0. -1.
</event>
<event>
 5   0  0.5086209E-08  0.3801654E+04  0.7818609E-02  0.8045800E-01
        2   -1    0    0  501    0  0.00000000000E+00  0.00000000000E+00  0.14096029999E+04  0.14096029999E+04  0.25500000920E-02 0.  1.
       -2   -1    0    0    0  501  0.00000000000E+00  0.00000000000E+00 -0.25632352189E+04  0.25632352189E+04  0.25500000920E-02 0. -1.
    10030    2    1    2    0    0  0.00000000000E+00  0.00000000000E+00 -0.11536322190E+04  0.39728382189E+04  0.38016544052E+04 0.  0.
        3    1    3    3  502    0 -0.11921011068E+03  0.18812814873E+04 -0.32145042214E+03  0.19122660560E+04  0.10100000352E+00 0.  1.
       -3    1    3    3    0  502  0.11921011068E+03 -0.18812814873E+04 -0.83218179688E+03  0.20605721628E+04  0.10100000352E+00 0. -1.
</event>
<event>
 5   0  0.5147582E-08  0.3821737E+04  0.7818609E-02  0.8041506E-01
        2   -1    0    0  501    0  0.00000000000E+00  0.00000000000E+00  0.28410905936E+04  0.28410905936E+04  0.25500000920E-02 0. -1.
       -2   -1    0    0    0  501  0.00000000000E+00  0.00000000000E+00 -0.12852173639E+04  0.12852173639E+04  0.25500000920E-02 0.  1.
    10030    2    1    2    0    0  0.00000000000E+00  0.00000000000E+00  0.15558732297E+04  0.41263079575E+04  0.38217372821E+04 0.  0.
        1    1    3    3  502    0 -0.95346570658E+03 -0.12156799430E+04  0.19920260352E+04  0.25209407574E+04  0.50400001928E-02 0. -1.
       -1    1    3    3    0  502  0.95346570658E+03  0.12156799430E+04 -0.43615280553E+03  0.16053672001E+04  0.50400001928E-02 0.  1.
</event>
<event>
 5   0  0.1628250E-08  0.3796402E+04  0.7818609E-02  0.8046927E-01
        1   -1    0    0  501    0  0.00000000000E+00  0.00000000000E+00  0.24645519953E+04  0.24645519953E+04  0.50400001928E-02 0. -1.
       -1   -1    0    0    0  501  0.00000000000E+00  0.00000000000E+00 -0.14619968306E+04  0.14619968306E+04  0.50400001928E-02 0.  1.
    10030    2    1    2    0    0  0.00000000000E+00  0.00000000000E+00  0.10025551647E+04  0.39265488259E+04  0.37964020893E+04 0.  0.
        1    1    3    3  502    0 -0.13156013666E+04  0.13530429283E+03 -0.90703763060E+03  0.16036930725E+04  0.50400001928E-02 0.  1.
       -1    1    3    3    0  502  0.13156013666E+04 -0.13530429283E+03  0.19095927953E+04  0.23228557534E+04  0.50400001928E-02 0. -1.
</event>
<event>
 5   0  0.5086209E-08  0.3806284E+04  0.7818609E-02  0.8044808E-01
        2   -1    0    0  501    0  0.00000000000E+00  0.00000000000E+00  0.24742689703E+04  0.24742689703E+04  0.25500000920E-02 0.  1.
       -2   -1    0    0    0  501  0.00000000000E+00  0.00000000000E+00 -0.14638461210E+04  0.14638461210E+04  0.25500000920E-02 0. -1.
    10030    2    1    2    0    0  0.00000000000E+00  0.00000000000E+00  0.10104228493E+04  0.39381150913E+04  0.38062837700E+04 0.  0.
        3    1    3    3  502    0 -0.31669410333E+03 -0.15076045135E+03  0.24405393689E+04  0.24656147895E+04  0.10100000352E+00 0.  1.
       -3    1    3    3    0  502  0.31669410333E+03  0.15076045135E+03 -0.14301165196E+04  0.14725003018E+04  0.10100000352E+00 0. -1.
</event>
<event>
 5   0  0.1628250E-08  0.3799731E+04  0.7818609E-02  0.8046213E-01
       -1   -1    0    0    0  501  0.00000000000E+00  0.00000000000E+00  0.10253478517E+04  0.10253478517E+04  0.50400001928E-02 0.  1.
        1   -1    0    0  501    0  0.00000000000E+00  0.00000000000E+00 -0.35202579755E+04  0.35202579755E+04  0.50400001928E-02 0. -1.
    10030    2    1    2    0    0  0.00000000000E+00  0.00000000000E+00 -0.24949101239E+04  0.45456058272E+04  0.37997310182E+04 0.  0.
        4    1    3    3  502    0 -0.10651074495E+04 -0.90460067331E+03  0.29234711451E+03  0.14276640730E+04  0.12699999809E+01 0.  1.
       -4    1    3    3    0  502  0.10651074495E+04  0.90460067331E+03 -0.27872572384E+04  0.31179417542E+04  0.12699999809E+01 0. -1.
</event>
<event>
 5   0  0.5159761E-08  0.3808812E+04  0.7818609E-02  0.8044266E-01
        2   -1    0    0  501    0  0.00000000000E+00  0.00000000000E+00  0.16346633681E+04  0.16346633681E+04  0.25500000920E-02 0. -1.
       -2   -1    0    0    0  501  0.00000000000E+00  0.00000000000E+00 -0.22186599768E+04  0.22186599768E+04  0.25500000920E-02 0.  1.
    10030    2    1    2    0    0  0.00000000000E+00  0.00000000000E+00 -0.58399660869E+03  0.38533233448E+04  0.38088119881E+04 0.  0.
        5    1    3    3  502    0 -0.99795977803E+03  0.44484184333E+03 -0.18700125295E+04  0.21658201529E+04  0.46999998093E+01 0.  1.
       -5    1    3    3    0  502  0.99795977803E+03 -0.44484184333E+03  0.12860159208E+04  0.16875031919E+04  0.46999998093E+01 0. -1.
</event>
<event>
 5   0  0.1628250E-08  0.3782660E+04  0.7818609E-02  0.8049886E-01
        1   -1    0    0  501    0  0.00000000000E+00  0.00000000000E+00  0.18531516828E+04  0.18531516829E+04  0.50400001928E-02 0. -1.
       -1   -1    0    0    0  501  0.00000000000E+00  0.00000000000E+00 -0.19302949725E+04  0.19302949725E+04  0.50400001928E-02 0.  1.
    10030    2    1    2    0    0  0.00000000000E+00  0.00000000000E+00 -0.77143289625E+02  0.37834466553E+04  0.37826601098E+04 0.  0.
        4    1    3    3  502    0  0.72387248863E+03 -0.82743068112E+03  0.15007398694E+04  0.18603372491E+04  0.12699999809E+01 0. -1.
       -4    1    3    3    0  502 -0.72387248863E+03  0.82743068112E+03 -0.15778831590E+04  0.19231094062E+04  0.12699999809E+01 0.  1.
</event>
<event>
 5   0  0.1628250E-08  0.3795037E+04  0.7818609E-02  0.8047221E-01
        1   -1    0    0  501    0  0.00000000000E+00  0.00000000000E+00  0.14659091357E+04  0.14659091357E+04  0.50400001928E-02 0.  1.
       -1   -1    0    0    0  501  0.00000000000E+00  0.00000000000E+00 -0.24562067519E+04  0.24562067519E+04  0.50400001928E-02 0. -1.
    10030    2    1    2    0    0  0.00000000000E+00  0.00000000000E+00 -0.99029761625E+03  0.39221158876E+04  0.37950367148E+04 0.  0.
        5    1    3    3  502    0  0.51836957713E+03 -0.14873585132E+04 -0.15886974555E+04  0.22371687599E+04  0.46999998093E+01 0. -1.
       -5    1    3    3    0  502 -0.51836957713E+03  0.14873585132E+04  0.59839983923E+03  0.16849471277E+04  0.46999998093E+01 0.  1.
</event>
<event>
 5   0  0.5147582E-08  0.3803651E+04  0.7818609E-02  0.8045372E-01
       -2   -1    0    0    0  501  0.00000000000E+00  0.00000000000E+00  0.16960646718E+04  0.16960646718E+04  0.25500000920E-02 0.  1.
        2   -1    0    0  501    0  0.00000000000E+00  0.00000000000E+00 -0.21325484237E+04  0.21325484237E+04  0.25500000920E-02 0. -1.
    10030    2    1    2    0    0  0.00000000000E+00  0.00000000000E+00 -0.43648375188E+03  0.38286130955E+04  0.38036509001E+04 0.  0.
        1    1    3    3  502    0 -0.14702106598E+04  0.33943992701E+02  0.99560281520E+03  0.17759213227E+04  0.50400001928E-02 0.  1.
       -1    1    3    3    0  502  0.14702106598E+04 -0.33943992701E+02 -0.14320865671E+04  0.20526917729E+04  0.50400001928E-02 0. -1.
</event>
<event>
 5   0  0.5207474E-08  0.3797624E+04  0.7818609E-02  0.8046665E-01
        2   -1    0    0  501    0  0.00000000000E+00  0.00000000000E+00  0.26908663800E+04  0.26908663800E+04  0.25500000920E-02 0. -1.
       -2   -1    0    0    0  501  0.00000000000E+00  0.00000000000E+00 -0.13398979255E+04  0.13398979255E+04  0.25500000920E-02 0.  1.
    10030    2    1    2    0    0  0.00000000000E+00  0.00000000000E+00  0.13509684545E+04  0.40307643055E+04  0.37976236151E+04 0.  0.
        4    1    3    3  502    0  0.51910091068E+03  0.17946966086E+04  0.31541909869E+03  0.18947011619E+04  0.12699999809E+01 0.  1.
       -4    1    3    3    0  502 -0.51910091068E+03 -0.17946966086E+04  0.10355493558E+04  0.21360631436E+04  0.12699999809E+01 0. -1.
</event>
<event>
 5   0  0.5086209E-08  0.3793056E+04  0.7818609E-02  0.8047647E-01
        2   -1    0    0  501    0  0.00000000000E+00  0.00000000000E+00  0.14806799802E+04  0.14806799802E+04  0.25500000920E-02 0. -1.
       -2   -1    0    0    0  501  0.00000000000E+00  0.00000000000E+00 -0.24291661439E+04  0.24291661439E+04  0.25500000920E-02 0.  1.
    10030    2    1    2    0    0  0.00000000000E+00  0.00000000000E+00 -0.94848616369E+03  0.39098461241E+04  0.37930555904E+04 0.  0.
        3    1    3    3  502    0 -0.11209076606E+03  0.13475392541E+04  0.89651129448E+03  0.16223929526E+04  0.10100000352E+00 0. -1.
       -3    1    3    3    0  502  0.11209076606E+03 -0.13475392541E+04 -0.18449974582E+04  0.22874531716E+04  0.10100000352E+00 0.  1.
</event>
<event>
 5   0  0.1628250E-08  0.3782907E+04  0.7818609E-02  0.8049833E-01
        1   -1    0    0  501    0  0.00000000000E+00  0.00000000000E+00  0.23919002499E+04  0.23919002500E+04  0.50400001928E-02 0.  1.
       -1   -1    0    0    0  501  0.00000000000E+00  0.00000000000E+00 -0.14957133766E+04  0.14957133766E+04  0.50400001928E-02 0. -1.
    10030    2    1    2    0    0  0.00000000000E+00  0.00000000000E+00  0.89618687334E+03  0.38876136266E+04  0.37829074529E+04 0.  0.
        4    1    3    3  502    0 -0.33858303255E+03  0.21776335839E+03  0.23473639586E+04  0.23816335816E+04  0.12699999809E+01 0.  1.
       -4    1    3    3    0  502  0.33858303255E+03 -0.21776335839E+03 -0.14511770852E+04  0.15059800450E+04  0.12699999809E+01 0. -1.
</event>
<event>
 5   0  0.1666051E-08  0.3799061E+04  0.7818609E-02  0.8046356E-01
       -1   -1    0    0    0  501  0.00000000000E+00  0.00000000000E+00  0.13087799434E+04  0.13087799434E+04  0.50400001928E-02 0. -1.
        1   -1    0    0  501    0  0.00000000000E+00  0.00000000000E+00 -0.27569316882E+04  0.27569316882E+04  0.50400001928E-02 0.  1.
    10030    2    1    2    0    0  0.00000000000E+00  0.00000000000E+00 -0.14481517448E+04  0.40657116316E+04  0.37990614098E+04 0.  0.
        2    1    3    3  502    0  0.17142507585E+04 -0.77129205997E+03 -0.10165131522E+04  0.21370180377E+04  0.25500000920E-02 0.  1.
       -2    1    3    3    0  502 -0.17142507585E+04  0.77129205997E+03 -0.43163859258E+03  0.19286935939E+04  0.25500000920E-02 0. -1.
</event>
<event>
 5   0  0.5159761E-08  0.3801094E+04  0.7818609E-02  0.8045920E-01
        2   -1    0    0  501    0  0.00000000000E+00  0.00000000000E+00  0.25813055436E+04  0.25813055436E+04  0.25500000920E-02 0.  1.
       -2   -1    0    0    0  501  0.00000000000E+00  0.00000000000E+00 -0.13993228106E+04  0.13993228106E+04  0.25500000920E-02 0. -1.
    10030    2    1    2    0    0  0.00000000000E+00  0.00000000000E+00  0.11819827329E+04  0.39806283542E+04  0.38010944363E+04 0.  0.
        5    1    3    3  502    0  0.15432845026E+04  0.10907014124E+04  0.37971760080E+03  0.19275798747E+04  0.46999998093E+01 0. -1.
       -5    1    3    3    0  502 -0.15432845026E+04 -0.10907014124E+04  0.80226513215E+03  0.20530484795E+04  0.46999998093E+01 0.  1.
</event>
<event>
 5   0  0.1628250E-08  0.3801194E+04  0.7818609E-02  0.8045899E-01
       -1   -1    0    0    0  501  0.00000000000E+00  0.00000000000E+00  0.28687183559E+04  0.28687183559E+04  0.50400001928E-02 0.  1.
        1   -1    0    0  501    0  0.00000000000E+00  0.00000000000E+00 -0.12591927028E+04  0.12591927028E+04  0.50400001928E-02 0. -1.
    10030    2    1    2    0    0  0.00000000000E+00  0.00000000000E+00  0.16095256530E+04  0.41279110587E+04  0.38011941388E+04 0.  0.
        1    1    3    3  502    0  0.26449830842E+02  0.17477927373E+04  0.16150819000E+04  0.23799093659E+04  0.50400001928E-02 0.  1.
       -1    1    3    3    0  502 -0.26449830842E+02 -0.17477927373E+04 -0.55562470293E+01  0.17480016928E+04  0.50400001928E-02 0. -1.
</event>
<event>
 5   0  0.5086209E-08  0.3805131E+04  0.7818609E-02  0.8045055E-01
        2   -1    0    0  501    0  0.00000000000E+00  0.00000000000E+00  0.16696111217E+04  0.16696111217E+04  0.25500000920E-02 0.  1.
       -2   -1    0    0    0  501  0.00000000000E+00  0.00000000000E+00 -0.21680235865E+04  0.21680235865E+04  0.25500000920E-02 0. -1.
    10030    2    1    2    0    0  0.00000000000E+00  0.00000000000E+00 -0.49841246482E+03  0.38376347082E+04  0.38051314259E+04 0.  0.
        3    1    3    3  502    0  0.73788314451E+03 -0.15216243238E+04 -0.11284004316E+04  0.20330026222E+04  0.10100000352E+00 0. -1.
       -3    1    3    3    0  502 -0.73788314451E+03  0.15216243238E+04  0.62998796674E+03  0.18046320861E+04  0.10100000352E+00 0.  1.
</event>
<event>
 5   0  0.1666051E-08  0.3796120E+04  0.7818609E-02  0.8046988E-01
       -1   -1    0    0    0  501  0.00000000000E+00  0.00000000000E+00  0.16391190689E+04  0.16391190689E+04  0.50400001928E-02 0. -1.
        1   -1    0    0  501    0  0.00000000000E+00  0.00000000000E+00 -0.21979070264E+04  0.21979070264E+04  0.50400001928E-02 0.  1.
    10030    2    1    2    0    0  0.00000000000E+00  0.00000000000E+00 -0.55878795751E+03  0.38370260954E+04  0.37961197656E+04 0.  0.
        2    1    3    3  502    0  0.39407702632E+03  0.94923453825E+03 -0.18922984412E+04  0.21534011010E+04  0.25500000920E-02 0.  1.
       -2    1    3    3    0  502 -0.39407702632E+03 -0.94923453825E+03  0.13335104837E+04  0.16836249943E+04  0.25500000920E-02 0. -1.
</event>
<event>
 5   0  0.1628250E-08  0.3806247E+04  0.7818609E-02  0.8044816E-01
       -1   -1    0    0    0  501  0.00000000000E+00  0.00000000000E+00  0.22648605006E+04  0.22648605006E+04  0.50400001928E-02 0.  1.
        1   -1    0    0  501    0  0.00000000000E+00  0.00000000000E+00 -0.15991621601E+04  0.15991621601E+04  0.50400001928E-02 0. -1.
    10030    2    1    2    0    0  0.00000000000E+00  0.00000000000E+00  0.66569834053E+03  0.38640226607E+04  0.38062470810E+04 0.  0.
        4    1    3    3  502    0  0.55791721823E+03  0.63167858366E+03  0.20650875583E+04  0.22304433846E+04  0.12699999809E+01 0.  1.
       -4    1    3    3    0  502 -0.55791721823E+03 -0.63167858366E+03 -0.13993892178E+04  0.16335792761E+04  0.12699999809E+01 0. -1.
</event>
<event>
 5   0  0.5207474E-08  0.3859349E+04  0.7818609E-02  0.8033537E-01
        2   -1    0    0  501    0  0.00000000000E+00  0.00000000000E+00  0.24862281643E+04  0.24862281643E+04  0.25500000920E-02 0. -1.
       -2   -1    0    0    0  501  0.00000000000E+00  0.00000000000E+00 -0.14977083012E+04  0.14977083012E+04  0.25500000920E-02 0.  1.
    10030    2    1    2    0    0  0.00000000000E+00  0.00000000000E+00  0.98851986305E+03  0.39839364655E+04  0.38593494583E+04 0.  0.
        4    1    3    3  502    0  0.85896193818E+03 -0.11095737425E+04  0.18616626869E+04  0.23312569730E+04  0.12699999809E+01 0. -1.
       -4    1    3    3    0  502 -0.85896193818E+03  0.11095737425E+04 -0.87314282384E+03  0.16526794925E+04  0.12699999809E+01 0.  1.
</event>
<event>
 5   0  0.1628250E-08  0.3799339E+04  0.7818609E-02  0.8046297E-01
        1   -1    0    0  501    0  0.00000000000E+00  0.00000000000E+00  0.19100581079E+04  0.19100581079E+04  0.50400001928E-02 0.  1.
       -1   -1    0    0    0  501  0.00000000000E+00  0.00000000000E+00 -0.18893378559E+04  0.18893378559E+04  0.50400001928E-02 0. -1.
    10030    2    1    2    0    0  0.00000000000E+00  0.00000000000E+00  0.20720252042E+02  0.37993959638E+04  0.37993394637E+04 0.  0.
        5    1    3    3  502    0 -0.15299602190E+03 -0.17160554842E+04 -0.78994471689E+03  0.18953334676E+04  0.46999998093E+01 0. -1.
       -5    1    3    3    0  502  0.15299602190E+03  0.17160554842E+04  0.81066496893E+03  0.19040624962E+04  0.46999998093E+01 0.  1.
</event>
<event>
 5   0  0.5140842E-08  0.3799591E+04  0.7818609E-02  0.8046243E-01
        2   -1    0    0  501    0  0.00000000000E+00  0.00000000000E+00  0.31648107779E+04  0.31648107779E+04  0.25500000920E-02 0. -1.
       -2   -1    0    0    0  501  0.00000000000E+00  0.00000000000E+00 -0.11404232372E+04  0.11404232372E+04  0.25500000920E-02 0.  1.
    10030    2    1    2    0    0  0.00000000000E+00  0.00000000000E+00  0.20243875406E+04  0.43052340151E+04  0.37995914267E+04 0.  0.
        2    1    3    3  502    0  0.70723556749E+03  0.10079037575E+04  0.26515082796E+04  0.29234480137E+04  0.25500000920E-02 0. -1.
       -2    1    3    3    0  502 -0.70723556749E+03 -0.10079037575E+04 -0.62712073893E+03  0.13817860014E+04  0.25500000920E-02 0.  1.
</event>
<event>
 5   0  0.1628250E-08  0.3803823E+04  0.7818609E-02  0.8045335E-01
       -1   -1    0    0    0  501  0.00000000000E+00  0.00000000000E+00  0.15480589179E+04  0.15480589179E+04  0.50400001928E-02 0.  1.
        1   -1    0    0  501    0  0.00000000000E+00  0.00000000000E+00 -0.23366466910E+04  0.23366466910E+04  0.50400001928E-02 0. -1.
    10030    2    1    2    0    0  0.00000000000E+00  0.00000000000E+00 -0.78858777310E+03  0.38847056089E+04  0.38038226815E+04 0.  0.
        4    1    3    3  502    0 -0.14096147100E+04  0.57906494901E+02 -0.16969148324E+04  0.22067823531E+04  0.12699999809E+01 0. -1.
       -4    1    3    3    0  502  0.14096147100E+04 -0.57906494901E+02  0.90832705934E+03  0.16779232558E+04  0.12699999809E+01 0.  1.
</event>
<event>
 5   0  0.1628250E-08  0.3796627E+04  0.7818609E-02  0.8046879E-01
       -1   -1    0    0    0  501  0.00000000000E+00  0.00000000000E+00  0.11041023082E+04  0.11041023082E+04  0.50400001928E-02 0.  1.
        1   -1    0    0  501    0  0.00000000000E+00  0.00000000000E+00 -0.32638221444E+04  0.32638221444E+04  0.50400001928E-02 0. -1.
    10030    2    1    2    0    0  0.00000000000E+00  0.00000000000E+00 -0.21597198362E+04  0.43679244526E+04  0.37966266939E+04 0.  0.
        1    1    3    3  502    0  0.12078751035E+04 -0.68175375621E+03 -0.25709764422E+04  0.29212446519E+04  0.50400001928E-02 0. -1.
       -1    1    3    3    0  502 -0.12078751035E+04  0.68175375621E+03  0.41125660596E+03  0.14466798007E+04  0.50400001928E-02 0.  1.
</event>
<event>
 5   0  0.5140842E-08  0.3838936E+04  0.7818609E-02  0.8037851E-01
        2   -1    0    0  501    0  0.00000000000E+00  0.00000000000E+00  0.19376022645E+04  0.19376022645E+04  0.25500000920E-02 0. -1.
       -2   -1    0    0    0  501  0.00000000000E+00  0.00000000000E+00 -0.19015033152E+04  0.19015033152E+04  0.25500000920E-02 0.  1.
    10030    2    1    2    0    0  0.00000000000E+00  0.00000000000E+00  0.36098949313E+02  0.38391055797E+04  0.38389358575E+04 0.  0.
        2    1    3    3  502    0 -0.87924554242E+03 -0.12367118235E+04  0.11936133637E+04  0.19306065680E+04  0.25500000920E-02 0.  1.
       -2    1    3    3    0  502  0.87924554242E+03  0.12367118235E+04 -0.11575144144E+04  0.19084990118E+04  0.25500000920E-02 0. -1.
</event>
<event>
 5   0  0.5147582E-08  0.3790613E+04  0.7818609E-02  0.8048172E-01
        2   -1    0    0  501    0  0.00000000000E+00  0.00000000000E+00  0.24104219009E+04  0.24104219010E+04  0.25500000920E-02 0. -1.
       -2   -1    0    0    0  501  0.00000000000E+00  0.00000000000E+00 -0.14902732026E+04  0.14902732026E+04  0.25500000920E-02 0.  1.
    10030    2    1    2    0    0  0.00000000000E+00  0.00000000000E+00  0.92014869831E+03  0.39006951036E+04  0.37906132306E+04 0.  0.
        1    1    3    3  502    0 -0.15242813752E+04  0.33068968187E+03  0.15680973228E+04  0.22117229912E+04  0.50400001928E-02 0. -1.
       -1    1    3    3    0  502  0.15242813752E+04 -0.33068968187E+03 -0.64794862445E+03  0.16889721123E+04  0.50400001928E-02 0.  1.
</event>
<event>
 5   0  0.1666051E-08  0.3796565E+04  0.7818609E-02  0.8046892E-01
        1   -1    0    0  501    0  0.00000000000E+00  0.00000000000E+00  0.25642712800E+04  0.25642712800E+04  0.50400001928E-02 0. -1.
       -1   -1    0    0    0  501  0.00000000000E+00  0.00000000000E+00 -0.14052635940E+04  0.14052635940E+04  0.50400001928E-02 0.  1.
    10030    2    1    2    0    0  0.00000000000E+00  0.00000000000E+00  0.11590076860E+04  0.39695348740E+04  0.37965653293E+04 0.  0.
        2    1    3    3  502    0  0.47665443611E+02  0.12150294708E+04 -0.94461508896E+03  0.15397617594E+04  0.25500000920E-02 0.  1.
       -2    1    3    3    0  502 -0.47665443611E+02 -0.12150294708E+04  0.21036227749E+04  0.24297731146E+04  0.25500000920E-02 0. -1.
</event>
<event>
 5   0  0.1628473E-08  0.3800488E+04  0.7818609E-02  0.8046050E-01
        1   -1    0    0  501    0  0.00000000000E+00  0.00000000000E+00  0.14446143692E+04  0.14446143692E+04  0.50400001928E-02 0. -1.
       -1   -1    0    0    0  501  0.00000000000E+00  0.00000000000E+00 -0.24995787595E+04  0.24995787595E+04  0.50400001928E-02 0.  1.
    10030    2    1    2    0    0  0.00000000000E+00  0.00000000000E+00 -0.10549643903E+04  0.39441931287E+04  0.38004880702E+04 0.  0.
        3    1    3    3  502    0  0.34862848664E+02 -0.17745660232E+04  0.17687617460E+03  0.17836998571E+04  0.10100000352E+00 0. -1.
       -3    1    3    3    0  502 -0.34862848664E+02  0.17745660232E+04 -0.12318405649E+04  0.21604932716E+04  0.10100000352E+00 0.  1.
</event>
<event>
 5   0  0.1628250E-08  0.3796894E+04  0.7818609E-02  0.8046822E-01
       -1   -1    0    0    0  501  0.00000000000E+00  0.00000000000E+00  0.24142697957E+04  0.24142697957E+04  0.50400001928E-02 0.  1.
        1   -1    0    0  501    0  0.00000000000E+00  0.00000000000E+00 -0.14928324097E+04  0.14928324097E+04  0.50400001928E-02 0. -1.
    10030    2    1    2    0    0  0.00000000000E+00  0.00000000000E+00  0.92143738599E+03  0.39071022054E+04  0.37968935707E+04 0.  0.
        1    1    3    3  502    0  0.11599213219E+04  0.77573054974E+03 -0.86385996219E+03  0.16411670827E+04  0.50400001928E-02 0. -1.
       -1    1    3    3    0  502 -0.11599213219E+04 -0.77573054974E+03  0.17852973482E+04  0.22659351227E+04  0.50400001928E-02 0.  1.
</event>
<event>
 5   0  0.5207474E-08  0.3800936E+04  0.7818609E-02  0.8045954E-01
       -2   -1    0    0    0  501  0.00000000000E+00  0.00000000000E+00  0.12124705212E+04  0.12124705212E+04  0.25500000920E-02 0. -1.
        2   -1    0    0  501    0  0.00000000000E+00  0.00000000000E+00 -0.29788593385E+04  0.29788593385E+04  0.25500000920E-02 0.  1.
    10030    2    1    2    0    0  0.00000000000E+00  0.00000000000E+00 -0.17663888173E+04  0.41913298598E+04  0.38009362714E+04 0.  0.
        4    1    3    3  502    0 -0.12126151542E+04  0.14516686713E+04 -0.10865242937E+04  0.21813560225E+04  0.12699999809E+01 0.  1.
       -4    1    3    3    0  502  0.12126151542E+04 -0.14516686713E+04 -0.67986452363E+03  0.20099738373E+04  0.12699999809E+01 0. -1.
</event>
<event>
 5   0  0.1628473E-08  0.3795136E+04  0.7818609E-02  0.8047199E-01
       -1   -1    0    0    0  501  0.00000000000E+00  0.00000000000E+00  0.28182853384E+04  0.28182853384E+04  0.50400001928E-02 0. -1.
        1   -1    0    0  501    0  0.00000000000E+00  0.00000000000E+00 -0.12776438131E+04  0.12776438131E+04  0.50400001928E-02 0.  1.
    10030    2    1    2    0    0  0.00000000000E+00  0.00000000000E+00  0.15406415254E+04  0.40959291515E+04  0.37951362695E+04 0.  0.
        3    1    3    3  502    0 -0.64252096294E+03  0.80068939169E+03  0.24926845273E+04  0.26958139500E+04  0.10100000352E+00 0. -1.
       -3    1    3    3    0  502  0.64252096294E+03 -0.80068939169E+03 -0.95204300198E+03  0.14001152015E+04  0.10100000352E+00 0.  1.
</event>
<event>
 5   0  0.1628250E-08  0.3801460E+04  0.7818609E-02  0.8045842E-01
       -1   -1    0    0    0  501  0.00000000000E+00  0.00000000000E+00  0.16946671883E+04  0.16946671883E+04  0.50400001928E-02 0. -1.
        1   -1    0    0  501    0  0.00000000000E+00  0.00000000000E+00 -0.21318484668E+04  0.21318484668E+04  0.50400001928E-02 0.  1.
    10030    2    1    2    0    0  0.00000000000E+00  0.00000000000E+00 -0.43718127847E+03  0.38265156551E+04  0.38014595339E+04 0.  0.
        1    1    3    3  502    0 -0.17057125285E+03  0.15859918716E+04 -0.12589935088E+04  0.20321243624E+04  0.50400001928E-02 0.  1.
       -1    1    3    3    0  502  0.17057125285E+03 -0.15859918716E+04  0.82181223038E+03  0.17943912926E+04  0.50400001928E-02 0. -1.
</event>
<event>
 5   0  0.1628250E-08  0.3764989E+04  0.7818609E-02  0.8053710E-01
        1   -1    0    0  501    0  0.00000000000E+00  0.00000000000E+00  0.19560001197E+04  0.19560001197E+04  0.50400001928E-02 0. -1.
       -1   -1    0    0    0  501  0.00000000000E+00  0.00000000000E+00 -0.18117508913E+04  0.18117508913E+04  0.50400001928E-02 0.  1.
    10030    2    1    2    0    0  0.00000000000E+00  0.00000000000E+00  0.14424922839E+03  0.37677510109E+04  0.37649886906E+04 0.  0.
        1    1    3    3  502    0  0.12850960457E+04  0.25919690793E+03  0.14240895562E+04  0.19356357994E+04  0.50400001928E-02 0. -1.
       -1    1    3    3    0  502 -0.12850960457E+04 -0.25919690793E+03 -0.12798403278E+04  0.18321152116E+04  0.50400001928E-02 0.  1.
</event>
<event>
 5   0  0.5207474E-08  0.3804094E+04  0.7818609E-02  0.8045277E-01
        2   -1    0    0  501    0  0.00000000000E+00  0.00000000000E+00  0.19650299237E+04  0.19650299237E+04  0.25500000920E-02 0.  1.
       -2   -1    0    0    0  501  0.00000000000E+00  0.00000000000E+00 -0.18410832525E+04  0.18410832525E+04  0.25500000920E-02 0. -1.
    10030    2    1    2    0    0  0.00000000000E+00  0.00000000000E+00  0.12394667124E+03  0.38061131762E+04  0.38040944695E+04 0.  0.
        4    1    3    3  502    0  0.83417947353E+03  0.79011666740E+02  0.17704168281E+04  0.19586923178E+04  0.12699999809E+01 0.  1.
       -4    1    3    3    0  502 -0.83417947353E+03 -0.79011666740E+02 -0.16464701569E+04  0.18474208584E+04  0.12699999809E+01 0. -1.
</event>
<event>
 5   0  0.5086209E-08  0.3798675E+04  0.7818609E-02  0.8046439E-01
       -2   -1    0    0    0  501  0.00000000000E+00  0.00000000000E+00  0.16522192231E+04  0.16522192231E+04  0.25500000920E-02 0.  1.
        2   -1    0    0  501    0  0.00000000000E+00  0.00000000000E+00 -0.21834160958E+04  0.21834160958E+04  0.25500000920E-02 0. -1.
    10030    2    1    2    0    0  0.00000000000E+00  0.00000000000E+00 -0.53119687275E+03  0.38356353189E+04  0.37986745296E+04 0.  0.
        3    1    3    3  502    0  0.14532256365E+04 -0.12164863335E+04 -0.13876460116E+03  0.19002524503E+04  0.10100000352E+00 0. -1.
       -3    1    3    3    0  502 -0.14532256365E+04  0.12164863335E+04 -0.39243227159E+03  0.19353828686E+04  0.10100000352E+00 0.  1.
</event>
<event>
 5   0  0.5159761E-08  0.3798122E+04  0.7818609E-02  0.8046558E-01
        2   -1    0    0  501    0  0.00000000000E+00  0.00000000000E+00  0.24220290864E+04  0.24220290864E+04  0.25500000920E-02 0.  1.
       -2   -1    0    0    0  501  0.00000000000E+00  0.00000000000E+00 -0.14890126435E+04  0.14890126435E+04  0.25500000920E-02 0. -1.
    10030    2    1    2    0    0  0.00000000000E+00  0.00000000000E+00  0.93301644287E+03  0.39110417299E+04  0.37981216055E+04 0.  0.
        5    1    3    3  502    0 -0.14513495806E+04 -0.20476643719E+03  0.17099115294E+04  0.22521466265E+04  0.46999998093E+01 0.  1.
       -5    1    3    3    0  502  0.14513495806E+04  0.20476643719E+03 -0.77689508648E+03  0.16588951035E+04  0.46999998093E+01 0. -1.
</event>
<event>
 5   0  0.5086209E-08  0.3808976E+04  0.7818609E-02  0.8044231E-01
       -2   -1    0    0    0  501  0.00000000000E+00  0.00000000000E+00  0.14062173142E+04  0.14062173142E+04  0.25500000920E-02 0. -1.
        2   -1    0    0  501    0  0.00000000000E+00  0.00000000000E+00 -0.25793124759E+04  0.25793124759E+04  0.25500000920E-02 0.  1.
    10030    2    1    2    0    0  0.00000000000E+00  0.00000000000E+00 -0.11730951617E+04  0.39855297901E+04  0.38089756430E+04 0.  0.
        3    1    3    3  502    0 -0.16752872960E+04 -0.11897963522E+03  0.35303362308E+03  0.17162099017E+04  0.10100000352E+00 0. -1.
       -3    1    3    3    0  502  0.16752872960E+04  0.11897963522E+03 -0.15261287848E+04  0.22693198883E+04  0.10100000352E+00 0.  1.
</event>
<event>
 5   0  0.1628250E-08  0.3799291E+04  0.7818609E-02  0.8046307E-01
        1   -1    0    0  501    0  0.00000000000E+00  0.00000000000E+00  0.31075078356E+04  0.31075078356E+04  0.50400001928E-02 0.  1.
       -1   -1    0    0    0  501  0.00000000000E+00  0.00000000000E+00 -0.11612691896E+04  0.11612691897E+04  0.50400001928E-02 0. -1.
    10030    2    1    2    0    0  0.00000000000E+00  0.00000000000E+00  0.19462386460E+04  0.42687770253E+04  0.37992910424E+04 0.  0.
        5    1    3    3  502    0  0.56517346001E+03  0.17762122292E+04  0.56139481070E+03  0.19466733538E+04  0.46999998093E+01 0. -1.
       -5    1    3    3    0  502 -0.56517346001E+03 -0.17762122292E+04  0.13848438353E+04  0.23221036715E+04  0.46999998093E+01 0.  1.
</event>
<event>
 5   0  0.5159761E-08  0.3778886E+04  0.7818609E-02  0.8050701E-01
       -2   -1    0    0    0  501  0.00000000000E+00  0.00000000000E+00  0.14578189633E+04  0.14578189633E+04  0.25500000920E-02 0. -1.
        2   -1    0    0  501    0  0.00000000000E+00  0.00000000000E+00 -0.24488603888E+04  0.24488603888E+04  0.25500000920E-02 0.  1.
    10030    2    1    2    0    0  0.00000000000E+00  0.00000000000E+00 -0.99104142546E+03  0.39066793521E+04  0.37788861393E+04 0.  0.
        5    1    3    3  502    0 -0.54488897508E+03 -0.15245542225E+04 -0.15025267829E+04  0.22087956890E+04  0.46999998093E+01 0.  1.
       -5    1    3    3    0  502  0.54488897508E+03  0.15245542225E+04  0.51148535746E+03  0.16978836631E+04  0.46999998093E+01 0. -1.
</event>
<event>
 5   0  0.5140842E-08  0.3798710E+04  0.7818609E-02  0.8046432E-01
       -2   -1    0    0    0  501  0.00000000000E+00  0.00000000000E+00  0.24740383692E+04  0.24740383692E+04  0.25500000920E-02 0.  1.
        2   -1    0    0  501    0  0.00000000000E+00  0.00000000000E+00 -0.14581619323E+04  0.14581619323E+04  0.25500000920E-02 0. -1.
    10030    2    1    2    0    0  0.00000000000E+00  0.00000000000E+00  0.10158764369E+04  0.39322003015E+04  0.37987095540E+04 0.  0.
        2    1    3    3  502    0 -0.66855098609E+03 -0.99229875835E+03 -0.10190023543E+04  0.15716179704E+04  0.25500000920E-02 0. -1.
       -2    1    3    3    0  502  0.66855098609E+03  0.99229875835E+03  0.20348787912E+04  0.23605823311E+04  0.25500000920E-02 0.  1.
</event>
<event>
 5   0  0.5159761E-08  0.3769124E+04  0.7818609E-02  0.8052813E-01
        2   -1    0    0  501    0  0.00000000000E+00  0.00000000000E+00  0.22197515870E+04  0.22197515870E+04  0.25500000920E-02 0. -1.
       -2   -1    0    0    0  501  0.00000000000E+00  0.00000000000E+00 -0.15999870142E+04  0.15999870142E+04  0.25500000920E-02 0.  1.
    10030    2    1    2    0    0  0.00000000000E+00  0.00000000000E+00  0.61976457275E+03  0.38197386012E+04  0.37691238844E+04 0.  0.
        5    1    3    3  502    0  0.16246212357E+04 -0.40867251216E+03  0.11846916167E+04  0.20518098592E+04  0.46999998093E+01 0. -1.
       -5    1    3    3    0  502 -0.16246212357E+04  0.40867251216E+03 -0.56492704396E+03  0.17679287420E+04  0.46999998093E+01 0.  1.
</event>
<event>
 5   0  0.1628250E-08  0.3777298E+04  0.7818609E-02  0.8051044E-01
        1   -1    0    0  501    0  0.00000000000E+00  0.00000000000E+00  0.22160577840E+04  0.22160577840E+04  0.50400001928E-02 0.  1.
       -1   -1    0    0    0  501  0.00000000000E+00  0.00000000000E+00 -0.16096131976E+04  0.16096131976E+04  0.50400001928E-02 0. -1.
    10030    2    1    2    0    0  0.00000000000E+00  0.00000000000E+00  0.60644458637E+03  0.38256709816E+04  0.37772984292E+04 0.  0.
        1    1    3    3  502    0  0.75500913559E+02  0.35668084109E+03 -0.15736345965E+04  0.16153165182E+04  0.50400001928E-02 0. -1.
       -1    1    3    3    0  502 -0.75500913559E+02 -0.35668084109E+03  0.21800791829E+04  0.22103544635E+04  0.50400001928E-02 0.  1.
</event>
<event>
 5   0  0.5140842E-08  0.3809520E+04  0.7818609E-02  0.8044115E-01
       -2   -1    0    0    0  501  0.00000000000E+00  0.00000000000E+00  0.33480507409E+04  0.33480507409E+04  0.25500000920E-02 0. -1.
        2   -1    0    0  501    0  0.00000000000E+00  0.00000000000E+00 -0.10836486058E+04  0.10836486058E+04  0.25500000920E-02 0.  1.
    10030    2    1    2    0    0  0.00000000000E+00  0.00000000000E+00  0.22644021351E+04  0.44316993467E+04  0.38095199265E+04 0.  0.
        2    1    3    3  502    0  0.61010831907E+03  0.91294922524E+03  0.29428037285E+04  0.31409874615E+04  0.25500000920E-02 0. -1.
       -2    1    3    3    0  502 -0.61010831907E+03 -0.91294922524E+03 -0.67840159333E+03  0.12907118852E+04  0.25500000920E-02 0.  1.
</event>
<event>
 5   0  0.1628250E-08  0.3796347E+04  0.7818609E-02  0.8046939E-01
        1   -1    0    0  501    0  0.00000000000E+00  0.00000000000E+00  0.19315202762E+04  0.19315202762E+04  0.50400001928E-02 0. -1.
       -1   -1    0    0    0  501  0.00000000000E+00  0.00000000000E+00 -0.18654024237E+04  0.18654024237E+04  0.50400001928E-02 0.  1.
    10030    2    1    2    0    0  0.00000000000E+00  0.00000000000E+00  0.66117852484E+02  0.37969226999E+04  0.37963469834E+04 0.  0.
        5    1    3    3  502    0  0.52667926799E+03  0.18186642811E+04  0.16765160500E+03  0.19008050845E+04  0.46999998093E+01 0.  1.
       -5    1    3    3    0  502 -0.52667926799E+03 -0.18186642811E+04 -0.10153375252E+03  0.18961176154E+04  0.46999998093E+01 0. -1.
</event>
<event>
 5   0  0.1628250E-08  0.3803274E+04  0.7818609E-02  0.8045453E-01
       -1   -1    0    0    0  501  0.00000000000E+00  0.00000000000E+00  0.14766058056E+04  0.14766058056E+04  0.50400001928E-02 0.  1.
        1   -1    0    0  501    0  0.00000000000E+00  0.00000000000E+00 -0.24490110273E+04  0.24490110273E+04  0.50400001928E-02 0. -1.
    10030    2    1    2    0    0  0.00000000000E+00  0.00000000000E+00 -0.97240522164E+03  0.39256168329E+04  0.38032743267E+04 0.  0.
        5    1    3    3  502    0  0.82606875265E+03 -0.16756840604E+04 -0.11997189443E+03  0.18720902756E+04  0.46999998093E+01 0.  1.
       -5    1    3    3    0  502 -0.82606875265E+03  0.16756840604E+04 -0.85243332721E+03  0.20535265574E+04  0.46999998093E+01 0. -1.
</event>
<event>
 5   0  0.5207474E-08  0.3815174E+04  0.7818609E-02  0.8042906E-01
        2   -1    0    0  501    0  0.00000000000E+00  0.00000000000E+00  0.19300509805E+04  0.19300509805E+04  0.25500000920E-02 0.  1.
       -2   -1    0    0    0  501  0.00000000000E+00  0.00000000000E+00 -0.18853845315E+04  0.18853845315E+04  0.25500000920E-02 0. -1.
    10030    2    1    2    0    0  0.00000000000E+00  0.00000000000E+00  0.44666449064E+02  0.38154355120E+04  0.38151740530E+04 0.  0.
        4    1    3    3  502    0  0.38266024652E+03  0.35349528364E+03 -0.18128671583E+04  0.18862334761E+04  0.12699999809E+01 0. -1.
       -4    1    3    3    0  502 -0.38266024652E+03 -0.35349528364E+03  0.18575336074E+04  0.19292020359E+04  0.12699999809E+01 0.  1.
</event>
<event>
 5   0  0.1628250E-08  0.3765133E+04  0.7818609E-02  0.8053679E-01
       -1   -1    0    0    0  501  0.00000000000E+00  0.00000000000E+00  0.12038481924E+04  0.12038481924E+04  0.50400001928E-02 0.  1.
        1   -1    0    0  501    0  0.00000000000E+00  0.00000000000E+00 -0.29439396806E+04  0.29439396806E+04  0.50400001928E-02 0. -1.
    10030    2    1    2    0    0  0.00000000000E+00  0.00000000000E+00 -0.17400914882E+04  0.41477878730E+04  0.37651329129E+04 0.  0.
        5    1    3    3  502    0 -0.39017072229E+03  0.74437812914E+03  0.98570501978E+03  0.12953642220E+04  0.46999998093E+01 0.  1.
       -5    1    3    3    0  502  0.39017072229E+03 -0.74437812914E+03 -0.27257965080E+04  0.28524236509E+04  0.46999998093E+01 0. -1.
</event>
<event>
 5   0  0.1628250E-08  0.3788809E+04  0.7818609E-02  0.8048561E-01
       -1   -1    0    0    0  501  0.00000000000E+00  0.00000000000E+00  0.29854754719E+04  0.29854754719E+04  0.50400001928E-02 0. -1.
        1   -1    0    0  501    0  0.00000000000E+00  0.00000000000E+00 -0.12020761387E+04  0.12020761387E+04  0.50400001928E-02 0.  1.
    10030    2    1    2    0    0  0.00000000000E+00  0.00000000000E+00  0.17833993332E+04  0.41875516106E+04  0.37888092206E+04 0.  0.
        1    1    3    3  502    0  0.10684198214E+04 -0.13317406365E+04 -0.15484529236E+02  0.17074231486E+04  0.50400001928E-02 0.  1.
       -1    1    3    3    0  502 -0.10684198214E+04  0.13317406365E+04  0.17988838625E+04  0.24801284621E+04  0.50400001928E-02 0. -1.
</event>
<event>
 5   0  0.1628250E-08  0.3806769E+04  0.7818609E-02  0.8044704E-01
       -1   -1    0    0    0  501  0.00000000000E+00  0.00000000000E+00  0.18009750787E+04  0.18009750787E+04  0.50400001928E-02 0. -1.
        1   -1    0    0  501    0  0.00000000000E+00  0.00000000000E+00 -0.20116175572E+04  0.20116175572E+04  0.50400001928E-02 0.  1.
    10030    2    1    2    0    0  0.00000000000E+00  0.00000000000E+00 -0.21064247852E+03  0.38125926359E+04  0.38067692803E+04 0.  0.
        5    1    3    3  502    0  0.81671267019E+03 -0.64896069429E+03  0.14891824932E+04  0.18182013520E+04  0.46999998093E+01 0. -1.
       -5    1    3    3    0  502 -0.81671267019E+03  0.64896069429E+03 -0.16998249718E+04  0.19943912838E+04  0.46999998093E+01 0.  1.
</event>
<event>
 5   0  0.5159761E-08  0.3813475E+04  0.7818609E-02  0.8043269E-01
        2   -1    0    0  501    0  0.00000000000E+00  0.00000000000E+00  0.22359836276E+04  0.22359836276E+04  0.25500000920E-02 0.  1.
       -2   -1    0    0    0  501  0.00000000000E+00  0.00000000000E+00 -0.16259723719E+04  0.16259723719E+04  0.25500000920E-02 0. -1.
    10030    2    1    2    0    0  0.00000000000E+00  0.00000000000E+00  0.61001125570E+03  0.38619559996E+04  0.38134748473E+04 0.  0.
        5    1    3    3  502    0 -0.62181245854E+03 -0.17140522769E+04  0.86976874982E+03  0.20201845732E+04  0.46999998093E+01 0. -1.
       -5    1    3    3    0  502  0.62181245854E+03  0.17140522769E+04 -0.25975749412E+03  0.18417714264E+04  0.46999998093E+01 0.  1.
</event>
<event>
 5   0  0.1628250E-08  0.3826430E+04  0.7818609E-02  0.8040507E-01
       -1   -1    0    0    0  501  0.00000000000E+00  0.00000000000E+00  0.16739127440E+04  0.16739127440E+04  0.50400001928E-02 0. -1.
        1   -1    0    0  501    0  0.00000000000E+00  0.00000000000E+00 -0.21867276644E+04  0.21867276644E+04  0.50400001928E-02 0.  1.
    10030    2    1    2    0    0  0.00000000000E+00  0.00000000000E+00 -0.51281492037E+03  0.38606404084E+04  0.38264298269E+04 0.  0.
        1    1    3    3  502    0 -0.17444231220E+04  0.61337296285E+03 -0.75187114677E+03  0.19961334227E+04  0.50400001928E-02 0.  1.
       -1    1    3    3    0  502  0.17444231220E+04 -0.61337296285E+03  0.23905622640E+03  0.18645069856E+04  0.50400001928E-02 0. -1.
</event>
<event>
 5   0  0.1628250E-08  0.3773783E+04  0.7818609E-02  0.8051804E-01
       -3   -1    0    0    0  501  0.00000000000E+00  0.00000000000E+00  0.22671461262E+04  0.22671461284E+04  0.10100000352E+00 0.  1.
        3   -1    0    0  501    0  0.00000000000E+00  0.00000000000E+00 -0.15704148615E+04  0.15704148647E+04  0.10100000352E+00 0. -1.
    10030    2    1    2    0    0  0.00000000000E+00  0.00000000000E+00  0.69673126473E+03  0.38375609932E+04  0.37737832372E+04 0.  0.
        5    1    3    3  502    0  0.86945470260E+03  0.60261059135E+03  0.19372203623E+04  0.22072462089E+04  0.46999998093E+01 0.  1.
       -5    1    3    3    0  502 -0.86945470260E+03 -0.60261059135E+03 -0.12404890975E+04  0.16303147843E+04  0.46999998093E+01 0. -1.
</event>
<event>
 5   0  0.5159761E-08  0.3800728E+04  0.7818609E-02  0.8045999E-01
       -2   -1    0    0    0  501  0.00000000000E+00  0.00000000000E+00  0.15577266384E+04  0.15577266384E+04  0.25500000920E-02 0. -1.
        2   -1    0    0  501    0  0.00000000000E+00  0.00000000000E+00 -0.23183683750E+04  0.23183683750E+04  0.25500000920E-02 0.  1.
    10030    2    1    2    0    0  0.00000000000E+00  0.00000000000E+00 -0.76064173666E+03  0.38760950134E+04  0.38007284435E+04 0.  0.
        5    1    3    3  502    0 -0.17433192591E+04  0.51323478057E+03 -0.94702876173E+03  0.20492578033E+04  0.46999998093E+01 0.  1.
       -5    1    3    3    0  502  0.17433192591E+04 -0.51323478057E+03  0.18638702507E+03  0.18268372101E+04  0.46999998093E+01 0. -1.
</event>
<event>
 5   0  0.1628250E-08  0.3796230E+04  0.7818609E-02  0.8046964E-01
       -1   -1    0    0    0  501  0.00000000000E+00  0.00000000000E+00  0.18883055347E+04  0.18883055347E+04  0.50400001928E-02 0. -1.
        1   -1    0    0  501    0  0.00000000000E+00  0.00000000000E+00 -0.19079757902E+04  0.19079757902E+04  0.50400001928E-02 0.  1.
    10030    2    1    2    0    0  0.00000000000E+00  0.00000000000E+00 -0.19670255530E+02  0.37962813249E+04  0.37962303643E+04 0.  0.
        5    1    3    3  502    0 -0.13173545209E+04  0.11230771962E+04  0.76869560704E+03  0.18941067416E+04  0.46999998093E+01 0. -1.
       -5    1    3    3    0  502  0.13173545209E+04 -0.11230771962E+04 -0.78836586257E+03  0.19021745833E+04  0.46999998093E+01 0.  1.
</event>
<event>
 5   0  0.5207474E-08  0.3804080E+04  0.7818609E-02  0.8045280E-01
        2   -1    0    0  501    0  0.00000000000E+00  0.00000000000E+00  0.24025724188E+04  0.24025724188E+04  0.25500000920E-02 0. -1.
       -2   -1    0    0    0  501  0.00000000000E+00  0.00000000000E+00 -0.15057843952E+04  0.15057843952E+04  0.25500000920E-02 0.  1.
    10030    2    1    2    0    0  0.00000000000E+00  0.00000000000E+00  0.89678802362E+03  0.39083568140E+04  0.38040799447E+04 0.  0.
        4    1    3    3  502    0  0.35164911460E+03  0.16299922217E+04  0.13884745639E+04  0.21698836306E+04  0.12699999809E+01 0. -1.
       -4    1    3    3    0  502 -0.35164911460E+03 -0.16299922217E+04 -0.49168654031E+03  0.17384731834E+04  0.12699999809E+01 0.  1.
</event>
<event>
 5   0  0.1628250E-08  0.3788274E+04  0.7818609E-02  0.8048676E-01
        1   -1    0    0  501    0  0.00000000000E+00  0.00000000000E+00  0.23619165264E+04  0.23619165264E+04  0.50400001928E-02 0.  1.
       -1   -1    0    0    0  501  0.00000000000E+00  0.00000000000E+00 -0.15190018383E+04  0.15190018383E+04  0.50400001928E-02 0. -1.
    10030    2    1    2    0    0  0.00000000000E+00  0.00000000000E+00  0.84291468815E+03  0.38809183647E+04  0.37882743013E+04 0.  0.
        4    1    3    3  502    0 -0.46973025939E+03  0.94113699866E+03 -0.11923018430E+04  0.15899593279E+04  0.12699999809E+01 0. -1.
       -4    1    3    3    0  502  0.46973025939E+03 -0.94113699866E+03  0.20352165311E+04  0.22909590368E+04  0.12699999809E+01 0.  1.
</event>
<event>
 5   0  0.1666051E-08  0.3785645E+04  0.7818609E-02  0.8049242E-01
        1   -1    0    0  501    0  0.00000000000E+00  0.00000000000E+00  0.32524177961E+04  0.32524177961E+04  0.50400001928E-02 0.  1.
       -1   -1    0    0    0  501  0.00000000000E+00  0.00000000000E+00 -0.11015734929E+04  0.11015734929E+04  0.50400001928E-02 0. -1.
    10030    2    1    2    0    0  0.00000000000E+00  0.00000000000E+00  0.21508443032E+04  0.43539912890E+04  0.37856451139E+04 0.  0.
        2    1    3    3  502    0  0.13910404559E+04  0.10891605872E+04  0.18567612886E+04  0.25629722623E+04  0.25500000920E-02 0. -1.
       -2    1    3    3    0  502 -0.13910404559E+04 -0.10891605872E+04  0.29408301457E+03  0.17910190267E+04  0.25500000920E-02 0.  1.
</event>
<event>
 5   0  0.1628473E-08  0.3795669E+04  0.7818609E-02  0.8047085E-01
        1   -1    0    0  501    0  0.00000000000E+00  0.00000000000E+00  0.24691253470E+04  0.24691253470E+04  0.50400001928E-02 0. -1.
       -1   -1    0    0    0  501  0.00000000000E+00  0.00000000000E+00 -0.14587255406E+04  0.14587255406E+04  0.50400001928E-02 0.  1.
    10030    2    1    2    0    0  0.00000000000E+00  0.00000000000E+00  0.10103998065E+04  0.39278508876E+04  0.37956692198E+04 0.  0.
        3    1    3    3  502    0 -0.17104892660E+04 -0.68542982261E+03  0.35306891637E+02  0.18430502320E+04  0.10100000352E+00 0.  1.
       -3    1    3    3    0  502  0.17104892660E+04  0.68542982261E+03  0.97509291482E+03  0.20848006556E+04  0.10100000352E+00 0. -1.
</event>
<event>
 5   0  0.5086209E-08  0.3797839E+04  0.7818609E-02  0.8046619E-01
       -2   -1    0    0    0  501  0.00000000000E+00  0.00000000000E+00  0.15823483768E+04  0.15823483768E+04  0.25500000920E-02 0.  1.
        2   -1    0    0  501    0  0.00000000000E+00  0.00000000000E+00 -0.22788251138E+04  0.22788251138E+04  0.25500000920E-02 0. -1.
    10030    2    1    2    0    0  0.00000000000E+00  0.00000000000E+00 -0.69647673696E+03  0.38611734906E+04  0.37978389749E+04 0.  0.
        3    1    3    3  502    0 -0.26850568873E+03  0.22107980030E+03 -0.22461649184E+04  0.22729338824E+04  0.10100000352E+00 0. -1.
       -3    1    3    3    0  502  0.26850568873E+03 -0.22107980030E+03  0.15496881814E+04  0.15882396081E+04  0.10100000352E+00 0.  1.
</event>
<event>
 5   0  0.1666051E-08  0.3815596E+04  0.7818609E-02  0.8042816E-01
        1   -1    0    0  501    0  0.00000000000E+00  0.00000000000E+00  0.14606953591E+04  0.14606953591E+04  0.50400001928E-02 0.  1.
       -1   -1    0    0    0  501  0.00000000000E+00  0.00000000000E+00 -0.24917538257E+04  0.24917538257E+04  0.50400001928E-02 0. -1.
    10030    2    1    2    0    0  0.00000000000E+00  0.00000000000E+00 -0.10310584666E+04  0.39524491847E+04  0.38155960211E+04 0.  0.
        2    1    3    3  502    0 -0.35844140672E+03  0.12890956312E+04 -0.19242492065E+04  0.23437113297E+04  0.25500000920E-02 0. -1.
       -2    1    3    3    0  502  0.35844140672E+03 -0.12890956312E+04  0.89319073989E+03  0.16087378550E+04  0.25500000920E-02 0.  1.
</event>
<event>
 5   0  0.1666051E-08  0.3798727E+04  0.7818609E-02  0.8046428E-01
        1   -1    0    0  501    0  0.00000000000E+00  0.00000000000E+00  0.20963508978E+04  0.20963508978E+04  0.50400001928E-02 0.  1.
       -1   -1    0    0    0  501  0.00000000000E+00  0.00000000000E+00 -0.17208859264E+04  0.17208859264E+04  0.50400001928E-02 0. -1.
    10030    2    1    2    0    0  0.00000000000E+00  0.00000000000E+00  0.37546497141E+03  0.38172368242E+04  0.37987265007E+04 0.  0.
        2    1    3    3  502    0  0.16149113073E+04 -0.83139605551E+03 -0.37033193334E+03  0.18537269681E+04  0.25500000920E-02 0. -1.
       -2    1    3    3    0  502 -0.16149113073E+04  0.83139605551E+03  0.74579690475E+03  0.19635098560E+04  0.25500000920E-02 0.  1.
</event>
<event>
 5   0  0.5159761E-08  0.3792522E+04  0.7818609E-02  0.8047762E-01
       -2   -1    0    0    0  501  0.00000000000E+00  0.00000000000E+00  0.21845890309E+04  0.21845890309E+04  0.25500000920E-02 0.  1.
        2   -1    0    0  501    0  0.00000000000E+00  0.00000000000E+00 -0.16459871038E+04  0.16459871038E+04  0.25500000920E-02 0. -1.
    10030    2    1    2    0    0  0.00000000000E+00  0.00000000000E+00  0.53860192717E+03  0.38305761347E+04  0.37925217847E+04 0.  0.
        5    1    3    3  502    0 -0.34723236210E+03  0.34449153914E+03  0.21197700493E+04  0.21754750942E+04  0.46999998093E+01 0.  1.
       -5    1    3    3    0  502  0.34723236210E+03 -0.34449153914E+03 -0.15811681221E+04  0.16551010405E+04  0.46999998093E+01 0. -1.
</event>
<event>
 5   0  0.5207474E-08  0.3821446E+04  0.7818609E-02  0.8041568E-01
        2   -1    0    0  501    0  0.00000000000E+00  0.00000000000E+00  0.27671884683E+04  0.27671884683E+04  0.25500000920E-02 0. -1.
       -2   -1    0    0    0  501  0.00000000000E+00  0.00000000000E+00 -0.13193398703E+04  0.13193398703E+04  0.25500000920E-02 0.  1.
    10030    2    1    2    0    0  0.00000000000E+00  0.00000000000E+00  0.14478485980E+04  0.40865283387E+04  0.38214458390E+04 0.  0.
        4    1    3    3  502    0 -0.15813843038E+04  0.68315125880E+03 -0.16009274928E+03  0.17300587446E+04  0.12699999809E+01 0.  1.
       -4    1    3    3    0  502  0.15813843038E+04 -0.68315125880E+03  0.16079413473E+04  0.23564695941E+04  0.12699999809E+01 0. -1.
</event>
<event>
 5   0  0.1666051E-08  0.3791255E+04  0.7818609E-02  0.8048034E-01
       -1   -1    0    0    0  501  0.00000000000E+00  0.00000000000E+00  0.13312785508E+04  0.13312785509E+04  0.50400001928E-02 0. -1.
        1   -1    0    0  501    0  0.00000000000E+00  0.00000000000E+00 -0.26992118163E+04  0.26992118163E+04  0.50400001928E-02 0.  1.
    10030    2    1    2    0    0  0.00000000000E+00  0.00000000000E+00 -0.13679332654E+04  0.40304903672E+04  0.37912545656E+04 0.  0.
        2    1    3    3  502    0  0.58793499620E+03 -0.16113484867E+03 -0.25921594707E+04  0.26628786530E+04  0.25500000920E-02 0.  1.
       -2    1    3    3    0  502 -0.58793499620E+03  0.16113484867E+03  0.12242262052E+04  0.13676117142E+04  0.25500000920E-02 0. -1.
</event>
<event>
 5   0  0.1628473E-08  0.3807495E+04  0.7818609E-02  0.8044548E-01
       -1   -1    0    0    0  501  0.00000000000E+00  0.00000000000E+00  0.18007023265E+04  0.18007023265E+04  0.50400001928E-02 0. -1.
        1   -1    0    0  501    0  0.00000000000E+00  0.00000000000E+00 -0.20126891452E+04  0.20126891452E+04  0.50400001928E-02 0.  1.
    10030    2    1    2    0    0  0.00000000000E+00  0.00000000000E+00 -0.21198681877E+03  0.38133914717E+04  0.38074947282E+04 0.  0.
        3    1    3    3  502    0 -0.81091030683E+02 -0.17237607915E+04  0.69919632225E+03  0.18619351570E+04  0.10100000352E+00 0. -1.
       -3    1    3    3    0  502  0.81091030683E+02  0.17237607915E+04 -0.91118314102E+03  0.19514563147E+04  0.10100000352E+00 0.  1.
</event>
<event>
 5   0  0.1628250E-08  0.3799580E+04  0.7818609E-02  0.8046245E-01
       -1   -1    0    0    0  501  0.00000000000E+00  0.00000000000E+00  0.15653715019E+04  0.15653715019E+04  0.50400001928E-02 0.  1.
        1   -1    0    0  501    0  0.00000000000E+00  0.00000000000E+00 -0.23056518337E+04  0.23056518337E+04  0.50400001928E-02 0. -1.
    10030    2    1    2    0    0  0.00000000000E+00  0.00000000000E+00 -0.74028033186E+03  0.38710233356E+04  0.37995798051E+04 0.  0.
        5    1    3    3  502    0 -0.63035421490E+03 -0.12720082062E+04  0.91606716812E+03  0.16895420857E+04  0.46999998093E+01 0.  1.
       -5    1    3    3    0  502  0.63035421490E+03  0.12720082062E+04 -0.16563475000E+04  0.21814812499E+04  0.46999998093E+01 0. -1.
</event>
<event>
 5   0  0.5140842E-08  0.3800359E+04  0.7818609E-02  0.8046078E-01
        2   -1    0    0  501    0  0.00000000000E+00  0.00000000000E+00  0.14047144353E+04  0.14047144353E+04  0.25500000920E-02 0. -1.
       -2   -1    0    0    0  501  0.00000000000E+00  0.00000000000E+00 -0.25704024879E+04  0.25704024879E+04  0.25500000920E-02 0.  1.
    10030    2    1    2    0    0  0.00000000000E+00  0.00000000000E+00 -0.11656880526E+04  0.39751169232E+04  0.38003586563E+04 0.  0.
        2    1    3    3  502    0  0.52794663248E+03  0.88587492589E+03 -0.22522235937E+04  0.24770977266E+04  0.25500000920E-02 0.  1.
       -2    1    3    3    0  502 -0.52794663248E+03 -0.88587492589E+03  0.10865355411E+04  0.14980191965E+04  0.25500000920E-02 0. -1.
</event>
<event>
 5   0  0.1628250E-08  0.3790282E+04  0.7818609E-02  0.8048244E-01
       -1   -1    0    0    0  501  0.00000000000E+00  0.00000000000E+00  0.12266802785E+04  0.12266802785E+04  0.50400001928E-02 0.  1.
        1   -1    0    0  501    0  0.00000000000E+00  0.00000000000E+00 -0.29278688364E+04  0.29278688364E+04  0.50400001928E-02 0. -1.
    10030    2    1    2    0    0  0.00000000000E+00  0.00000000000E+00 -0.17011885579E+04  0.41545491148E+04  0.37902817623E+04 0.  0.
        1    1    3    3  502    0 -0.12321591241E+04 -0.13317983319E+04 -0.25057675978E+03  0.18315817253E+04  0.50400001928E-02 0. -1.
       -1    1    3    3    0  502  0.12321591241E+04  0.13317983319E+04 -0.14506117981E+04  0.23229673895E+04  0.50400001928E-02 0.  1.
</event>
<event>
 5   0  0.5159761E-08  0.3799945E+04  0.7818609E-02  0.8046167E-01
       -2   -1    0    0    0  501  0.00000000000E+00  0.00000000000E+00  0.15769000236E+04  0.15769000236E+04  0.25500000920E-02 0. -1.
        2   -1    0    0  501    0  0.00000000000E+00  0.00000000000E+00 -0.22892354419E+04  0.22892354419E+04  0.25500000920E-02 0.  1.
    10030    2    1    2    0    0  0.00000000000E+00  0.00000000000E+00 -0.71233541831E+03  0.38661354656E+04  0.37999449588E+04 0.  0.
        5    1    3    3  502    0 -0.33652063746E+03  0.16483624375E+04 -0.12544560257E+04  0.20985773455E+04  0.46999998093E+01 0.  1.
       -5    1    3    3    0  502  0.33652063746E+03 -0.16483624375E+04  0.54212060739E+03  0.17675581200E+04  0.46999998093E+01 0. -1.
</event>
<event>
 5   0  0.1628473E-08  0.3801710E+04  0.7818609E-02  0.8045788E-01
       -1   -1    0    0    0  501  0.00000000000E+00  0.00000000000E+00  0.17253903151E+04  0.17253903151E+04  0.50400001928E-02 0. -1.
        1   -1    0    0  501    0  0.00000000000E+00  0.00000000000E+00 -0.20941641238E+04  0.20941641238E+04  0.50400001928E-02 0.  1.
    10030    2    1    2    0    0  0.00000000000E+00  0.00000000000E+00 -0.36877380872E+03  0.38195544389E+04  0.38017104032E+04 0.  0.
        3    1    3    3  502    0 -0.11920125290E+04  0.36738494011E+03  0.12567042405E+04  0.17706414436E+04  0.10100000352E+00 0. -1.
       -3    1    3    3    0  502  0.11920125290E+04 -0.36738494011E+03 -0.16254780492E+04  0.20489129953E+04  0.10100000352E+00 0.  1.
</event>
<event>
 5   0  0.5140842E-08  0.3849516E+04  0.7818609E-02  0.8035612E-01
        2   -1    0    0  501    0  0.00000000000E+00  0.00000000000E+00  0.18989680736E+04  0.18989680736E+04  0.25500000920E-02 0.  1.
       -2   -1    0    0    0  501  0.00000000000E+00  0.00000000000E+00 -0.19508981670E+04  0.19508981670E+04  0.25500000920E-02 0. -1.
    10030    2    1    2    0    0  0.00000000000E+00  0.00000000000E+00 -0.51930093473E+02  0.38498662406E+04  0.38495159872E+04 0.  0.
        2    1    3    3  502    0 -0.46134518215E+03  0.85650408087E+03 -0.16869155777E+04  0.19473373575E+04  0.25500000920E-02 0. -1.
       -2    1    3    3    0  502  0.46134518215E+03 -0.85650408087E+03  0.16349854842E+04  0.19025288831E+04  0.25500000920E-02 0.  1.
</event>
<event>
 5   0  0.5159761E-08  0.3788210E+04  0.7818609E-02  0.8048690E-01
       -2   -1    0    0    0  501  0.00000000000E+00  0.00000000000E+00  0.15125456373E+04  0.15125456373E+04  0.25500000920E-02 0. -1.
        2   -1    0    0  501    0  0.00000000000E+00  0.00000000000E+00 -0.23719174336E+04  0.23719174336E+04  0.25500000920E-02 0.  1.
    10030    2    1    2    0    0  0.00000000000E+00  0.00000000000E+00 -0.85937179629E+03  0.38844630709E+04  0.37882097969E+04 0.  0.
        5    1    3    3  502    0  0.15333736536E+04  0.54883452155E+03  0.56192041041E+03  0.17228554006E+04  0.46999998093E+01 0. -1.
       -5    1    3    3    0  502 -0.15333736536E+04 -0.54883452155E+03 -0.14212922067E+04  0.21616076703E+04  0.46999998093E+01 0.  1.
</event>
<event>
 5   0  0.1628250E-08  0.3819471E+04  0.7818609E-02  0.8041989E-01
        1   -1    0    0  501    0  0.00000000000E+00  0.00000000000E+00  0.21942251361E+04  0.21942251361E+04  0.50400001928E-02 0. -1.
       -1   -1    0    0    0  501  0.00000000000E+00  0.00000000000E+00 -0.16621309279E+04  0.16621309279E+04  0.50400001928E-02 0.  1.
    10030    2    1    2    0    0  0.00000000000E+00  0.00000000000E+00  0.53209420825E+03  0.38563560641E+04  0.38194708856E+04 0.  0.
        1    1    3    3  502    0 -0.12246892104E+03  0.18789091979E+04  0.58817528607E+03  0.19726247940E+04  0.50400001928E-02 0. -1.
       -1    1    3    3    0  502  0.12246892104E+03 -0.18789091979E+04 -0.56081077817E+02  0.18837312701E+04  0.50400001928E-02 0.  1.
</event>
<event>
 5   0  0.1628250E-08  0.3801253E+04  0.7818609E-02  0.8045886E-01
        1   -1    0    0  501    0  0.00000000000E+00  0.00000000000E+00  0.20774520422E+04  0.20774520422E+04  0.50400001928E-02 0.  1.
       -1   -1    0    0    0  501  0.00000000000E+00  0.00000000000E+00 -0.17388513466E+04  0.17388513466E+04  0.50400001928E-02 0. -1.
    10030    2    1    2    0    0  0.00000000000E+00  0.00000000000E+00  0.33860069554E+03  0.38163033888E+04  0.38012525731E+04 0.  0.
        4    1    3    3  502    0  0.17666698317E+02 -0.13567783549E+04 -0.11668406910E+04  0.17896028687E+04  0.12699999809E+01 0. -1.
       -4    1    3    3    0  502 -0.17666698317E+02  0.13567783549E+04  0.15054413866E+04  0.20267005201E+04  0.12699999809E+01 0.  1.
</event>
<event>
 5   0  0.5086209E-08  0.3800253E+04  0.7818609E-02  0.8046101E-01
       -2   -1    0    0    0  501  0.00000000000E+00  0.00000000000E+00  0.12938518345E+04  0.12938518345E+04  0.25500000920E-02 0. -1.
        2   -1    0    0  501    0  0.00000000000E+00  0.00000000000E+00 -0.27904904670E+04  0.27904904670E+04  0.25500000920E-02 0.  1.
    10030    2    1    2    0    0  0.00000000000E+00  0.00000000000E+00 -0.14966386326E+04  0.40843423015E+04  0.38002532599E+04 0.  0.
        3    1    3    3  502    0 -0.11835595342E+04  0.12602998550E+03 -0.23401855517E+04  0.26254837945E+04  0.10100000352E+00 0.  1.
       -3    1    3    3    0  502  0.11835595342E+04 -0.12602998550E+03  0.84354691918E+03  0.14588585070E+04  0.10100000352E+00 0. -1.
</event>
<event>
 5   0  0.1628250E-08  0.3802236E+04  0.7818609E-02  0.8045675E-01
       -1   -1    0    0    0  501  0.00000000000E+00  0.00000000000E+00  0.17893821973E+04  0.17893821973E+04  0.50400001928E-02 0. -1.
        1   -1    0    0  501    0  0.00000000000E+00  0.00000000000E+00 -0.20198314990E+04  0.20198314991E+04  0.50400001928E-02 0.  1.
    10030    2    1    2    0    0  0.00000000000E+00  0.00000000000E+00 -0.23044930174E+03  0.38092136964E+04  0.38022364608E+04 0.  0.
        5    1    3    3  502    0  0.11114948589E+04 -0.13018522395E+04 -0.94377817910E+03  0.19547325689E+04  0.46999998093E+01 0.  1.
       -5    1    3    3    0  502 -0.11114948589E+04  0.13018522395E+04  0.71332887736E+03  0.18544811274E+04  0.46999998093E+01 0. -1.
</event>
<event>
 5   0  0.5147582E-08  0.3802780E+04  0.7818609E-02  0.8045559E-01
        2   -1    0    0  501    0  0.00000000000E+00  0.00000000000E+00  0.27006763423E+04  0.27006763423E+04  0.25500000920E-02 0.  1.
       -2   -1    0    0    0  501  0.00000000000E+00  0.00000000000E+00 -0.13386585393E+04  0.13386585393E+04  0.25500000920E-02 0. -1.
    10030    2    1    2    0    0  0.00000000000E+00  0.00000000000E+00  0.13620178030E+04  0.40393348817E+04  0.38027797452E+04 0.  0.
        1    1    3    3  502    0 -0.30204879852E+03 -0.11327670991E+04 -0.90907056102E+03  0.14835107221E+04  0.50400001928E-02 0. -1.
       -1    1    3    3    0  502  0.30204879852E+03  0.11327670991E+04  0.22710883640E+04  0.25558241596E+04  0.50400001928E-02 0.  1.
</event>
<event>
 5   0  0.1628250E-08  0.3800331E+04  0.7818609E-02  0.8046084E-01
       -1   -1    0    0    0  501  0.00000000000E+00  0.00000000000E+00  0.24630625460E+04  0.24630625460E+04  0.50400001928E-02 0. -1.
        1   -1    0    0  501    0  0.00000000000E+00  0.00000000000E+00 -0.14659101617E+04  0.14659101617E+04  0.50400001928E-02 0.  1.
    10030    2    1    2    0    0  0.00000000000E+00  0.00000000000E+00  0.99715238428E+03  0.39289727077E+04  0.38003307304E+04 0.  0.
        1    1    3    3  502    0 -0.34394131753E+03  0.18302515129E+03 -0.14241724556E+04  0.14765029696E+04  0.50400001928E-02 0.  1.
       -1    1    3    3    0  502  0.34394131753E+03 -0.18302515129E+03  0.24213248399E+04  0.24524697381E+04  0.50400001928E-02 0. -1.
</event>
<event>
 5   0  0.5140842E-08  0.3804142E+04  0.7818609E-02  0.8045267E-01
       -2   -1    0    0    0  501  0.00000000000E+00  0.00000000000E+00  0.14476003858E+04  0.14476003858E+04  0.25500000920E-02 0. -1.
        2   -1    0    0  501    0  0.00000000000E+00  0.00000000000E+00 -0.24992215309E+04  0.24992215309E+04  0.25500000920E-02 0.  1.
    10030    2    1    2    0    0  0.00000000000E+00  0.00000000000E+00 -0.10516211450E+04  0.39468219167E+04  0.38041419807E+04 0.  0.
        2    1    3    3  502    0 -0.11762556667E+04  0.78919663828E+03 -0.18428576411E+04  0.23243349614E+04  0.25500000920E-02 0.  1.
       -2    1    3    3    0  502  0.11762556667E+04 -0.78919663828E+03  0.79123649614E+03  0.16224869553E+04  0.25500000920E-02 0. -1.
</event>
<event>
 5   0  0.1628473E-08  0.3801811E+04  0.7818609E-02  0.8045766E-01
        1   -1    0    0  501    0  0.00000000000E+00  0.00000000000E+00  0.20338276418E+04  0.20338276418E+04  0.50400001928E-02 0. -1.
       -1   -1    0    0    0  501  0.00000000000E+00  0.00000000000E+00 -0.17766702007E+04  0.17766702007E+04  0.50400001928E-02 0.  1.
    10030    2    1    2    0    0  0.00000000000E+00  0.00000000000E+00  0.25715744109E+03  0.38104978425E+04  0.38018106026E+04 0.  0.
        3    1    3    3  502    0  0.11571961099E+04  0.12210073637E+04 -0.75858742404E+03  0.18453771184E+04  0.10100000352E+00 0.  1.
       -3    1    3    3    0  502 -0.11571961099E+04 -0.12210073637E+04  0.10157448651E+04  0.19651207241E+04  0.10100000352E+00 0. -1.
</event>
<event>
 5   0  0.5207474E-08  0.3800281E+04  0.7818609E-02  0.8046095E-01
       -2   -1    0    0    0  501  0.00000000000E+00  0.00000000000E+00  0.16392100953E+04  0.16392100953E+04  0.25500000920E-02 0.  1.
        2   -1    0    0  501    0  0.00000000000E+00  0.00000000000E+00 -0.22026054620E+04  0.22026054620E+04  0.25500000920E-02 0. -1.
    10030    2    1    2    0    0  0.00000000000E+00  0.00000000000E+00 -0.56339536669E+03  0.38418155573E+04  0.38002805734E+04 0.  0.
        4    1    3    3  502    0  0.71683889549E+03  0.14280970223E+03 -0.20547996088E+04  0.21809299985E+04  0.12699999809E+01 0. -1.
       -4    1    3    3    0  502 -0.71683889549E+03 -0.14280970223E+03  0.14914042421E+04  0.16608855588E+04  0.12699999809E+01 0.  1.
</event>
<event>
 5   0  0.5147582E-08  0.3797265E+04  0.7818609E-02  0.8046742E-01
       -2   -1    0    0    0  501  0.00000000000E+00  0.00000000000E+00  0.12137034024E+04  0.12137034024E+04  0.25500000920E-02 0.  1.
        2   -1    0    0  501    0  0.00000000000E+00  0.00000000000E+00 -0.29700882084E+04  0.29700882084E+04  0.25500000920E-02 0. -1.
    10030    2    1    2    0    0  0.00000000000E+00  0.00000000000E+00 -0.17563848060E+04  0.41837916108E+04  0.37972654181E+04 0.  0.
        1    1    3    3  502    0 -0.14764341289E+02  0.17136428330E+04 -0.17787109442E+04  0.24699397498E+04  0.50400001928E-02 0.  1.
       -1    1    3    3    0  502  0.14764341289E+02 -0.17136428330E+04  0.22326138203E+02  0.17138518609E+04  0.50400001928E-02 0. -1.
</event>
<event>
 5   0  0.1628473E-08  0.3792661E+04  0.7818609E-02  0.8047732E-01
       -1   -1    0    0    0  501  0.00000000000E+00  0.00000000000E+00  0.19360782757E+04  0.19360782757E+04  0.50400001928E-02 0.  1.
        1   -1    0    0  501    0  0.00000000000E+00  0.00000000000E+00 -0.18573984339E+04  0.18573984339E+04  0.50400001928E-02 0. -1.
    10030    2    1    2    0    0  0.00000000000E+00  0.00000000000E+00  0.78679841780E+02  0.37934767096E+04  0.37926606793E+04 0.  0.
        3    1    3    3  502    0 -0.40392321992E+03  0.55809252054E+03 -0.17278020898E+04  0.18600863692E+04  0.10100000352E+00 0. -1.
       -3    1    3    3    0  502  0.40392321992E+03 -0.55809252054E+03  0.18064819316E+04  0.19333903404E+04  0.10100000352E+00 0.  1.
</event>
<event>
 5   0  0.1628250E-08  0.3800915E+04  0.7818609E-02  0.8045959E-01
       -1   -1    0    0    0  501  0.00000000000E+00  0.00000000000E+00  0.16408505450E+04  0.16408505450E+04  0.50400001928E-02 0. -1.
        1   -1    0    0  501    0  0.00000000000E+00  0.00000000000E+00 -0.22011380218E+04  0.22011380218E+04  0.50400001928E-02 0.  1.
    10030    2    1    2    0    0  0.00000000000E+00  0.00000000000E+00 -0.56028747684E+03  0.38419885668E+04  0.38009149018E+04 0.  0.
        5    1    3    3  502    0  0.71651359840E+03 -0.72068060269E+03 -0.19034067457E+04  0.21577190729E+04  0.46999998093E+01 0.  1.
       -5    1    3    3    0  502 -0.71651359840E+03  0.72068060269E+03  0.13431192689E+04  0.16842694940E+04  0.46999998093E+01 0. -1.
</event>
<event>
 5   0  0.1628473E-08  0.3803761E+04  0.7818609E-02  0.8045348E-01
       -1   -1    0    0    0  501  0.00000000000E+00  0.00000000000E+00  0.12304680829E+04  0.12304680829E+04  0.50400001928E-02 0. -1.
        1   -1    0    0  501    0  0.00000000000E+00  0.00000000000E+00 -0.29396530209E+04  0.29396530209E+04  0.50400001928E-02 0.  1.
    10030    2    1    2    0    0  0.00000000000E+00  0.00000000000E+00 -0.17091849380E+04  0.41701211038E+04  0.38037608847E+04 0.  0.
        3    1    3    3  502    0  0.36185862317E+03  0.17315951824E+04 -0.88907754737E+02  0.17712335075E+04  0.10100000352E+00 0. -1.
       -3    1    3    3    0  502 -0.36185862317E+03 -0.17315951824E+04 -0.16202771832E+04  0.23988875963E+04  0.10100000352E+00 0.  1.
</event>
<event>
 5   0  0.1628250E-08  0.3809525E+04  0.7818609E-02  0.8044114E-01
       -3   -1    0    0    0  501  0.00000000000E+00  0.00000000000E+00  0.19961606707E+04  0.19961606732E+04  0.10100000352E+00 0.  1.
        3   -1    0    0  501    0  0.00000000000E+00  0.00000000000E+00 -0.18175489299E+04  0.18175489327E+04  0.10100000352E+00 0. -1.
    10030    2    1    2    0    0  0.00000000000E+00  0.00000000000E+00  0.17861174073E+03  0.38137096060E+04  0.38095247479E+04 0.  0.
        3    1    3    3  502    0 -0.27354598299E+03  0.11987314392E+04  0.15456669076E+04  0.19750621934E+04  0.10100000352E+00 0.  1.
       -3    1    3    3    0  502  0.27354598299E+03 -0.11987314392E+04 -0.13670551669E+04  0.18386474126E+04  0.10100000352E+00 0. -1.
</event>
<event>
 5   0  0.5140842E-08  0.3804645E+04  0.7818609E-02  0.8045159E-01
       -2   -1    0    0    0  501  0.00000000000E+00  0.00000000000E+00  0.18381039226E+04  0.18381039226E+04  0.25500000920E-02 0.  1.
        2   -1    0    0  501    0  0.00000000000E+00  0.00000000000E+00 -0.19687848324E+04  0.19687848324E+04  0.25500000920E-02 0. -1.
    10030    2    1    2    0    0  0.00000000000E+00  0.00000000000E+00 -0.13068090980E+03  0.38068887550E+04  0.38046451205E+04 0.  0.
        2    1    3    3  502    0 -0.17702208437E+04 -0.36826483056E+03  0.52621906568E+03  0.18831376280E+04  0.25500000920E-02 0.  1.
       -2    1    3    3    0  502  0.17702208437E+04  0.36826483056E+03 -0.65689997547E+03  0.19237511270E+04  0.25500000920E-02 0. -1.
</event>
<event>
 5   0  0.1628473E-08  0.3800254E+04  0.7818609E-02  0.8046100E-01
        1   -1    0    0  501    0  0.00000000000E+00  0.00000000000E+00  0.21461912636E+04  0.21461912636E+04  0.50400001928E-02 0.  1.
       -1   -1    0    0    0  501  0.00000000000E+00  0.00000000000E+00 -0.16822747550E+04  0.16822747550E+04  0.50400001928E-02 0. -1.
    10030    2    1    2    0    0  0.00000000000E+00  0.00000000000E+00  0.46391650859E+03  0.38284660186E+04  0.38002544031E+04 0.  0.
        3    1    3    3  502    0  0.30469607758E+03  0.15914512187E+04 -0.76784392507E+03  0.17930814217E+04  0.10100000352E+00 0. -1.
       -3    1    3    3    0  502 -0.30469607758E+03 -0.15914512187E+04  0.12317604337E+04  0.20353845969E+04  0.10100000352E+00 0.  1.
</event>
<event>
 5   0  0.5147582E-08  0.3802713E+04  0.7818609E-02  0.8045573E-01
        2   -1    0    0  501    0  0.00000000000E+00  0.00000000000E+00  0.21396592335E+04  0.21396592335E+04  0.25500000920E-02 0. -1.
       -2   -1    0    0    0  501  0.00000000000E+00  0.00000000000E+00 -0.16895943177E+04  0.16895943177E+04  0.25500000920E-02 0.  1.
    10030    2    1    2    0    0  0.00000000000E+00  0.00000000000E+00  0.45006491581E+03  0.38292535512E+04  0.38027127594E+04 0.  0.
        1    1    3    3  502    0 -0.10600756083E+04 -0.46430332053E+03  0.17441430304E+04  0.20931728976E+04  0.50400001928E-02 0. -1.
       -1    1    3    3    0  502  0.10600756083E+04  0.46430332053E+03 -0.12940781146E+04  0.17360806535E+04  0.50400001928E-02 0.  1.
</event>
<event>
 5   0  0.5207474E-08  0.3797846E+04  0.7818609E-02  0.8046617E-01
        2   -1    0    0  501    0  0.00000000000E+00  0.00000000000E+00  0.20604057621E+04  0.20604057621E+04  0.25500000920E-02 0. -1.
       -2   -1    0    0    0  501  0.00000000000E+00  0.00000000000E+00 -0.17500963616E+04  0.17500963616E+04  0.25500000920E-02 0.  1.
    10030    2    1    2    0    0  0.00000000000E+00  0.00000000000E+00  0.31030940050E+03  0.38105021238E+04  0.37978460357E+04 0.  0.
        4    1    3    3  502    0 -0.30441727908E+03 -0.86992832992E+03  0.18209469819E+04  0.20409053635E+04  0.12699999809E+01 0. -1.
       -4    1    3    3    0  502  0.30441727908E+03  0.86992832992E+03 -0.15106375814E+04  0.17695967603E+04  0.12699999809E+01 0.  1.
</event>
<event>
 5   0  0.1628250E-08  0.3796896E+04  0.7818609E-02  0.8046821E-01
        1   -1    0    0  501    0  0.00000000000E+00  0.00000000000E+00  0.15906905936E+04  0.15906905936E+04  0.50400001928E-02 0. -1.
       -1   -1    0    0    0  501  0.00000000000E+00  0.00000000000E+00 -0.22657479068E+04  0.22657479068E+04  0.50400001928E-02 0.  1.
    10030    2    1    2    0    0  0.00000000000E+00  0.00000000000E+00 -0.67505731325E+03  0.38564385004E+04  0.37968955123E+04 0.  0.
        5    1    3    3  502    0 -0.96884123363E+03 -0.32493431313E+03 -0.19625710541E+04  0.22126777615E+04  0.46999998093E+01 0.  1.
       -5    1    3    3    0  502  0.96884123363E+03  0.32493431313E+03  0.12875137409E+04  0.16437607389E+04  0.46999998093E+01 0. -1.
</event>
<event>
 5   0  0.5086209E-08  0.3820401E+04  0.7818609E-02  0.8041791E-01
       -2   -1    0    0    0  501  0.00000000000E+00  0.00000000000E+00  0.17166226137E+04  0.17166226137E+04  0.25500000920E-02 0.  1.
        2   -1    0    0  501    0  0.00000000000E+00  0.00000000000E+00 -0.21256071956E+04  0.21256071956E+04  0.25500000920E-02 0. -1.
    10030    2    1    2    0    0  0.00000000000E+00  0.00000000000E+00 -0.40898458188E+03  0.38422298093E+04  0.38204007014E+04 0.  0.
        3    1    3    3  502    0 -0.87853340911E+03  0.11167538584E+04  0.10794798441E+04  0.17844430154E+04  0.10100000352E+00 0.  1.
       -3    1    3    3    0  502  0.87853340911E+03 -0.11167538584E+04 -0.14884644260E+04  0.20577867939E+04  0.10100000352E+00 0. -1.
</event>
<event>
 5   0  0.5086209E-08  0.3830034E+04  0.7818609E-02  0.8039740E-01
       -2   -1    0    0    0  501  0.00000000000E+00  0.00000000000E+00  0.13751264465E+04  0.13751264465E+04  0.25500000920E-02 0.  1.
        2   -1    0    0  501    0  0.00000000000E+00  0.00000000000E+00 -0.26668746580E+04  0.26668746580E+04  0.25500000920E-02 0. -1.
    10030    2    1    2    0    0  0.00000000000E+00  0.00000000000E+00 -0.12917482115E+04  0.40420011046E+04  0.38300338755E+04 0.  0.
        3    1    3    3  502    0 -0.17232827251E+03 -0.56230771313E+03  0.12774593699E+04  0.14063390238E+04  0.10100000352E+00 0.  1.
       -3    1    3    3    0  502  0.17232827251E+03  0.56230771313E+03 -0.25692075814E+04  0.26356620808E+04  0.10100000352E+00 0. -1.
</event>
<event>
 5   0  0.1666051E-08  0.3772291E+04  0.7818609E-02  0.8052127E-01
       -1   -1    0    0    0  501  0.00000000000E+00  0.00000000000E+00  0.13299005646E+04  0.13299005646E+04  0.50400001928E-02 0. -1.
        1   -1    0    0  501    0  0.00000000000E+00  0.00000000000E+00 -0.26750462931E+04  0.26750462931E+04  0.50400001928E-02 0.  1.
    10030    2    1    2    0    0  0.00000000000E+00  0.00000000000E+00 -0.13451457285E+04  0.40049468576E+04  0.37722913861E+04 0.  0.
        2    1    3    3  502    0  0.12193645512E+04 -0.64223778369E+03 -0.20397142323E+04  0.24616566432E+04  0.25500000920E-02 0.  1.
       -2    1    3    3    0  502 -0.12193645512E+04  0.64223778369E+03  0.69456850378E+03  0.15432902145E+04  0.25500000920E-02 0. -1.
</event>
<event>
 5   0  0.1628250E-08  0.3794907E+04  0.7818609E-02  0.8047249E-01
        1   -1    0    0  501    0  0.00000000000E+00  0.00000000000E+00  0.29760706090E+04  0.29760706090E+04  0.50400001928E-02 0.  1.
       -1   -1    0    0    0  501  0.00000000000E+00  0.00000000000E+00 -0.12097597893E+04  0.12097597893E+04  0.50400001928E-02 0. -1.
    10030    2    1    2    0    0  0.00000000000E+00  0.00000000000E+00  0.17663108197E+04  0.41858303983E+04  0.37949074049E+04 0.  0.
        5    1    3    3  502    0  0.43439254698E+03 -0.13260662711E+04 -0.53504584372E+03  0.14944714066E+04  0.46999998093E+01 0. -1.
       -5    1    3    3    0  502 -0.43439254698E+03  0.13260662711E+04  0.23013566634E+04  0.26913589917E+04  0.46999998093E+01 0.  1.
</event>
<event>
 5   0  0.1628250E-08  0.3797807E+04  0.7818609E-02  0.8046626E-01
        1   -1    0    0  501    0  0.00000000000E+00  0.00000000000E+00  0.23790827285E+04  0.23790827285E+04  0.50400001928E-02 0. -1.
       -1   -1    0    0    0  501  0.00000000000E+00  0.00000000000E+00 -0.15156402690E+04  0.15156402690E+04  0.50400001928E-02 0.  1.
    10030    2    1    2    0    0  0.00000000000E+00  0.00000000000E+00  0.86344245951E+03  0.38947229974E+04  0.37978065177E+04 0.  0.
        1    1    3    3  502    0 -0.14812686138E+04  0.97157286894E+03 -0.26963413230E+03  0.17918741896E+04  0.50400001928E-02 0. -1.
       -1    1    3    3    0  502  0.14812686138E+04 -0.97157286894E+03  0.11330765918E+04  0.21028488079E+04  0.50400001928E-02 0.  1.
</event>
<event>
 5   0  0.5159761E-08  0.3801037E+04  0.7818609E-02  0.8045932E-01
       -2   -1    0    0    0  501  0.00000000000E+00  0.00000000000E+00  0.20365395364E+04  0.20365395364E+04  0.25500000920E-02 0.  1.
        2   -1    0    0  501    0  0.00000000000E+00  0.00000000000E+00 -0.17735827532E+04  0.17735827532E+04  0.25500000920E-02 0. -1.
    10030    2    1    2    0    0  0.00000000000E+00  0.00000000000E+00  0.26295678319E+03  0.38101222895E+04  0.38010374362E+04 0.  0.
        5    1    3    3  502    0  0.13710256393E+03  0.32467657974E+03 -0.17405337098E+04  0.17758636433E+04  0.46999998093E+01 0. -1.
       -5    1    3    3    0  502 -0.13710256393E+03 -0.32467657974E+03  0.20034904930E+04  0.20342586463E+04  0.46999998093E+01 0.  1.
</event>
<event>
 5   0  0.5086209E-08  0.3803155E+04  0.7818609E-02  0.8045478E-01
       -2   -1    0    0    0  501  0.00000000000E+00  0.00000000000E+00  0.16655907255E+04  0.16655907255E+04  0.25500000920E-02 0. -1.
        2   -1    0    0  501    0  0.00000000000E+00  0.00000000000E+00 -0.21709992178E+04  0.21709992178E+04  0.25500000920E-02 0.  1.
    10030    2    1    2    0    0  0.00000000000E+00  0.00000000000E+00 -0.50540849237E+03  0.38365899433E+04  0.38031545655E+04 0.  0.
        3    1    3    3  502    0  0.18071814831E+04 -0.12817667369E+03  0.33000883679E+03  0.18415319750E+04  0.10100000352E+00 0. -1.
       -3    1    3    3    0  502 -0.18071814831E+04  0.12817667369E+03 -0.83541732917E+03  0.19950579682E+04  0.10100000352E+00 0.  1.
</event>
<event>
 5   0  0.5207474E-08  0.3811628E+04  0.7818609E-02  0.8043664E-01
       -2   -1    0    0    0  501  0.00000000000E+00  0.00000000000E+00  0.14612773511E+04  0.14612773511E+04  0.25500000920E-02 0. -1.
        2   -1    0    0  501    0  0.00000000000E+00  0.00000000000E+00 -0.24855841581E+04  0.24855841581E+04  0.25500000920E-02 0.  1.
    10030    2    1    2    0    0  0.00000000000E+00  0.00000000000E+00 -0.10243068070E+04  0.39468615092E+04  0.38116284365E+04 0.  0.
        4    1    3    3  502    0  0.18392940194E+03 -0.41360459256E+03  0.14048054561E+04  0.14759331849E+04  0.12699999809E+01 0. -1.
       -4    1    3    3    0  502 -0.18392940194E+03  0.41360459256E+03 -0.24291122631E+04  0.24709283242E+04  0.12699999809E+01 0.  1.
</event>
<event>
 5   0  0.5086209E-08  0.3789342E+04  0.7818609E-02  0.8048446E-01
        2   -1    0    0  501    0  0.00000000000E+00  0.00000000000E+00  0.17772298297E+04  0.17772298297E+04  0.25500000920E-02 0.  1.
       -2   -1    0    0    0  501  0.00000000000E+00  0.00000000000E+00 -0.20198724464E+04  0.20198724464E+04  0.25500000920E-02 0. -1.
    10030    2    1    2    0    0  0.00000000000E+00  0.00000000000E+00 -0.24264261668E+03  0.37971022761E+04  0.37893416652E+04 0.  0.
        3    1    3    3  502    0  0.17368078975E+04  0.30285019243E+03  0.57404343905E+03  0.18541159057E+04  0.10100000352E+00 0.  1.
       -3    1    3    3    0  502 -0.17368078975E+04 -0.30285019243E+03 -0.81668605573E+03  0.19429863704E+04  0.10100000352E+00 0. -1.
</event>
<event>
 5   0  0.1628250E-08  0.3792251E+04  0.7818609E-02  0.8047820E-01
       -1   -1    0    0    0  501  0.00000000000E+00  0.00000000000E+00  0.24601804229E+04  0.24601804229E+04  0.50400001928E-02 0. -1.
        1   -1    0    0  501    0  0.00000000000E+00  0.00000000000E+00 -0.14613934045E+04  0.14613934045E+04  0.50400001928E-02 0.  1.
    10030    2    1    2    0    0  0.00000000000E+00  0.00000000000E+00  0.99878701837E+03  0.39215738274E+04  0.37922507533E+04 0.  0.
        5    1    3    3  502    0 -0.39510665826E+03  0.34756759755E+03 -0.13843635497E+04  0.14810121654E+04  0.46999998093E+01 0.  1.
       -5    1    3    3    0  502  0.39510665826E+03 -0.34756759755E+03  0.23831505681E+04  0.24405616621E+04  0.46999998093E+01 0. -1.
</event>
<event>
 5   0  0.1628250E-08  0.3796414E+04  0.7818609E-02  0.8046925E-01
       -1   -1    0    0    0  501  0.00000000000E+00  0.00000000000E+00  0.17843490884E+04  0.17843490884E+04  0.50400001928E-02 0. -1.
        1   -1    0    0  501    0  0.00000000000E+00  0.00000000000E+00 -0.20193297618E+04  0.20193297618E+04  0.50400001928E-02 0.  1.
    10030    2    1    2    0    0  0.00000000000E+00  0.00000000000E+00 -0.23498067337E+03  0.38036788502E+04  0.37964136864E+04 0.  0.
        4    1    3    3  502    0  0.31067873464E+03  0.18204984575E+04  0.32204235578E+03  0.18746863209E+04  0.12699999809E+01 0.  1.
       -4    1    3    3    0  502 -0.31067873464E+03 -0.18204984575E+04 -0.55702302915E+03  0.19289925293E+04  0.12699999809E+01 0. -1.
</event>
<event>
 5   0  0.1628250E-08  0.3794592E+04  0.7818609E-02  0.8047316E-01
        1   -1    0    0  501    0  0.00000000000E+00  0.00000000000E+00  0.14524113817E+04  0.14524113817E+04  0.50400001928E-02 0.  1.
       -1   -1    0    0    0  501  0.00000000000E+00  0.00000000000E+00 -0.24784517918E+04  0.24784517919E+04  0.50400001928E-02 0. -1.
    10030    2    1    2    0    0  0.00000000000E+00  0.00000000000E+00 -0.10260404102E+04  0.39308631735E+04  0.37945917258E+04 0.  0.
        5    1    3    3  502    0  0.20385007744E+03 -0.13851292104E+04  0.81342123293E+03  0.16192016477E+04  0.46999998093E+01 0.  1.
       -5    1    3    3    0  502 -0.20385007744E+03  0.13851292104E+04 -0.18394616431E+04  0.23116615259E+04  0.46999998093E+01 0. -1.
</event>
<event>
 5   0  0.1628250E-08  0.3801104E+04  0.7818609E-02  0.8045918E-01
       -1   -1    0    0    0  501  0.00000000000E+00  0.00000000000E+00  0.20344476363E+04  0.20344476363E+04  0.50400001928E-02 0. -1.
        1   -1    0    0  501    0  0.00000000000E+00  0.00000000000E+00 -0.17754688441E+04  0.17754688441E+04  0.50400001928E-02 0.  1.
    10030    2    1    2    0    0  0.00000000000E+00  0.00000000000E+00  0.25897879221E+03  0.38099164803E+04  0.38011042570E+04 0.  0.
        4    1    3    3  502    0  0.24913315680E+03  0.14842140323E+04  0.12928430075E+04  0.19840371162E+04  0.12699999809E+01 0. -1.
       -4    1    3    3    0  502 -0.24913315680E+03 -0.14842140323E+04 -0.10338642153E+04  0.18258793641E+04  0.12699999809E+01 0.  1.
</event>
<event>
 5   0  0.5086209E-08  0.3794881E+04  0.7818609E-02  0.8047254E-01
       -2   -1    0    0    0  501  0.00000000000E+00  0.00000000000E+00  0.16862598043E+04  0.16862598043E+04  0.25500000920E-02 0. -1.
        2   -1    0    0  501    0  0.00000000000E+00  0.00000000000E+00 -0.21350683200E+04  0.21350683200E+04  0.25500000920E-02 0.  1.
    10030    2    1    2    0    0  0.00000000000E+00  0.00000000000E+00 -0.44880851569E+03  0.38213281243E+04  0.37948807030E+04 0.  0.
        3    1    3    3  502    0 -0.79967191946E+03  0.88434532141E+03  0.12619376122E+04  0.17360957271E+04  0.10100000352E+00 0. -1.
       -3    1    3    3    0  502  0.79967191946E+03 -0.88434532141E+03 -0.17107461279E+04  0.20852323973E+04  0.10100000352E+00 0.  1.
</event>
<event>
 5   0  0.1628473E-08  0.3789895E+04  0.7818609E-02  0.8048327E-01
       -1   -1    0    0    0  501  0.00000000000E+00  0.00000000000E+00  0.20680793417E+04  0.20680793417E+04  0.50400001928E-02 0. -1.
        1   -1    0    0  501    0  0.00000000000E+00  0.00000000000E+00 -0.17363091753E+04  0.17363091753E+04  0.50400001928E-02 0.  1.
    10030    2    1    2    0    0  0.00000000000E+00  0.00000000000E+00  0.33177016637E+03  0.38043885170E+04  0.37898945295E+04 0.  0.
        3    1    3    3  502    0 -0.15720445361E+03 -0.16267301000E+04 -0.79687673231E+03  0.18182344720E+04  0.10100000352E+00 0.  1.
       -3    1    3    3    0  502  0.15720445361E+03  0.16267301000E+04  0.11286468987E+04  0.19861540450E+04  0.10100000352E+00 0. -1.
</event>
<event>
 5   0  0.5159761E-08  0.3795847E+04  0.7818609E-02  0.8047047E-01
        2   -1    0    0  501    0  0.00000000000E+00  0.00000000000E+00  0.13483422449E+04  0.13483422449E+04  0.25500000920E-02 0. -1.
       -2   -1    0    0    0  501  0.00000000000E+00  0.00000000000E+00 -0.26715130353E+04  0.26715130353E+04  0.25500000920E-02 0.  1.
    10030    2    1    2    0    0  0.00000000000E+00  0.00000000000E+00 -0.13231707904E+04  0.40198552802E+04  0.37958471431E+04 0.  0.
        5    1    3    3  502    0  0.82776635608E+03  0.14644738715E+04  0.26902880682E+03  0.17036077745E+04  0.46999998093E+01 0.  1.
       -5    1    3    3    0  502 -0.82776635608E+03 -0.14644738715E+04 -0.15921995972E+04  0.23162475057E+04  0.46999998093E+01 0. -1.
</event>
<event>
 5   0  0.5086209E-08  0.3796669E+04  0.7818609E-02  0.8046870E-01
        2   -1    0    0  501    0  0.00000000000E+00  0.00000000000E+00  0.28912229181E+04  0.28912229181E+04  0.25500000920E-02 0. -1.
       -2   -1    0    0    0  501  0.00000000000E+00  0.00000000000E+00 -0.12464182806E+04  0.12464182806E+04  0.25500000920E-02 0.  1.
    10030    2    1    2    0    0  0.00000000000E+00  0.00000000000E+00  0.16448046376E+04  0.41376411987E+04  0.37966685915E+04 0.  0.
        3    1    3    3  502    0 -0.77518012653E+03  0.50642602805E+03 -0.98362471995E+03  0.13508845807E+04  0.10100000352E+00 0.  1.
       -3    1    3    3    0  502  0.77518012653E+03 -0.50642602805E+03  0.26284293575E+04  0.27867566180E+04  0.10100000352E+00 0. -1.
</event>
<event>
 5   0  0.1628473E-08  0.3798161E+04  0.7818609E-02  0.8046550E-01
       -1   -1    0    0    0  501  0.00000000000E+00  0.00000000000E+00  0.16431088204E+04  0.16431088204E+04  0.50400001928E-02 0.  1.
        1   -1    0    0  501    0  0.00000000000E+00  0.00000000000E+00 -0.21949286423E+04  0.21949286423E+04  0.50400001928E-02 0. -1.
    10030    2    1    2    0    0  0.00000000000E+00  0.00000000000E+00 -0.55181982188E+03  0.38380374627E+04  0.37981609298E+04 0.  0.
        3    1    3    3  502    0  0.13290038844E+04 -0.77374571863E+03 -0.14018672844E+04  0.20809050087E+04  0.10100000352E+00 0. -1.
       -3    1    3    3    0  502 -0.13290038844E+04  0.77374571863E+03  0.85004746255E+03  0.17571324539E+04  0.10100000352E+00 0.  1.
</event>
<event>
 5   0  0.5207474E-08  0.3796333E+04  0.7818609E-02  0.8046942E-01
        2   -1    0    0  501    0  0.00000000000E+00  0.00000000000E+00  0.15011826618E+04  0.15011826618E+04  0.25500000920E-02 0. -1.
       -2   -1    0    0    0  501  0.00000000000E+00  0.00000000000E+00 -0.24001311527E+04  0.24001311527E+04  0.25500000920E-02 0.  1.
    10030    2    1    2    0    0  0.00000000000E+00  0.00000000000E+00 -0.89894849092E+03  0.39013138145E+04  0.37963325842E+04 0.  0.
        4    1    3    3  502    0 -0.43988537082E+03  0.14588971510E+04 -0.16126550793E+04  0.22186793491E+04  0.12699999809E+01 0.  1.
       -4    1    3    3    0  502  0.43988537082E+03 -0.14588971510E+04  0.71370658834E+03  0.16826344653E+04  0.12699999809E+01 0. -1.
</event>
<event>
 5   0  0.5159761E-08  0.3711088E+04  0.7818609E-02  0.8065509E-01
       -2   -1    0    0    0  501  0.00000000000E+00  0.00000000000E+00  0.15961646489E+04  0.15961646489E+04  0.25500000920E-02 0. -1.
        2   -1    0    0  501    0  0.00000000000E+00  0.00000000000E+00 -0.21570734583E+04  0.21570734583E+04  0.25500000920E-02 0.  1.
    10030    2    1    2    0    0  0.00000000000E+00  0.00000000000E+00 -0.56090880933E+03  0.37532381072E+04  0.37110884653E+04 0.  0.
        5    1    3    3  502    0  0.10327516117E+04 -0.11647286537E+04  0.74089354766E+03  0.17239820379E+04  0.46999998093E+01 0. -1.
       -5    1    3    3    0  502 -0.10327516117E+04  0.11647286537E+04 -0.13018023570E+04  0.20292560693E+04  0.46999998093E+01 0.  1.
</event>
<event>
 5   0  0.1666051E-08  0.3797790E+04  0.7818609E-02  0.8046629E-01
        1   -1    0    0  501    0  0.00000000000E+00  0.00000000000E+00  0.12931627191E+04  0.12931627191E+04  0.50400001928E-02 0. -1.
       -1   -1    0    0    0  501  0.00000000000E+00  0.00000000000E+00 -0.27883593352E+04  0.27883593352E+04  0.50400001928E-02 0.  1.
    10030    2    1    2    0    0  0.00000000000E+00  0.00000000000E+00 -0.14951966161E+04  0.40815220543E+04  0.37977900625E+04 0.  0.
        2    1    3    3  502    0  0.56637438441E+02  0.19222858714E+02 -0.27873467641E+04  0.27879883969E+04  0.25500000920E-02 0.  1.
       -2    1    3    3    0  502 -0.56637438441E+02 -0.19222858714E+02  0.12921501480E+04  0.12935336574E+04  0.25500000920E-02 0. -1.
</event>
<event>
 5   0  0.1628250E-08  0.3812874E+04  0.7818609E-02  0.8043398E-01
        1   -1    0    0  501    0  0.00000000000E+00  0.00000000000E+00  0.16049661212E+04  0.16049661212E+04  0.50400001928E-02 0. -1.
       -1   -1    0    0    0  501  0.00000000000E+00  0.00000000000E+00 -0.22645345636E+04  0.22645345636E+04  0.50400001928E-02 0.  1.
    10030    2    1    2    0    0  0.00000000000E+00  0.00000000000E+00 -0.65956844247E+03  0.38695006848E+04  0.38128735908E+04 0.  0.
        4    1    3    3  502    0  0.17240591439E+03 -0.38836154234E+03 -0.22158664212E+04  0.22562389272E+04  0.12699999809E+01 0.  1.
       -4    1    3    3    0  502 -0.17240591439E+03  0.38836154234E+03  0.15562979788E+04  0.16132617576E+04  0.12699999809E+01 0. -1.
</event>
<event>
 5   0  0.1628473E-08  0.3799184E+04  0.7818609E-02  0.8046330E-01
        1   -1    0    0  501    0  0.00000000000E+00  0.00000000000E+00  0.19967887087E+04  0.19967887087E+04  0.50400001928E-02 0.  1.
       -1   -1    0    0    0  501  0.00000000000E+00  0.00000000000E+00 -0.18071262639E+04  0.18071262639E+04  0.50400001928E-02 0. -1.
    10030    2    1    2    0    0  0.00000000000E+00  0.00000000000E+00  0.18966244486E+03  0.38039149726E+04  0.37991837644E+04 0.  0.
        3    1    3    3  502    0 -0.13176223403E+04 -0.74818992073E+03  0.12419160524E+04  0.19591509081E+04  0.10100000352E+00 0.  1.
       -3    1    3    3    0  502  0.13176223403E+04  0.74818992073E+03 -0.10522536075E+04  0.18447640646E+04  0.10100000352E+00 0. -1.
</event>
<event>
 5   0  0.1628250E-08  0.3773726E+04  0.7818609E-02  0.8051817E-01
       -1   -1    0    0    0  501  0.00000000000E+00  0.00000000000E+00  0.16140135162E+04  0.16140135162E+04  0.50400001928E-02 0. -1.
        1   -1    0    0  501    0  0.00000000000E+00  0.00000000000E+00 -0.22058382050E+04  0.22058382050E+04  0.50400001928E-02 0.  1.
    10030    2    1    2    0    0  0.00000000000E+00  0.00000000000E+00 -0.59182468885E+03  0.38198517212E+04  0.37737263692E+04 0.  0.
        5    1    3    3  502    0  0.19154386270E+03 -0.18453782257E+04  0.51975438901E+02  0.18560262346E+04  0.46999998093E+01 0.  1.
       -5    1    3    3    0  502 -0.19154386270E+03  0.18453782257E+04 -0.64380012775E+03  0.19638254866E+04  0.46999998093E+01 0. -1.
</event>
<event>
 5   0  0.5086209E-08  0.3806423E+04  0.7818609E-02  0.8044778E-01
        2   -1    0    0  501    0  0.00000000000E+00  0.00000000000E+00  0.11871250011E+04  0.11871250011E+04  0.25500000920E-02 0.  1.
       -2   -1    0    0    0  501  0.00000000000E+00  0.00000000000E+00 -0.30512485143E+04  0.30512485143E+04  0.25500000920E-02 0. -1.
    10030    2    1    2    0    0  0.00000000000E+00  0.00000000000E+00 -0.18641235133E+04  0.42383735154E+04  0.38064226754E+04 0.  0.
        3    1    3    3  502    0 -0.13336843780E+04  0.33533580506E+02  0.57930969754E+03  0.14544546253E+04  0.10100000352E+00 0.  1.
       -3    1    3    3    0  502  0.13336843780E+04 -0.33533580506E+02 -0.24434332108E+04  0.27839188902E+04  0.10100000352E+00 0. -1.
</event>
<event>
 5   0  0.1628250E-08  0.3804327E+04  0.7818609E-02  0.8045227E-01
       -1   -1    0    0    0  501  0.00000000000E+00  0.00000000000E+00  0.21720574346E+04  0.21720574346E+04  0.50400001928E-02 0. -1.
        1   -1    0    0  501    0  0.00000000000E+00  0.00000000000E+00 -0.16658057162E+04  0.16658057162E+04  0.50400001928E-02 0.  1.
    10030    2    1    2    0    0  0.00000000000E+00  0.00000000000E+00  0.50625171841E+03  0.38378631508E+04  0.38043268474E+04 0.  0.
        1    1    3    3  502    0  0.97012174605E+03 -0.16346561523E+04  0.32437959155E+03  0.19283306402E+04  0.50400001928E-02 0. -1.
       -1    1    3    3    0  502 -0.97012174605E+03  0.16346561523E+04  0.18187212686E+03  0.19095325106E+04  0.50400001928E-02 0.  1.
</event>
<event>
 5   0  0.5147582E-08  0.3800995E+04  0.7818609E-02  0.8045941E-01
        2   -1    0    0  501    0  0.00000000000E+00  0.00000000000E+00  0.28680483670E+04  0.28680483670E+04  0.25500000920E-02 0.  1.
       -2   -1    0    0    0  501  0.00000000000E+00  0.00000000000E+00 -0.12593547752E+04  0.12593547752E+04  0.25500000920E-02 0. -1.
    10030    2    1    2    0    0  0.00000000000E+00  0.00000000000E+00  0.16086935918E+04  0.41274031422E+04  0.38009948206E+04 0.  0.
        1    1    3    3  502    0 -0.75893485408E+03 -0.49889821375E+03 -0.10084485929E+04  0.13571477830E+04  0.50400001928E-02 0. -1.
       -1    1    3    3    0  502  0.75893485408E+03  0.49889821375E+03  0.26171421847E+04  0.27702553592E+04  0.50400001928E-02 0.  1.
</event>
<event>
 5   0  0.1628473E-08  0.3800012E+04  0.7818609E-02  0.8046152E-01
       -1   -1    0    0    0  501  0.00000000000E+00  0.00000000000E+00  0.13169408379E+04  0.13169408379E+04  0.50400001928E-02 0. -1.
        1   -1    0    0  501    0  0.00000000000E+00  0.00000000000E+00 -0.27412191009E+04  0.27412191009E+04  0.50400001928E-02 0.  1.
    10030    2    1    2    0    0  0.00000000000E+00  0.00000000000E+00 -0.14242782630E+04  0.40581599388E+04  0.38000123051E+04 0.  0.
        3    1    3    3  502    0 -0.75892527584E+02  0.18704176608E+03 -0.27297360648E+04  0.27371889397E+04  0.10100000352E+00 0.  1.
       -3    1    3    3    0  502  0.75892527584E+02 -0.18704176608E+03  0.13054578018E+04  0.13209709991E+04  0.10100000352E+00 0. -1.
</event>
<event>
 5   0  0.1666051E-08  0.3802807E+04  0.7818609E-02  0.8045553E-01
        1   -1    0    0  501    0  0.00000000000E+00  0.00000000000E+00  0.15127548292E+04  0.15127548292E+04  0.50400001928E-02 0. -1.
       -1   -1    0    0    0  501  0.00000000000E+00  0.00000000000E+00 -0.23899018524E+04  0.23899018524E+04  0.50400001928E-02 0.  1.
    10030    2    1    2    0    0  0.00000000000E+00  0.00000000000E+00 -0.87714702329E+03  0.39026566816E+04  0.38028071571E+04 0.  0.
        2    1    3    3  502    0 -0.22771368005E+03 -0.62152078005E+03 -0.22678439243E+04  0.23624685533E+04  0.25500000920E-02 0.  1.
       -2    1    3    3    0  502  0.22771368005E+03  0.62152078005E+03  0.13906969010E+04  0.15401881283E+04  0.25500000920E-02 0. -1.
</event>
<event>
 5   0  0.1628250E-08  0.3797006E+04  0.7818609E-02  0.8046798E-01
       -3   -1    0    0    0  501  0.00000000000E+00  0.00000000000E+00  0.14078839228E+04  0.14078839264E+04  0.10100000352E+00 0. -1.
        3   -1    0    0  501    0  0.00000000000E+00  0.00000000000E+00 -0.25600932410E+04  0.25600932430E+04  0.10100000352E+00 0.  1.
    10030    2    1    2    0    0  0.00000000000E+00  0.00000000000E+00 -0.11522093183E+04  0.39679771694E+04  0.37970062554E+04 0.  0.
        2    1    3    3  502    0 -0.90625992192E+03 -0.81524637899E+03  0.94489749463E+03  0.15423245378E+04  0.25500000920E-02 0. -1.
       -2    1    3    3    0  502  0.90625992192E+03  0.81524637899E+03 -0.20971068129E+04  0.24256526316E+04  0.25500000920E-02 0.  1.
</event>
<event>
 5   0  0.5159761E-08  0.3795113E+04  0.7818609E-02  0.8047204E-01
        2   -1    0    0  501    0  0.00000000000E+00  0.00000000000E+00  0.20611985611E+04  0.20611985611E+04  0.25500000920E-02 0.  1.
       -2   -1    0    0    0  501  0.00000000000E+00  0.00000000000E+00 -0.17469061809E+04  0.17469061809E+04  0.25500000920E-02 0. -1.
    10030    2    1    2    0    0  0.00000000000E+00  0.00000000000E+00  0.31429238022E+03  0.38081047421E+04  0.37951129135E+04 0.  0.
        5    1    3    3  502    0 -0.42172869065E+03  0.16827548109E+04 -0.61436795651E+03  0.18403773847E+04  0.46999998093E+01 0. -1.
       -5    1    3    3    0  502  0.42172869065E+03 -0.16827548109E+04  0.92866033673E+03  0.19677273574E+04  0.46999998093E+01 0.  1.
</event>
<event>
 5   0  0.5159761E-08  0.3762421E+04  0.7818609E-02  0.8054268E-01
        2   -1    0    0  501    0  0.00000000000E+00  0.00000000000E+00  0.15087353826E+04  0.15087353826E+04  0.25500000920E-02 0.  1.
       -2   -1    0    0    0  501  0.00000000000E+00  0.00000000000E+00 -0.23456419462E+04  0.23456419462E+04  0.25500000920E-02 0. -1.
    10030    2    1    2    0    0  0.00000000000E+00  0.00000000000E+00 -0.83690656356E+03  0.38543773288E+04  0.37624210286E+04 0.  0.
        5    1    3    3  502    0 -0.64946874979E+03  0.52104918918E+03  0.13096749842E+04  0.15519576569E+04  0.46999998093E+01 0.  1.
       -5    1    3    3    0  502  0.64946874979E+03 -0.52104918918E+03 -0.21465815477E+04  0.23024196719E+04  0.46999998093E+01 0. -1.
</event>
<event>
 5   0  0.5159761E-08  0.3831300E+04  0.7818609E-02  0.8039471E-01
        2   -1    0    0  501    0  0.00000000000E+00  0.00000000000E+00  0.10823457813E+04  0.10823457813E+04  0.25500000920E-02 0.  1.
       -2   -1    0    0    0  501  0.00000000000E+00  0.00000000000E+00 -0.33905207207E+04  0.33905207207E+04  0.25500000920E-02 0. -1.
    10030    2    1    2    0    0  0.00000000000E+00  0.00000000000E+00 -0.23081749393E+04  0.44728665020E+04  0.38313004573E+04 0.  0.
        5    1    3    3  502    0  0.11651533927E+03 -0.12649852679E+03  0.10733080260E+04  0.10870096183E+04  0.46999998093E+01 0.  1.
       -5    1    3    3    0  502 -0.11651533927E+03  0.12649852679E+03 -0.33814829654E+04  0.33858568837E+04  0.46999998093E+01 0. -1.
</event>
<event>
 5   0  0.1628250E-08  0.3814931E+04  0.7818609E-02  0.8042958E-01
       -1   -1    0    0    0  501  0.00000000000E+00  0.00000000000E+00  0.17672345907E+04  0.17672345907E+04  0.50400001928E-02 0. -1.
        1   -1    0    0  501    0  0.00000000000E+00  0.00000000000E+00 -0.20588234769E+04  0.20588234769E+04  0.50400001928E-02 0.  1.
    10030    2    1    2    0    0  0.00000000000E+00  0.00000000000E+00 -0.29158888623E+03  0.38260580677E+04  0.38149307017E+04 0.  0.
        4    1    3    3  502    0 -0.10912600838E+04  0.67360435893E+03  0.12703549839E+04  0.18051024350E+04  0.12699999809E+01 0. -1.
       -4    1    3    3    0  502  0.10912600838E+04 -0.67360435893E+03 -0.15619438701E+04  0.20209556327E+04  0.12699999809E+01 0.  1.
</event>
<event>
 5   0  0.5140842E-08  0.3781739E+04  0.7818609E-02  0.8050085E-01
       -2   -1    0    0    0  501  0.00000000000E+00  0.00000000000E+00  0.15929206300E+04  0.15929206300E+04  0.25500000920E-02 0.  1.
        2   -1    0    0  501    0  0.00000000000E+00  0.00000000000E+00 -0.22445478709E+04  0.22445478709E+04  0.25500000920E-02 0. -1.
    10030    2    1    2    0    0  0.00000000000E+00  0.00000000000E+00 -0.65162724096E+03  0.38374685009E+04  0.37817385465E+04 0.  0.
        2    1    3    3  502    0 -0.14746668593E+04 -0.49591161950E+03  0.76464629575E+03  0.17335670272E+04  0.25500000920E-02 0.  1.
       -2    1    3    3    0  502  0.14746668593E+04  0.49591161950E+03 -0.14162735367E+04  0.21039014737E+04  0.25500000920E-02 0. -1.
</event>
<event>
 5   0  0.5086209E-08  0.3794142E+04  0.7818609E-02  0.8047413E-01
       -2   -1    0    0    0  501  0.00000000000E+00  0.00000000000E+00  0.14987883082E+04  0.14987883082E+04  0.25500000920E-02 0.  1.
        2   -1    0    0  501    0  0.00000000000E+00  0.00000000000E+00 -0.24011916583E+04  0.24011916583E+04  0.25500000920E-02 0. -1.
    10030    2    1    2    0    0  0.00000000000E+00  0.00000000000E+00 -0.90240335012E+03  0.38999799666E+04  0.37941417914E+04 0.  0.
        3    1    3    3  502    0  0.17421791460E+04 -0.46208145373E+03  0.15705742307E+03  0.18092469403E+04  0.10100000352E+00 0. -1.
       -3    1    3    3    0  502 -0.17421791460E+04  0.46208145373E+03 -0.10594607732E+04  0.20907330262E+04  0.10100000352E+00 0.  1.
</event>
<event>
 5   0  0.1628473E-08  0.3801224E+04  0.7818609E-02  0.8045892E-01
       -1   -1    0    0    0  501  0.00000000000E+00  0.00000000000E+00  0.17251272804E+04  0.17251272804E+04  0.50400001928E-02 0. -1.
        1   -1    0    0  501    0  0.00000000000E+00  0.00000000000E+00 -0.20939480091E+04  0.20939480091E+04  0.50400001928E-02 0.  1.
    10030    2    1    2    0    0  0.00000000000E+00  0.00000000000E+00 -0.36882072867E+03  0.38190752895E+04  0.38012244524E+04 0.  0.
        3    1    3    3  502    0  0.10146778385E+04 -0.83563186385E+03  0.11947980788E+04  0.17763429250E+04  0.10100000352E+00 0. -1.
       -3    1    3    3    0  502 -0.10146778385E+04  0.83563186385E+03 -0.15636188075E+04  0.20427323645E+04  0.10100000352E+00 0.  1.
</event>
<event>
 5   0  0.5086209E-08  0.3771933E+04  0.7818609E-02  0.8052205E-01
       -2   -1    0    0    0  501  0.00000000000E+00  0.00000000000E+00  0.15807658170E+04  0.15807658170E+04  0.25500000920E-02 0. -1.
        2   -1    0    0  501    0  0.00000000000E+00  0.00000000000E+00 -0.22500931575E+04  0.22500931575E+04  0.25500000920E-02 0.  1.
    10030    2    1    2    0    0  0.00000000000E+00  0.00000000000E+00 -0.66932734053E+03  0.38308589745E+04  0.37719333761E+04 0.  0.
        3    1    3    3  502    0 -0.13488167314E+04  0.10473181268E+04 -0.11475982872E+04  0.20574653515E+04  0.10100000352E+00 0.  1.
       -3    1    3    3    0  502  0.13488167314E+04 -0.10473181268E+04  0.47827094663E+03  0.17733936230E+04  0.10100000352E+00 0. -1.
</event>
<event>
 5   0  0.1628250E-08  0.3785922E+04  0.7818609E-02  0.8049183E-01
       -1   -1    0    0    0  501  0.00000000000E+00  0.00000000000E+00  0.18394088588E+04  0.18394088588E+04  0.50400001928E-02 0.  1.
        1   -1    0    0  501    0  0.00000000000E+00  0.00000000000E+00 -0.19480717976E+04  0.19480717976E+04  0.50400001928E-02 0. -1.
    10030    2    1    2    0    0  0.00000000000E+00  0.00000000000E+00 -0.10866293883E+03  0.37874806564E+04  0.37859215640E+04 0.  0.
        1    1    3    3  502    0 -0.80480743024E+03  0.13384513891E+04 -0.11244136783E+04  0.19244410203E+04  0.50400001928E-02 0. -1.
       -1    1    3    3    0  502  0.80480743024E+03 -0.13384513891E+04  0.10157507395E+04  0.18630396361E+04  0.50400001928E-02 0.  1.
</event>
<event>
 5   0  0.5159761E-08  0.3797198E+04  0.7818609E-02  0.8046756E-01
       -2   -1    0    0    0  501  0.00000000000E+00  0.00000000000E+00  0.21369834735E+04  0.21369834735E+04  0.25500000920E-02 0.  1.
        2   -1    0    0  501    0  0.00000000000E+00  0.00000000000E+00 -0.16868068942E+04  0.16868068942E+04  0.25500000920E-02 0. -1.
    10030    2    1    2    0    0  0.00000000000E+00  0.00000000000E+00  0.45017657933E+03  0.38237903677E+04  0.37971981543E+04 0.  0.
        5    1    3    3  502    0 -0.15831994767E+04  0.99266937849E+03 -0.11303583769E+03  0.18720876765E+04  0.46999998093E+01 0. -1.
       -5    1    3    3    0  502  0.15831994767E+04 -0.99266937849E+03  0.56321241703E+03  0.19517026912E+04  0.46999998093E+01 0.  1.
</event>
<event>
 5   0  0.1628473E-08  0.3800674E+04  0.7818609E-02  0.8046010E-01
       -1   -1    0    0    0  501  0.00000000000E+00  0.00000000000E+00  0.36430635604E+04  0.36430635604E+04  0.50400001928E-02 0. -1.
        1   -1    0    0  501    0  0.00000000000E+00  0.00000000000E+00 -0.99127600032E+03  0.99127600033E+03  0.50400001928E-02 0.  1.
    10030    2    1    2    0    0  0.00000000000E+00  0.00000000000E+00  0.26517875601E+04  0.46343395607E+04  0.38006744007E+04 0.  0.
        3    1    3    3  502    0 -0.12921963287E+03 -0.18690427613E+04  0.17139122361E+04  0.25391954868E+04  0.10100000352E+00 0.  1.
       -3    1    3    3    0  502  0.12921963287E+03  0.18690427613E+04  0.93787532399E+03  0.20951440739E+04  0.10100000352E+00 0. -1.
</event>
<event>
 5   0  0.5140842E-08  0.3806606E+04  0.7818609E-02  0.8044739E-01
        2   -1    0    0  501    0  0.00000000000E+00  0.00000000000E+00  0.25834564997E+04  0.25834564997E+04  0.25500000920E-02 0. -1.
       -2   -1    0    0    0  501  0.00000000000E+00  0.00000000000E+00 -0.14022155961E+04  0.14022155961E+04  0.25500000920E-02 0.  1.
    10030    2    1    2    0    0  0.00000000000E+00  0.00000000000E+00  0.11812409035E+04  0.39856720958E+04  0.38066063604E+04 0.  0.
        2    1    3    3  502    0  0.11538479503E+04  0.42481777732E+03 -0.93055640038E+03  0.15420020916E+04  0.25500000920E-02 0.  1.
       -2    1    3    3    0  502 -0.11538479503E+04 -0.42481777732E+03  0.21117973039E+04  0.24436700041E+04  0.25500000920E-02 0. -1.
</event>
<event>
 5   0  0.1628250E-08  0.3808965E+04  0.7818609E-02  0.8044234E-01
       -1   -1    0    0    0  501  0.00000000000E+00  0.00000000000E+00  0.33154505993E+04  0.33154505993E+04  0.50400001928E-02 0.  1.
        1   -1    0    0  501    0  0.00000000000E+00  0.00000000000E+00 -0.10939853112E+04  0.10939853112E+04  0.50400001928E-02 0. -1.
    10030    2    1    2    0    0  0.00000000000E+00  0.00000000000E+00  0.22214652882E+04  0.44094359105E+04  0.38089653480E+04 0.  0.
        5    1    3    3  502    0 -0.69283548464E+03  0.31699430005E+03 -0.90985848070E+03  0.11867480524E+04  0.46999998093E+01 0. -1.
       -5    1    3    3    0  502  0.69283548464E+03 -0.31699430005E+03  0.31313237689E+04  0.32226878581E+04  0.46999998093E+01 0.  1.
</event>
<event>
 5   0  0.1666051E-08  0.3801719E+04  0.7818609E-02  0.8045786E-01
        1   -1    0    0  501    0  0.00000000000E+00  0.00000000000E+00  0.18886645875E+04  0.18886645876E+04  0.50400001928E-02 0. -1.
       -1   -1    0    0    0  501  0.00000000000E+00  0.00000000000E+00 -0.19131331319E+04  0.19131331319E+04  0.50400001928E-02 0.  1.
    10030    2    1    2    0    0  0.00000000000E+00  0.00000000000E+00 -0.24468544380E+02  0.38017977195E+04  0.38017189783E+04 0.  0.
        2    1    3    3  502    0 -0.85334409339E+03  0.70522419231E+01  0.16863358418E+04  0.18899667846E+04  0.25500000920E-02 0. -1.
       -2    1    3    3    0  502  0.85334409339E+03 -0.70522419231E+01 -0.17108043861E+04  0.19118309349E+04  0.25500000920E-02 0.  1.
</event>
<event>
 5   0  0.1628250E-08  0.3797935E+04  0.7818609E-02  0.8046598E-01
        3   -1    0    0  501    0  0.00000000000E+00  0.00000000000E+00  0.21112914748E+04  0.21112914773E+04  0.10100000352E+00 0.  1.
       -3   -1    0    0    0  501  0.00000000000E+00  0.00000000000E+00 -0.17079963784E+04  0.17079963814E+04  0.10100000352E+00 0. -1.
    10030    2    1    2    0    0  0.00000000000E+00  0.00000000000E+00  0.40329509647E+03  0.38192878586E+04  0.37979353354E+04 0.  0.
        4    1    3    3  502    0 -0.13949979268E+04 -0.11185056532E+04 -0.44148101140E+03  0.18417332077E+04  0.12699999809E+01 0.  1.
       -4    1    3    3    0  502  0.13949979268E+04  0.11185056532E+04  0.84477610787E+03  0.19775546509E+04  0.12699999809E+01 0. -1.
</event>
<event>
 5   0  0.5159761E-08  0.3800632E+04  0.7818609E-02  0.8046019E-01
        2   -1    0    0  501    0  0.00000000000E+00  0.00000000000E+00  0.15482917914E+04  0.15482917914E+04  0.25500000920E-02 0.  1.
       -2   -1    0    0    0  501  0.00000000000E+00  0.00000000000E+00 -0.23323777599E+04  0.23323777599E+04  0.25500000920E-02 0. -1.
    10030    2    1    2    0    0  0.00000000000E+00  0.00000000000E+00 -0.78408596847E+03  0.38806695514E+04  0.38006322317E+04 0.  0.
        5    1    3    3  502    0  0.18369614381E+04  0.48466318018E+03 -0.34808373596E+03  0.19314528471E+04  0.46999998093E+01 0.  1.
       -5    1    3    3    0  502 -0.18369614381E+04 -0.48466318018E+03 -0.43600223250E+03  0.19492167043E+04  0.46999998093E+01 0. -1.
</event>
<event>
 5   0  0.1628250E-08  0.3737063E+04  0.7818609E-02  0.8059798E-01
       -3   -1    0    0    0  501  0.00000000000E+00  0.00000000000E+00  0.17033156193E+04  0.17033156223E+04  0.10100000352E+00 0. -1.
        3   -1    0    0  501    0  0.00000000000E+00  0.00000000000E+00 -0.20497724027E+04  0.20497724052E+04  0.10100000352E+00 0.  1.
    10030    2    1    2    0    0  0.00000000000E+00  0.00000000000E+00 -0.34645678336E+03  0.37530880275E+04  0.37370626753E+04 0.  0.
        2    1    3    3  502    0 -0.40253759910E+03  0.11386995531E+04  0.12586260681E+04  0.17443660081E+04  0.25500000920E-02 0. -1.
       -2    1    3    3    0  502  0.40253759910E+03 -0.11386995531E+04 -0.16050828514E+04  0.20087220194E+04  0.25500000920E-02 0.  1.
</event>
<event>
 5   0  0.5147582E-08  0.3799701E+04  0.7818609E-02  0.8046219E-01
        2   -1    0    0  501    0  0.00000000000E+00  0.00000000000E+00  0.12804011743E+04  0.12804011743E+04  0.25500000920E-02 0.  1.
       -2   -1    0    0    0  501  0.00000000000E+00  0.00000000000E+00 -0.28189846042E+04  0.28189846042E+04  0.25500000920E-02 0. -1.
    10030    2    1    2    0    0  0.00000000000E+00  0.00000000000E+00 -0.15385834298E+04  0.40993857785E+04  0.37997006185E+04 0.  0.
        1    1    3    3  502    0  0.93681582308E+03  0.13209799655E+04  0.30244526261E+03  0.16474480546E+04  0.50400001928E-02 0.  1.
       -1    1    3    3    0  502 -0.93681582308E+03 -0.13209799655E+04 -0.18410286925E+04  0.24519377239E+04  0.50400001928E-02 0. -1.
</event>
<event>
 5   0  0.5159761E-08  0.3798949E+04  0.7818609E-02  0.8046380E-01
       -2   -1    0    0    0  501  0.00000000000E+00  0.00000000000E+00  0.23652342595E+04  0.23652342595E+04  0.25500000920E-02 0.  1.
        2   -1    0    0  501    0  0.00000000000E+00  0.00000000000E+00 -0.15254315777E+04  0.15254315777E+04  0.25500000920E-02 0. -1.
    10030    2    1    2    0    0  0.00000000000E+00  0.00000000000E+00  0.83980268180E+03  0.38906658373E+04  0.37989488168E+04 0.  0.
        5    1    3    3  502    0 -0.15097605079E+04  0.93211439395E+03 -0.27453004599E+03  0.17954394646E+04  0.46999998093E+01 0.  1.
       -5    1    3    3    0  502  0.15097605079E+04 -0.93211439395E+03  0.11143327278E+04  0.20952263727E+04  0.46999998093E+01 0. -1.
</event>
<event>
 5   0  0.5159761E-08  0.3805923E+04  0.7818609E-02  0.8044885E-01
       -2   -1    0    0    0  501  0.00000000000E+00  0.00000000000E+00  0.13352801253E+04  0.13352801253E+04  0.25500000920E-02 0.  1.
        2   -1    0    0  501    0  0.00000000000E+00  0.00000000000E+00 -0.27119865797E+04  0.27119865797E+04  0.25500000920E-02 0. -1.
    10030    2    1    2    0    0  0.00000000000E+00  0.00000000000E+00 -0.13767064543E+04  0.40472667050E+04  0.38059226372E+04 0.  0.
        5    1    3    3  502    0 -0.17174788918E+04 -0.81248337472E+03 -0.80177860931E+03  0.20622158001E+04  0.46999998093E+01 0. -1.
       -5    1    3    3    0  502  0.17174788918E+04  0.81248337472E+03 -0.57492784502E+03  0.19850509049E+04  0.46999998093E+01 0.  1.
</event>
<event>
 5   0  0.1628250E-08  0.3800196E+04  0.7818609E-02  0.8046113E-01
       -1   -1    0    0    0  501  0.00000000000E+00  0.00000000000E+00  0.23890305936E+04  0.23890305936E+04  0.50400001928E-02 0.  1.
        1   -1    0    0  501    0  0.00000000000E+00  0.00000000000E+00 -0.15112293049E+04  0.15112293049E+04  0.50400001928E-02 0. -1.
    10030    2    1    2    0    0  0.00000000000E+00  0.00000000000E+00  0.87780128871E+03  0.39002598985E+04  0.38001963335E+04 0.  0.
        5    1    3    3  502    0  0.15651922903E+04 -0.77912893142E+03 -0.32465259705E+03  0.17782829348E+04  0.46999998093E+01 0. -1.
       -5    1    3    3    0  502 -0.15651922903E+04  0.77912893142E+03  0.12024538858E+04  0.21219769637E+04  0.46999998093E+01 0.  1.
</event>
<event>
 5   0  0.1628250E-08  0.3801033E+04  0.7818609E-02  0.8045933E-01
        3   -1    0    0  501    0  0.00000000000E+00  0.00000000000E+00  0.19139107311E+04  0.19139107338E+04  0.10100000352E+00 0.  1.
       -3   -1    0    0    0  501  0.00000000000E+00  0.00000000000E+00 -0.18872158511E+04  0.18872158538E+04  0.10100000352E+00 0. -1.
    10030    2    1    2    0    0  0.00000000000E+00  0.00000000000E+00  0.26694880026E+02  0.38011265876E+04  0.38010328488E+04 0.  0.
        4    1    3    3  502    0  0.11242905484E+04 -0.15090349885E+04 -0.25263887969E+03  0.18986953021E+04  0.12699999809E+01 0. -1.
       -4    1    3    3    0  502 -0.11242905484E+04  0.15090349885E+04  0.27933375972E+03  0.19024312855E+04  0.12699999809E+01 0.  1.
</event>
<event>
 5   0  0.5159761E-08  0.3800931E+04  0.7818609E-02  0.8045955E-01
        2   -1    0    0  501    0  0.00000000000E+00  0.00000000000E+00  0.23128801517E+04  0.23128801517E+04  0.25500000920E-02 0. -1.
       -2   -1    0    0    0  501  0.00000000000E+00  0.00000000000E+00 -0.15615892467E+04  0.15615892467E+04  0.25500000920E-02 0.  1.
    10030    2    1    2    0    0  0.00000000000E+00  0.00000000000E+00  0.75129090508E+03  0.38744693984E+04  0.38009308196E+04 0.  0.
        5    1    3    3  502    0 -0.75092324992E+03  0.38692119683E+03 -0.13596879258E+04  0.16007395433E+04  0.46999998093E+01 0.  1.
       -5    1    3    3    0  502  0.75092324992E+03 -0.38692119683E+03  0.21109788309E+04  0.22737298551E+04  0.46999998093E+01 0. -1.
</event>
<event>
 5   0  0.1628250E-08  0.3801525E+04  0.7818609E-02  0.8045828E-01
        1   -1    0    0  501    0  0.00000000000E+00  0.00000000000E+00  0.21439169924E+04  0.21439169924E+04  0.50400001928E-02 0.  1.
       -1   -1    0    0    0  501  0.00000000000E+00  0.00000000000E+00 -0.16851860139E+04  0.16851860139E+04  0.50400001928E-02 0. -1.
    10030    2    1    2    0    0  0.00000000000E+00  0.00000000000E+00  0.45873097848E+03  0.38291030063E+04  0.38015254468E+04 0.  0.
        4    1    3    3  502    0  0.10979828281E+04 -0.58786740920E+03 -0.12169279134E+04  0.17412838771E+04  0.12699999809E+01 0. -1.
       -4    1    3    3    0  502 -0.10979828281E+04  0.58786740920E+03  0.16756588918E+04  0.20878191292E+04  0.12699999809E+01 0.  1.
</event>
<event>
 5   0  0.5147582E-08  0.3792398E+04  0.7818609E-02  0.8047788E-01
        2   -1    0    0  501    0  0.00000000000E+00  0.00000000000E+00  0.12896695268E+04  0.12896695268E+04  0.25500000920E-02 0. -1.
       -2   -1    0    0    0  501  0.00000000000E+00  0.00000000000E+00 -0.27879780621E+04  0.27879780621E+04  0.25500000920E-02 0.  1.
    10030    2    1    2    0    0  0.00000000000E+00  0.00000000000E+00 -0.14983085353E+04  0.40776475889E+04  0.37923978420E+04 0.  0.
        1    1    3    3  502    0 -0.13841958333E+04  0.29883946198E+03  0.60675569475E+03  0.15406023504E+04  0.50400001928E-02 0. -1.
       -1    1    3    3    0  502  0.13841958333E+04 -0.29883946198E+03 -0.21050642301E+04  0.25370452384E+04  0.50400001928E-02 0.  1.
</event>
<event>
 5   0  0.1628250E-08  0.3798769E+04  0.7818609E-02  0.8046419E-01
       -1   -1    0    0    0  501  0.00000000000E+00  0.00000000000E+00  0.18896724891E+04  0.18896724891E+04  0.50400001928E-02 0. -1.
        1   -1    0    0  501    0  0.00000000000E+00  0.00000000000E+00 -0.19091463642E+04  0.19091463642E+04  0.50400001928E-02 0.  1.
    10030    2    1    2    0    0  0.00000000000E+00  0.00000000000E+00 -0.19473875119E+02  0.37988188534E+04  0.37987689386E+04 0.  0.
        5    1    3    3  502    0 -0.87388422275E+03 -0.16656042139E+04  0.25432758573E+03  0.18980557534E+04  0.46999998093E+01 0.  1.
       -5    1    3    3    0  502  0.87388422275E+03  0.16656042139E+04 -0.27380146085E+03  0.19007631000E+04  0.46999998093E+01 0. -1.
</event>
<event>
 5   0  0.1628250E-08  0.3793490E+04  0.7818609E-02  0.8047553E-01
        1   -1    0    0  501    0  0.00000000000E+00  0.00000000000E+00  0.24504651232E+04  0.24504651232E+04  0.50400001928E-02 0.  1.
       -1   -1    0    0    0  501  0.00000000000E+00  0.00000000000E+00 -0.14681467013E+04  0.14681467013E+04  0.50400001928E-02 0. -1.
    10030    2    1    2    0    0  0.00000000000E+00  0.00000000000E+00  0.98231842187E+03  0.39186118245E+04  0.37934903649E+04 0.  0.
        1    1    3    3  502    0 -0.13360671419E+04 -0.13444049012E+04  0.56523455947E+03  0.19778751359E+04  0.50400001928E-02 0.  1.
       -1    1    3    3    0  502  0.13360671419E+04  0.13444049012E+04  0.41708386240E+03  0.19407366886E+04  0.50400001928E-02 0. -1.
</event>
<event>
 5   0  0.1628250E-08  0.3805593E+04  0.7818609E-02  0.8044956E-01
       -1   -1    0    0    0  501  0.00000000000E+00  0.00000000000E+00  0.26758957871E+04  0.26758957871E+04  0.50400001928E-02 0.  1.
        1   -1    0    0  501    0  0.00000000000E+00  0.00000000000E+00 -0.13530550821E+04  0.13530550821E+04  0.50400001928E-02 0. -1.
    10030    2    1    2    0    0  0.00000000000E+00  0.00000000000E+00  0.13228407051E+04  0.40289508692E+04  0.38055929335E+04 0.  0.
        1    1    3    3  502    0 -0.92605830690E+03  0.95500497859E+03 -0.77895179141E+03  0.15415525908E+04  0.50400001928E-02 0. -1.
       -1    1    3    3    0  502  0.92605830690E+03 -0.95500497859E+03  0.21017924965E+04  0.24873982784E+04  0.50400001928E-02 0.  1.
</event>
<event>
 5   0  0.1628250E-08  0.3745070E+04  0.7818609E-02  0.8058047E-01
       -1   -1    0    0    0  501  0.00000000000E+00  0.00000000000E+00  0.12851911918E+04  0.12851911918E+04  0.50400001928E-02 0. -1.
        1   -1    0    0  501    0  0.00000000000E+00  0.00000000000E+00 -0.27282995794E+04  0.27282995794E+04  0.50400001928E-02 0.  1.
    10030    2    1    2    0    0  0.00000000000E+00  0.00000000000E+00 -0.14431083877E+04  0.40134907712E+04  0.37450696058E+04 0.  0.
        4    1    3    3  502    0  0.17546255944E+03  0.14467105900E+04  0.53857416969E+03  0.15536480909E+04  0.12699999809E+01 0. -1.
       -4    1    3    3    0  502 -0.17546255944E+03 -0.14467105900E+04 -0.19816825573E+04  0.24598426803E+04  0.12699999809E+01 0.  1.
</event>
<event>
 5   0  0.5207474E-08  0.3812942E+04  0.7818609E-02  0.8043383E-01
       -2   -1    0    0    0  501  0.00000000000E+00  0.00000000000E+00  0.24073134468E+04  0.24073134468E+04  0.25500000920E-02 0. -1.
        2   -1    0    0  501    0  0.00000000000E+00  0.00000000000E+00 -0.15098286721E+04  0.15098286721E+04  0.25500000920E-02 0.  1.
    10030    2    1    2    0    0  0.00000000000E+00  0.00000000000E+00  0.89748477472E+03  0.39171421188E+04  0.38129415755E+04 0.  0.
        4    1    3    3  502    0 -0.42338002693E+03 -0.66179437196E+03 -0.13357968901E+04  0.15497023529E+04  0.12699999809E+01 0.  1.
       -4    1    3    3    0  502  0.42338002693E+03  0.66179437196E+03  0.22332816648E+04  0.23674397659E+04  0.12699999809E+01 0. -1.
</event>
<event>
 5   0  0.5086209E-08  0.3795701E+04  0.7818609E-02  0.8047078E-01
        2   -1    0    0  501    0  0.00000000000E+00  0.00000000000E+00  0.23918983407E+04  0.23918983407E+04  0.25500000920E-02 0. -1.
       -2   -1    0    0    0  501  0.00000000000E+00  0.00000000000E+00 -0.15058484405E+04  0.15058484405E+04  0.25500000920E-02 0.  1.
    10030    2    1    2    0    0  0.00000000000E+00  0.00000000000E+00  0.88604990016E+03  0.38977467812E+04  0.37957009293E+04 0.  0.
        3    1    3    3  502    0 -0.15726184499E+04 -0.85515974326E+03  0.10903772619E+04  0.20960318602E+04  0.10100000352E+00 0. -1.
       -3    1    3    3    0  502  0.15726184499E+04  0.85515974326E+03 -0.20432736176E+03  0.18017149210E+04  0.10100000352E+00 0.  1.
</event>
<event>
 5   0  0.1628250E-08  0.3811963E+04  0.7818609E-02  0.8043592E-01
        1   -1    0    0  501    0  0.00000000000E+00  0.00000000000E+00  0.25648882693E+04  0.25648882693E+04  0.50400001928E-02 0. -1.
       -1   -1    0    0    0  501  0.00000000000E+00  0.00000000000E+00 -0.14163448261E+04  0.14163448261E+04  0.50400001928E-02 0.  1.
    10030    2    1    2    0    0  0.00000000000E+00  0.00000000000E+00  0.11485434432E+04  0.39812330953E+04  0.38119633942E+04 0.  0.
        1    1    3    3  502    0  0.15480269986E+04 -0.10170265003E+04  0.10437148477E+04  0.21260459012E+04  0.50400001928E-02 0. -1.
       -1    1    3    3    0  502 -0.15480269986E+04  0.10170265003E+04  0.10482859554E+03  0.18551871941E+04  0.50400001928E-02 0.  1.
</event>
<event>
 5   0  0.5159761E-08  0.3787318E+04  0.7818609E-02  0.8048882E-01
        2   -1    0    0  501    0  0.00000000000E+00  0.00000000000E+00  0.12300291102E+04  0.12300291102E+04  0.25500000920E-02 0. -1.
       -2   -1    0    0    0  501  0.00000000000E+00  0.00000000000E+00 -0.29153328010E+04  0.29153328010E+04  0.25500000920E-02 0.  1.
    10030    2    1    2    0    0  0.00000000000E+00  0.00000000000E+00 -0.16853036908E+04  0.41453619112E+04  0.37873178959E+04 0.  0.
        5    1    3    3  502    0 -0.16829146708E+04  0.73386416670E+02  0.10419263900E+03  0.16877397759E+04  0.46999998093E+01 0.  1.
       -5    1    3    3    0  502  0.16829146708E+04 -0.73386416670E+02 -0.17894963298E+04  0.24576221353E+04  0.46999998093E+01 0. -1.
</event>
<event>
 5   0  0.5086209E-08  0.3750918E+04  0.7818609E-02  0.8056770E-01
        2   -1    0    0  501    0  0.00000000000E+00  0.00000000000E+00  0.15266961925E+04  0.15266961925E+04  0.25500000920E-02 0.  1.
       -2   -1    0    0    0  501  0.00000000000E+00  0.00000000000E+00 -0.23038947085E+04  0.23038947085E+04  0.25500000920E-02 0. -1.
    10030    2    1    2    0    0  0.00000000000E+00  0.00000000000E+00 -0.77719851599E+03  0.38305909011E+04  0.37509184366E+04 0.  0.
        3    1    3    3  502    0  0.97048272820E+03  0.11173256451E+04 -0.15650641899E+04  0.21539914697E+04  0.10100000352E+00 0. -1.
       -3    1    3    3    0  502 -0.97048272820E+03 -0.11173256451E+04  0.78786567387E+03  0.16765994314E+04  0.10100000352E+00 0.  1.
</event>
<event>
 5   0  0.5207474E-08  0.3785570E+04  0.7818609E-02  0.8049259E-01
       -2   -1    0    0    0  501  0.00000000000E+00  0.00000000000E+00  0.19385034420E+04  0.19385034420E+04  0.25500000920E-02 0.  1.
        2   -1    0    0  501    0  0.00000000000E+00  0.00000000000E+00 -0.18481443351E+04  0.18481443351E+04  0.25500000920E-02 0. -1.
    10030    2    1    2    0    0  0.00000000000E+00  0.00000000000E+00  0.90359106908E+02  0.37866477771E+04  0.37855695238E+04 0.  0.
        4    1    3    3  502    0  0.11886900337E+04 -0.14680731464E+04 -0.74895391803E+02  0.18904585931E+04  0.12699999809E+01 0.  1.
       -4    1    3    3    0  502 -0.11886900337E+04  0.14680731464E+04  0.16525449871E+03  0.18961891840E+04  0.12699999809E+01 0. -1.
</event>
<event>
 5   0  0.5140842E-08  0.3782000E+04  0.7818609E-02  0.8050029E-01
       -2   -1    0    0    0  501  0.00000000000E+00  0.00000000000E+00  0.13268151388E+04  0.13268151388E+04  0.25500000920E-02 0. -1.
        2   -1    0    0  501    0  0.00000000000E+00  0.00000000000E+00 -0.26950865748E+04  0.26950865748E+04  0.25500000920E-02 0.  1.
    10030    2    1    2    0    0  0.00000000000E+00  0.00000000000E+00 -0.13682714361E+04  0.40219017136E+04  0.37820003531E+04 0.  0.
        2    1    3    3  502    0  0.52110576010E+03  0.15119501502E+04 -0.17572740110E+04  0.23760379668E+04  0.25500000920E-02 0.  1.
       -2    1    3    3    0  502 -0.52110576010E+03 -0.15119501502E+04  0.38900257491E+03  0.16458637468E+04  0.25500000920E-02 0. -1.
</event>
<event>
 5   0  0.5140842E-08  0.3804841E+04  0.7818609E-02  0.8045117E-01
       -2   -1    0    0    0  501  0.00000000000E+00  0.00000000000E+00  0.31949429657E+04  0.31949429657E+04  0.25500000920E-02 0.  1.
        2   -1    0    0  501    0  0.00000000000E+00  0.00000000000E+00 -0.11327915307E+04  0.11327915307E+04  0.25500000920E-02 0. -1.
    10030    2    1    2    0    0  0.00000000000E+00  0.00000000000E+00  0.20621514350E+04  0.43277344964E+04  0.38048413017E+04 0.  0.
        2    1    3    3  502    0 -0.12119453409E+04  0.12419635738E+03 -0.63088117891E+03  0.13719501836E+04  0.25500000920E-02 0. -1.
       -2    1    3    3    0  502  0.12119453409E+04 -0.12419635738E+03  0.26930326139E+04  0.29557843128E+04  0.25500000920E-02 0.  1.
</event>
<event>
 5   0  0.5140842E-08  0.3796869E+04  0.7818609E-02  0.8046827E-01
        2   -1    0    0  501    0  0.00000000000E+00  0.00000000000E+00  0.16256273301E+04  0.16256273301E+04  0.25500000920E-02 0.  1.
       -2   -1    0    0    0  501  0.00000000000E+00  0.00000000000E+00 -0.22170234556E+04  0.22170234556E+04  0.25500000920E-02 0. -1.
    10030    2    1    2    0    0  0.00000000000E+00  0.00000000000E+00 -0.59139612549E+03  0.38426507857E+04  0.37968691949E+04 0.  0.
        2    1    3    3  502    0 -0.53432699271E+03  0.12881063519E+04  0.10079841654E+04  0.17206845692E+04  0.25500000920E-02 0.  1.
       -2    1    3    3    0  502  0.53432699271E+03 -0.12881063519E+04 -0.15993802909E+04  0.21219662165E+04  0.25500000920E-02 0. -1.
</event>
<event>
 5   0  0.5086209E-08  0.3797929E+04  0.7818609E-02  0.8046600E-01
        2   -1    0    0  501    0  0.00000000000E+00  0.00000000000E+00  0.26777501650E+04  0.26777501650E+04  0.25500000920E-02 0. -1.
       -2   -1    0    0    0  501  0.00000000000E+00  0.00000000000E+00 -0.13466773462E+04  0.13466773462E+04  0.25500000920E-02 0.  1.
    10030    2    1    2    0    0  0.00000000000E+00  0.00000000000E+00  0.13310728188E+04  0.40244275112E+04  0.37979286386E+04 0.  0.
        3    1    3    3  502    0  0.66343901171E+02  0.11096290137E+04  0.22969608912E+04  0.25518047353E+04  0.10100000352E+00 0. -1.
       -3    1    3    3    0  502 -0.66343901171E+02 -0.11096290137E+04 -0.96588807248E+03  0.14726227759E+04  0.10100000352E+00 0.  1.
</event>
<event>
 5   0  0.5207474E-08  0.3794583E+04  0.7818609E-02  0.8047318E-01
       -2   -1    0    0    0  501  0.00000000000E+00  0.00000000000E+00  0.14363088095E+04  0.14363088095E+04  0.25500000920E-02 0. -1.
        2   -1    0    0  501    0  0.00000000000E+00  0.00000000000E+00 -0.25062265974E+04  0.25062265974E+04  0.25500000920E-02 0.  1.
    10030    2    1    2    0    0  0.00000000000E+00  0.00000000000E+00 -0.10699177878E+04  0.39425354069E+04  0.37945831605E+04 0.  0.
        4    1    3    3  502    0 -0.60808995118E+03  0.17105849979E+04 -0.11076672286E+04  0.21266882061E+04  0.12699999809E+01 0. -1.
       -4    1    3    3    0  502  0.60808995118E+03 -0.17105849979E+04  0.37749440772E+02  0.18158472008E+04  0.12699999809E+01 0.  1.
</event>
<event>
 5   0  0.5147582E-08  0.3803743E+04  0.7818609E-02  0.8045352E-01
       -2   -1    0    0    0  501  0.00000000000E+00  0.00000000000E+00  0.12332640230E+04  0.12332640230E+04  0.25500000920E-02 0.  1.
        2   -1    0    0  501    0  0.00000000000E+00  0.00000000000E+00 -0.29329608565E+04  0.29329608565E+04  0.25500000920E-02 0. -1.
    10030    2    1    2    0    0  0.00000000000E+00  0.00000000000E+00 -0.16996968335E+04  0.41662248794E+04  0.38037429488E+04 0.  0.
        1    1    3    3  502    0  0.63080152847E+03 -0.67393281928E+02  0.11139606108E+04  0.12819362953E+04  0.50400001928E-02 0.  1.
       -1    1    3    3    0  502 -0.63080152847E+03  0.67393281928E+02 -0.28136574443E+04  0.28842885841E+04  0.50400001928E-02 0. -1.
</event>
<event>
 5   0  0.1628250E-08  0.3832150E+04  0.7818609E-02  0.8039291E-01
        1   -1    0    0  501    0  0.00000000000E+00  0.00000000000E+00  0.21449486180E+04  0.21449486181E+04  0.50400001928E-02 0.  1.
       -1   -1    0    0    0  501  0.00000000000E+00  0.00000000000E+00 -0.17116229406E+04  0.17116229406E+04  0.50400001928E-02 0. -1.
    10030    2    1    2    0    0  0.00000000000E+00  0.00000000000E+00  0.43332567746E+03  0.38565715587E+04  0.38321499246E+04 0.  0.
        1    1    3    3  502    0 -0.78261426800E+03  0.12123556175E+04 -0.10519466652E+04  0.17857443888E+04  0.50400001928E-02 0. -1.
       -1    1    3    3    0  502  0.78261426800E+03 -0.12123556175E+04  0.14852723426E+04  0.20708271699E+04  0.50400001928E-02 0.  1.
</event>
<event>
 5   0  0.1628473E-08  0.3797134E+04  0.7818609E-02  0.8046770E-01
        1   -1    0    0  501    0  0.00000000000E+00  0.00000000000E+00  0.19010078383E+04  0.19010078383E+04  0.50400001928E-02 0.  1.
       -1   -1    0    0    0  501  0.00000000000E+00  0.00000000000E+00 -0.18961296961E+04  0.18961296961E+04  0.50400001928E-02 0. -1.
    10030    2    1    2    0    0  0.00000000000E+00  0.00000000000E+00  0.48781421534E+01  0.37971375344E+04  0.37971344010E+04 0.  0.
        3    1    3    3  502    0  0.46300452859E+02 -0.41901174843E+03 -0.18487358215E+04  0.18961905825E+04  0.10100000352E+00 0. -1.
       -3    1    3    3    0  502 -0.46300452859E+02  0.41901174843E+03  0.18536139637E+04  0.19009469519E+04  0.10100000352E+00 0.  1.
</event>
<event>
 5   0  0.1628250E-08  0.3796338E+04  0.7818609E-02  0.8046941E-01
       -1   -1    0    0    0  501  0.00000000000E+00  0.00000000000E+00  0.11658505734E+04  0.11658505735E+04  0.50400001928E-02 0. -1.
        1   -1    0    0  501    0  0.00000000000E+00  0.00000000000E+00 -0.30904871011E+04  0.30904871011E+04  0.50400001928E-02 0.  1.
    10030    2    1    2    0    0  0.00000000000E+00  0.00000000000E+00 -0.19246365276E+04  0.42563376745E+04  0.37963383195E+04 0.  0.
        1    1    3    3  502    0 -0.55050165137E+03 -0.16185723723E+04 -0.37630547999E+02  0.17100422950E+04  0.50400001928E-02 0.  1.
       -1    1    3    3    0  502  0.55050165137E+03  0.16185723723E+04 -0.18870059796E+04  0.25462953795E+04  0.50400001928E-02 0. -1.
</event>
<event>
 5   0  0.5207474E-08  0.3803343E+04  0.7818609E-02  0.8045438E-01
       -2   -1    0    0    0  501  0.00000000000E+00  0.00000000000E+00  0.16780881787E+04  0.16780881787E+04  0.25500000920E-02 0.  1.
        2   -1    0    0  501    0  0.00000000000E+00  0.00000000000E+00 -0.21550441201E+04  0.21550441201E+04  0.25500000920E-02 0. -1.
    10030    2    1    2    0    0  0.00000000000E+00  0.00000000000E+00 -0.47695594139E+03  0.38331322989E+04  0.38033427732E+04 0.  0.
        4    1    3    3  502    0 -0.13602775466E+04 -0.13145359868E+04 -0.42034425062E+02  0.18921227155E+04  0.12699999809E+01 0. -1.
       -4    1    3    3    0  502  0.13602775466E+04  0.13145359868E+04 -0.43492151632E+03  0.19410095834E+04  0.12699999809E+01 0.  1.
</event>
<event>
 5   0  0.5140842E-08  0.3801667E+04  0.7818609E-02  0.8045797E-01
        2   -1    0    0  501    0  0.00000000000E+00  0.00000000000E+00  0.31844549187E+04  0.31844549187E+04  0.25500000920E-02 0.  1.
       -2   -1    0    0    0  501  0.00000000000E+00  0.00000000000E+00 -0.11346265550E+04  0.11346265550E+04  0.25500000920E-02 0. -1.
    10030    2    1    2    0    0  0.00000000000E+00  0.00000000000E+00  0.20498283636E+04  0.43190814737E+04  0.38016665366E+04 0.  0.
        2    1    3    3  502    0  0.16649315842E+04 -0.14782477452E+03 -0.34420011950E+01  0.16714847266E+04  0.25500000920E-02 0. -1.
       -2    1    3    3    0  502 -0.16649315842E+04  0.14782477452E+03  0.20532703648E+04  0.26475967471E+04  0.25500000920E-02 0.  1.
</event>
<event>
 5   0  0.5140842E-08  0.3810792E+04  0.7818609E-02  0.8043843E-01
        2   -1    0    0  501    0  0.00000000000E+00  0.00000000000E+00  0.25995373062E+04  0.25995373062E+04  0.25500000920E-02 0.  1.
       -2   -1    0    0    0  501  0.00000000000E+00  0.00000000000E+00 -0.13966078158E+04  0.13966078158E+04  0.25500000920E-02 0. -1.
    10030    2    1    2    0    0  0.00000000000E+00  0.00000000000E+00  0.12029294904E+04  0.39961451219E+04  0.38107921062E+04 0.  0.
        2    1    3    3  502    0  0.80629750386E+03 -0.14199896530E+04 -0.42815126581E+03  0.16881350022E+04  0.25500000920E-02 0. -1.
       -2    1    3    3    0  502 -0.80629750386E+03  0.14199896530E+04  0.16310807562E+04  0.23080101197E+04  0.25500000920E-02 0.  1.
</event>
<event>
 5   0  0.5147582E-08  0.3759312E+04  0.7818609E-02  0.8054943E-01
        2   -1    0    0  501    0  0.00000000000E+00  0.00000000000E+00  0.13523289282E+04  0.13523289282E+04  0.25500000920E-02 0. -1.
       -2   -1    0    0    0  501  0.00000000000E+00  0.00000000000E+00 -0.26126087824E+04  0.26126087824E+04  0.25500000920E-02 0.  1.
    10030    2    1    2    0    0  0.00000000000E+00  0.00000000000E+00 -0.12602798543E+04  0.39649377106E+04  0.37593118702E+04 0.  0.
        1    1    3    3  502    0 -0.92642973929E+03  0.61666712151E+03 -0.22277741199E+04  0.24902867164E+04  0.50400001928E-02 0.  1.
       -1    1    3    3    0  502  0.92642973929E+03 -0.61666712151E+03  0.96749426562E+03  0.14746509942E+04  0.50400001928E-02 0. -1.
</event>
<event>
 5   0  0.5159761E-08  0.3796239E+04  0.7818609E-02  0.8046963E-01
       -2   -1    0    0    0  501  0.00000000000E+00  0.00000000000E+00  0.11226976371E+04  0.11226976371E+04  0.25500000920E-02 0.  1.
        2   -1    0    0  501    0  0.00000000000E+00  0.00000000000E+00 -0.32091069784E+04  0.32091069784E+04  0.25500000920E-02 0. -1.
    10030    2    1    2    0    0  0.00000000000E+00  0.00000000000E+00 -0.20864093413E+04  0.43318046155E+04  0.37962385710E+04 0.  0.
        5    1    3    3  502    0  0.15144614742E+04 -0.83235522488E+02 -0.23453907669E+04  0.27930989328E+04  0.46999998093E+01 0. -1.
       -5    1    3    3    0  502 -0.15144614742E+04  0.83235522488E+02  0.25898142567E+03  0.15387056827E+04  0.46999998093E+01 0.  1.
</event>
<event>
 5   0  0.1666051E-08  0.3800933E+04  0.7818609E-02  0.8045955E-01
       -1   -1    0    0    0  501  0.00000000000E+00  0.00000000000E+00  0.21881321071E+04  0.21881321071E+04  0.50400001928E-02 0. -1.
        1   -1    0    0  501    0  0.00000000000E+00  0.00000000000E+00 -0.16506194655E+04  0.16506194655E+04  0.50400001928E-02 0.  1.
    10030    2    1    2    0    0  0.00000000000E+00  0.00000000000E+00  0.53751264158E+03  0.38387515726E+04  0.38009332796E+04 0.  0.
        2    1    3    3  502    0  0.11638680887E+04  0.11936604707E+04  0.11901710571E+04  0.20483948331E+04  0.25500000920E-02 0. -1.
       -2    1    3    3    0  502 -0.11638680887E+04 -0.11936604707E+04 -0.65265841547E+03  0.17903567395E+04  0.25500000920E-02 0.  1.
</event>
<event>
 5   0  0.1628473E-08  0.3795920E+04  0.7818609E-02  0.8047031E-01
        1   -1    0    0  501    0  0.00000000000E+00  0.00000000000E+00  0.21396707776E+04  0.21396707776E+04  0.50400001928E-02 0.  1.
       -1   -1    0    0    0  501  0.00000000000E+00  0.00000000000E+00 -0.16835547405E+04  0.16835547405E+04  0.50400001928E-02 0. -1.
    10030    2    1    2    0    0  0.00000000000E+00  0.00000000000E+00  0.45611603710E+03  0.38232255180E+04  0.37959203788E+04 0.  0.
        3    1    3    3  502    0  0.15382666145E+04  0.56902924935E+02 -0.89022172870E+03  0.17782004546E+04  0.10100000352E+00 0. -1.
       -3    1    3    3    0  502 -0.15382666145E+04 -0.56902924935E+02  0.13463377658E+04  0.20450250634E+04  0.10100000352E+00 0.  1.
</event>
<event>
 5   0  0.1628250E-08  0.3812266E+04  0.7818609E-02  0.8043528E-01
        1   -1    0    0  501    0  0.00000000000E+00  0.00000000000E+00  0.27370182037E+04  0.27370182037E+04  0.50400001928E-02 0. -1.
       -1   -1    0    0    0  501  0.00000000000E+00  0.00000000000E+00 -0.13274820551E+04  0.13274820551E+04  0.50400001928E-02 0.  1.
    10030    2    1    2    0    0  0.00000000000E+00  0.00000000000E+00  0.14095361485E+04  0.40645002588E+04  0.38122657567E+04 0.  0.
        1    1    3    3  502    0  0.18711376871E+04 -0.24747114357E+03  0.42079127481E+03  0.19337692489E+04  0.50400001928E-02 0.  1.
       -1    1    3    3    0  502 -0.18711376871E+04  0.24747114357E+03  0.98874487374E+03  0.21307310099E+04  0.50400001928E-02 0. -1.
</event>
<event>
 5   0  0.1666051E-08  0.3796970E+04  0.7818609E-02  0.8046805E-01
       -1   -1    0    0    0  501  0.00000000000E+00  0.00000000000E+00  0.13059402030E+04  0.13059402030E+04  0.50400001928E-02 0.  1.
        1   -1    0    0  501    0  0.00000000000E+00  0.00000000000E+00 -0.27598855070E+04  0.27598855070E+04  0.50400001928E-02 0. -1.
    10030    2    1    2    0    0  0.00000000000E+00  0.00000000000E+00 -0.14539453040E+04  0.40658257099E+04  0.37969700758E+04 0.  0.
        2    1    3    3  502    0  0.32284002837E+03  0.79301846940E+03 -0.25413970571E+04  0.26817537132E+04  0.25500000920E-02 0. -1.
       -2    1    3    3    0  502 -0.32284002837E+03 -0.79301846940E+03  0.10874517531E+04  0.13840719967E+04  0.25500000920E-02 0.  1.
</event>
<event>
 5   0  0.5086209E-08  0.3800739E+04  0.7818609E-02  0.8045996E-01
        2   -1    0    0  501    0  0.00000000000E+00  0.00000000000E+00  0.17072631037E+04  0.17072631037E+04  0.25500000920E-02 0.  1.
       -2   -1    0    0    0  501  0.00000000000E+00  0.00000000000E+00 -0.21153175018E+04  0.21153175018E+04  0.25500000920E-02 0. -1.
    10030    2    1    2    0    0  0.00000000000E+00  0.00000000000E+00 -0.40805439809E+03  0.38225806055E+04  0.38007386248E+04 0.  0.
        3    1    3    3  502    0 -0.28038490402E+02 -0.12003749024E+04  0.12774338539E+04  0.17531466923E+04  0.10100000352E+00 0.  1.
       -3    1    3    3    0  502  0.28038490402E+02  0.12003749024E+04 -0.16854882520E+04  0.20694339132E+04  0.10100000352E+00 0. -1.
</event>
<event>
 5   0  0.1666051E-08  0.3801473E+04  0.7818609E-02  0.8045839E-01
       -1   -1    0    0    0  501  0.00000000000E+00  0.00000000000E+00  0.27396588003E+04  0.27396588003E+04  0.50400001928E-02 0. -1.
        1   -1    0    0  501    0  0.00000000000E+00  0.00000000000E+00 -0.13187039830E+04  0.13187039830E+04  0.50400001928E-02 0.  1.
    10030    2    1    2    0    0  0.00000000000E+00  0.00000000000E+00  0.14209548173E+04  0.40583627832E+04  0.38014728577E+04 0.  0.
        2    1    3    3  502    0 -0.61886958197E+03  0.13592865516E+04  0.19655675246E+04  0.24686261731E+04  0.25500000920E-02 0. -1.
       -2    1    3    3    0  502  0.61886958197E+03 -0.13592865516E+04 -0.54461270730E+03  0.15897366102E+04  0.25500000920E-02 0.  1.
</event>
<event>
 5   0  0.5159761E-08  0.3798951E+04  0.7818609E-02  0.8046380E-01
       -2   -1    0    0    0  501  0.00000000000E+00  0.00000000000E+00  0.14069393757E+04  0.14069393757E+04  0.25500000920E-02 0.  1.
        2   -1    0    0  501    0  0.00000000000E+00  0.00000000000E+00 -0.25644367916E+04  0.25644367916E+04  0.25500000920E-02 0. -1.
    10030    2    1    2    0    0  0.00000000000E+00  0.00000000000E+00 -0.11574974158E+04  0.39713761673E+04  0.37989509597E+04 0.  0.
        5    1    3    3  502    0 -0.39032397841E+03 -0.84249881099E+03 -0.23110123848E+04  0.24905737064E+04  0.46999998093E+01 0. -1.
       -5    1    3    3    0  502  0.39032397841E+03  0.84249881099E+03  0.11535149689E+04  0.14808024609E+04  0.46999998093E+01 0.  1.
</event>
<event>
 5   0  0.5147582E-08  0.3796167E+04  0.7818609E-02  0.8046978E-01
       -2   -1    0    0    0  501  0.00000000000E+00  0.00000000000E+00  0.27902002185E+04  0.27902002185E+04  0.25500000920E-02 0. -1.
        2   -1    0    0  501    0  0.00000000000E+00  0.00000000000E+00 -0.12912054900E+04  0.12912054900E+04  0.25500000920E-02 0.  1.
    10030    2    1    2    0    0  0.00000000000E+00  0.00000000000E+00  0.14989947285E+04  0.40814057085E+04  0.37961674569E+04 0.  0.
        1    1    3    3  502    0  0.14691694414E+03  0.54772177509E+03 -0.11979990254E+04  0.13254378131E+04  0.50400001928E-02 0.  1.
       -1    1    3    3    0  502 -0.14691694414E+03 -0.54772177509E+03  0.26969937540E+04  0.27559678954E+04  0.50400001928E-02 0. -1.
</event>
<event>
 5   0  0.1628250E-08  0.3823669E+04  0.7818609E-02  0.8041095E-01
       -1   -1    0    0    0  501  0.00000000000E+00  0.00000000000E+00  0.27227280698E+04  0.27227280699E+04  0.50400001928E-02 0. -1.
        1   -1    0    0  501    0  0.00000000000E+00  0.00000000000E+00 -0.13424442097E+04  0.13424442097E+04  0.50400001928E-02 0.  1.
    10030    2    1    2    0    0  0.00000000000E+00  0.00000000000E+00  0.13802838602E+04  0.40651722795E+04  0.38236686739E+04 0.  0.
        5    1    3    3  502    0 -0.13474492054E+03 -0.14366646732E+04 -0.64323509434E+03  0.15798528582E+04  0.46999998093E+01 0.  1.
       -5    1    3    3    0  502  0.13474492054E+03  0.14366646732E+04  0.20235189545E+04  0.24853194214E+04  0.46999998093E+01 0. -1.
</event>
<event>
 5   0  0.1628473E-08  0.3802828E+04  0.7818609E-02  0.8045548E-01
       -1   -1    0    0    0  501  0.00000000000E+00  0.00000000000E+00  0.17066558087E+04  0.17066558087E+04  0.50400001928E-02 0.  1.
        1   -1    0    0  501    0  0.00000000000E+00  0.00000000000E+00 -0.21183975557E+04  0.21183975558E+04  0.50400001928E-02 0. -1.
    10030    2    1    2    0    0  0.00000000000E+00  0.00000000000E+00 -0.41174174709E+03  0.38250533644E+04  0.38028281547E+04 0.  0.
        3    1    3    3  502    0 -0.50076184114E+03  0.12046107297E+04 -0.15972580216E+04  0.20623003247E+04  0.10100000352E+00 0. -1.
       -3    1    3    3    0  502  0.50076184114E+03 -0.12046107297E+04  0.11855162745E+04  0.17627530397E+04  0.10100000352E+00 0.  1.
</event>
<event>
 5   0  0.1628250E-08  0.3748493E+04  0.7818609E-02  0.8057299E-01
       -1   -1    0    0    0  501  0.00000000000E+00  0.00000000000E+00  0.15907989968E+04  0.15907989968E+04  0.50400001928E-02 0. -1.
        1   -1    0    0  501    0  0.00000000000E+00  0.00000000000E+00 -0.22081985328E+04  0.22081985328E+04  0.50400001928E-02 0.  1.
    10030    2    1    2    0    0  0.00000000000E+00  0.00000000000E+00 -0.61739953599E+03  0.37989975296E+04  0.37484930362E+04 0.  0.
        1    1    3    3  502    0 -0.18420459991E+03  0.81451883669E+03  0.13918310054E+04  0.16231345655E+04  0.50400001928E-02 0. -1.
       -1    1    3    3    0  502  0.18420459991E+03 -0.81451883669E+03 -0.20092305414E+04  0.21758629641E+04  0.50400001928E-02 0.  1.
</event>
<event>
 5   0  0.1628250E-08  0.3797306E+04  0.7818609E-02  0.8046733E-01
       -1   -1    0    0    0  501  0.00000000000E+00  0.00000000000E+00  0.12604433135E+04  0.12604433135E+04  0.50400001928E-02 0. -1.
        1   -1    0    0  501    0  0.00000000000E+00  0.00000000000E+00 -0.28600118964E+04  0.28600118964E+04  0.50400001928E-02 0.  1.
    10030    2    1    2    0    0  0.00000000000E+00  0.00000000000E+00 -0.15995685830E+04  0.41204552099E+04  0.37973058193E+04 0.  0.
        5    1    3    3  502    0 -0.58921657262E+03 -0.40450841100E+03 -0.27084673425E+04  0.28011820112E+04  0.46999998093E+01 0.  1.
       -5    1    3    3    0  502  0.58921657262E+03  0.40450841100E+03  0.11088987596E+04  0.13192731988E+04  0.46999998093E+01 0. -1.
</event>
<event>
 5   0  0.5140842E-08  0.3797835E+04  0.7818609E-02  0.8046620E-01
        2   -1    0    0  501    0  0.00000000000E+00  0.00000000000E+00  0.15753729775E+04  0.15753729775E+04  0.25500000920E-02 0. -1.
       -2   -1    0    0    0  501  0.00000000000E+00  0.00000000000E+00 -0.22889101779E+04  0.22889101779E+04  0.25500000920E-02 0.  1.
    10030    2    1    2    0    0  0.00000000000E+00  0.00000000000E+00 -0.71353720037E+03  0.38642831554E+04  0.37978347738E+04 0.  0.
        2    1    3    3  502    0 -0.16651027975E+04  0.77914423700E+03 -0.84075279006E+03  0.20215089222E+04  0.25500000920E-02 0.  1.
       -2    1    3    3    0  502  0.16651027975E+04 -0.77914423700E+03  0.12721558969E+03  0.18427742332E+04  0.25500000920E-02 0. -1.
</event>
<event>
 5   0  0.1666051E-08  0.3793115E+04  0.7818609E-02  0.8047634E-01
       -1   -1    0    0    0  501  0.00000000000E+00  0.00000000000E+00  0.13054270774E+04  0.13054270775E+04  0.50400001928E-02 0. -1.
        1   -1    0    0  501    0  0.00000000000E+00  0.00000000000E+00 -0.27553665342E+04  0.27553665342E+04  0.50400001928E-02 0.  1.
    10030    2    1    2    0    0  0.00000000000E+00  0.00000000000E+00 -0.14499394568E+04  0.40607936117E+04  0.37931148583E+04 0.  0.
        2    1    3    3  502    0  0.72819058113E+03 -0.12566630908E+04  0.58071556049E+03  0.15641912314E+04  0.25500000920E-02 0. -1.
       -2    1    3    3    0  502 -0.72819058113E+03  0.12566630908E+04 -0.20306550173E+04  0.24966023803E+04  0.25500000920E-02 0.  1.
</event>
<event>
 5   0  0.5159761E-08  0.3797504E+04  0.7818609E-02  0.8046691E-01
        2   -1    0    0  501    0  0.00000000000E+00  0.00000000000E+00  0.12860378201E+04  0.12860378201E+04  0.25500000920E-02 0. -1.
       -2   -1    0    0    0  501  0.00000000000E+00  0.00000000000E+00 -0.28033852879E+04  0.28033852879E+04  0.25500000920E-02 0.  1.
    10030    2    1    2    0    0  0.00000000000E+00  0.00000000000E+00 -0.15173474677E+04  0.40894231080E+04  0.37975041828E+04 0.  0.
        5    1    3    3  502    0  0.59818504138E+03  0.11731071099E+04  0.71441048897E+03  0.14981355319E+04  0.46999998093E+01 0. -1.
       -5    1    3    3    0  502 -0.59818504138E+03 -0.11731071099E+04 -0.22317579567E+04  0.25912875762E+04  0.46999998093E+01 0.  1.
</event>
<event>
 5   0  0.1628473E-08  0.3798938E+04  0.7818609E-02  0.8046383E-01
        1   -1    0    0  501    0  0.00000000000E+00  0.00000000000E+00  0.14725613775E+04  0.14725613775E+04  0.50400001928E-02 0. -1.
       -1   -1    0    0    0  501  0.00000000000E+00  0.00000000000E+00 -0.24501408208E+04  0.24501408208E+04  0.50400001928E-02 0.  1.
    10030    2    1    2    0    0  0.00000000000E+00  0.00000000000E+00 -0.97757944331E+03  0.39227021982E+04  0.37989381369E+04 0.  0.
        3    1    3    3  502    0 -0.82409310465E+03  0.97325770126E+03  0.96477242741E+03  0.15991078278E+04  0.10100000352E+00 0. -1.
       -3    1    3    3    0  502  0.82409310465E+03 -0.97325770126E+03 -0.19423518707E+04  0.23235943704E+04  0.10100000352E+00 0.  1.
</event>
<event>
 5   0  0.5086209E-08  0.3777184E+04  0.7818609E-02  0.8051069E-01
        2   -1    0    0  501    0  0.00000000000E+00  0.00000000000E+00  0.18902849079E+04  0.18902849079E+04  0.25500000920E-02 0. -1.
       -2   -1    0    0    0  501  0.00000000000E+00  0.00000000000E+00 -0.18869006627E+04  0.18869006627E+04  0.25500000920E-02 0.  1.
    10030    2    1    2    0    0  0.00000000000E+00  0.00000000000E+00  0.33842451565E+01  0.37771855706E+04  0.37771840545E+04 0.  0.
        3    1    3    3  502    0  0.17721698494E+04 -0.50838932583E+03  0.41124588961E+03  0.18889597332E+04  0.10100000352E+00 0.  1.
       -3    1    3    3    0  502 -0.17721698494E+04  0.50838932583E+03 -0.40786164445E+03  0.18882258374E+04  0.10100000352E+00 0. -1.
</event>
<event>
 5   0  0.5159761E-08  0.3782853E+04  0.7818609E-02  0.8049845E-01
        2   -1    0    0  501    0  0.00000000000E+00  0.00000000000E+00  0.22634593782E+04  0.22634593782E+04  0.25500000920E-02 0. -1.
       -2   -1    0    0    0  501  0.00000000000E+00  0.00000000000E+00 -0.15805429588E+04  0.15805429588E+04  0.25500000920E-02 0.  1.
    10030    2    1    2    0    0  0.00000000000E+00  0.00000000000E+00  0.68291641938E+03  0.38440023370E+04  0.37828533055E+04 0.  0.
        5    1    3    3  502    0  0.11389970942E+03 -0.43073446208E+03 -0.15264526281E+04  0.15901525198E+04  0.46999998093E+01 0.  1.
       -5    1    3    3    0  502 -0.11389970942E+03  0.43073446208E+03  0.22093690474E+04  0.22538498172E+04  0.46999998093E+01 0. -1.
</event>
<event>
 5   0  0.5159761E-08  0.3807989E+04  0.7818609E-02  0.8044443E-01
       -2   -1    0    0    0  501  0.00000000000E+00  0.00000000000E+00  0.14860199462E+04  0.14860199462E+04  0.25500000920E-02 0.  1.
        2   -1    0    0  501    0  0.00000000000E+00  0.00000000000E+00 -0.24395337661E+04  0.24395337661E+04  0.25500000920E-02 0. -1.
    10030    2    1    2    0    0  0.00000000000E+00  0.00000000000E+00 -0.95351381994E+03  0.39255537123E+04  0.38079894095E+04 0.  0.
        5    1    3    3  502    0 -0.64437373680E+02  0.19013945298E+04 -0.55472535359E+03  0.19817153280E+04  0.46999998093E+01 0. -1.
       -5    1    3    3    0  502  0.64437373680E+02 -0.19013945298E+04 -0.39878846635E+03  0.19438383843E+04  0.46999998093E+01 0.  1.
</event>
<event>
 5   0  0.5086209E-08  0.3798477E+04  0.7818609E-02  0.8046482E-01
        2   -1    0    0  501    0  0.00000000000E+00  0.00000000000E+00  0.17698013061E+04  0.17698013061E+04  0.25500000920E-02 0.  1.
       -2   -1    0    0    0  501  0.00000000000E+00  0.00000000000E+00 -0.20381422755E+04  0.20381422755E+04  0.25500000920E-02 0. -1.
    10030    2    1    2    0    0  0.00000000000E+00  0.00000000000E+00 -0.26834096945E+03  0.38079435816E+04  0.37984769901E+04 0.  0.
        3    1    3    3  502    0 -0.84315446491E+03 -0.17005271115E+04 -0.20070562988E+03  0.19086604383E+04  0.10100000352E+00 0.  1.
       -3    1    3    3    0  502  0.84315446491E+03  0.17005271115E+04 -0.67635339572E+02  0.18992831432E+04  0.10100000352E+00 0. -1.
</event>
<event>
 5   0  0.1628250E-08  0.3804731E+04  0.7818609E-02  0.8045140E-01
        1   -1    0    0  501    0  0.00000000000E+00  0.00000000000E+00  0.15481777871E+04  0.15481777871E+04  0.50400001928E-02 0.  1.
       -1   -1    0    0    0  501  0.00000000000E+00  0.00000000000E+00 -0.23375837618E+04  0.23375837618E+04  0.50400001928E-02 0. -1.
    10030    2    1    2    0    0  0.00000000000E+00  0.00000000000E+00 -0.78940597474E+03  0.38857615489E+04  0.38047313994E+04 0.  0.
        1    1    3    3  502    0  0.69010515718E+03  0.16463045455E+04  0.27689717165E+03  0.18064428661E+04  0.50400001928E-02 0.  1.
       -1    1    3    3    0  502 -0.69010515718E+03 -0.16463045455E+04 -0.10663031464E+04  0.20793186828E+04  0.50400001928E-02 0. -1.
</event>
<event>
 5   0  0.1628250E-08  0.3797170E+04  0.7818609E-02  0.8046762E-01
        1   -1    0    0  501    0  0.00000000000E+00  0.00000000000E+00  0.19039361134E+04  0.19039361134E+04  0.50400001928E-02 0. -1.
       -1   -1    0    0    0  501  0.00000000000E+00  0.00000000000E+00 -0.18932491462E+04  0.18932491462E+04  0.50400001928E-02 0.  1.
    10030    2    1    2    0    0  0.00000000000E+00  0.00000000000E+00  0.10686967176E+02  0.37971852595E+04  0.37971702206E+04 0.  0.
        4    1    3    3  502    0 -0.10690591128E+04  0.11668021777E+04 -0.10436168661E+04  0.18956403891E+04  0.12699999809E+01 0.  1.
       -4    1    3    3    0  502  0.10690591128E+04 -0.11668021777E+04  0.10543038333E+04  0.19015448705E+04  0.12699999809E+01 0. -1.
</event>
<event>
 5   0  0.1628250E-08  0.3803387E+04  0.7818609E-02  0.8045429E-01
        1   -1    0    0  501    0  0.00000000000E+00  0.00000000000E+00  0.20037182098E+04  0.20037182098E+04  0.50400001928E-02 0. -1.
       -1   -1    0    0    0  501  0.00000000000E+00  0.00000000000E+00 -0.18048632543E+04  0.18048632543E+04  0.50400001928E-02 0.  1.
    10030    2    1    2    0    0  0.00000000000E+00  0.00000000000E+00  0.19885495554E+03  0.38085814641E+04  0.38033865798E+04 0.  0.
        5    1    3    3  502    0 -0.34834220889E+03  0.18208530541E+04  0.52375989591E+03  0.19264461211E+04  0.46999998093E+01 0.  1.
       -5    1    3    3    0  502  0.34834220889E+03 -0.18208530541E+04 -0.32490494037E+03  0.18821353430E+04  0.46999998093E+01 0. -1.
</event>
<event>
 5   0  0.5140842E-08  0.3798106E+04  0.7818609E-02  0.8046561E-01
       -2   -1    0    0    0  501  0.00000000000E+00  0.00000000000E+00  0.25253234773E+04  0.25253234773E+04  0.25500000920E-02 0. -1.
        2   -1    0    0  501    0  0.00000000000E+00  0.00000000000E+00 -0.14280955182E+04  0.14280955182E+04  0.25500000920E-02 0.  1.
    10030    2    1    2    0    0  0.00000000000E+00  0.00000000000E+00  0.10972279591E+04  0.39534189955E+04  0.37981064440E+04 0.  0.
        2    1    3    3  502    0  0.15087985981E+03  0.93220006912E+03 -0.11663774336E+04  0.15007324940E+04  0.25500000920E-02 0.  1.
       -2    1    3    3    0  502 -0.15087985981E+03 -0.93220006912E+03  0.22636053926E+04  0.24526865015E+04  0.25500000920E-02 0. -1.
</event>
<event>
 5   0  0.1628473E-08  0.3804350E+04  0.7818609E-02  0.8045222E-01
       -1   -1    0    0    0  501  0.00000000000E+00  0.00000000000E+00  0.23128947332E+04  0.23128947332E+04  0.50400001928E-02 0.  1.
        1   -1    0    0  501    0  0.00000000000E+00  0.00000000000E+00 -0.15643899006E+04  0.15643899006E+04  0.50400001928E-02 0. -1.
    10030    2    1    2    0    0  0.00000000000E+00  0.00000000000E+00  0.74850483252E+03  0.38772846338E+04  0.38043497010E+04 0.  0.
        3    1    3    3  502    0  0.84393637499E+03  0.14326029874E+04 -0.56741415499E+03  0.17568547914E+04  0.10100000352E+00 0. -1.
       -3    1    3    3    0  502 -0.84393637499E+03 -0.14326029874E+04  0.13159189875E+04  0.21204298424E+04  0.10100000352E+00 0.  1.
</event>
<event>
 5   0  0.1628250E-08  0.3799069E+04  0.7818609E-02  0.8046355E-01
        1   -1    0    0  501    0  0.00000000000E+00  0.00000000000E+00  0.20678978884E+04  0.20678978884E+04  0.50400001928E-02 0. -1.
       -1   -1    0    0    0  501  0.00000000000E+00  0.00000000000E+00 -0.17448790517E+04  0.17448790517E+04  0.50400001928E-02 0.  1.
    10030    2    1    2    0    0  0.00000000000E+00  0.00000000000E+00  0.32301883674E+03  0.38127769401E+04  0.37990692052E+04 0.  0.
        4    1    3    3  502    0  0.16343823299E+04  0.81171510289E+03 -0.36778623470E+03  0.18615464904E+04  0.12699999809E+01 0.  1.
       -4    1    3    3    0  502 -0.16343823299E+04 -0.81171510289E+03  0.69080507144E+03  0.19512304498E+04  0.12699999809E+01 0. -1.
</event>
<event>
 5   0  0.5207474E-08  0.3795981E+04  0.7818609E-02  0.8047018E-01
       -2   -1    0    0    0  501  0.00000000000E+00  0.00000000000E+00  0.12126494343E+04  0.12126494343E+04  0.25500000920E-02 0.  1.
        2   -1    0    0  501    0  0.00000000000E+00  0.00000000000E+00 -0.29706588128E+04  0.29706588128E+04  0.25500000920E-02 0. -1.
    10030    2    1    2    0    0  0.00000000000E+00  0.00000000000E+00 -0.17580093785E+04  0.41833082472E+04  0.37959808898E+04 0.  0.
        4    1    3    3  502    0 -0.80808390101E+03 -0.17173628160E+04 -0.87282117525E+03  0.20890555401E+04  0.12699999809E+01 0. -1.
       -4    1    3    3    0  502  0.80808390101E+03  0.17173628160E+04 -0.88518820329E+03  0.20942527070E+04  0.12699999809E+01 0.  1.
</event>
<event>
 5   0  0.1628250E-08  0.3798330E+04  0.7818609E-02  0.8046513E-01
        1   -1    0    0  501    0  0.00000000000E+00  0.00000000000E+00  0.16743952046E+04  0.16743952046E+04  0.50400001928E-02 0. -1.
       -1   -1    0    0    0  501  0.00000000000E+00  0.00000000000E+00 -0.21541077892E+04  0.21541077892E+04  0.50400001928E-02 0.  1.
    10030    2    1    2    0    0  0.00000000000E+00  0.00000000000E+00 -0.47971258456E+03  0.38285029938E+04  0.37983300291E+04 0.  0.
        4    1    3    3  502    0 -0.89279473571E+03  0.10486557332E+04  0.10782261789E+04  0.17490953641E+04  0.12699999809E+01 0. -1.
       -4    1    3    3    0  502  0.89279473571E+03 -0.10486557332E+04 -0.15579387635E+04  0.20794076297E+04  0.12699999809E+01 0.  1.
</event>
<event>
 5   0  0.1628250E-08  0.3803731E+04  0.7818609E-02  0.8045355E-01
        1   -1    0    0  501    0  0.00000000000E+00  0.00000000000E+00  0.19915797041E+04  0.19915797041E+04  0.50400001928E-02 0.  1.
       -1   -1    0    0    0  501  0.00000000000E+00  0.00000000000E+00 -0.18161921923E+04  0.18161921923E+04  0.50400001928E-02 0. -1.
    10030    2    1    2    0    0  0.00000000000E+00  0.00000000000E+00  0.17538751173E+03  0.38077718964E+04  0.38037305419E+04 0.  0.
        4    1    3    3  502    0 -0.15543758324E+04 -0.60606918117E+03 -0.82634031948E+03  0.18617851695E+04  0.12699999809E+01 0. -1.
       -4    1    3    3    0  502  0.15543758324E+04  0.60606918117E+03  0.10017278312E+04  0.19459867269E+04  0.12699999809E+01 0.  1.
</event>
<event>
 5   0  0.1628250E-08  0.3805963E+04  0.7818609E-02  0.8044876E-01
        1   -1    0    0  501    0  0.00000000000E+00  0.00000000000E+00  0.25820892822E+04  0.25820892822E+04  0.50400001928E-02 0.  1.
       -1   -1    0    0    0  501  0.00000000000E+00  0.00000000000E+00 -0.14024838351E+04  0.14024838351E+04  0.50400001928E-02 0. -1.
    10030    2    1    2    0    0  0.00000000000E+00  0.00000000000E+00  0.11796054471E+04  0.39845731173E+04  0.38059629421E+04 0.  0.
        1    1    3    3  502    0  0.15962860273E+02 -0.14390512701E+04  0.18933093037E+04  0.23781807102E+04  0.50400001928E-02 0.  1.
       -1    1    3    3    0  502 -0.15962860273E+02  0.14390512701E+04 -0.71370385660E+03  0.16063924072E+04  0.50400001928E-02 0. -1.
</event>
<event>
 5   0  0.5147582E-08  0.3915421E+04  0.7818609E-02  0.8021830E-01
       -2   -1    0    0    0  501  0.00000000000E+00  0.00000000000E+00  0.20912628380E+04  0.20912628380E+04  0.25500000920E-02 0. -1.
        2   -1    0    0  501    0  0.00000000000E+00  0.00000000000E+00 -0.18326867988E+04  0.18326867988E+04  0.25500000920E-02 0.  1.
    10030    2    1    2    0    0  0.00000000000E+00  0.00000000000E+00  0.25857603919E+03  0.39239496368E+04  0.39154206905E+04 0.  0.
        1    1    3    3  502    0 -0.28816322673E+03 -0.25770839135E+03  0.20526293098E+04  0.20887170090E+04  0.50400001928E-02 0. -1.
       -1    1    3    3    0  502  0.28816322673E+03  0.25770839135E+03 -0.17940532706E+04  0.18352326278E+04  0.50400001928E-02 0.  1.
</event>
<event>
 5   0  0.1628473E-08  0.3801146E+04  0.7818609E-02  0.8045909E-01
        1   -1    0    0  501    0  0.00000000000E+00  0.00000000000E+00  0.15520896148E+04  0.15520896148E+04  0.50400001928E-02 0.  1.
       -1   -1    0    0    0  501  0.00000000000E+00  0.00000000000E+00 -0.23272998437E+04  0.23272998437E+04  0.50400001928E-02 0. -1.
    10030    2    1    2    0    0  0.00000000000E+00  0.00000000000E+00 -0.77521022890E+03  0.38793894585E+04  0.38011460997E+04 0.  0.
        3    1    3    3  502    0 -0.12562758865E+03 -0.17629386281E+03 -0.23146766590E+04  0.23247773793E+04  0.10100000352E+00 0. -1.
       -3    1    3    3    0  502  0.12562758865E+03  0.17629386281E+03  0.15394664301E+04  0.15546120792E+04  0.10100000352E+00 0.  1.
</event>
<event>
 5   0  0.5140842E-08  0.3798767E+04  0.7818609E-02  0.8046419E-01
       -2   -1    0    0    0  501  0.00000000000E+00  0.00000000000E+00  0.15125043373E+04  0.15125043373E+04  0.25500000920E-02 0. -1.
        2   -1    0    0  501    0  0.00000000000E+00  0.00000000000E+00 -0.23852217189E+04  0.23852217189E+04  0.25500000920E-02 0.  1.
    10030    2    1    2    0    0  0.00000000000E+00  0.00000000000E+00 -0.87271738163E+03  0.38977260563E+04  0.37987672713E+04 0.  0.
        2    1    3    3  502    0 -0.26446300057E+03 -0.52411147576E+01 -0.23662307331E+04  0.23809695567E+04  0.25500000920E-02 0.  1.
       -2    1    3    3    0  502  0.26446300057E+03  0.52411147576E+01  0.14935133514E+04  0.15167564995E+04  0.25500000920E-02 0. -1.
</event>
<event>
 5   0  0.5086209E-08  0.3792370E+04  0.7818609E-02  0.8047794E-01
        2   -1    0    0  501    0  0.00000000000E+00  0.00000000000E+00  0.19707256393E+04  0.19707256393E+04  0.25500000920E-02 0.  1.
       -2   -1    0    0    0  501  0.00000000000E+00  0.00000000000E+00 -0.18244642557E+04  0.18244642557E+04  0.25500000920E-02 0. -1.
    10030    2    1    2    0    0  0.00000000000E+00  0.00000000000E+00  0.14626138360E+03  0.37951898950E+04  0.37923704918E+04 0.  0.
        3    1    3    3  502    0  0.82494659123E+03  0.59416984174E+03 -0.15286665865E+04  0.18358638899E+04  0.10100000352E+00 0. -1.
       -3    1    3    3    0  502 -0.82494659123E+03 -0.59416984174E+03  0.16749279701E+04  0.19593260052E+04  0.10100000352E+00 0.  1.
</event>
<event>
 5   0  0.1628250E-08  0.3806266E+04  0.7818609E-02  0.8044812E-01
       -1   -1    0    0    0  501  0.00000000000E+00  0.00000000000E+00  0.19276863245E+04  0.19276863245E+04  0.50400001928E-02 0. -1.
        1   -1    0    0  501    0  0.00000000000E+00  0.00000000000E+00 -0.18788924650E+04  0.18788924650E+04  0.50400001928E-02 0.  1.
    10030    2    1    2    0    0  0.00000000000E+00  0.00000000000E+00  0.48793859517E+02  0.38065787895E+04  0.38062660495E+04 0.  0.
        5    1    3    3  502    0 -0.13127797314E+04  0.10807741966E+04  0.87911897145E+03  0.19142454762E+04  0.46999998093E+01 0.  1.
       -5    1    3    3    0  502  0.13127797314E+04 -0.10807741966E+04 -0.83032511193E+03  0.18923333133E+04  0.46999998093E+01 0. -1.
</event>
<event>
 5   0  0.5207474E-08  0.3807623E+04  0.7818609E-02  0.8044521E-01
        2   -1    0    0  501    0  0.00000000000E+00  0.00000000000E+00  0.22727709160E+04  0.22727709160E+04  0.25500000920E-02 0.  1.
       -2   -1    0    0    0  501  0.00000000000E+00  0.00000000000E+00 -0.15947486251E+04  0.15947486251E+04  0.25500000920E-02 0. -1.
    10030    2    1    2    0    0  0.00000000000E+00  0.00000000000E+00  0.67802229092E+03  0.38675195411E+04  0.38076230346E+04 0.  0.
        4    1    3    3  502    0 -0.79721536916E+03 -0.13734531147E+04 -0.72754035200E+03  0.17467805757E+04  0.12699999809E+01 0.  1.
       -4    1    3    3    0  502  0.79721536916E+03  0.13734531147E+04  0.14055626429E+04  0.21207389654E+04  0.12699999809E+01 0. -1.
</event>
<event>
 5   0  0.5207474E-08  0.3796219E+04  0.7818609E-02  0.8046967E-01
       -2   -1    0    0    0  501  0.00000000000E+00  0.00000000000E+00  0.17287523708E+04  0.17287523708E+04  0.25500000920E-02 0.  1.
        2   -1    0    0  501    0  0.00000000000E+00  0.00000000000E+00 -0.20840572210E+04  0.20840572210E+04  0.25500000920E-02 0. -1.
    10030    2    1    2    0    0  0.00000000000E+00  0.00000000000E+00 -0.35530485011E+03  0.38128095918E+04  0.37962185721E+04 0.  0.
        4    1    3    3  502    0 -0.16989985432E+03 -0.39394703744E+03  0.16794165123E+04  0.17333498388E+04  0.12699999809E+01 0.  1.
       -4    1    3    3    0  502  0.16989985432E+03  0.39394703744E+03 -0.20347213624E+04  0.20794597530E+04  0.12699999809E+01 0. -1.
</event>
<event>
 5   0  0.5140842E-08  0.3795801E+04  0.7818609E-02  0.8047057E-01
       -2   -1    0    0    0  501  0.00000000000E+00  0.00000000000E+00  0.21949514995E+04  0.21949514995E+04  0.25500000920E-02 0. -1.
        2   -1    0    0  501    0  0.00000000000E+00  0.00000000000E+00 -0.16410502324E+04  0.16410502324E+04  0.25500000920E-02 0.  1.
    10030    2    1    2    0    0  0.00000000000E+00  0.00000000000E+00  0.55390126709E+03  0.38360017320E+04  0.37958006631E+04 0.  0.
        2    1    3    3  502    0 -0.14887926992E+04  0.85067543862E+03 -0.54522162128E+03  0.17992829181E+04  0.25500000920E-02 0.  1.
       -2    1    3    3    0  502  0.14887926992E+04 -0.85067543862E+03  0.10991228884E+04  0.20367188139E+04  0.25500000920E-02 0. -1.
</event>
<event>
 5   0  0.1628250E-08  0.3798427E+04  0.7818609E-02  0.8046492E-01
       -1   -1    0    0    0  501  0.00000000000E+00  0.00000000000E+00  0.15541416106E+04  0.15541416106E+04  0.50400001928E-02 0.  1.
        1   -1    0    0  501    0  0.00000000000E+00  0.00000000000E+00 -0.23209035545E+04  0.23209035545E+04  0.50400001928E-02 0. -1.
    10030    2    1    2    0    0  0.00000000000E+00  0.00000000000E+00 -0.76676194396E+03  0.38750451651E+04  0.37984274579E+04 0.  0.
        5    1    3    3  502    0  0.38547924913E+03 -0.81832056644E+03  0.13202579751E+04  0.16004205734E+04  0.46999998093E+01 0.  1.
       -5    1    3    3    0  502 -0.38547924913E+03  0.81832056644E+03 -0.20870199190E+04  0.22746245918E+04  0.46999998093E+01 0. -1.
</event>
<event>
 5   0  0.5086209E-08  0.3802861E+04  0.7818609E-02  0.8045541E-01
        2   -1    0    0  501    0  0.00000000000E+00  0.00000000000E+00  0.11893528868E+04  0.11893528868E+04  0.25500000920E-02 0.  1.
       -2   -1    0    0    0  501  0.00000000000E+00  0.00000000000E+00 -0.30398362100E+04  0.30398362100E+04  0.25500000920E-02 0. -1.
    10030    2    1    2    0    0  0.00000000000E+00  0.00000000000E+00 -0.18504833232E+04  0.42291890968E+04  0.38028610134E+04 0.  0.
        3    1    3    3  502    0  0.18317588221E+04  0.46713956481E+03 -0.11528251163E+04  0.22141737769E+04  0.10100000352E+00 0. -1.
       -3    1    3    3    0  502 -0.18317588221E+04 -0.46713956481E+03 -0.69765820687E+03  0.20150153199E+04  0.10100000352E+00 0.  1.
</event>
<event>
 5   0  0.1628473E-08  0.3799954E+04  0.7818609E-02  0.8046165E-01
       -1   -1    0    0    0  501  0.00000000000E+00  0.00000000000E+00  0.14073858178E+04  0.14073858178E+04  0.50400001928E-02 0. -1.
        1   -1    0    0  501    0  0.00000000000E+00  0.00000000000E+00 -0.25649767673E+04  0.25649767673E+04  0.50400001928E-02 0.  1.
    10030    2    1    2    0    0  0.00000000000E+00  0.00000000000E+00 -0.11575909495E+04  0.39723625851E+04  0.37999536446E+04 0.  0.
        3    1    3    3  502    0  0.11138029551E+04 -0.13382156768E+04  0.21632861803E+03  0.17544732262E+04  0.10100000352E+00 0. -1.
       -3    1    3    3    0  502 -0.11138029551E+04  0.13382156768E+04 -0.13739195675E+04  0.22178893589E+04  0.10100000352E+00 0.  1.
</event>
<event>
 5   0  0.5207474E-08  0.3802952E+04  0.7818609E-02  0.8045522E-01
       -2   -1    0    0    0  501  0.00000000000E+00  0.00000000000E+00  0.25342727184E+04  0.25342727184E+04  0.25500000920E-02 0. -1.
        2   -1    0    0  501    0  0.00000000000E+00  0.00000000000E+00 -0.14266859942E+04  0.14266859942E+04  0.25500000920E-02 0.  1.
    10030    2    1    2    0    0  0.00000000000E+00  0.00000000000E+00  0.11075867242E+04  0.39609587126E+04  0.38029522179E+04 0.  0.
        4    1    3    3  502    0 -0.18623495195E+04 -0.38277625839E+03  0.58224847713E+03  0.19884361440E+04  0.12699999809E+01 0.  1.
       -4    1    3    3    0  502  0.18623495195E+04  0.38277625839E+03  0.52533824704E+03  0.19725225686E+04  0.12699999809E+01 0. -1.
</event>
<event>
 5   0  0.1628250E-08  0.3800363E+04  0.7818609E-02  0.8046077E-01
        1   -1    0    0  501    0  0.00000000000E+00  0.00000000000E+00  0.20581084586E+04  0.20581084586E+04  0.50400001928E-02 0.  1.
       -1   -1    0    0    0  501  0.00000000000E+00  0.00000000000E+00 -0.17543726845E+04  0.17543726845E+04  0.50400001928E-02 0. -1.
    10030    2    1    2    0    0  0.00000000000E+00  0.00000000000E+00  0.30373577418E+03  0.38124811431E+04  0.38003627519E+04 0.  0.
        4    1    3    3  502    0  0.17083971435E+04 -0.48010588781E+03 -0.52968439013E+03  0.18519421237E+04  0.12699999809E+01 0.  1.
       -4    1    3    3    0  502 -0.17083971435E+04  0.48010588781E+03  0.83342016430E+03  0.19605390194E+04  0.12699999809E+01 0. -1.
</event>
<event>
 5   0  0.1628473E-08  0.3794072E+04  0.7818609E-02  0.8047428E-01
        1   -1    0    0  501    0  0.00000000000E+00  0.00000000000E+00  0.18768456242E+04  0.18768456242E+04  0.50400001928E-02 0.  1.
       -1   -1    0    0    0  501  0.00000000000E+00  0.00000000000E+00 -0.19174431170E+04  0.19174431170E+04  0.50400001928E-02 0. -1.
    10030    2    1    2    0    0  0.00000000000E+00  0.00000000000E+00 -0.40597492786E+02  0.37942887412E+04  0.37940715459E+04 0.  0.
        3    1    3    3  502    0  0.98826428470E+03 -0.21486366999E+02 -0.16395321811E+04  0.19144695723E+04  0.10100000352E+00 0. -1.
       -3    1    3    3    0  502 -0.98826428470E+03  0.21486366999E+02  0.15989346883E+04  0.18798191689E+04  0.10100000352E+00 0.  1.
</event>
<event>
 5   0  0.5140842E-08  0.3801041E+04  0.7818609E-02  0.8045932E-01
        2   -1    0    0  501    0  0.00000000000E+00  0.00000000000E+00  0.24666737516E+04  0.24666737517E+04  0.25500000920E-02 0. -1.
       -2   -1    0    0    0  501  0.00000000000E+00  0.00000000000E+00 -0.14643110055E+04  0.14643110055E+04  0.25500000920E-02 0.  1.
    10030    2    1    2    0    0  0.00000000000E+00  0.00000000000E+00  0.10023627461E+04  0.39309847572E+04  0.38010406584E+04 0.  0.
        2    1    3    3  502    0 -0.59573816540E+03  0.98749365358E+03 -0.10610666682E+04  0.15671343758E+04  0.25500000920E-02 0.  1.
       -2    1    3    3    0  502  0.59573816540E+03 -0.98749365358E+03  0.20634294143E+04  0.23638503814E+04  0.25500000920E-02 0. -1.
</event>
<event>
 5   0  0.1628473E-08  0.3799059E+04  0.7818609E-02  0.8046357E-01
        1   -1    0    0  501    0  0.00000000000E+00  0.00000000000E+00  0.26117574098E+04  0.26117574098E+04  0.50400001928E-02 0.  1.
       -1   -1    0    0    0  501  0.00000000000E+00  0.00000000000E+00 -0.13815269050E+04  0.13815269050E+04  0.50400001928E-02 0. -1.
    10030    2    1    2    0    0  0.00000000000E+00  0.00000000000E+00  0.12302305047E+04  0.39932843148E+04  0.37990594262E+04 0.  0.
        3    1    3    3  502    0 -0.18639823790E+03 -0.17768753833E+04 -0.62988506323E+02  0.17877354371E+04  0.10100000352E+00 0. -1.
       -3    1    3    3    0  502  0.18639823790E+03  0.17768753833E+04  0.12932190111E+04  0.22055488777E+04  0.10100000352E+00 0.  1.
</event>
<event>
 5   0  0.5207474E-08  0.3795702E+04  0.7818609E-02  0.8047078E-01
        2   -1    0    0  501    0  0.00000000000E+00  0.00000000000E+00  0.25514384914E+04  0.25514384914E+04  0.25500000920E-02 0.  1.
       -2   -1    0    0    0  501  0.00000000000E+00  0.00000000000E+00 -0.14116891103E+04  0.14116891103E+04  0.25500000920E-02 0. -1.
    10030    2    1    2    0    0  0.00000000000E+00  0.00000000000E+00  0.11397493811E+04  0.39631276017E+04  0.37957017448E+04 0.  0.
        4    1    3    3  502    0  0.18096098643E+03  0.41703443638E+03  0.24937496791E+04  0.25348478603E+04  0.12699999809E+01 0.  1.
       -4    1    3    3    0  502 -0.18096098643E+03 -0.41703443638E+03 -0.13540002980E+04  0.14282797414E+04  0.12699999809E+01 0. -1.
</event>
<event>
 5   0  0.5147582E-08  0.3799951E+04  0.7818609E-02  0.8046165E-01
       -2   -1    0    0    0  501  0.00000000000E+00  0.00000000000E+00  0.17781854091E+04  0.17781854091E+04  0.25500000920E-02 0. -1.
        2   -1    0    0  501    0  0.00000000000E+00  0.00000000000E+00 -0.20301069979E+04  0.20301069979E+04  0.25500000920E-02 0.  1.
    10030    2    1    2    0    0  0.00000000000E+00  0.00000000000E+00 -0.25192158880E+03  0.38082924071E+04  0.37999508643E+04 0.  0.
        1    1    3    3  502    0 -0.10821271352E+04 -0.14942741321E+04  0.32896552628E+03  0.18740524636E+04  0.50400001928E-02 0. -1.
       -1    1    3    3    0  502  0.10821271352E+04  0.14942741321E+04 -0.58088711508E+03  0.19342399435E+04  0.50400001928E-02 0.  1.
</event>
<event>
 5   0  0.5147582E-08  0.3803020E+04  0.7818609E-02  0.8045507E-01
       -2   -1    0    0    0  501  0.00000000000E+00  0.00000000000E+00  0.13714465404E+04  0.13714465404E+04  0.25500000920E-02 0.  1.
        2   -1    0    0  501    0  0.00000000000E+00  0.00000000000E+00 -0.26364427753E+04  0.26364427753E+04  0.25500000920E-02 0. -1.
    10030    2    1    2    0    0  0.00000000000E+00  0.00000000000E+00 -0.12649962349E+04  0.40078893157E+04  0.38030200226E+04 0.  0.
        1    1    3    3  502    0  0.12848244751E+04  0.77381991855E+03 -0.18642956801E+04  0.23927326597E+04  0.50400001928E-02 0. -1.
       -1    1    3    3    0  502 -0.12848244751E+04 -0.77381991855E+03  0.59929944522E+03  0.16151566559E+04  0.50400001928E-02 0.  1.
</event>
<event>
 5   0  0.5086209E-08  0.3800688E+04  0.7818609E-02  0.8046007E-01
       -2   -1    0    0    0  501  0.00000000000E+00  0.00000000000E+00  0.12527797062E+04  0.12527797062E+04  0.25500000920E-02 0. -1.
        2   -1    0    0  501    0  0.00000000000E+00  0.00000000000E+00 -0.28826351440E+04  0.28826351440E+04  0.25500000920E-02 0.  1.
    10030    2    1    2    0    0  0.00000000000E+00  0.00000000000E+00 -0.16298554378E+04  0.41354148503E+04  0.38006877319E+04 0.  0.
        3    1    3    3  502    0  0.15935385132E+04  0.10338640994E+04 -0.75467152236E+03  0.20439591693E+04  0.10100000352E+00 0. -1.
       -3    1    3    3    0  502 -0.15935385132E+04 -0.10338640994E+04 -0.87518391547E+03  0.20914556809E+04  0.10100000352E+00 0.  1.
</event>
<event>
 5   0  0.5159761E-08  0.3905414E+04  0.7818609E-02  0.8023904E-01
       -2   -1    0    0    0  501  0.00000000000E+00  0.00000000000E+00  0.15440915929E+04  0.15440915929E+04  0.25500000920E-02 0.  1.
        2   -1    0    0  501    0  0.00000000000E+00  0.00000000000E+00 -0.24694544445E+04  0.24694544445E+04  0.25500000920E-02 0. -1.
    10030    2    1    2    0    0  0.00000000000E+00  0.00000000000E+00 -0.92536285168E+03  0.40135460374E+04  0.39054136000E+04 0.  0.
        5    1    3    3  502    0 -0.68035272178E+03  0.11944554771E+04  0.96259898276E+03  0.16781604823E+04  0.46999998093E+01 0.  1.
       -5    1    3    3    0  502  0.68035272178E+03 -0.11944554771E+04 -0.18879618344E+04  0.23353855551E+04  0.46999998093E+01 0. -1.
</event>
<event>
 5   0  0.1628473E-08  0.3797562E+04  0.7818609E-02  0.8046678E-01
       -1   -1    0    0    0  501  0.00000000000E+00  0.00000000000E+00  0.16969232015E+04  0.16969232015E+04  0.50400001928E-02 0. -1.
        1   -1    0    0  501    0  0.00000000000E+00  0.00000000000E+00 -0.21246512630E+04  0.21246512630E+04  0.50400001928E-02 0.  1.
    10030    2    1    2    0    0  0.00000000000E+00  0.00000000000E+00 -0.42772806144E+03  0.38215744645E+04  0.37975623883E+04 0.  0.
        3    1    3    3  502    0 -0.11564572091E+04  0.11337384027E+04  0.78367265474E+03  0.17991383722E+04  0.10100000352E+00 0. -1.
       -3    1    3    3    0  502  0.11564572091E+04 -0.11337384027E+04 -0.12114007162E+04  0.20224360923E+04  0.10100000352E+00 0.  1.
</event>
<event>
 5   0  0.1628250E-08  0.3791685E+04  0.7818609E-02  0.8047942E-01
       -1   -1    0    0    0  501  0.00000000000E+00  0.00000000000E+00  0.15020684396E+04  0.15020684396E+04  0.50400001928E-02 0.  1.
        1   -1    0    0  501    0  0.00000000000E+00  0.00000000000E+00 -0.23928463580E+04  0.23928463580E+04  0.50400001928E-02 0. -1.
    10030    2    1    2    0    0  0.00000000000E+00  0.00000000000E+00 -0.89077791840E+03  0.38949147977E+04  0.37916851111E+04 0.  0.
        4    1    3    3  502    0 -0.46369187686E+03  0.14457028039E+04  0.72093052522E+03  0.16807168675E+04  0.12699999809E+01 0.  1.
       -4    1    3    3    0  502  0.46369187686E+03 -0.14457028039E+04 -0.16117084436E+04  0.22141979302E+04  0.12699999809E+01 0. -1.
</event>
<event>
 5   0  0.5207474E-08  0.3800063E+04  0.7818609E-02  0.8046141E-01
        2   -1    0    0  501    0  0.00000000000E+00  0.00000000000E+00  0.16481286617E+04  0.16481286617E+04  0.25500000920E-02 0.  1.
       -2   -1    0    0    0  501  0.00000000000E+00  0.00000000000E+00 -0.21904361046E+04  0.21904361046E+04  0.25500000920E-02 0. -1.
    10030    2    1    2    0    0  0.00000000000E+00  0.00000000000E+00 -0.54230744289E+03  0.38385647663E+04  0.38000634340E+04 0.  0.
        4    1    3    3  502    0 -0.10808441701E+04 -0.13262661188E+04 -0.11059119492E+04  0.20372159410E+04  0.12699999809E+01 0. -1.
       -4    1    3    3    0  502  0.10808441701E+04  0.13262661188E+04  0.56360450628E+03  0.18013488253E+04  0.12699999809E+01 0.  1.
</event>
<event>
 5   0  0.1628473E-08  0.3807800E+04  0.7818609E-02  0.8044483E-01
       -1   -1    0    0    0  501  0.00000000000E+00  0.00000000000E+00  0.18667538962E+04  0.18667538962E+04  0.50400001928E-02 0. -1.
        1   -1    0    0  501    0  0.00000000000E+00  0.00000000000E+00 -0.19417852573E+04  0.19417852574E+04  0.50400001928E-02 0.  1.
    10030    2    1    2    0    0  0.00000000000E+00  0.00000000000E+00 -0.75031361112E+02  0.38085391536E+04  0.38077999920E+04 0.  0.
        3    1    3    3  502    0  0.10403987569E+04  0.11718482536E+04  0.10439792302E+04  0.18829632355E+04  0.10100000352E+00 0. -1.
       -3    1    3    3    0  502 -0.10403987569E+04 -0.11718482536E+04 -0.11190105913E+04  0.19255759181E+04  0.10100000352E+00 0.  1.
</event>
<event>
 5   0  0.1628250E-08  0.3799191E+04  0.7818609E-02  0.8046329E-01
       -1   -1    0    0    0  501  0.00000000000E+00  0.00000000000E+00  0.19810121957E+04  0.19810121957E+04  0.50400001928E-02 0.  1.
        1   -1    0    0  501    0  0.00000000000E+00  0.00000000000E+00 -0.18215247138E+04  0.18215247138E+04  0.50400001928E-02 0. -1.
    10030    2    1    2    0    0  0.00000000000E+00  0.00000000000E+00  0.15948748188E+03  0.38025369095E+04  0.37991907942E+04 0.  0.
        4    1    3    3  502    0 -0.13835236275E+04 -0.12921085837E+04  0.23729534073E+03  0.19078765452E+04  0.12699999809E+01 0. -1.
       -4    1    3    3    0  502  0.13835236275E+04  0.12921085837E+04 -0.77807858853E+02  0.18946603643E+04  0.12699999809E+01 0.  1.
</event>
<event>
 5   0  0.1628250E-08  0.3790472E+04  0.7818609E-02  0.8048203E-01
       -1   -1    0    0    0  501  0.00000000000E+00  0.00000000000E+00  0.15036932991E+04  0.15036932991E+04  0.50400001928E-02 0. -1.
        1   -1    0    0  501    0  0.00000000000E+00  0.00000000000E+00 -0.23887319784E+04  0.23887319784E+04  0.50400001928E-02 0.  1.
    10030    2    1    2    0    0  0.00000000000E+00  0.00000000000E+00 -0.88503867925E+03  0.38924252775E+04  0.37904724082E+04 0.  0.
        5    1    3    3  502    0  0.52708419187E+03 -0.14341960249E+04  0.70887105227E+03  0.16844156975E+04  0.46999998093E+01 0. -1.
       -5    1    3    3    0  502 -0.52708419187E+03  0.14341960249E+04 -0.15939097315E+04  0.22080095800E+04  0.46999998093E+01 0.  1.
</event>
<event>
 5   0  0.1628473E-08  0.3804518E+04  0.7818609E-02  0.8045186E-01
       -1   -1    0    0    0  501  0.00000000000E+00  0.00000000000E+00  0.15359747453E+04  0.15359747453E+04  0.50400001928E-02 0.  1.
        1   -1    0    0  501    0  0.00000000000E+00  0.00000000000E+00 -0.23558915519E+04  0.23558915519E+04  0.50400001928E-02 0. -1.
    10030    2    1    2    0    0  0.00000000000E+00  0.00000000000E+00 -0.81991680658E+03  0.38918662972E+04  0.38045183277E+04 0.  0.
        3    1    3    3  502    0 -0.35192193296E+01 -0.83742791994E+03 -0.21571807782E+04  0.23140282682E+04  0.10100000352E+00 0. -1.
       -3    1    3    3    0  502  0.35192193296E+01  0.83742791994E+03  0.13372639716E+04  0.15778380291E+04  0.10100000352E+00 0.  1.
</event>
<event>
 5   0  0.1628250E-08  0.3797050E+04  0.7818609E-02  0.8046788E-01
       -1   -1    0    0    0  501  0.00000000000E+00  0.00000000000E+00  0.26383012280E+04  0.26383012280E+04  0.50400001928E-02 0.  1.
        1   -1    0    0  501    0  0.00000000000E+00  0.00000000000E+00 -0.13661810562E+04  0.13661810562E+04  0.50400001928E-02 0. -1.
    10030    2    1    2    0    0  0.00000000000E+00  0.00000000000E+00  0.12721201718E+04  0.40044822842E+04  0.37970499909E+04 0.  0.
        5    1    3    3  502    0 -0.10851064658E+04  0.47790326186E+02 -0.10061293599E+04  0.14805601428E+04  0.46999998093E+01 0. -1.
       -5    1    3    3    0  502  0.10851064658E+04 -0.47790326186E+02  0.22782495317E+04  0.25239221415E+04  0.46999998093E+01 0.  1.
</event>
<event>
 5   0  0.1666051E-08  0.3801026E+04  0.7818609E-02  0.8045935E-01
       -1   -1    0    0    0  501  0.00000000000E+00  0.00000000000E+00  0.12185986180E+04  0.12185986180E+04  0.50400001928E-02 0. -1.
        1   -1    0    0  501    0  0.00000000000E+00  0.00000000000E+00 -0.29640183901E+04  0.29640183901E+04  0.50400001928E-02 0.  1.
    10030    2    1    2    0    0  0.00000000000E+00  0.00000000000E+00 -0.17454197721E+04  0.41826170082E+04  0.38010255006E+04 0.  0.
        2    1    3    3  502    0 -0.11759269892E+04  0.67664655423E+03  0.59180107273E+03  0.14801632859E+04  0.25500000920E-02 0. -1.
       -2    1    3    3    0  502  0.11759269892E+04 -0.67664655423E+03 -0.23372208448E+04  0.27024537222E+04  0.25500000920E-02 0.  1.
</event>
<event>
 5   0  0.1666051E-08  0.3784278E+04  0.7818609E-02  0.8049537E-01
        1   -1    0    0  501    0  0.00000000000E+00  0.00000000000E+00  0.13655067953E+04  0.13655067953E+04  0.50400001928E-02 0. -1.
       -1   -1    0    0    0  501  0.00000000000E+00  0.00000000000E+00 -0.26218764241E+04  0.26218764241E+04  0.50400001928E-02 0.  1.
    10030    2    1    2    0    0  0.00000000000E+00  0.00000000000E+00 -0.12563696288E+04  0.39873832194E+04  0.37842780413E+04 0.  0.
        2    1    3    3  502    0  0.97896802696E+03 -0.61551041481E+03 -0.22062159518E+04  0.24909075243E+04  0.25500000920E-02 0.  1.
       -2    1    3    3    0  502 -0.97896802696E+03  0.61551041481E+03  0.94984632304E+03  0.14964756951E+04  0.25500000920E-02 0. -1.
</event>
<event>
 5   0  0.5159761E-08  0.3804583E+04  0.7818609E-02  0.8045172E-01
        2   -1    0    0  501    0  0.00000000000E+00  0.00000000000E+00  0.12430678092E+04  0.12430678092E+04  0.25500000920E-02 0. -1.
       -2   -1    0    0    0  501  0.00000000000E+00  0.00000000000E+00 -0.29111146460E+04  0.29111146460E+04  0.25500000920E-02 0.  1.
    10030    2    1    2    0    0  0.00000000000E+00  0.00000000000E+00 -0.16680468369E+04  0.41541824552E+04  0.38045829760E+04 0.  0.
        5    1    3    3  502    0  0.63575102974E+03  0.11495470204E+04 -0.23363346148E+04  0.26803207357E+04  0.46999998093E+01 0.  1.
       -5    1    3    3    0  502 -0.63575102974E+03 -0.11495470204E+04  0.66828777797E+03  0.14738617195E+04  0.46999998093E+01 0. -1.
</event>
<event>
 5   0  0.1628473E-08  0.3798398E+04  0.7818609E-02  0.8046499E-01
        1   -1    0    0  501    0  0.00000000000E+00  0.00000000000E+00  0.24016477858E+04  0.24016477858E+04  0.50400001928E-02 0. -1.
       -1   -1    0    0    0  501  0.00000000000E+00  0.00000000000E+00 -0.15018676316E+04  0.15018676316E+04  0.50400001928E-02 0.  1.
    10030    2    1    2    0    0  0.00000000000E+00  0.00000000000E+00  0.89978015415E+03  0.39035154174E+04  0.37983981213E+04 0.  0.
        3    1    3    3  502    0 -0.10445534591E+04 -0.52121040154E+03 -0.10896346363E+04  0.15968894334E+04  0.10100000352E+00 0.  1.
       -3    1    3    3    0  502  0.10445534591E+04  0.52121040154E+03  0.19894147905E+04  0.23066259840E+04  0.10100000352E+00 0. -1.
</event>
<event>
 5   0  0.5159761E-08  0.3803521E+04  0.7818609E-02  0.8045400E-01
        2   -1    0    0  501    0  0.00000000000E+00  0.00000000000E+00  0.20797572098E+04  0.20797572098E+04  0.25500000920E-02 0.  1.
       -2   -1    0    0    0  501  0.00000000000E+00  0.00000000000E+00 -0.17389979155E+04  0.17389979155E+04  0.25500000920E-02 0. -1.
    10030    2    1    2    0    0  0.00000000000E+00  0.00000000000E+00  0.34075929430E+03  0.38187551253E+04  0.38035212383E+04 0.  0.
        5    1    3    3  502    0 -0.72257267064E+03  0.15648738094E+04  0.97717143035E+03  0.19813700810E+04  0.46999998093E+01 0.  1.
       -5    1    3    3    0  502  0.72257267064E+03 -0.15648738094E+04 -0.63641213605E+03  0.18373850442E+04  0.46999998093E+01 0. -1.
</event>
<event>
 5   0  0.1628473E-08  0.3813509E+04  0.7818609E-02  0.8043262E-01
       -1   -1    0    0    0  501  0.00000000000E+00  0.00000000000E+00  0.31379987169E+04  0.31379987169E+04  0.50400001928E-02 0. -1.
        1   -1    0    0  501    0  0.00000000000E+00  0.00000000000E+00 -0.11586087105E+04  0.11586087105E+04  0.50400001928E-02 0.  1.
    10030    2    1    2    0    0  0.00000000000E+00  0.00000000000E+00  0.19793900064E+04  0.42966074273E+04  0.38135089599E+04 0.  0.
        3    1    3    3  502    0  0.62727774118E+02  0.19027083101E+04  0.86898257661E+03  0.20926931011E+04  0.10100000352E+00 0. -1.
       -3    1    3    3    0  502 -0.62727774118E+02 -0.19027083101E+04  0.11104074298E+04  0.22039143262E+04  0.10100000352E+00 0.  1.
</event>
<event>
 5   0  0.5207474E-08  0.3804916E+04  0.7818609E-02  0.8045101E-01
        2   -1    0    0  501    0  0.00000000000E+00  0.00000000000E+00  0.16694471435E+04  0.16694471435E+04  0.25500000920E-02 0. -1.
       -2   -1    0    0    0  501  0.00000000000E+00  0.00000000000E+00 -0.21679914260E+04  0.21679914260E+04  0.25500000920E-02 0.  1.
    10030    2    1    2    0    0  0.00000000000E+00  0.00000000000E+00 -0.49854428246E+03  0.38374385694E+04  0.38049163424E+04 0.  0.
        4    1    3    3  502    0 -0.58412057675E+03 -0.13942439882E+04  0.91569065006E+03  0.17673720961E+04  0.12699999809E+01 0.  1.
       -4    1    3    3    0  502  0.58412057675E+03  0.13942439882E+04 -0.14142349325E+04  0.20700664733E+04  0.12699999809E+01 0. -1.
</event>
<event>
 5   0  0.1628250E-08  0.3833917E+04  0.7818609E-02  0.8038915E-01
        1   -1    0    0  501    0  0.00000000000E+00  0.00000000000E+00  0.22811924748E+04  0.22811924748E+04  0.50400001928E-02 0.  1.
       -1   -1    0    0    0  501  0.00000000000E+00  0.00000000000E+00 -0.16108811825E+04  0.16108811825E+04  0.50400001928E-02 0. -1.
    10030    2    1    2    0    0  0.00000000000E+00  0.00000000000E+00  0.67031129225E+03  0.38920736573E+04  0.38339170733E+04 0.  0.
        4    1    3    3  502    0  0.12557835583E+04 -0.13309799082E+04 -0.24467254026E+03  0.18461760821E+04  0.12699999809E+01 0. -1.
       -4    1    3    3    0  502 -0.12557835583E+04  0.13309799082E+04  0.91498383251E+03  0.20458975752E+04  0.12699999809E+01 0.  1.
</event>
<event>
 5   0  0.5207474E-08  0.3772874E+04  0.7818609E-02  0.8052001E-01
       -2   -1    0    0    0  501  0.00000000000E+00  0.00000000000E+00  0.21082503375E+04  0.21082503375E+04  0.25500000920E-02 0. -1.
        2   -1    0    0  501    0  0.00000000000E+00  0.00000000000E+00 -0.16879612506E+04  0.16879612506E+04  0.25500000920E-02 0.  1.
    10030    2    1    2    0    0  0.00000000000E+00  0.00000000000E+00  0.42028908693E+03  0.37962115880E+04  0.37728741702E+04 0.  0.
        4    1    3    3  502    0  0.29080341287E+03 -0.90881442312E+03  0.18475189004E+04  0.20793840388E+04  0.12699999809E+01 0. -1.
       -4    1    3    3    0  502 -0.29080341287E+03  0.90881442312E+03 -0.14272298134E+04  0.17168275493E+04  0.12699999809E+01 0.  1.
</event>
<event>
 5   0  0.5140842E-08  0.3828171E+04  0.7818609E-02  0.8040136E-01
       -2   -1    0    0    0  501  0.00000000000E+00  0.00000000000E+00  0.14107541905E+04  0.14107541905E+04  0.25500000920E-02 0.  1.
        2   -1    0    0  501    0  0.00000000000E+00  0.00000000000E+00 -0.25969956596E+04  0.25969956596E+04  0.25500000920E-02 0. -1.
    10030    2    1    2    0    0  0.00000000000E+00  0.00000000000E+00 -0.11862414692E+04  0.40077498501E+04  0.38281705863E+04 0.  0.
        2    1    3    3  502    0  0.18244238634E+04 -0.21999294196E+03 -0.32458495833E+02  0.18379262449E+04  0.25500000920E-02 0.  1.
       -2    1    3    3    0  502 -0.18244238634E+04  0.21999294196E+03 -0.11537829733E+04  0.21698236051E+04  0.25500000920E-02 0. -1.
</event>
<event>
 5   0  0.1628250E-08  0.3796962E+04  0.7818609E-02  0.8046807E-01
       -1   -1    0    0    0  501  0.00000000000E+00  0.00000000000E+00  0.26582886358E+04  0.26582886359E+04  0.50400001928E-02 0. -1.
        1   -1    0    0  501    0  0.00000000000E+00  0.00000000000E+00 -0.13558456959E+04  0.13558456959E+04  0.50400001928E-02 0.  1.
    10030    2    1    2    0    0  0.00000000000E+00  0.00000000000E+00  0.13024429400E+04  0.40141343317E+04  0.37969615249E+04 0.  0.
        1    1    3    3  502    0 -0.10347614875E+04 -0.75674096613E+03  0.21316140267E+04  0.24874015729E+04  0.50400001928E-02 0. -1.
       -1    1    3    3    0  502  0.10347614875E+04  0.75674096613E+03 -0.82917108671E+03  0.15267327589E+04  0.50400001928E-02 0.  1.
</event>
<event>
 5   0  0.1628250E-08  0.3803429E+04  0.7818609E-02  0.8045419E-01
       -1   -1    0    0    0  501  0.00000000000E+00  0.00000000000E+00  0.24272954172E+04  0.24272954172E+04  0.50400001928E-02 0.  1.
        1   -1    0    0  501    0  0.00000000000E+00  0.00000000000E+00 -0.14899377024E+04  0.14899377024E+04  0.50400001928E-02 0. -1.
    10030    2    1    2    0    0  0.00000000000E+00  0.00000000000E+00  0.93735771477E+03  0.39172331197E+04  0.38034294825E+04 0.  0.
        1    1    3    3  502    0  0.16648837259E+03  0.18546360610E+04  0.86640142870E+03  0.20537878987E+04  0.50400001928E-02 0. -1.
       -1    1    3    3    0  502 -0.16648837259E+03 -0.18546360610E+04  0.70956286069E+02  0.18634452210E+04  0.50400001928E-02 0.  1.
</event>
<event>
 5   0  0.5159761E-08  0.3800645E+04  0.7818609E-02  0.8046016E-01
       -2   -1    0    0    0  501  0.00000000000E+00  0.00000000000E+00  0.18995544318E+04  0.18995544318E+04  0.25500000920E-02 0.  1.
        2   -1    0    0  501    0  0.00000000000E+00  0.00000000000E+00 -0.19010909759E+04  0.19010909759E+04  0.25500000920E-02 0. -1.
    10030    2    1    2    0    0  0.00000000000E+00  0.00000000000E+00 -0.15365441086E+01  0.38006454077E+04  0.38006450971E+04 0.  0.
        5    1    3    3  502    0 -0.58683550304E+03 -0.35048652915E+03 -0.17738975673E+04  0.19010395535E+04  0.46999998093E+01 0. -1.
       -5    1    3    3    0  502  0.58683550304E+03  0.35048652915E+03  0.17723610232E+04  0.18996058542E+04  0.46999998093E+01 0.  1.
</event>
<event>
 5   0  0.5086209E-08  0.3834546E+04  0.7818609E-02  0.8038782E-01
       -2   -1    0    0    0  501  0.00000000000E+00  0.00000000000E+00  0.17692440286E+04  0.17692440286E+04  0.25500000920E-02 0.  1.
        2   -1    0    0  501    0  0.00000000000E+00  0.00000000000E+00 -0.20776875721E+04  0.20776875721E+04  0.25500000920E-02 0. -1.
    10030    2    1    2    0    0  0.00000000000E+00  0.00000000000E+00 -0.30844354355E+03  0.38469316007E+04  0.38345462992E+04 0.  0.
        3    1    3    3  502    0  0.12095011815E+04  0.60749436629E+03 -0.15165451445E+04  0.20326956729E+04  0.10100000352E+00 0. -1.
       -3    1    3    3    0  502 -0.12095011815E+04 -0.60749436629E+03  0.12081016010E+04  0.18142359278E+04  0.10100000352E+00 0.  1.
</event>
<event>
 5   0  0.5086209E-08  0.3819455E+04  0.7818609E-02  0.8041993E-01
        2   -1    0    0  501    0  0.00000000000E+00  0.00000000000E+00  0.12868738232E+04  0.12868738232E+04  0.25500000920E-02 0.  1.
       -2   -1    0    0    0  501  0.00000000000E+00  0.00000000000E+00 -0.28340459029E+04  0.28340459029E+04  0.25500000920E-02 0. -1.
    10030    2    1    2    0    0  0.00000000000E+00  0.00000000000E+00 -0.15471720797E+04  0.41209197260E+04  0.38194551894E+04 0.  0.
        3    1    3    3  502    0 -0.86746241960E+03  0.64443540761E+03  0.92526293954E+03  0.14226382399E+04  0.10100000352E+00 0.  1.
       -3    1    3    3    0  502  0.86746241960E+03 -0.64443540761E+03 -0.24724350193E+04  0.26982814862E+04  0.10100000352E+00 0. -1.
</event>
<event>
 5   0  0.1666051E-08  0.3802274E+04  0.7818609E-02  0.8045667E-01
        1   -1    0    0  501    0  0.00000000000E+00  0.00000000000E+00  0.14152807054E+04  0.14152807055E+04  0.50400001928E-02 0.  1.
       -1   -1    0    0    0  501  0.00000000000E+00  0.00000000000E+00 -0.25537849615E+04  0.25537849615E+04  0.50400001928E-02 0. -1.
    10030    2    1    2    0    0  0.00000000000E+00  0.00000000000E+00 -0.11385042561E+04  0.39690656670E+04  0.38022743625E+04 0.  0.
        2    1    3    3  502    0 -0.13395676731E+04 -0.11611902886E+04 -0.12860455940E+04  0.21901410245E+04  0.25500000920E-02 0. -1.
       -2    1    3    3    0  502  0.13395676731E+04  0.11611902886E+04  0.14754133788E+03  0.17789246425E+04  0.25500000920E-02 0.  1.
</event>
<event>
 5   0  0.5207474E-08  0.3800547E+04  0.7818609E-02  0.8046037E-01
        2   -1    0    0  501    0  0.00000000000E+00  0.00000000000E+00  0.17047479134E+04  0.17047479134E+04  0.25500000920E-02 0. -1.
       -2   -1    0    0    0  501  0.00000000000E+00  0.00000000000E+00 -0.21182252732E+04  0.21182252732E+04  0.25500000920E-02 0.  1.
    10030    2    1    2    0    0  0.00000000000E+00  0.00000000000E+00 -0.41347735972E+03  0.38229731866E+04  0.38005473893E+04 0.  0.
        4    1    3    3  502    0 -0.13579078985E+03  0.37968888778E+02  0.16994783269E+04  0.17053178507E+04  0.12699999809E+01 0. -1.
       -4    1    3    3    0  502  0.13579078985E+03 -0.37968888778E+02 -0.21129556867E+04  0.21176553359E+04  0.12699999809E+01 0.  1.
</event>
<event>
 5   0  0.1628473E-08  0.3792638E+04  0.7818609E-02  0.8047737E-01
       -1   -1    0    0    0  501  0.00000000000E+00  0.00000000000E+00  0.16013360627E+04  0.16013360627E+04  0.50400001928E-02 0.  1.
        1   -1    0    0  501    0  0.00000000000E+00  0.00000000000E+00 -0.22456412891E+04  0.22456412891E+04  0.50400001928E-02 0. -1.
    10030    2    1    2    0    0  0.00000000000E+00  0.00000000000E+00 -0.64430522646E+03  0.38469773518E+04  0.37926383324E+04 0.  0.
        3    1    3    3  502    0  0.21348426778E+03 -0.10215932018E+04 -0.19281242970E+04  0.21924624324E+04  0.10100000352E+00 0. -1.
       -3    1    3    3    0  502 -0.21348426778E+03  0.10215932018E+04  0.12838190705E+04  0.16545149194E+04  0.10100000352E+00 0.  1.
</event>
<event>
 5   0  0.5086209E-08  0.3801226E+04  0.7818609E-02  0.8045892E-01
       -2   -1    0    0    0  501  0.00000000000E+00  0.00000000000E+00  0.33411969195E+04  0.33411969195E+04  0.25500000920E-02 0. -1.
        2   -1    0    0  501    0  0.00000000000E+00  0.00000000000E+00 -0.10811482920E+04  0.10811482920E+04  0.25500000920E-02 0.  1.
    10030    2    1    2    0    0  0.00000000000E+00  0.00000000000E+00  0.22600486275E+04  0.44223452115E+04  0.38012257722E+04 0.  0.
        3    1    3    3  502    0  0.16560649160E+04  0.70512480487E+03  0.18401532219E+04  0.25740854467E+04  0.10100000352E+00 0.  1.
       -3    1    3    3    0  502 -0.16560649160E+04 -0.70512480487E+03  0.41989540556E+03  0.18482597648E+04  0.10100000352E+00 0. -1.
</event>
<event>
 5   0  0.1628250E-08  0.3815419E+04  0.7818609E-02  0.8042854E-01
        1   -1    0    0  501    0  0.00000000000E+00  0.00000000000E+00  0.29839510104E+04  0.29839510104E+04  0.50400001928E-02 0.  1.
       -1   -1    0    0    0  501  0.00000000000E+00  0.00000000000E+00 -0.12196429241E+04  0.12196429241E+04  0.50400001928E-02 0. -1.
    10030    2    1    2    0    0  0.00000000000E+00  0.00000000000E+00  0.17643080864E+04  0.42035939345E+04  0.38154185803E+04 0.  0.
        1    1    3    3  502    0  0.81052343329E+03  0.12374525682E+04  0.22093341926E+04  0.26588333286E+04  0.50400001928E-02 0.  1.
       -1    1    3    3    0  502 -0.81052343329E+03 -0.12374525682E+04 -0.44502610626E+03  0.15447606059E+04  0.50400001928E-02 0. -1.
</event>
<event>
 5   0  0.5159761E-08  0.3794630E+04  0.7818609E-02  0.8047308E-01
        2   -1    0    0  501    0  0.00000000000E+00  0.00000000000E+00  0.17651041218E+04  0.17651041218E+04  0.25500000920E-02 0. -1.
       -2   -1    0    0    0  501  0.00000000000E+00  0.00000000000E+00 -0.20394284814E+04  0.20394284814E+04  0.25500000920E-02 0.  1.
    10030    2    1    2    0    0  0.00000000000E+00  0.00000000000E+00 -0.27432435960E+03  0.38045326032E+04  0.37946296888E+04 0.  0.
        5    1    3    3  502    0  0.33369052423E+03 -0.12087519031E+04 -0.15647287936E+04  0.20052004431E+04  0.46999998093E+01 0.  1.
       -5    1    3    3    0  502 -0.33369052423E+03  0.12087519031E+04  0.12904044340E+04  0.17993321602E+04  0.46999998093E+01 0. -1.
</event>
<event>
 5   0  0.1628250E-08  0.3797211E+04  0.7818609E-02  0.8046754E-01
        1   -1    0    0  501    0  0.00000000000E+00  0.00000000000E+00  0.28360241152E+04  0.28360241152E+04  0.50400001928E-02 0. -1.
       -1   -1    0    0    0  501  0.00000000000E+00  0.00000000000E+00 -0.12710407786E+04  0.12710407786E+04  0.50400001928E-02 0.  1.
    10030    2    1    2    0    0  0.00000000000E+00  0.00000000000E+00  0.15649833366E+04  0.41070648938E+04  0.37972107129E+04 0.  0.
        4    1    3    3  502    0 -0.24958092413E+03 -0.72583826075E+03  0.26607334321E+04  0.27692301869E+04  0.12699999809E+01 0. -1.
       -4    1    3    3    0  502  0.24958092413E+03  0.72583826075E+03 -0.10957500954E+04  0.13378347069E+04  0.12699999809E+01 0.  1.
</event>
<event>
 5   0  0.5140842E-08  0.3799141E+04  0.7818609E-02  0.8046339E-01
        2   -1    0    0  501    0  0.00000000000E+00  0.00000000000E+00  0.15496592621E+04  0.15496592621E+04  0.25500000920E-02 0.  1.
       -2   -1    0    0    0  501  0.00000000000E+00  0.00000000000E+00 -0.23284914015E+04  0.23284914015E+04  0.25500000920E-02 0. -1.
    10030    2    1    2    0    0  0.00000000000E+00  0.00000000000E+00 -0.77883213939E+03  0.38781506637E+04  0.37991410962E+04 0.  0.
        2    1    3    3  502    0 -0.46841170017E+03 -0.98519519872E+03 -0.19768613237E+04  0.22578750615E+04  0.25500000920E-02 0. -1.
       -2    1    3    3    0  502  0.46841170017E+03  0.98519519872E+03  0.11980291843E+04  0.16202756021E+04  0.25500000920E-02 0.  1.
</event>
<event>
 5   0  0.5086209E-08  0.3801606E+04  0.7818609E-02  0.8045810E-01
       -2   -1    0    0    0  501  0.00000000000E+00  0.00000000000E+00  0.14227222596E+04  0.14227222596E+04  0.25500000920E-02 0. -1.
        2   -1    0    0  501    0  0.00000000000E+00  0.00000000000E+00 -0.25395345724E+04  0.25395345724E+04  0.25500000920E-02 0.  1.
    10030    2    1    2    0    0  0.00000000000E+00  0.00000000000E+00 -0.11168123128E+04  0.39622568320E+04  0.38016061686E+04 0.  0.
        3    1    3    3  502    0  0.17439799409E+04 -0.28924069765E+03  0.16962931879E+03  0.17759223889E+04  0.10100000352E+00 0. -1.
       -3    1    3    3    0  502 -0.17439799409E+04  0.28924069765E+03 -0.12864416315E+04  0.21863344431E+04  0.10100000352E+00 0.  1.
</event>
<event>
 5   0  0.1628250E-08  0.3795618E+04  0.7818609E-02  0.8047096E-01
       -1   -1    0    0    0  501  0.00000000000E+00  0.00000000000E+00  0.13571271792E+04  0.13571271792E+04  0.50400001928E-02 0.  1.
        1   -1    0    0  501    0  0.00000000000E+00  0.00000000000E+00 -0.26538998865E+04  0.26538998865E+04  0.50400001928E-02 0. -1.
    10030    2    1    2    0    0  0.00000000000E+00  0.00000000000E+00 -0.12967727073E+04  0.40110270657E+04  0.37956183511E+04 0.  0.
        5    1    3    3  502    0 -0.12897479418E+04 -0.13514781562E+04 -0.10015923394E+04  0.21197057023E+04  0.46999998093E+01 0. -1.
       -5    1    3    3    0  502  0.12897479418E+04  0.13514781562E+04 -0.29518036793E+03  0.18913213634E+04  0.46999998093E+01 0.  1.
</event>
<event>
 5   0  0.1628250E-08  0.3798518E+04  0.7818609E-02  0.8046473E-01
       -4   -1    0    0    0  501  0.00000000000E+00  0.00000000000E+00  0.17710377265E+04  0.17710381819E+04  0.12699999809E+01 0.  1.
        4   -1    0    0  501    0  0.00000000000E+00  0.00000000000E+00 -0.20367621735E+04  0.20367625695E+04  0.12699999809E+01 0. -1.
    10030    2    1    2    0    0  0.00000000000E+00  0.00000000000E+00 -0.26572444702E+03  0.38078007513E+04  0.37985177478E+04 0.  0.
        4    1    3    3  502    0 -0.53635980378E+03 -0.87651705143E+03  0.14682947018E+04  0.17921648710E+04  0.12699999809E+01 0.  1.
       -4    1    3    3    0  502  0.53635980378E+03  0.87651705143E+03 -0.17340191488E+04  0.20156358803E+04  0.12699999809E+01 0. -1.
</event>
<event>
 5   0  0.5207474E-08  0.3795481E+04  0.7818609E-02  0.8047125E-01
        2   -1    0    0  501    0  0.00000000000E+00  0.00000000000E+00  0.27401071450E+04  0.27401071450E+04  0.25500000920E-02 0. -1.
       -2   -1    0    0    0  501  0.00000000000E+00  0.00000000000E+00 -0.13143349886E+04  0.13143349886E+04  0.25500000920E-02 0.  1.
    10030    2    1    2    0    0  0.00000000000E+00  0.00000000000E+00  0.14257721564E+04  0.40544421336E+04  0.37954808355E+04 0.  0.
        4    1    3    3  502    0  0.12593062185E+04  0.13206633526E+04  0.15636730858E+03  0.18315174558E+04  0.12699999809E+01 0.  1.
       -4    1    3    3    0  502 -0.12593062185E+04 -0.13206633526E+04  0.12694048478E+04  0.22229246778E+04  0.12699999809E+01 0. -1.
</event>
<event>
 5   0  0.5140842E-08  0.3801499E+04  0.7818609E-02  0.8045833E-01
        2   -1    0    0  501    0  0.00000000000E+00  0.00000000000E+00  0.25795766491E+04  0.25795766491E+04  0.25500000920E-02 0. -1.
       -2   -1    0    0    0  501  0.00000000000E+00  0.00000000000E+00 -0.14005586816E+04  0.14005586816E+04  0.25500000920E-02 0.  1.
    10030    2    1    2    0    0  0.00000000000E+00  0.00000000000E+00  0.11790179675E+04  0.39801353307E+04  0.38014988995E+04 0.  0.
        2    1    3    3  502    0  0.69849046833E+03  0.88049063746E+03 -0.10153940122E+04  0.15146543160E+04  0.25500000920E-02 0.  1.
       -2    1    3    3    0  502 -0.69849046833E+03 -0.88049063746E+03  0.21944119797E+04  0.24654810147E+04  0.25500000920E-02 0. -1.
</event>
<event>
 5   0  0.1666051E-08  0.3806191E+04  0.7818609E-02  0.8044828E-01
        1   -1    0    0  501    0  0.00000000000E+00  0.00000000000E+00  0.33219878973E+04  0.33219878973E+04  0.50400001928E-02 0. -1.
       -1   -1    0    0    0  501  0.00000000000E+00  0.00000000000E+00 -0.10902424011E+04  0.10902424012E+04  0.50400001928E-02 0.  1.
    10030    2    1    2    0    0  0.00000000000E+00  0.00000000000E+00  0.22317454962E+04  0.44122302985E+04  0.38061907791E+04 0.  0.
        2    1    3    3  502    0 -0.17107401350E+04  0.79242628579E+03  0.81536550051E+03  0.20541158992E+04  0.25500000920E-02 0. -1.
       -2    1    3    3    0  502  0.17107401350E+04 -0.79242628579E+03  0.14163799957E+04  0.23581143993E+04  0.25500000920E-02 0.  1.
</event>
<event>
 5   0  0.5140842E-08  0.3796457E+04  0.7818609E-02  0.8046916E-01
        2   -1    0    0  501    0  0.00000000000E+00  0.00000000000E+00  0.12965196561E+04  0.12965196561E+04  0.25500000920E-02 0.  1.
       -2   -1    0    0    0  501  0.00000000000E+00  0.00000000000E+00 -0.27791869888E+04  0.27791869888E+04  0.25500000920E-02 0. -1.
    10030    2    1    2    0    0  0.00000000000E+00  0.00000000000E+00 -0.14826673327E+04  0.40757066449E+04  0.37964565368E+04 0.  0.
        2    1    3    3  502    0  0.26356643348E+03 -0.47754044669E+03  0.12105774674E+04  0.13277838482E+04  0.25500000920E-02 0.  1.
       -2    1    3    3    0  502 -0.26356643348E+03  0.47754044669E+03 -0.26932448001E+04  0.27479227966E+04  0.25500000920E-02 0. -1.
</event>
<event>
 5   0  0.5159761E-08  0.3798692E+04  0.7818609E-02  0.8046436E-01
       -2   -1    0    0    0  501  0.00000000000E+00  0.00000000000E+00  0.15837485652E+04  0.15837485652E+04  0.25500000920E-02 0.  1.
        2   -1    0    0  501    0  0.00000000000E+00  0.00000000000E+00 -0.22778335699E+04  0.22778335699E+04  0.25500000920E-02 0. -1.
    10030    2    1    2    0    0  0.00000000000E+00  0.00000000000E+00 -0.69408500466E+03  0.38615821351E+04  0.37986922213E+04 0.  0.
        5    1    3    3  502    0 -0.30241961497E+03  0.14518772445E+04  0.85923194938E+03  0.17139739757E+04  0.46999998093E+01 0.  1.
       -5    1    3    3    0  502  0.30241961497E+03 -0.14518772445E+04 -0.15533169540E+04  0.21476081594E+04  0.46999998093E+01 0. -1.
</event>
<event>
 5   0  0.5207474E-08  0.3788076E+04  0.7818609E-02  0.8048719E-01
        2   -1    0    0  501    0  0.00000000000E+00  0.00000000000E+00  0.26396688741E+04  0.26396688741E+04  0.25500000920E-02 0.  1.
       -2   -1    0    0    0  501  0.00000000000E+00  0.00000000000E+00 -0.13590265044E+04  0.13590265044E+04  0.25500000920E-02 0. -1.
    10030    2    1    2    0    0  0.00000000000E+00  0.00000000000E+00  0.12806423697E+04  0.39986953785E+04  0.37880760092E+04 0.  0.
        4    1    3    3  502    0 -0.52059189012E+03 -0.10479584560E+04  0.22124736177E+04  0.25028531646E+04  0.12699999809E+01 0.  1.
       -4    1    3    3    0  502  0.52059189012E+03  0.10479584560E+04 -0.93183124796E+03  0.14958422140E+04  0.12699999809E+01 0. -1.
</event>
<event>
 5   0  0.5140842E-08  0.3808439E+04  0.7818609E-02  0.8044346E-01
       -2   -1    0    0    0  501  0.00000000000E+00  0.00000000000E+00  0.17607178530E+04  0.17607178530E+04  0.25500000920E-02 0. -1.
        2   -1    0    0  501    0  0.00000000000E+00  0.00000000000E+00 -0.20594168492E+04  0.20594168492E+04  0.25500000920E-02 0.  1.
    10030    2    1    2    0    0  0.00000000000E+00  0.00000000000E+00 -0.29869899621E+03  0.38201347022E+04  0.38084390572E+04 0.  0.
        2    1    3    3  502    0  0.81299857289E+03 -0.14188061633E+04  0.82938999163E+03  0.18335390279E+04  0.25500000920E-02 0. -1.
       -2    1    3    3    0  502 -0.81299857289E+03  0.14188061633E+04 -0.11280889878E+04  0.19865956743E+04  0.25500000920E-02 0.  1.
</event>
<event>
 5   0  0.5159761E-08  0.3800458E+04  0.7818609E-02  0.8046057E-01
        2   -1    0    0  501    0  0.00000000000E+00  0.00000000000E+00  0.22464028107E+04  0.22464028107E+04  0.25500000920E-02 0.  1.
       -2   -1    0    0    0  501  0.00000000000E+00  0.00000000000E+00 -0.16074008675E+04  0.16074008675E+04  0.25500000920E-02 0. -1.
    10030    2    1    2    0    0  0.00000000000E+00  0.00000000000E+00  0.63900194311E+03  0.38538036782E+04  0.38004577760E+04 0.  0.
        5    1    3    3  502    0 -0.20996205739E+02 -0.83864259521E+03 -0.14094495983E+04  0.16402233090E+04  0.46999998093E+01 0. -1.
       -5    1    3    3    0  502  0.20996205739E+02  0.83864259521E+03  0.20484515415E+04  0.22135803692E+04  0.46999998093E+01 0.  1.
</event>
<event>
 5   0  0.1628250E-08  0.3783631E+04  0.7818609E-02  0.8049677E-01
       -1   -1    0    0    0  501  0.00000000000E+00  0.00000000000E+00  0.31915533469E+04  0.31915533469E+04  0.50400001928E-02 0. -1.
        1   -1    0    0  501    0  0.00000000000E+00  0.00000000000E+00 -0.11213870175E+04  0.11213870175E+04  0.50400001928E-02 0.  1.
    10030    2    1    2    0    0  0.00000000000E+00  0.00000000000E+00  0.20701663294E+04  0.43129403644E+04  0.37836313186E+04 0.  0.
        1    1    3    3  502    0 -0.16830347757E+04 -0.83540335870E+03  0.12860196367E+04  0.22769170679E+04  0.50400001928E-02 0.  1.
       -1    1    3    3    0  502  0.16830347757E+04  0.83540335870E+03  0.78414669267E+03  0.20360232964E+04  0.50400001928E-02 0. -1.
</event>
<event>
 5   0  0.5086209E-08  0.3805937E+04  0.7818609E-02  0.8044882E-01
       -2   -1    0    0    0  501  0.00000000000E+00  0.00000000000E+00  0.14775774854E+04  0.14775774854E+04  0.25500000920E-02 0.  1.
        2   -1    0    0  501    0  0.00000000000E+00  0.00000000000E+00 -0.24508284143E+04  0.24508284143E+04  0.25500000920E-02 0. -1.
    10030    2    1    2    0    0  0.00000000000E+00  0.00000000000E+00 -0.97325092887E+03  0.39284058997E+04  0.38059368810E+04 0.  0.
        3    1    3    3  502    0 -0.15993997549E+03  0.16882657067E+04 -0.13778127455E+04  0.21849919597E+04  0.10100000352E+00 0. -1.
       -3    1    3    3    0  502  0.15993997549E+03 -0.16882657067E+04  0.40456181664E+03  0.17434139399E+04  0.10100000352E+00 0.  1.
</event>
<event>
 5   0  0.1628250E-08  0.3681745E+04  0.7818609E-02  0.8072019E-01
        1   -1    0    0  501    0  0.00000000000E+00  0.00000000000E+00  0.26674080630E+04  0.26674080630E+04  0.50400001928E-02 0.  1.
       -1   -1    0    0    0  501  0.00000000000E+00  0.00000000000E+00 -0.12704511406E+04  0.12704511406E+04  0.50400001928E-02 0. -1.
    10030    2    1    2    0    0  0.00000000000E+00  0.00000000000E+00  0.13969569224E+04  0.39378592036E+04  0.36817450298E+04 0.  0.
        1    1    3    3  502    0 -0.48677206998E+03  0.14824376136E+04  0.17432853615E+04  0.23395752132E+04  0.50400001928E-02 0. -1.
       -1    1    3    3    0  502  0.48677206998E+03 -0.14824376136E+04 -0.34632843913E+03  0.15982839904E+04  0.50400001928E-02 0.  1.
</event>
<event>
 5   0  0.5140842E-08  0.3794240E+04  0.7818609E-02  0.8047392E-01
        2   -1    0    0  501    0  0.00000000000E+00  0.00000000000E+00  0.13945899510E+04  0.13945899510E+04  0.25500000920E-02 0. -1.
       -2   -1    0    0    0  501  0.00000000000E+00  0.00000000000E+00 -0.25807333162E+04  0.25807333162E+04  0.25500000920E-02 0.  1.
    10030    2    1    2    0    0  0.00000000000E+00  0.00000000000E+00 -0.11861433653E+04  0.39753232672E+04  0.37942402396E+04 0.  0.
        2    1    3    3  502    0  0.39523374662E+03 -0.17946766295E+04 -0.99426227879E+02  0.18403693905E+04  0.25500000920E-02 0. -1.
       -2    1    3    3    0  502 -0.39523374662E+03  0.17946766295E+04 -0.10867171374E+04  0.21349538767E+04  0.25500000920E-02 0.  1.
</event>
<event>
 5   0  0.5159761E-08  0.3811866E+04  0.7818609E-02  0.8043613E-01
       -2   -1    0    0    0  501  0.00000000000E+00  0.00000000000E+00  0.21633643439E+04  0.21633643439E+04  0.25500000920E-02 0. -1.
        2   -1    0    0  501    0  0.00000000000E+00  0.00000000000E+00 -0.16791350840E+04  0.16791350840E+04  0.25500000920E-02 0.  1.
    10030    2    1    2    0    0  0.00000000000E+00  0.00000000000E+00  0.48422925996E+03  0.38424994279E+04  0.38118661935E+04 0.  0.
        5    1    3    3  502    0  0.13327580858E+04  0.78572194338E+03  0.13641435975E+04  0.20626470692E+04  0.46999998093E+01 0. -1.
       -5    1    3    3    0  502 -0.13327580858E+04 -0.78572194338E+03 -0.87991433753E+03  0.17798523587E+04  0.46999998093E+01 0.  1.
</event>
<event>
 5   0  0.1628473E-08  0.3848611E+04  0.7818609E-02  0.8035803E-01
        1   -1    0    0  501    0  0.00000000000E+00  0.00000000000E+00  0.25446859411E+04  0.25446859411E+04  0.50400001928E-02 0. -1.
       -1   -1    0    0    0  501  0.00000000000E+00  0.00000000000E+00 -0.14551702751E+04  0.14551702751E+04  0.50400001928E-02 0.  1.
    10030    2    1    2    0    0  0.00000000000E+00  0.00000000000E+00  0.10895156660E+04  0.39998562162E+04  0.38486108356E+04 0.  0.
        3    1    3    3  502    0 -0.12356084400E+04  0.32012301843E+03 -0.95188438316E+03  0.15922596688E+04  0.10100000352E+00 0.  1.
       -3    1    3    3    0  502  0.12356084400E+04 -0.32012301843E+03  0.20414000491E+04  0.24075965473E+04  0.10100000352E+00 0. -1.
</event>
<event>
 5   0  0.1628250E-08  0.3791877E+04  0.7818609E-02  0.8047900E-01
       -1   -1    0    0    0  501  0.00000000000E+00  0.00000000000E+00  0.19572954933E+04  0.19572954933E+04  0.50400001928E-02 0.  1.
        1   -1    0    0  501    0  0.00000000000E+00  0.00000000000E+00 -0.18365048347E+04  0.18365048347E+04  0.50400001928E-02 0. -1.
    10030    2    1    2    0    0  0.00000000000E+00  0.00000000000E+00  0.12079065861E+03  0.37938003280E+04  0.37918769159E+04 0.  0.
        1    1    3    3  502    0  0.11747418844E+04 -0.80896761303E+03 -0.11892921064E+04  0.18571114151E+04  0.50400001928E-02 0. -1.
       -1    1    3    3    0  502 -0.11747418844E+04  0.80896761303E+03  0.13100827650E+04  0.19366889128E+04  0.50400001928E-02 0.  1.
</event>
<event>
 5   0  0.1628250E-08  0.3785839E+04  0.7818609E-02  0.8049201E-01
        1   -1    0    0  501    0  0.00000000000E+00  0.00000000000E+00  0.15049910935E+04  0.15049910935E+04  0.50400001928E-02 0.  1.
       -1   -1    0    0    0  501  0.00000000000E+00  0.00000000000E+00 -0.23808407002E+04  0.23808407002E+04  0.50400001928E-02 0. -1.
    10030    2    1    2    0    0  0.00000000000E+00  0.00000000000E+00 -0.87584960667E+03  0.38858317936E+04  0.37858389024E+04 0.  0.
        5    1    3    3  502    0  0.14535374809E+04 -0.88588689144E+03 -0.12877763548E+04  0.21344687449E+04  0.46999998093E+01 0. -1.
       -5    1    3    3    0  502 -0.14535374809E+04  0.88588689144E+03  0.41192674817E+03  0.17513630488E+04  0.46999998093E+01 0.  1.
</event>
<event>
 5   0  0.1628473E-08  0.3803702E+04  0.7818609E-02  0.8045361E-01
       -1   -1    0    0    0  501  0.00000000000E+00  0.00000000000E+00  0.14096464075E+04  0.14096464075E+04  0.50400001928E-02 0.  1.
        1   -1    0    0  501    0  0.00000000000E+00  0.00000000000E+00 -0.25659177189E+04  0.25659177189E+04  0.50400001928E-02 0. -1.
    10030    2    1    2    0    0  0.00000000000E+00  0.00000000000E+00 -0.11562713113E+04  0.39755641264E+04  0.38037017204E+04 0.  0.
        3    1    3    3  502    0 -0.18917809045E+04 -0.19389478752E+03 -0.55239559652E+03  0.19802957063E+04  0.10100000352E+00 0.  1.
       -3    1    3    3    0  502  0.18917809045E+04  0.19389478752E+03 -0.60387571482E+03  0.19952684201E+04  0.10100000352E+00 0. -1.
</event>
<event>
 5   0  0.5159761E-08  0.3795858E+04  0.7818609E-02  0.8047044E-01
       -2   -1    0    0    0  501  0.00000000000E+00  0.00000000000E+00  0.22537610010E+04  0.22537610010E+04  0.25500000920E-02 0. -1.
        2   -1    0    0  501    0  0.00000000000E+00  0.00000000000E+00 -0.15982769922E+04  0.15982769922E+04  0.25500000920E-02 0.  1.
    10030    2    1    2    0    0  0.00000000000E+00  0.00000000000E+00  0.65548400882E+03  0.38520379932E+04  0.37958579287E+04 0.  0.
        5    1    3    3  502    0  0.17738195664E+04  0.66167036931E+03  0.19208960452E+03  0.19029356368E+04  0.46999998093E+01 0.  1.
       -5    1    3    3    0  502 -0.17738195664E+04 -0.66167036931E+03  0.46339440430E+03  0.19491023564E+04  0.46999998093E+01 0. -1.
</event>
<event>
 5   0  0.5159761E-08  0.3800313E+04  0.7818609E-02  0.8046088E-01
        2   -1    0    0  501    0  0.00000000000E+00  0.00000000000E+00  0.22907553051E+04  0.22907553051E+04  0.25500000920E-02 0.  1.
       -2   -1    0    0    0  501  0.00000000000E+00  0.00000000000E+00 -0.15761592102E+04  0.15761592102E+04  0.25500000920E-02 0. -1.
    10030    2    1    2    0    0  0.00000000000E+00  0.00000000000E+00  0.71459609487E+03  0.38669145154E+04  0.38003131832E+04 0.  0.
        5    1    3    3  502    0  0.88380402814E+03  0.11240927901E+04 -0.91598295189E+03  0.16981581255E+04  0.46999998093E+01 0. -1.
       -5    1    3    3    0  502 -0.88380402814E+03 -0.11240927901E+04  0.16305790468E+04  0.21687563899E+04  0.46999998093E+01 0.  1.
</event>
<event>
 5   0  0.1628250E-08  0.3831116E+04  0.7818609E-02  0.8039510E-01
        1   -1    0    0  501    0  0.00000000000E+00  0.00000000000E+00  0.26409519513E+04  0.26409519513E+04  0.50400001928E-02 0.  1.
       -1   -1    0    0    0  501  0.00000000000E+00  0.00000000000E+00 -0.13894089135E+04  0.13894089135E+04  0.50400001928E-02 0. -1.
    10030    2    1    2    0    0  0.00000000000E+00  0.00000000000E+00  0.12515430378E+04  0.40303608648E+04  0.38311158590E+04 0.  0.
        1    1    3    3  502    0  0.32271285229E+03 -0.85274484206E+03  0.23980349360E+04  0.25655192272E+04  0.50400001928E-02 0.  1.
       -1    1    3    3    0  502 -0.32271285229E+03  0.85274484206E+03 -0.11464918982E+04  0.14648416376E+04  0.50400001928E-02 0. -1.
</event>
<event>
 5   0  0.1628250E-08  0.3801960E+04  0.7818609E-02  0.8045734E-01
        3   -1    0    0  501    0  0.00000000000E+00  0.00000000000E+00  0.18935562341E+04  0.18935562368E+04  0.10100000352E+00 0.  1.
       -3   -1    0    0    0  501  0.00000000000E+00  0.00000000000E+00 -0.19084330394E+04  0.19084330421E+04  0.10100000352E+00 0. -1.
    10030    2    1    2    0    0  0.00000000000E+00  0.00000000000E+00 -0.14876805251E+02  0.38019892789E+04  0.38019601730E+04 0.  0.
        4    1    3    3  502    0 -0.12185082272E+04 -0.12384719282E+04 -0.77890309530E+03  0.19040133039E+04  0.12699999809E+01 0. -1.
       -4    1    3    3    0  502  0.12185082272E+04  0.12384719282E+04  0.76402629005E+03  0.18979759750E+04  0.12699999809E+01 0.  1.
</event>
<event>
 5   0  0.5086209E-08  0.3806579E+04  0.7818609E-02  0.8044744E-01
       -2   -1    0    0    0  501  0.00000000000E+00  0.00000000000E+00  0.14840855779E+04  0.14840855779E+04  0.25500000920E-02 0.  1.
        2   -1    0    0  501    0  0.00000000000E+00  0.00000000000E+00 -0.24409044738E+04  0.24409044738E+04  0.25500000920E-02 0. -1.
    10030    2    1    2    0    0  0.00000000000E+00  0.00000000000E+00 -0.95681889594E+03  0.39249900517E+04  0.38065791081E+04 0.  0.
        3    1    3    3  502    0 -0.63451710863E+03  0.17108138579E+04 -0.10365565839E+04  0.20985579762E+04  0.10100000352E+00 0. -1.
       -3    1    3    3    0  502  0.63451710863E+03 -0.17108138579E+04  0.79737687990E+02  0.18264320755E+04  0.10100000352E+00 0.  1.
</event>
<event>
 5   0  0.5159761E-08  0.3837900E+04  0.7818609E-02  0.8038070E-01
       -2   -1    0    0    0  501  0.00000000000E+00  0.00000000000E+00  0.13104702541E+04  0.13104702541E+04  0.25500000920E-02 0. -1.
        2   -1    0    0  501    0  0.00000000000E+00  0.00000000000E+00 -0.28099597340E+04  0.28099597340E+04  0.25500000920E-02 0.  1.
    10030    2    1    2    0    0  0.00000000000E+00  0.00000000000E+00 -0.14994894799E+04  0.41204299881E+04  0.38378997625E+04 0.  0.
        5    1    3    3  502    0  0.32626034971E+03 -0.57391682802E+03 -0.26841967816E+04  0.27641926115E+04  0.46999998093E+01 0.  1.
       -5    1    3    3    0  502 -0.32626034971E+03  0.57391682802E+03  0.11847073016E+04  0.13562373766E+04  0.46999998093E+01 0. -1.
</event>
<event>
 5   0  0.5207474E-08  0.3797376E+04  0.7818609E-02  0.8046718E-01
       -2   -1    0    0    0  501  0.00000000000E+00  0.00000000000E+00  0.17787516119E+04  0.17787516119E+04  0.25500000920E-02 0.  1.
        2   -1    0    0  501    0  0.00000000000E+00  0.00000000000E+00 -0.20267117941E+04  0.20267117941E+04  0.25500000920E-02 0. -1.
    10030    2    1    2    0    0  0.00000000000E+00  0.00000000000E+00 -0.24796018224E+03  0.38054634060E+04  0.37973763947E+04 0.  0.
        4    1    3    3  502    0  0.39919435265E+03 -0.17500364138E+04 -0.74419364034E+03  0.19431441964E+04  0.12699999809E+01 0. -1.
       -4    1    3    3    0  502 -0.39919435265E+03  0.17500364138E+04  0.49623345810E+03  0.18623192096E+04  0.12699999809E+01 0.  1.
</event>
<event>
 5   0  0.1628473E-08  0.3797081E+04  0.7818609E-02  0.8046782E-01
        1   -1    0    0  501    0  0.00000000000E+00  0.00000000000E+00  0.12011778561E+04  0.12011778561E+04  0.50400001928E-02 0. -1.
       -1   -1    0    0    0  501  0.00000000000E+00  0.00000000000E+00 -0.30007675736E+04  0.30007675736E+04  0.50400001928E-02 0.  1.
    10030    2    1    2    0    0  0.00000000000E+00  0.00000000000E+00 -0.17995897175E+04  0.42019454297E+04  0.37970807527E+04 0.  0.
        3    1    3    3  502    0 -0.61763330429E+03  0.31357745751E+03 -0.28559420470E+04  0.29387423682E+04  0.10100000352E+00 0.  1.
       -3    1    3    3    0  502  0.61763330429E+03 -0.31357745751E+03  0.10563523295E+04  0.12632030615E+04  0.10100000352E+00 0. -1.
</event>
<event>
 5   0  0.1628250E-08  0.3795090E+04  0.7818609E-02  0.8047209E-01
       -1   -1    0    0    0  501  0.00000000000E+00  0.00000000000E+00  0.16075468735E+04  0.16075468735E+04  0.50400001928E-02 0.  1.
        1   -1    0    0  501    0  0.00000000000E+00  0.00000000000E+00 -0.22398587129E+04  0.22398587129E+04  0.50400001928E-02 0. -1.
    10030    2    1    2    0    0  0.00000000000E+00  0.00000000000E+00 -0.63231183939E+03  0.38474055863E+04  0.37950904447E+04 0.  0.
        4    1    3    3  502    0  0.26062394941E+03  0.16784377077E+04 -0.11737474509E+04  0.20646458953E+04  0.12699999809E+01 0. -1.
       -4    1    3    3    0  502 -0.26062394941E+03 -0.16784377077E+04  0.54143561146E+03  0.17827596910E+04  0.12699999809E+01 0.  1.
</event>
<event>
 5   0  0.1628250E-08  0.3807645E+04  0.7818609E-02  0.8044516E-01
        1   -1    0    0  501    0  0.00000000000E+00  0.00000000000E+00  0.14862596489E+04  0.14862596489E+04  0.50400001928E-02 0.  1.
       -1   -1    0    0    0  501  0.00000000000E+00  0.00000000000E+00 -0.24386986177E+04  0.24386986177E+04  0.50400001928E-02 0. -1.
    10030    2    1    2    0    0  0.00000000000E+00  0.00000000000E+00 -0.95243896882E+03  0.39249582667E+04  0.38076446008E+04 0.  0.
        4    1    3    3  502    0  0.10749410078E+03 -0.19004360569E+04 -0.51374932898E+03  0.19715862076E+04  0.12699999809E+01 0. -1.
       -4    1    3    3    0  502 -0.10749410078E+03  0.19004360569E+04 -0.43868963984E+03  0.19533720591E+04  0.12699999809E+01 0.  1.
</event>
<event>
 5   0  0.1628250E-08  0.3802150E+04  0.7818609E-02  0.8045694E-01
        1   -1    0    0  501    0  0.00000000000E+00  0.00000000000E+00  0.26311980341E+04  0.26311980341E+04  0.50400001928E-02 0.  1.
       -1   -1    0    0    0  501  0.00000000000E+00  0.00000000000E+00 -0.13735513587E+04  0.13735513587E+04  0.50400001928E-02 0. -1.
    10030    2    1    2    0    0  0.00000000000E+00  0.00000000000E+00  0.12576466755E+04  0.40047493928E+04  0.38021497260E+04 0.  0.
        4    1    3    3  502    0  0.11059754502E+04  0.14842532524E+04  0.17225763104E+03  0.18589953518E+04  0.12699999809E+01 0. -1.
       -4    1    3    3    0  502 -0.11059754502E+04 -0.14842532524E+04  0.10853890444E+04  0.21457540410E+04  0.12699999809E+01 0.  1.
</event>
<event>
 5   0  0.1628250E-08  0.3806839E+04  0.7818609E-02  0.8044689E-01
       -1   -1    0    0    0  501  0.00000000000E+00  0.00000000000E+00  0.17372188471E+04  0.17372188471E+04  0.50400001928E-02 0. -1.
        1   -1    0    0  501    0  0.00000000000E+00  0.00000000000E+00 -0.20855209506E+04  0.20855209506E+04  0.50400001928E-02 0.  1.
    10030    2    1    2    0    0  0.00000000000E+00  0.00000000000E+00 -0.34830210350E+03  0.38227397977E+04  0.38068392671E+04 0.  0.
        1    1    3    3  502    0  0.84043839325E+03  0.45270191688E+02  0.15402056289E+04  0.17551693543E+04  0.50400001928E-02 0. -1.
       -1    1    3    3    0  502 -0.84043839325E+03 -0.45270191688E+02 -0.18885077324E+04  0.20675704434E+04  0.50400001928E-02 0.  1.
</event>
<event>
 5   0  0.1628250E-08  0.3802906E+04  0.7818609E-02  0.8045532E-01
       -1   -1    0    0    0  501  0.00000000000E+00  0.00000000000E+00  0.22773822379E+04  0.22773822379E+04  0.50400001928E-02 0. -1.
        1   -1    0    0  501    0  0.00000000000E+00  0.00000000000E+00 -0.15875784531E+04  0.15875784531E+04  0.50400001928E-02 0.  1.
    10030    2    1    2    0    0  0.00000000000E+00  0.00000000000E+00  0.68980378485E+03  0.38649606910E+04  0.38029057155E+04 0.  0.
        5    1    3    3  502    0  0.14945170291E+04 -0.33713383146E+03 -0.79964544122E+03  0.17282058015E+04  0.46999998093E+01 0.  1.
       -5    1    3    3    0  502 -0.14945170291E+04  0.33713383146E+03  0.14894492261E+04  0.21367548895E+04  0.46999998093E+01 0. -1.
</event>
<event>
 5   0  0.5207474E-08  0.3798841E+04  0.7818609E-02  0.8046404E-01
       -2   -1    0    0    0  501  0.00000000000E+00  0.00000000000E+00  0.15279914867E+04  0.15279914867E+04  0.25500000920E-02 0. -1.
        2   -1    0    0  501    0  0.00000000000E+00  0.00000000000E+00 -0.23611379329E+04  0.23611379329E+04  0.25500000920E-02 0.  1.
    10030    2    1    2    0    0  0.00000000000E+00  0.00000000000E+00 -0.83314644627E+03  0.38891294196E+04  0.37988412235E+04 0.  0.
        4    1    3    3  502    0  0.91219534345E+03 -0.80787855240E+03 -0.19082653972E+04  0.22641215822E+04  0.12699999809E+01 0.  1.
       -4    1    3    3    0  502 -0.91219534345E+03  0.80787855240E+03  0.10751189509E+04  0.16250078374E+04  0.12699999809E+01 0. -1.
</event>
<event>
 5   0  0.1628250E-08  0.3796835E+04  0.7818609E-02  0.8046834E-01
       -3   -1    0    0    0  501  0.00000000000E+00  0.00000000000E+00  0.20783197769E+04  0.20783197793E+04  0.10100000352E+00 0.  1.
        3   -1    0    0  501    0  0.00000000000E+00  0.00000000000E+00 -0.17340877815E+04  0.17340877844E+04  0.10100000352E+00 0. -1.
    10030    2    1    2    0    0  0.00000000000E+00  0.00000000000E+00  0.34423199540E+03  0.38124075637E+04  0.37968349668E+04 0.  0.
        4    1    3    3  502    0  0.45528733948E+03  0.18130919030E+04 -0.15999504932E+03  0.18762166290E+04  0.12699999809E+01 0. -1.
       -4    1    3    3    0  502 -0.45528733948E+03 -0.18130919030E+04  0.50422704472E+03  0.19361909347E+04  0.12699999809E+01 0.  1.
</event>
<event>
 5   0  0.5207474E-08  0.3800399E+04  0.7818609E-02  0.8046069E-01
       -2   -1    0    0    0  501  0.00000000000E+00  0.00000000000E+00  0.20455009895E+04  0.20455009895E+04  0.25500000920E-02 0.  1.
        2   -1    0    0  501    0  0.00000000000E+00  0.00000000000E+00 -0.17652197607E+04  0.17652197607E+04  0.25500000920E-02 0. -1.
    10030    2    1    2    0    0  0.00000000000E+00  0.00000000000E+00  0.28028122878E+03  0.38107207502E+04  0.38003993302E+04 0.  0.
        4    1    3    3  502    0 -0.32160569059E+03  0.13692842368E+03  0.20129866767E+04  0.20431095386E+04  0.12699999809E+01 0.  1.
       -4    1    3    3    0  502  0.32160569059E+03 -0.13692842368E+03 -0.17327054479E+04  0.17676112116E+04  0.12699999809E+01 0. -1.
</event>
<event>
 5   0  0.1628250E-08  0.3798929E+04  0.7818609E-02  0.8046385E-01
       -1   -1    0    0    0  501  0.00000000000E+00  0.00000000000E+00  0.17835721513E+04  0.17835721513E+04  0.50400001928E-02 0.  1.
        1   -1    0    0  501    0  0.00000000000E+00  0.00000000000E+00 -0.20228867804E+04  0.20228867804E+04  0.50400001928E-02 0. -1.
    10030    2    1    2    0    0  0.00000000000E+00  0.00000000000E+00 -0.23931462914E+03  0.38064589317E+04  0.37989285473E+04 0.  0.
        1    1    3    3  502    0  0.66321204287E+03  0.65028998093E+03 -0.17798173892E+04  0.20076048446E+04  0.50400001928E-02 0. -1.
       -1    1    3    3    0  502 -0.66321204287E+03 -0.65028998093E+03  0.15405027600E+04  0.17988540871E+04  0.50400001928E-02 0.  1.
</event>
<event>
 5   0  0.5147582E-08  0.3802463E+04  0.7818609E-02  0.8045627E-01
        2   -1    0    0  501    0  0.00000000000E+00  0.00000000000E+00  0.10251215611E+04  0.10251215611E+04  0.25500000920E-02 0.  1.
       -2   -1    0    0    0  501  0.00000000000E+00  0.00000000000E+00 -0.35260999222E+04  0.35260999222E+04  0.25500000920E-02 0. -1.
    10030    2    1    2    0    0  0.00000000000E+00  0.00000000000E+00 -0.25009783612E+04  0.45512214833E+04  0.38024629159E+04 0.  0.
        1    1    3    3  502    0 -0.16669919889E+04 -0.51085240649E+02 -0.23430357970E+04  0.28759848294E+04  0.50400001928E-02 0. -1.
       -1    1    3    3    0  502  0.16669919889E+04  0.51085240649E+02 -0.15794256413E+03  0.16752366539E+04  0.50400001928E-02 0.  1.
</event>
<event>
 5   0  0.1628473E-08  0.3828039E+04  0.7818609E-02  0.8040165E-01
       -1   -1    0    0    0  501  0.00000000000E+00  0.00000000000E+00  0.23325078787E+04  0.23325078787E+04  0.50400001928E-02 0.  1.
        1   -1    0    0  501    0  0.00000000000E+00  0.00000000000E+00 -0.15706141604E+04  0.15706141604E+04  0.50400001928E-02 0. -1.
    10030    2    1    2    0    0  0.00000000000E+00  0.00000000000E+00  0.76189371832E+03  0.39031220392E+04  0.38280386120E+04 0.  0.
        3    1    3    3  502    0 -0.18870743031E+04  0.22646258110E+03  0.61151307016E+03  0.19965677978E+04  0.10100000352E+00 0.  1.
       -3    1    3    3    0  502  0.18870743031E+04 -0.22646258110E+03  0.15038064816E+03  0.19065542414E+04  0.10100000352E+00 0. -1.
</event>
<event>
 5   0  0.5140842E-08  0.3797604E+04  0.7818609E-02  0.8046669E-01
        2   -1    0    0  501    0  0.00000000000E+00  0.00000000000E+00  0.20941129589E+04  0.20941129589E+04  0.25500000920E-02 0.  1.
       -2   -1    0    0    0  501  0.00000000000E+00  0.00000000000E+00 -0.17217067114E+04  0.17217067114E+04  0.25500000920E-02 0. -1.
    10030    2    1    2    0    0  0.00000000000E+00  0.00000000000E+00  0.37240624742E+03  0.38158196703E+04  0.37976036317E+04 0.  0.
        2    1    3    3  502    0 -0.10237558640E+03  0.17210722972E+04  0.98555521009E+03  0.19859228799E+04  0.25500000920E-02 0.  1.
       -2    1    3    3    0  502  0.10237558640E+03 -0.17210722972E+04 -0.61314896267E+03  0.18298967904E+04  0.25500000920E-02 0. -1.
</event>
<event>
 5   0  0.1628250E-08  0.3787061E+04  0.7818609E-02  0.8048937E-01
        1   -1    0    0  501    0  0.00000000000E+00  0.00000000000E+00  0.26840369170E+04  0.26840369170E+04  0.50400001928E-02 0.  1.
       -1   -1    0    0    0  501  0.00000000000E+00  0.00000000000E+00 -0.13358453383E+04  0.13358453383E+04  0.50400001928E-02 0. -1.
    10030    2    1    2    0    0  0.00000000000E+00  0.00000000000E+00  0.13481915788E+04  0.40198822553E+04  0.37870612371E+04 0.  0.
        1    1    3    3  502    0 -0.78030175672E+03 -0.15797548293E+04  0.14102459484E+04  0.22568318031E+04  0.50400001928E-02 0.  1.
       -1    1    3    3    0  502  0.78030175672E+03  0.15797548293E+04 -0.62054369688E+02  0.17630504522E+04  0.50400001928E-02 0. -1.
</event>
<event>
 5   0  0.1628250E-08  0.3846415E+04  0.7818609E-02  0.8036267E-01
        1   -1    0    0  501    0  0.00000000000E+00  0.00000000000E+00  0.22501510750E+04  0.22501510750E+04  0.50400001928E-02 0.  1.
       -1   -1    0    0    0  501  0.00000000000E+00  0.00000000000E+00 -0.16437684195E+04  0.16437684195E+04  0.50400001928E-02 0. -1.
    10030    2    1    2    0    0  0.00000000000E+00  0.00000000000E+00  0.60638265545E+03  0.38939194945E+04  0.38464150978E+04 0.  0.
        5    1    3    3  502    0 -0.10420322614E+04 -0.14101771783E+04 -0.49667706984E+03  0.18223998215E+04  0.46999998093E+01 0. -1.
       -5    1    3    3    0  502  0.10420322614E+04  0.14101771783E+04  0.11030597253E+04  0.20715196729E+04  0.46999998093E+01 0.  1.
</event>
<event>
 5   0  0.1628250E-08  0.3800783E+04  0.7818609E-02  0.8045987E-01
        1   -1    0    0  501    0  0.00000000000E+00  0.00000000000E+00  0.14752467781E+04  0.14752467781E+04  0.50400001928E-02 0.  1.
       -1   -1    0    0    0  501  0.00000000000E+00  0.00000000000E+00 -0.24480573576E+04  0.24480573576E+04  0.50400001928E-02 0. -1.
    10030    2    1    2    0    0  0.00000000000E+00  0.00000000000E+00 -0.97281057951E+03  0.39233041357E+04  0.38007834611E+04 0.  0.
        1    1    3    3  502    0 -0.12214443380E+04 -0.52021295258E+03 -0.18899956221E+04  0.23096820644E+04  0.50400001928E-02 0. -1.
       -1    1    3    3    0  502  0.12214443380E+04  0.52021295258E+03  0.91718504262E+03  0.16136220714E+04  0.50400001928E-02 0.  1.
</event>
<event>
 5   0  0.5159761E-08  0.3797288E+04  0.7818609E-02  0.8046737E-01
       -2   -1    0    0    0  501  0.00000000000E+00  0.00000000000E+00  0.13967641781E+04  0.13967641781E+04  0.25500000920E-02 0.  1.
        2   -1    0    0  501    0  0.00000000000E+00  0.00000000000E+00 -0.25808575335E+04  0.25808575335E+04  0.25500000920E-02 0. -1.
    10030    2    1    2    0    0  0.00000000000E+00  0.00000000000E+00 -0.11840933553E+04  0.39776217116E+04  0.37972881648E+04 0.  0.
        5    1    3    3  502    0  0.16735451241E+03 -0.18899348202E+04 -0.66586392273E+03  0.20107854214E+04  0.46999998093E+01 0. -1.
       -5    1    3    3    0  502 -0.16735451241E+03  0.18899348202E+04 -0.51822943262E+03  0.19668362902E+04  0.46999998093E+01 0.  1.
</event>
<event>
 5   0  0.5086209E-08  0.3801665E+04  0.7818609E-02  0.8045798E-01
        2   -1    0    0  501    0  0.00000000000E+00  0.00000000000E+00  0.18103456536E+04  0.18103456536E+04  0.25500000920E-02 0. -1.
       -2   -1    0    0    0  501  0.00000000000E+00  0.00000000000E+00 -0.19958425338E+04  0.19958425338E+04  0.25500000920E-02 0.  1.
    10030    2    1    2    0    0  0.00000000000E+00  0.00000000000E+00 -0.18549688019E+03  0.38061881875E+04  0.38016653490E+04 0.  0.
        3    1    3    3  502    0 -0.97297256585E+03  0.42926011884E+03 -0.16701306698E+04  0.19799687694E+04  0.10100000352E+00 0.  1.
       -3    1    3    3    0  502  0.97297256585E+03 -0.42926011884E+03  0.14846337896E+04  0.18262194181E+04  0.10100000352E+00 0. -1.
</event>
<event>
 5   0  0.5147582E-08  0.3797515E+04  0.7818609E-02  0.8046688E-01
        2   -1    0    0  501    0  0.00000000000E+00  0.00000000000E+00  0.14031106538E+04  0.14031106538E+04  0.25500000920E-02 0.  1.
       -2   -1    0    0    0  501  0.00000000000E+00  0.00000000000E+00 -0.25694904086E+04  0.25694904086E+04  0.25500000920E-02 0. -1.
    10030    2    1    2    0    0  0.00000000000E+00  0.00000000000E+00 -0.11663797548E+04  0.39726010624E+04  0.37975146436E+04 0.  0.
        1    1    3    3  502    0  0.88139080184E+03  0.99713368988E+01 -0.23424925082E+04  0.25028424489E+04  0.50400001928E-02 0. -1.
       -1    1    3    3    0  502 -0.88139080184E+03 -0.99713368988E+01  0.11761127534E+04  0.14697586135E+04  0.50400001928E-02 0.  1.
</event>
<event>
 5   0  0.1666051E-08  0.3800598E+04  0.7818609E-02  0.8046027E-01
        1   -1    0    0  501    0  0.00000000000E+00  0.00000000000E+00  0.18169594675E+04  0.18169594675E+04  0.50400001928E-02 0.  1.
       -1   -1    0    0    0  501  0.00000000000E+00  0.00000000000E+00 -0.19874612771E+04  0.19874612771E+04  0.50400001928E-02 0. -1.
    10030    2    1    2    0    0  0.00000000000E+00  0.00000000000E+00 -0.17050180962E+03  0.38044207445E+04  0.38005981548E+04 0.  0.
        2    1    3    3  502    0 -0.48129458781E+02 -0.14230863563E+04 -0.13449463367E+04  0.19586658395E+04  0.25500000920E-02 0. -1.
       -2    1    3    3    0  502  0.48129458781E+02  0.14230863563E+04  0.11744445270E+04  0.18457549050E+04  0.25500000920E-02 0.  1.
</event>
<event>
 5   0  0.1628250E-08  0.3792082E+04  0.7818609E-02  0.8047856E-01
       -1   -1    0    0    0  501  0.00000000000E+00  0.00000000000E+00  0.18645065882E+04  0.18645065882E+04  0.50400001928E-02 0.  1.
        1   -1    0    0  501    0  0.00000000000E+00  0.00000000000E+00 -0.19281088995E+04  0.19281088995E+04  0.50400001928E-02 0. -1.
    10030    2    1    2    0    0  0.00000000000E+00  0.00000000000E+00 -0.63602311297E+02  0.37926154878E+04  0.37920821436E+04 0.  0.
        1    1    3    3  502    0 -0.11445099929E+04  0.56401608043E+03  0.13708776436E+04  0.18727847651E+04  0.50400001928E-02 0.  1.
       -1    1    3    3    0  502  0.11445099929E+04 -0.56401608043E+03 -0.14344799549E+04  0.19198307227E+04  0.50400001928E-02 0. -1.
</event>
<event>
 5   0  0.5159761E-08  0.3796717E+04  0.7818609E-02  0.8046860E-01
        2   -1    0    0  501    0  0.00000000000E+00  0.00000000000E+00  0.21799829942E+04  0.21799829943E+04  0.25500000920E-02 0. -1.
       -2   -1    0    0    0  501  0.00000000000E+00  0.00000000000E+00 -0.16531162032E+04  0.16531162032E+04  0.25500000920E-02 0.  1.
    10030    2    1    2    0    0  0.00000000000E+00  0.00000000000E+00  0.52686679101E+03  0.38330991975E+04  0.37967171138E+04 0.  0.
        5    1    3    3  502    0  0.16353437140E+04  0.76350649806E+03  0.85767531258E+03  0.19982292829E+04  0.46999998093E+01 0. -1.
       -5    1    3    3    0  502 -0.16353437140E+04 -0.76350649806E+03 -0.33080852157E+03  0.18348699146E+04  0.46999998093E+01 0.  1.
</event>
<event>
 5   0  0.1628250E-08  0.3792683E+04  0.7818609E-02  0.8047727E-01
       -1   -1    0    0    0  501  0.00000000000E+00  0.00000000000E+00  0.12632591407E+04  0.12632591407E+04  0.50400001928E-02 0.  1.
        1   -1    0    0  501    0  0.00000000000E+00  0.00000000000E+00 -0.28466928273E+04  0.28466928273E+04  0.50400001928E-02 0. -1.
    10030    2    1    2    0    0  0.00000000000E+00  0.00000000000E+00 -0.15834336866E+04  0.41099519680E+04  0.37926828156E+04 0.  0.
        5    1    3    3  502    0 -0.14814631179E+04  0.11142715678E+04 -0.35858826653E+03  0.18881053285E+04  0.46999998093E+01 0.  1.
       -5    1    3    3    0  502  0.14814631179E+04 -0.11142715678E+04 -0.12248454201E+04  0.22218466395E+04  0.46999998093E+01 0. -1.
</event>
<event>
 5   0  0.1628250E-08  0.3800784E+04  0.7818609E-02  0.8045987E-01
       -1   -1    0    0    0  501  0.00000000000E+00  0.00000000000E+00  0.17170564804E+04  0.17170564804E+04  0.50400001928E-02 0. -1.
        1   -1    0    0  501    0  0.00000000000E+00  0.00000000000E+00 -0.21033033589E+04  0.21033033589E+04  0.50400001928E-02 0.  1.
    10030    2    1    2    0    0  0.00000000000E+00  0.00000000000E+00 -0.38624687843E+03  0.38203598393E+04  0.38007844783E+04 0.  0.
        4    1    3    3  502    0  0.91209181249E+03 -0.16063821194E+04  0.25539674632E+03  0.18648335311E+04  0.12699999809E+01 0. -1.
       -4    1    3    3    0  502 -0.91209181249E+03  0.16063821194E+04 -0.64164362475E+03  0.19555263082E+04  0.12699999809E+01 0.  1.
</event>
<event>
 5   0  0.5159761E-08  0.3794827E+04  0.7818609E-02  0.8047266E-01
        2   -1    0    0  501    0  0.00000000000E+00  0.00000000000E+00  0.23247240786E+04  0.23247240786E+04  0.25500000920E-02 0. -1.
       -2   -1    0    0    0  501  0.00000000000E+00  0.00000000000E+00 -0.15486473520E+04  0.15486473520E+04  0.25500000920E-02 0.  1.
    10030    2    1    2    0    0  0.00000000000E+00  0.00000000000E+00  0.77607672660E+03  0.38733714306E+04  0.37948268938E+04 0.  0.
        5    1    3    3  502    0 -0.67743678343E+03 -0.65318646026E+03  0.20697390510E+04  0.22736347501E+04  0.46999998093E+01 0. -1.
       -5    1    3    3    0  502  0.67743678343E+03  0.65318646026E+03 -0.12936623244E+04  0.15997366805E+04  0.46999998093E+01 0.  1.
</event>
<event>
 5   0  0.5159761E-08  0.3801842E+04  0.7818609E-02  0.8045760E-01
        2   -1    0    0  501    0  0.00000000000E+00  0.00000000000E+00  0.25427644309E+04  0.25427644309E+04  0.25500000920E-02 0. -1.
       -2   -1    0    0    0  501  0.00000000000E+00  0.00000000000E+00 -0.14210914087E+04  0.14210914087E+04  0.25500000920E-02 0.  1.
    10030    2    1    2    0    0  0.00000000000E+00  0.00000000000E+00  0.11216730222E+04  0.39638558395E+04  0.38018420204E+04 0.  0.
        5    1    3    3  502    0  0.70219350821E+03 -0.96622001731E+03  0.21026451596E+04  0.24182215784E+04  0.46999998093E+01 0. -1.
       -5    1    3    3    0  502 -0.70219350821E+03  0.96622001731E+03 -0.98097213744E+03  0.15456342612E+04  0.46999998093E+01 0.  1.
</event>
<event>
 5   0  0.5207474E-08  0.3799451E+04  0.7818609E-02  0.8046273E-01
       -2   -1    0    0    0  501  0.00000000000E+00  0.00000000000E+00  0.19884571360E+04  0.19884571360E+04  0.25500000920E-02 0.  1.
        2   -1    0    0  501    0  0.00000000000E+00  0.00000000000E+00 -0.18149529756E+04  0.18149529756E+04  0.25500000920E-02 0. -1.
    10030    2    1    2    0    0  0.00000000000E+00  0.00000000000E+00  0.17350416049E+03  0.38034101116E+04  0.37994505897E+04 0.  0.
        4    1    3    3  502    0 -0.93142417575E+03 -0.15278178985E+04 -0.55201639095E+03  0.18725656824E+04  0.12699999809E+01 0.  1.
       -4    1    3    3    0  502  0.93142417575E+03  0.15278178985E+04  0.72552055144E+03  0.19308444292E+04  0.12699999809E+01 0. -1.
</event>
<event>
 5   0  0.5147582E-08  0.3803559E+04  0.7818609E-02  0.8045392E-01
        2   -1    0    0  501    0  0.00000000000E+00  0.00000000000E+00  0.14997036144E+04  0.14997036144E+04  0.25500000920E-02 0.  1.
       -2   -1    0    0    0  501  0.00000000000E+00  0.00000000000E+00 -0.24116536834E+04  0.24116536834E+04  0.25500000920E-02 0. -1.
    10030    2    1    2    0    0  0.00000000000E+00  0.00000000000E+00 -0.91195006898E+03  0.39113572978E+04  0.38035592519E+04 0.  0.
        1    1    3    3  502    0  0.56254754624E+02 -0.19632442061E+03 -0.24003447229E+04  0.24090169498E+04  0.50400001928E-02 0. -1.
       -1    1    3    3    0  502 -0.56254754624E+02  0.19632442061E+03  0.14883946539E+04  0.15023403480E+04  0.50400001928E-02 0.  1.
</event>
<event>
 5   0  0.5147582E-08  0.3786269E+04  0.7818609E-02  0.8049108E-01
        2   -1    0    0  501    0  0.00000000000E+00  0.00000000000E+00  0.19210605732E+04  0.19210605732E+04  0.25500000920E-02 0. -1.
       -2   -1    0    0    0  501  0.00000000000E+00  0.00000000000E+00 -0.18656139216E+04  0.18656139216E+04  0.25500000920E-02 0.  1.
    10030    2    1    2    0    0  0.00000000000E+00  0.00000000000E+00  0.55446651617E+02  0.37866744948E+04  0.37862685323E+04 0.  0.
        1    1    3    3  502    0 -0.96909151454E+02  0.18118466384E+03  0.19098757140E+04  0.19208967981E+04  0.50400001928E-02 0. -1.
       -1    1    3    3    0  502  0.96909151454E+02 -0.18118466384E+03 -0.18544290624E+04  0.18657776967E+04  0.50400001928E-02 0.  1.
</event>
<event>
 5   0  0.1666051E-08  0.3801096E+04  0.7818609E-02  0.8045920E-01
        1   -1    0    0  501    0  0.00000000000E+00  0.00000000000E+00  0.15966629573E+04  0.15966629574E+04  0.50400001928E-02 0.  1.
       -1   -1    0    0    0  501  0.00000000000E+00  0.00000000000E+00 -0.22622701652E+04  0.22622701652E+04  0.50400001928E-02 0. -1.
    10030    2    1    2    0    0  0.00000000000E+00  0.00000000000E+00 -0.66560720784E+03  0.38589331225E+04  0.38010961431E+04 0.  0.
        2    1    3    3  502    0 -0.74370914269E+03 -0.17293768150E+04 -0.67609640284E+02  0.18837246404E+04  0.25500000920E-02 0.  1.
       -2    1    3    3    0  502  0.74370914269E+03  0.17293768150E+04 -0.59799756756E+03  0.19752084822E+04  0.25500000920E-02 0. -1.
</event>
<event>
 5   0  0.5147582E-08  0.3797938E+04  0.7818609E-02  0.8046597E-01
       -2   -1    0    0    0  501  0.00000000000E+00  0.00000000000E+00  0.22942036447E+04  0.22942036447E+04  0.25500000920E-02 0.  1.
        2   -1    0    0  501    0  0.00000000000E+00  0.00000000000E+00 -0.15718237524E+04  0.15718237524E+04  0.25500000920E-02 0. -1.
    10030    2    1    2    0    0  0.00000000000E+00  0.00000000000E+00  0.72237989230E+03  0.38660273971E+04  0.37979382731E+04 0.  0.
        1    1    3    3  502    0 -0.78855552489E+03 -0.10602997991E+04 -0.10270892050E+04  0.16736091882E+04  0.50400001928E-02 0. -1.
       -1    1    3    3    0  502  0.78855552489E+03  0.10602997991E+04  0.17494690973E+04  0.21924182088E+04  0.50400001928E-02 0.  1.
</event>
<event>
 5   0  0.1628250E-08  0.3806336E+04  0.7818609E-02  0.8044797E-01
       -1   -1    0    0    0  501  0.00000000000E+00  0.00000000000E+00  0.16807099037E+04  0.16807099037E+04  0.50400001928E-02 0. -1.
        1   -1    0    0  501    0  0.00000000000E+00  0.00000000000E+00 -0.21550703934E+04  0.21550703934E+04  0.50400001928E-02 0.  1.
    10030    2    1    2    0    0  0.00000000000E+00  0.00000000000E+00 -0.47436048967E+03  0.38357802972E+04  0.38063358514E+04 0.  0.
        5    1    3    3  502    0  0.35572003650E+03 -0.12283442404E+04 -0.16575727256E+04  0.20935462134E+04  0.46999998093E+01 0.  1.
       -5    1    3    3    0  502 -0.35572003650E+03  0.12283442404E+04  0.11832122359E+04  0.17422340837E+04  0.46999998093E+01 0. -1.
</event>
<event>
 5   0  0.1628473E-08  0.3801776E+04  0.7818609E-02  0.8045774E-01
        1   -1    0    0  501    0  0.00000000000E+00  0.00000000000E+00  0.22117760844E+04  0.22117760844E+04  0.50400001928E-02 0. -1.
       -1   -1    0    0    0  501  0.00000000000E+00  0.00000000000E+00 -0.16336988088E+04  0.16336988088E+04  0.50400001928E-02 0.  1.
    10030    2    1    2    0    0  0.00000000000E+00  0.00000000000E+00  0.57807727564E+03  0.38454748932E+04  0.38017764029E+04 0.  0.
        3    1    3    3  502    0 -0.15907736357E+04  0.41699204577E+03 -0.67529940891E+03  0.17777717593E+04  0.10100000352E+00 0.  1.
       -3    1    3    3    0  502  0.15907736357E+04 -0.41699204577E+03  0.12533766845E+04  0.20677031339E+04  0.10100000352E+00 0. -1.
</event>
<event>
 5   0  0.5207474E-08  0.3807600E+04  0.7818609E-02  0.8044526E-01
        2   -1    0    0  501    0  0.00000000000E+00  0.00000000000E+00  0.28994220101E+04  0.28994220101E+04  0.25500000920E-02 0. -1.
       -2   -1    0    0    0  501  0.00000000000E+00  0.00000000000E+00 -0.12500607390E+04  0.12500607390E+04  0.25500000920E-02 0.  1.
    10030    2    1    2    0    0  0.00000000000E+00  0.00000000000E+00  0.16493612711E+04  0.41494827491E+04  0.38075995695E+04 0.  0.
        4    1    3    3  502    0  0.50506036212E+03 -0.11643892772E+04 -0.72173194987E+03  0.14600640323E+04  0.12699999809E+01 0.  1.
       -4    1    3    3    0  502 -0.50506036212E+03  0.11643892772E+04  0.23710932210E+04  0.26894187167E+04  0.12699999809E+01 0. -1.
</event>
<event>
 5   0  0.1628250E-08  0.3798300E+04  0.7818609E-02  0.8046520E-01
        1   -1    0    0  501    0  0.00000000000E+00  0.00000000000E+00  0.16166055843E+04  0.16166055843E+04  0.50400001928E-02 0. -1.
       -1   -1    0    0    0  501  0.00000000000E+00  0.00000000000E+00 -0.22310770823E+04  0.22310770823E+04  0.50400001928E-02 0.  1.
    10030    2    1    2    0    0  0.00000000000E+00  0.00000000000E+00 -0.61447149801E+03  0.38476826667E+04  0.37983004991E+04 0.  0.
        1    1    3    3  502    0 -0.12057691680E+04  0.14102589788E+04  0.10307597122E+03  0.18583149167E+04  0.50400001928E-02 0. -1.
       -1    1    3    3    0  502  0.12057691680E+04 -0.14102589788E+04 -0.71754746923E+03  0.19893677499E+04  0.50400001928E-02 0.  1.
</event>
<event>
 5   0  0.5086209E-08  0.3805674E+04  0.7818609E-02  0.8044938E-01
        2   -1    0    0  501    0  0.00000000000E+00  0.00000000000E+00  0.18859566117E+04  0.18859566117E+04  0.25500000920E-02 0. -1.
       -2   -1    0    0    0  501  0.00000000000E+00  0.00000000000E+00 -0.19198683456E+04  0.19198683457E+04  0.25500000920E-02 0.  1.
    10030    2    1    2    0    0  0.00000000000E+00  0.00000000000E+00 -0.33911733936E+02  0.38058249574E+04  0.38056738694E+04 0.  0.
        3    1    3    3  502    0 -0.16185657843E+04  0.61230929098E+03  0.77434700735E+03  0.18958615888E+04  0.10100000352E+00 0. -1.
       -3    1    3    3    0  502  0.16185657843E+04 -0.61230929098E+03 -0.80825874129E+03  0.19099633685E+04  0.10100000352E+00 0.  1.
</event>
<event>
 5   0  0.5086209E-08  0.3804493E+04  0.7818609E-02  0.8045191E-01
       -2   -1    0    0    0  501  0.00000000000E+00  0.00000000000E+00  0.21762721942E+04  0.21762721942E+04  0.25500000920E-02 0. -1.
        2   -1    0    0  501    0  0.00000000000E+00  0.00000000000E+00 -0.16627250387E+04  0.16627250387E+04  0.25500000920E-02 0.  1.
    10030    2    1    2    0    0  0.00000000000E+00  0.00000000000E+00  0.51354715553E+03  0.38389972329E+04  0.38044932741E+04 0.  0.
        3    1    3    3  502    0  0.36850584898E+03 -0.18216839876E+04  0.66568094947E+03  0.19741986344E+04  0.10100000352E+00 0.  1.
       -3    1    3    3    0  502 -0.36850584898E+03  0.18216839876E+04 -0.15213379394E+03  0.18647985985E+04  0.10100000352E+00 0. -1.
</event>
<event>
 5   0  0.5086209E-08  0.3791125E+04  0.7818609E-02  0.8048062E-01
        2   -1    0    0  501    0  0.00000000000E+00  0.00000000000E+00  0.21792635454E+04  0.21792635454E+04  0.25500000920E-02 0. -1.
       -2   -1    0    0    0  501  0.00000000000E+00  0.00000000000E+00 -0.16487942571E+04  0.16487942571E+04  0.25500000920E-02 0.  1.
    10030    2    1    2    0    0  0.00000000000E+00  0.00000000000E+00  0.53046928833E+03  0.38280578025E+04  0.37911250142E+04 0.  0.
        3    1    3    3  502    0 -0.16670356522E+04 -0.71512690802E+03  0.82081556982E+03  0.19910179734E+04  0.10100000352E+00 0. -1.
       -3    1    3    3    0  502  0.16670356522E+04  0.71512690802E+03 -0.29034628149E+03  0.18370398291E+04  0.10100000352E+00 0.  1.
</event>
<event>
 5   0  0.1666051E-08  0.3796543E+04  0.7818609E-02  0.8046897E-01
        1   -1    0    0  501    0  0.00000000000E+00  0.00000000000E+00  0.17795153403E+04  0.17795153403E+04  0.50400001928E-02 0.  1.
       -1   -1    0    0    0  501  0.00000000000E+00  0.00000000000E+00 -0.20249533290E+04  0.20249533290E+04  0.50400001928E-02 0. -1.
    10030    2    1    2    0    0  0.00000000000E+00  0.00000000000E+00 -0.24543798868E+03  0.38044686692E+04  0.37965434344E+04 0.  0.
        2    1    3    3  502    0 -0.24704530454E+03 -0.15256452881E+04  0.98176626163E+03  0.18309805898E+04  0.25500000920E-02 0.  1.
       -2    1    3    3    0  502  0.24704530454E+03  0.15256452881E+04 -0.12272042503E+04  0.19734880794E+04  0.25500000920E-02 0. -1.
</event>
<event>
 5   0  0.5159761E-08  0.3801994E+04  0.7818609E-02  0.8045727E-01
        2   -1    0    0  501    0  0.00000000000E+00  0.00000000000E+00  0.14889945125E+04  0.14889945125E+04  0.25500000920E-02 0. -1.
       -2   -1    0    0    0  501  0.00000000000E+00  0.00000000000E+00 -0.24269993785E+04  0.24269993785E+04  0.25500000920E-02 0.  1.
    10030    2    1    2    0    0  0.00000000000E+00  0.00000000000E+00 -0.93800486594E+03  0.39159938910E+04  0.38019935594E+04 0.  0.
        5    1    3    3  502    0  0.40822408320E+03 -0.68529791910E+03  0.13082762473E+04  0.15322822747E+04  0.46999998093E+01 0. -1.
       -5    1    3    3    0  502 -0.40822408320E+03  0.68529791910E+03 -0.22462811133E+04  0.23837116163E+04  0.46999998093E+01 0.  1.
</event>
<event>
 5   0  0.5159761E-08  0.3794030E+04  0.7818609E-02  0.8047437E-01
        2   -1    0    0  501    0  0.00000000000E+00  0.00000000000E+00  0.17416174753E+04  0.17416174753E+04  0.25500000920E-02 0.  1.
       -2   -1    0    0    0  501  0.00000000000E+00  0.00000000000E+00 -0.20662779118E+04  0.20662779118E+04  0.25500000920E-02 0. -1.
    10030    2    1    2    0    0  0.00000000000E+00  0.00000000000E+00 -0.32466043651E+03  0.38078953871E+04  0.37940298998E+04 0.  0.
        5    1    3    3  502    0 -0.15731411602E+04  0.86843039073E+03  0.44792078384E+03  0.18519178092E+04  0.46999998093E+01 0. -1.
       -5    1    3    3    0  502  0.15731411602E+04 -0.86843039073E+03 -0.77258122035E+03  0.19559775779E+04  0.46999998093E+01 0.  1.
</event>
<event>
 5   0  0.5207474E-08  0.3793385E+04  0.7818609E-02  0.8047576E-01
        2   -1    0    0  501    0  0.00000000000E+00  0.00000000000E+00  0.30342727168E+04  0.30342727168E+04  0.25500000920E-02 0.  1.
       -2   -1    0    0    0  501  0.00000000000E+00  0.00000000000E+00 -0.11856026127E+04  0.11856026127E+04  0.25500000920E-02 0. -1.
    10030    2    1    2    0    0  0.00000000000E+00  0.00000000000E+00  0.18486701041E+04  0.42198753295E+04  0.37933845893E+04 0.  0.
        4    1    3    3  502    0  0.36609281965E+02 -0.59360417094E+03  0.29278627675E+04  0.29876559623E+04  0.12699999809E+01 0.  1.
       -4    1    3    3    0  502 -0.36609281965E+02  0.59360417094E+03 -0.10791926633E+04  0.12322193672E+04  0.12699999809E+01 0. -1.
</event>
<event>
 5   0  0.5207474E-08  0.3796001E+04  0.7818609E-02  0.8047014E-01
       -2   -1    0    0    0  501  0.00000000000E+00  0.00000000000E+00  0.13421175521E+04  0.13421175522E+04  0.25500000920E-02 0. -1.
        2   -1    0    0  501    0  0.00000000000E+00  0.00000000000E+00 -0.26841214163E+04  0.26841214163E+04  0.25500000920E-02 0.  1.
    10030    2    1    2    0    0  0.00000000000E+00  0.00000000000E+00 -0.13420038641E+04  0.40262389684E+04  0.37960012987E+04 0.  0.
        4    1    3    3  502    0  0.12998851464E+03  0.10922151437E+04 -0.23116139086E+04  0.25599592593E+04  0.12699999809E+01 0.  1.
       -4    1    3    3    0  502 -0.12998851464E+03 -0.10922151437E+04  0.96961004450E+03  0.14662797091E+04  0.12699999809E+01 0. -1.
</event>
<event>
 5   0  0.1628250E-08  0.3805080E+04  0.7818609E-02  0.8045066E-01
       -1   -1    0    0    0  501  0.00000000000E+00  0.00000000000E+00  0.27690638360E+04  0.27690638360E+04  0.50400001928E-02 0.  1.
        1   -1    0    0  501    0  0.00000000000E+00  0.00000000000E+00 -0.13071780205E+04  0.13071780205E+04  0.50400001928E-02 0. -1.
    10030    2    1    2    0    0  0.00000000000E+00  0.00000000000E+00  0.14618858155E+04  0.40762418565E+04  0.38050804899E+04 0.  0.
        4    1    3    3  502    0  0.86468607152E+03  0.55226168403E+03  0.24472997104E+04  0.26536677364E+04  0.12699999809E+01 0.  1.
       -4    1    3    3    0  502 -0.86468607152E+03 -0.55226168403E+03 -0.98541389489E+03  0.14225741201E+04  0.12699999809E+01 0. -1.
</event>
<event>
 5   0  0.5086209E-08  0.3804917E+04  0.7818609E-02  0.8045101E-01
       -2   -1    0    0    0  501  0.00000000000E+00  0.00000000000E+00  0.12145402674E+04  0.12145402674E+04  0.25500000920E-02 0. -1.
        2   -1    0    0  501    0  0.00000000000E+00  0.00000000000E+00 -0.29800149823E+04  0.29800149823E+04  0.25500000920E-02 0.  1.
    10030    2    1    2    0    0  0.00000000000E+00  0.00000000000E+00 -0.17654747149E+04  0.41945552498E+04  0.38049169208E+04 0.  0.
        3    1    3    3  502    0  0.72541012417E+03  0.16861330972E+04 -0.14340313653E+04  0.23293154867E+04  0.10100000352E+00 0.  1.
       -3    1    3    3    0  502 -0.72541012417E+03 -0.16861330972E+04 -0.33144334957E+03  0.18652397631E+04  0.10100000352E+00 0. -1.
</event>
<event>
 5   0  0.1628250E-08  0.3804972E+04  0.7818609E-02  0.8045089E-01
        1   -1    0    0  501    0  0.00000000000E+00  0.00000000000E+00  0.19532830837E+04  0.19532830837E+04  0.50400001928E-02 0. -1.
       -1   -1    0    0    0  501  0.00000000000E+00  0.00000000000E+00 -0.18530101035E+04  0.18530101035E+04  0.50400001928E-02 0.  1.
    10030    2    1    2    0    0  0.00000000000E+00  0.00000000000E+00  0.10027298019E+03  0.38062931871E+04  0.38049721623E+04 0.  0.
        4    1    3    3  502    0  0.15410913712E+04 -0.10992416769E+04  0.24035191530E+03  0.19081576284E+04  0.12699999809E+01 0.  1.
       -4    1    3    3    0  502 -0.15410913712E+04  0.10992416769E+04 -0.14007893511E+03  0.18981355588E+04  0.12699999809E+01 0. -1.
</event>
<event>
 5   0  0.5147582E-08  0.3800908E+04  0.7818609E-02  0.8045960E-01
        2   -1    0    0  501    0  0.00000000000E+00  0.00000000000E+00  0.20710225936E+04  0.20710225936E+04  0.25500000920E-02 0. -1.
       -2   -1    0    0    0  501  0.00000000000E+00  0.00000000000E+00 -0.17439331425E+04  0.17439331425E+04  0.25500000920E-02 0.  1.
    10030    2    1    2    0    0  0.00000000000E+00  0.00000000000E+00  0.32708945106E+03  0.38149557361E+04  0.38009077547E+04 0.  0.
        1    1    3    3  502    0 -0.49382953043E+03 -0.10156597382E+04 -0.13705980992E+04  0.17759424141E+04  0.50400001928E-02 0.  1.
       -1    1    3    3    0  502  0.49382953043E+03  0.10156597382E+04  0.16976875502E+04  0.20390133220E+04  0.50400001928E-02 0. -1.
</event>
<event>
 5   0  0.5140842E-08  0.3798764E+04  0.7818609E-02  0.8046420E-01
        2   -1    0    0  501    0  0.00000000000E+00  0.00000000000E+00  0.15969967381E+04  0.15969967381E+04  0.25500000920E-02 0.  1.
       -2   -1    0    0    0  501  0.00000000000E+00  0.00000000000E+00 -0.22590223820E+04  0.22590223820E+04  0.25500000920E-02 0. -1.
    10030    2    1    2    0    0  0.00000000000E+00  0.00000000000E+00 -0.66202564391E+03  0.38560191202E+04  0.37987636807E+04 0.  0.
        2    1    3    3  502    0  0.14460710186E+04 -0.11229731811E+04  0.18203682356E+03  0.18399259663E+04  0.25500000920E-02 0. -1.
       -2    1    3    3    0  502 -0.14460710186E+04  0.11229731811E+04 -0.84406246747E+03  0.20160931539E+04  0.25500000920E-02 0.  1.
</event>
<event>
 5   0  0.1628250E-08  0.3790668E+04  0.7818609E-02  0.8048160E-01
       -1   -1    0    0    0  501  0.00000000000E+00  0.00000000000E+00  0.26989376288E+04  0.26989376288E+04  0.50400001928E-02 0.  1.
        1   -1    0    0  501    0  0.00000000000E+00  0.00000000000E+00 -0.13310021805E+04  0.13310021805E+04  0.50400001928E-02 0. -1.
    10030    2    1    2    0    0  0.00000000000E+00  0.00000000000E+00  0.13679354483E+04  0.40299398093E+04  0.37906684735E+04 0.  0.
        1    1    3    3  502    0 -0.32874583205E+03  0.17049774278E+04 -0.12377351630E+03  0.17407876766E+04  0.50400001928E-02 0. -1.
       -1    1    3    3    0  502  0.32874583205E+03 -0.17049774278E+04  0.14917089646E+04  0.22891521327E+04  0.50400001928E-02 0.  1.
</event>
<event>
 5   0  0.1666051E-08  0.3801792E+04  0.7818609E-02  0.8045770E-01
        1   -1    0    0  501    0  0.00000000000E+00  0.00000000000E+00  0.14827219909E+04  0.14827219910E+04  0.50400001928E-02 0. -1.
       -1   -1    0    0    0  501  0.00000000000E+00  0.00000000000E+00 -0.24370080325E+04  0.24370080325E+04  0.50400001928E-02 0.  1.
    10030    2    1    2    0    0  0.00000000000E+00  0.00000000000E+00 -0.95428604159E+03  0.39197300235E+04  0.38017918944E+04 0.  0.
        2    1    3    3  502    0  0.71394864775E+03  0.15038102385E+04 -0.14233477217E+04  0.21902252491E+04  0.25500000920E-02 0.  1.
       -2    1    3    3    0  502 -0.71394864775E+03 -0.15038102385E+04  0.46906168011E+03  0.17295047744E+04  0.25500000920E-02 0. -1.
</event>
<event>
 5   0  0.5207474E-08  0.3808149E+04  0.7818609E-02  0.8044408E-01
        2   -1    0    0  501    0  0.00000000000E+00  0.00000000000E+00  0.14367722668E+04  0.14367722668E+04  0.25500000920E-02 0. -1.
       -2   -1    0    0    0  501  0.00000000000E+00  0.00000000000E+00 -0.25233641777E+04  0.25233641777E+04  0.25500000920E-02 0.  1.
    10030    2    1    2    0    0  0.00000000000E+00  0.00000000000E+00 -0.10865919109E+04  0.39601364446E+04  0.38081489833E+04 0.  0.
        4    1    3    3  502    0  0.11814142564E+04 -0.14618008418E+04 -0.86025006497E+03  0.20670348651E+04  0.12699999809E+01 0.  1.
       -4    1    3    3    0  502 -0.11814142564E+04  0.14618008418E+04 -0.22634184593E+03  0.18931015795E+04  0.12699999809E+01 0. -1.
</event>
<event>
 5   0  0.5207474E-08  0.3767405E+04  0.7818609E-02  0.8053186E-01
        2   -1    0    0  501    0  0.00000000000E+00  0.00000000000E+00  0.14346403857E+04  0.14346403857E+04  0.25500000920E-02 0. -1.
       -2   -1    0    0    0  501  0.00000000000E+00  0.00000000000E+00 -0.24733267483E+04  0.24733267483E+04  0.25500000920E-02 0.  1.
    10030    2    1    2    0    0  0.00000000000E+00  0.00000000000E+00 -0.10386863625E+04  0.39079671340E+04  0.37674046452E+04 0.  0.
        4    1    3    3  502    0 -0.11567775056E+04 -0.19069338480E+03 -0.20487460078E+04  0.23604787611E+04  0.12699999809E+01 0.  1.
       -4    1    3    3    0  502  0.11567775056E+04  0.19069338480E+03  0.10100596452E+04  0.15474883729E+04  0.12699999809E+01 0. -1.
</event>
<event>
 5   0  0.1628250E-08  0.3815728E+04  0.7818609E-02  0.8042788E-01
        1   -1    0    0  501    0  0.00000000000E+00  0.00000000000E+00  0.19365109728E+04  0.19365109728E+04  0.50400001928E-02 0.  1.
       -1   -1    0    0    0  501  0.00000000000E+00  0.00000000000E+00 -0.18796411881E+04  0.18796411881E+04  0.50400001928E-02 0. -1.
    10030    2    1    2    0    0  0.00000000000E+00  0.00000000000E+00  0.56869784700E+02  0.38161521609E+04  0.38157283895E+04 0.  0.
        4    1    3    3  502    0 -0.75963083129E+03 -0.69258356452E+03  0.16358573614E+04  0.19320305157E+04  0.12699999809E+01 0.  1.
       -4    1    3    3    0  502  0.75963083129E+03  0.69258356452E+03 -0.15789875767E+04  0.18841216452E+04  0.12699999809E+01 0. -1.
</event>
<event>
 5   0  0.1666051E-08  0.3800930E+04  0.7818609E-02  0.8045955E-01
       -1   -1    0    0    0  501  0.00000000000E+00  0.00000000000E+00  0.17340377705E+04  0.17340377705E+04  0.50400001928E-02 0.  1.
        1   -1    0    0  501    0  0.00000000000E+00  0.00000000000E+00 -0.20828648205E+04  0.20828648205E+04  0.50400001928E-02 0. -1.
    10030    2    1    2    0    0  0.00000000000E+00  0.00000000000E+00 -0.34882704995E+03  0.38169025910E+04  0.38009295019E+04 0.  0.
        2    1    3    3  502    0  0.16519366581E+04 -0.91373938846E+03  0.45485887574E+02  0.18883546696E+04  0.25500000920E-02 0.  1.
       -2    1    3    3    0  502 -0.16519366581E+04  0.91373938846E+03 -0.39431293753E+03  0.19285479214E+04  0.25500000920E-02 0. -1.
</event>
<event>
 5   0  0.5159761E-08  0.3717808E+04  0.7818609E-02  0.8064027E-01
       -2   -1    0    0    0  501  0.00000000000E+00  0.00000000000E+00  0.18842043268E+04  0.18842043268E+04  0.25500000920E-02 0. -1.
        2   -1    0    0  501    0  0.00000000000E+00  0.00000000000E+00 -0.18339435935E+04  0.18339435935E+04  0.25500000920E-02 0.  1.
    10030    2    1    2    0    0  0.00000000000E+00  0.00000000000E+00  0.50260733259E+02  0.37181479203E+04  0.37178082006E+04 0.  0.
        5    1    3    3  502    0 -0.15089793912E+04  0.85401813249E+03 -0.64510740833E+03  0.18500139005E+04  0.46999998093E+01 0.  1.
       -5    1    3    3    0  502  0.15089793912E+04 -0.85401813249E+03  0.69536814159E+03  0.18681340198E+04  0.46999998093E+01 0. -1.
</event>
<event>
 5   0  0.5159761E-08  0.3784265E+04  0.7818609E-02  0.8049540E-01
       -2   -1    0    0    0  501  0.00000000000E+00  0.00000000000E+00  0.15726036368E+04  0.15726036368E+04  0.25500000920E-02 0.  1.
        2   -1    0    0  501    0  0.00000000000E+00  0.00000000000E+00 -0.22765844817E+04  0.22765844817E+04  0.25500000920E-02 0. -1.
    10030    2    1    2    0    0  0.00000000000E+00  0.00000000000E+00 -0.70398084489E+03  0.38491881185E+04  0.37842648086E+04 0.  0.
        5    1    3    3  502    0  0.97928676340E+03  0.12384871550E+04 -0.14126116229E+04  0.21185718503E+04  0.46999998093E+01 0. -1.
       -5    1    3    3    0  502 -0.97928676340E+03 -0.12384871550E+04  0.70863077796E+03  0.17306162681E+04  0.46999998093E+01 0.  1.
</event>
<event>
 5   0  0.1628250E-08  0.3801693E+04  0.7818609E-02  0.8045792E-01
       -1   -1    0    0    0  501  0.00000000000E+00  0.00000000000E+00  0.28422146933E+04  0.28422146933E+04  0.50400001928E-02 0. -1.
        1   -1    0    0  501    0  0.00000000000E+00  0.00000000000E+00 -0.12712683550E+04  0.12712683550E+04  0.50400001928E-02 0.  1.
    10030    2    1    2    0    0  0.00000000000E+00  0.00000000000E+00  0.15709463383E+04  0.41134830483E+04  0.38016930953E+04 0.  0.
        5    1    3    3  502    0 -0.53159761479E+03 -0.20579098379E+03  0.27475456331E+04  0.28060604144E+04  0.46999998093E+01 0. -1.
       -5    1    3    3    0  502  0.53159761479E+03  0.20579098379E+03 -0.11765992948E+04  0.13074226339E+04  0.46999998093E+01 0.  1.
</event>
<event>
 5   0  0.5140842E-08  0.3796777E+04  0.7818609E-02  0.8046847E-01
        2   -1    0    0  501    0  0.00000000000E+00  0.00000000000E+00  0.22373588068E+04  0.22373588068E+04  0.25500000920E-02 0. -1.
       -2   -1    0    0    0  501  0.00000000000E+00  0.00000000000E+00 -0.16107737986E+04  0.16107737986E+04  0.25500000920E-02 0.  1.
    10030    2    1    2    0    0  0.00000000000E+00  0.00000000000E+00  0.62658500826E+03  0.38481326054E+04  0.37967770248E+04 0.  0.
        2    1    3    3  502    0  0.72890285837E+03 -0.43086755125E+03  0.20353722856E+04  0.22044696787E+04  0.25500000920E-02 0. -1.
       -2    1    3    3    0  502 -0.72890285837E+03  0.43086755125E+03 -0.14087872773E+04  0.16436629266E+04  0.25500000920E-02 0.  1.
</event>
<event>
 5   0  0.1628250E-08  0.3798965E+04  0.7818609E-02  0.8046377E-01
        1   -1    0    0  501    0  0.00000000000E+00  0.00000000000E+00  0.25418306228E+04  0.25418306229E+04  0.50400001928E-02 0. -1.
       -1   -1    0    0    0  501  0.00000000000E+00  0.00000000000E+00 -0.14194630693E+04  0.14194630693E+04  0.50400001928E-02 0.  1.
    10030    2    1    2    0    0  0.00000000000E+00  0.00000000000E+00  0.11223675536E+04  0.39612936921E+04  0.37989654894E+04 0.  0.
        4    1    3    3  502    0 -0.17595028392E+03 -0.84112664966E+03  0.23275506179E+04  0.24811179003E+04  0.12699999809E+01 0. -1.
       -4    1    3    3    0  502  0.17595028392E+03  0.84112664966E+03 -0.12051830644E+04  0.14801757918E+04  0.12699999809E+01 0.  1.
</event>
<event>
 5   0  0.5086209E-08  0.3802039E+04  0.7818609E-02  0.8045718E-01
        2   -1    0    0  501    0  0.00000000000E+00  0.00000000000E+00  0.15870095586E+04  0.15870095586E+04  0.25500000920E-02 0.  1.
       -2   -1    0    0    0  501  0.00000000000E+00  0.00000000000E+00 -0.22771598737E+04  0.22771598737E+04  0.25500000920E-02 0. -1.
    10030    2    1    2    0    0  0.00000000000E+00  0.00000000000E+00 -0.69015031511E+03  0.38641694324E+04  0.38020386564E+04 0.  0.
        3    1    3    3  502    0  0.14266950176E+04 -0.20709587709E+03 -0.16044887476E+04  0.21570191300E+04  0.10100000352E+00 0. -1.
       -3    1    3    3    0  502 -0.14266950176E+04  0.20709587709E+03  0.91433843252E+03  0.17071503024E+04  0.10100000352E+00 0.  1.
</event>
<event>
 5   0  0.5159761E-08  0.3793291E+04  0.7818609E-02  0.8047596E-01
       -2   -1    0    0    0  501  0.00000000000E+00  0.00000000000E+00  0.14010162516E+04  0.14010162516E+04  0.25500000920E-02 0. -1.
        2   -1    0    0  501    0  0.00000000000E+00  0.00000000000E+00 -0.25676111211E+04  0.25676111211E+04  0.25500000920E-02 0.  1.
    10030    2    1    2    0    0  0.00000000000E+00  0.00000000000E+00 -0.11665948695E+04  0.39686273727E+04  0.37932913984E+04 0.  0.
        5    1    3    3  502    0 -0.84608041265E+03  0.38442480142E+03 -0.23130829715E+04  0.24927914906E+04  0.46999998093E+01 0.  1.
       -5    1    3    3    0  502  0.84608041265E+03 -0.38442480142E+03  0.11464881020E+04  0.14758358820E+04  0.46999998093E+01 0. -1.
</event>
<event>
 5   0  0.5140842E-08  0.3803527E+04  0.7818609E-02  0.8045398E-01
       -2   -1    0    0    0  501  0.00000000000E+00  0.00000000000E+00  0.33469230180E+04  0.33469230180E+04  0.25500000920E-02 0. -1.
        2   -1    0    0  501    0  0.00000000000E+00  0.00000000000E+00 -0.10806059239E+04  0.10806059239E+04  0.25500000920E-02 0.  1.
    10030    2    1    2    0    0  0.00000000000E+00  0.00000000000E+00  0.22663170941E+04  0.44275289419E+04  0.38035272261E+04 0.  0.
        2    1    3    3  502    0 -0.14457378486E+04  0.77199327770E+03  0.22560820492E+04  0.27885547798E+04  0.25500000920E-02 0. -1.
       -2    1    3    3    0  502  0.14457378486E+04 -0.77199327770E+03  0.10235044941E+02  0.16389741620E+04  0.25500000920E-02 0.  1.
</event>
<event>
 5   0  0.1628473E-08  0.3808803E+04  0.7818609E-02  0.8044268E-01
        1   -1    0    0  501    0  0.00000000000E+00  0.00000000000E+00  0.22009946009E+04  0.22009946009E+04  0.50400001928E-02 0.  1.
       -1   -1    0    0    0  501  0.00000000000E+00  0.00000000000E+00 -0.16477752923E+04  0.16477752923E+04  0.50400001928E-02 0. -1.
    10030    2    1    2    0    0  0.00000000000E+00  0.00000000000E+00  0.55321930855E+03  0.38487698932E+04  0.38088027105E+04 0.  0.
        3    1    3    3  502    0  0.10510347492E+04  0.47848992355E+02 -0.13274291211E+04  0.16938216116E+04  0.10100000352E+00 0. -1.
       -3    1    3    3    0  502 -0.10510347492E+04 -0.47848992355E+02  0.18806484297E+04  0.21549482816E+04  0.10100000352E+00 0.  1.
</event>
<event>
 5   0  0.5140842E-08  0.3805218E+04  0.7818609E-02  0.8045036E-01
       -2   -1    0    0    0  501  0.00000000000E+00  0.00000000000E+00  0.22967641762E+04  0.22967641762E+04  0.25500000920E-02 0.  1.
        2   -1    0    0  501    0  0.00000000000E+00  0.00000000000E+00 -0.15760956899E+04  0.15760956899E+04  0.25500000920E-02 0. -1.
    10030    2    1    2    0    0  0.00000000000E+00  0.00000000000E+00  0.72066848632E+03  0.38728598661E+04  0.38052175333E+04 0.  0.
        2    1    3    3  502    0 -0.26546871035E+03 -0.16265057834E+04 -0.60731640864E+03  0.17563678202E+04  0.25500000920E-02 0. -1.
       -2    1    3    3    0  502  0.26546871035E+03  0.16265057834E+04  0.13279848950E+04  0.21164920460E+04  0.25500000920E-02 0.  1.
</event>
<event>
 5   0  0.1628250E-08  0.3804557E+04  0.7818609E-02  0.8045178E-01
       -1   -1    0    0    0  501  0.00000000000E+00  0.00000000000E+00  0.14162421568E+04  0.14162421568E+04  0.50400001928E-02 0. -1.
        1   -1    0    0  501    0  0.00000000000E+00  0.00000000000E+00 -0.25551168945E+04  0.25551168945E+04  0.50400001928E-02 0.  1.
    10030    2    1    2    0    0  0.00000000000E+00  0.00000000000E+00 -0.11388747378E+04  0.39713590513E+04  0.38045574048E+04 0.  0.
        5    1    3    3  502    0  0.72587435995E+03  0.12933103198E+04 -0.18129238080E+04  0.23422766688E+04  0.46999998093E+01 0.  1.
       -5    1    3    3    0  502 -0.72587435995E+03 -0.12933103198E+04  0.67404907025E+03  0.16290823825E+04  0.46999998093E+01 0. -1.
</event>
<event>
 5   0  0.1628250E-08  0.3805708E+04  0.7818609E-02  0.8044931E-01
       -1   -1    0    0    0  501  0.00000000000E+00  0.00000000000E+00  0.15069753134E+04  0.15069753134E+04  0.50400001928E-02 0.  1.
        1   -1    0    0  501    0  0.00000000000E+00  0.00000000000E+00 -0.24027294782E+04  0.24027294782E+04  0.50400001928E-02 0. -1.
    10030    2    1    2    0    0  0.00000000000E+00  0.00000000000E+00 -0.89575416482E+03  0.39097047916E+04  0.38057083485E+04 0.  0.
        4    1    3    3  502    0 -0.20162944621E+03 -0.18882719786E+04 -0.57212369602E+03  0.19833185915E+04  0.12699999809E+01 0.  1.
       -4    1    3    3    0  502  0.20162944621E+03  0.18882719786E+04 -0.32363046881E+03  0.19263862001E+04  0.12699999809E+01 0. -1.
</event>
<event>
 5   0  0.5086209E-08  0.3801532E+04  0.7818609E-02  0.8045826E-01
        2   -1    0    0  501    0  0.00000000000E+00  0.00000000000E+00  0.19301426277E+04  0.19301426277E+04  0.25500000920E-02 0. -1.
       -2   -1    0    0    0  501  0.00000000000E+00  0.00000000000E+00 -0.18718362465E+04  0.18718362465E+04  0.25500000920E-02 0.  1.
    10030    2    1    2    0    0  0.00000000000E+00  0.00000000000E+00  0.58306381195E+02  0.38019788743E+04  0.38015317605E+04 0.  0.
        3    1    3    3  502    0  0.51254116152E+03 -0.14732382263E+04 -0.10571520804E+04  0.18843300786E+04  0.10100000352E+00 0.  1.
       -3    1    3    3    0  502 -0.51254116152E+03  0.14732382263E+04  0.11154584616E+04  0.19176487957E+04  0.10100000352E+00 0. -1.
</event>
<event>
 5   0  0.1628473E-08  0.3808825E+04  0.7818609E-02  0.8044264E-01
       -1   -1    0    0    0  501  0.00000000000E+00  0.00000000000E+00  0.25303321953E+04  0.25303321953E+04  0.50400001928E-02 0. -1.
        1   -1    0    0  501    0  0.00000000000E+00  0.00000000000E+00 -0.14333244424E+04  0.14333244424E+04  0.50400001928E-02 0.  1.
    10030    2    1    2    0    0  0.00000000000E+00  0.00000000000E+00  0.10970077529E+04  0.39636566377E+04  0.38088250067E+04 0.  0.
        3    1    3    3  502    0  0.57146678362E+03 -0.46429545745E+03  0.23762144268E+04  0.24876775452E+04  0.10100000352E+00 0. -1.
       -3    1    3    3    0  502 -0.57146678362E+03  0.46429545745E+03 -0.12792066740E+04  0.14759790925E+04  0.10100000352E+00 0.  1.
</event>
<event>
 5   0  0.1666051E-08  0.3777584E+04  0.7818609E-02  0.8050982E-01
       -1   -1    0    0    0  501  0.00000000000E+00  0.00000000000E+00  0.16019499670E+04  0.16019499670E+04  0.50400001928E-02 0.  1.
        1   -1    0    0  501    0  0.00000000000E+00  0.00000000000E+00 -0.22269955584E+04  0.22269955584E+04  0.50400001928E-02 0. -1.
    10030    2    1    2    0    0  0.00000000000E+00  0.00000000000E+00 -0.62504559139E+03  0.38289455254E+04  0.37775841281E+04 0.  0.
        2    1    3    3  502    0  0.16611077497E+04 -0.96107160290E+02  0.59350984885E+03  0.17665699768E+04  0.25500000920E-02 0.  1.
       -2    1    3    3    0  502 -0.16611077497E+04  0.96107160290E+02 -0.12185554402E+04  0.20623755485E+04  0.25500000920E-02 0. -1.
</event>
<event>
 5   0  0.1666051E-08  0.3801880E+04  0.7818609E-02  0.8045752E-01
       -1   -1    0    0    0  501  0.00000000000E+00  0.00000000000E+00  0.20096297798E+04  0.20096297798E+04  0.50400001928E-02 0.  1.
        1   -1    0    0  501    0  0.00000000000E+00  0.00000000000E+00 -0.17981287475E+04  0.17981287475E+04  0.50400001928E-02 0. -1.
    10030    2    1    2    0    0  0.00000000000E+00  0.00000000000E+00  0.21150103228E+03  0.38077585273E+04  0.38018801028E+04 0.  0.
        2    1    3    3  502    0  0.96788830208E+03  0.10487645098E+04 -0.11519212725E+04  0.18340221864E+04  0.25500000920E-02 0. -1.
       -2    1    3    3    0  502 -0.96788830208E+03 -0.10487645098E+04  0.13634223048E+04  0.19737363409E+04  0.25500000920E-02 0.  1.
</event>
<event>
 5   0  0.5207474E-08  0.3798060E+04  0.7818609E-02  0.8046571E-01
       -2   -1    0    0    0  501  0.00000000000E+00  0.00000000000E+00  0.17720300267E+04  0.17720300267E+04  0.25500000920E-02 0. -1.
        2   -1    0    0  501    0  0.00000000000E+00  0.00000000000E+00 -0.20351317025E+04  0.20351317025E+04  0.25500000920E-02 0.  1.
    10030    2    1    2    0    0  0.00000000000E+00  0.00000000000E+00 -0.26310167580E+03  0.38071617291E+04  0.37980597599E+04 0.  0.
        4    1    3    3  502    0 -0.78212035307E+02 -0.17632915832E+03 -0.20252854649E+04  0.20344512581E+04  0.12699999809E+01 0.  1.
       -4    1    3    3    0  502  0.78212035307E+02  0.17632915832E+03  0.17621837891E+04  0.17727104710E+04  0.12699999809E+01 0. -1.
</event>
<event>
 5   0  0.1628250E-08  0.3802535E+04  0.7818609E-02  0.8045611E-01
       -1   -1    0    0    0  501  0.00000000000E+00  0.00000000000E+00  0.18747519883E+04  0.18747519883E+04  0.50400001928E-02 0.  1.
        1   -1    0    0  501    0  0.00000000000E+00  0.00000000000E+00 -0.19281576011E+04  0.19281576011E+04  0.50400001928E-02 0. -1.
    10030    2    1    2    0    0  0.00000000000E+00  0.00000000000E+00 -0.53405612742E+02  0.38029095894E+04  0.38025345739E+04 0.  0.
        1    1    3    3  502    0  0.13246375433E+04 -0.40659363395E+03  0.12752836015E+04  0.18831705362E+04  0.50400001928E-02 0.  1.
       -1    1    3    3    0  502 -0.13246375433E+04  0.40659363395E+03 -0.13286892142E+04  0.19197390532E+04  0.50400001928E-02 0. -1.
</event>
<event>
 5   0  0.1628250E-08  0.3794240E+04  0.7818609E-02  0.8047392E-01
        1   -1    0    0  501    0  0.00000000000E+00  0.00000000000E+00  0.16068758359E+04  0.16068758359E+04  0.50400001928E-02 0. -1.
       -1   -1    0    0    0  501  0.00000000000E+00  0.00000000000E+00 -0.22397896882E+04  0.22397896882E+04  0.50400001928E-02 0.  1.
    10030    2    1    2    0    0  0.00000000000E+00  0.00000000000E+00 -0.63291385236E+03  0.38466655241E+04  0.37942398066E+04 0.  0.
        1    1    3    3  502    0 -0.19998901936E+03 -0.33269833954E+01  0.15961562181E+04  0.16086395958E+04  0.50400001928E-02 0. -1.
       -1    1    3    3    0  502  0.19998901936E+03  0.33269833954E+01 -0.22290700705E+04  0.22380259283E+04  0.50400001928E-02 0.  1.
</event>
<event>
 5   0  0.5159761E-08  0.3796770E+04  0.7818609E-02  0.8046848E-01
       -2   -1    0    0    0  501  0.00000000000E+00  0.00000000000E+00  0.16899794677E+04  0.16899794677E+04  0.25500000920E-02 0. -1.
        2   -1    0    0  501    0  0.00000000000E+00  0.00000000000E+00 -0.21324912555E+04  0.21324912555E+04  0.25500000920E-02 0.  1.
    10030    2    1    2    0    0  0.00000000000E+00  0.00000000000E+00 -0.44251178773E+03  0.38224707232E+04  0.37967704365E+04 0.  0.
        5    1    3    3  502    0 -0.15666485864E+04 -0.44155055251E+03 -0.12048489255E+04  0.20251019004E+04  0.46999998093E+01 0.  1.
       -5    1    3    3    0  502  0.15666485864E+04  0.44155055251E+03  0.76233713780E+03  0.17973688228E+04  0.46999998093E+01 0. -1.
</event>
<event>
 5   0  0.5147582E-08  0.3807983E+04  0.7818609E-02  0.8044444E-01
       -2   -1    0    0    0  501  0.00000000000E+00  0.00000000000E+00  0.19999573762E+04  0.19999573762E+04  0.25500000920E-02 0. -1.
        2   -1    0    0  501    0  0.00000000000E+00  0.00000000000E+00 -0.18126299951E+04  0.18126299951E+04  0.25500000920E-02 0.  1.
    10030    2    1    2    0    0  0.00000000000E+00  0.00000000000E+00  0.18732738109E+03  0.38125873713E+04  0.38079825257E+04 0.  0.
        1    1    3    3  502    0 -0.10972337666E+04 -0.54419872867E+03 -0.13658743406E+04  0.18345808538E+04  0.50400001928E-02 0.  1.
       -1    1    3    3    0  502  0.10972337666E+04  0.54419872867E+03  0.15532017217E+04  0.19780065175E+04  0.50400001928E-02 0. -1.
</event>
<event>
 5   0  0.5147582E-08  0.3799496E+04  0.7818609E-02  0.8046263E-01
        2   -1    0    0  501    0  0.00000000000E+00  0.00000000000E+00  0.27015986687E+04  0.27015986687E+04  0.25500000920E-02 0. -1.
       -2   -1    0    0    0  501  0.00000000000E+00  0.00000000000E+00 -0.13358913830E+04  0.13358913830E+04  0.25500000920E-02 0.  1.
    10030    2    1    2    0    0  0.00000000000E+00  0.00000000000E+00  0.13657072857E+04  0.40374900516E+04  0.37994959570E+04 0.  0.
        1    1    3    3  502    0  0.40804555598E+03 -0.14129777545E+04 -0.59498168756E+03  0.15865089092E+04  0.50400001928E-02 0.  1.
       -1    1    3    3    0  502 -0.40804555598E+03  0.14129777545E+04  0.19606889733E+04  0.24509811424E+04  0.50400001928E-02 0. -1.
</event>
<event>
 5   0  0.1628473E-08  0.3810799E+04  0.7818609E-02  0.8043841E-01
        1   -1    0    0  501    0  0.00000000000E+00  0.00000000000E+00  0.24905472030E+04  0.24905472030E+04  0.50400001928E-02 0.  1.
       -1   -1    0    0    0  501  0.00000000000E+00  0.00000000000E+00 -0.14577310755E+04  0.14577310755E+04  0.50400001928E-02 0. -1.
    10030    2    1    2    0    0  0.00000000000E+00  0.00000000000E+00  0.10328161275E+04  0.39482782785E+04  0.38107994189E+04 0.  0.
        3    1    3    3  502    0 -0.11545240849E+04  0.31502502410E+03 -0.10197757547E+04  0.15722942564E+04  0.10100000352E+00 0. -1.
       -3    1    3    3    0  502  0.11545240849E+04 -0.31502502410E+03  0.20525918822E+04  0.23759840221E+04  0.10100000352E+00 0.  1.
</event>
<event>
 5   0  0.5159761E-08  0.3803063E+04  0.7818609E-02  0.8045498E-01
        2   -1    0    0  501    0  0.00000000000E+00  0.00000000000E+00  0.21641593214E+04  0.21641593214E+04  0.25500000920E-02 0. -1.
       -2   -1    0    0    0  501  0.00000000000E+00  0.00000000000E+00 -0.16707746061E+04  0.16707746061E+04  0.25500000920E-02 0.  1.
    10030    2    1    2    0    0  0.00000000000E+00  0.00000000000E+00  0.49338471526E+03  0.38349339275E+04  0.38030632063E+04 0.  0.
        5    1    3    3  502    0  0.96410412526E+03 -0.12430874233E+03  0.18946618445E+04  0.21294870328E+04  0.46999998093E+01 0. -1.
       -5    1    3    3    0  502 -0.96410412526E+03  0.12430874233E+03 -0.14012771293E+04  0.17054468947E+04  0.46999998093E+01 0.  1.
</event>
<event>
 5   0  0.5140842E-08  0.3798059E+04  0.7818609E-02  0.8046571E-01
       -2   -1    0    0    0  501  0.00000000000E+00  0.00000000000E+00  0.18371232123E+04  0.18371232123E+04  0.25500000920E-02 0. -1.
        2   -1    0    0  501    0  0.00000000000E+00  0.00000000000E+00 -0.19630222660E+04  0.19630222660E+04  0.25500000920E-02 0.  1.
    10030    2    1    2    0    0  0.00000000000E+00  0.00000000000E+00 -0.12589905376E+03  0.38001454783E+04  0.37980593840E+04 0.  0.
        2    1    3    3  502    0  0.14968943946E+04  0.87848967323E+03  0.70810779438E+03  0.18745275626E+04  0.25500000920E-02 0. -1.
       -2    1    3    3    0  502 -0.14968943946E+04 -0.87848967323E+03 -0.83400684814E+03  0.19256179157E+04  0.25500000920E-02 0.  1.
</event>
<event>
 5   0  0.1628250E-08  0.3806903E+04  0.7818609E-02  0.8044675E-01
       -1   -1    0    0    0  501  0.00000000000E+00  0.00000000000E+00  0.26377106810E+04  0.26377106810E+04  0.50400001928E-02 0.  1.
        1   -1    0    0  501    0  0.00000000000E+00  0.00000000000E+00 -0.13735877368E+04  0.13735877368E+04  0.50400001928E-02 0. -1.
    10030    2    1    2    0    0  0.00000000000E+00  0.00000000000E+00  0.12641229442E+04  0.40112984179E+04  0.38069027016E+04 0.  0.
        5    1    3    3  502    0 -0.16398513008E+04  0.52812392787E+03 -0.22076295336E+03  0.17368896176E+04  0.46999998093E+01 0. -1.
       -5    1    3    3    0  502  0.16398513008E+04 -0.52812392787E+03  0.14848858976E+04  0.22744088003E+04  0.46999998093E+01 0.  1.
</event>
<event>
 5   0  0.5147582E-08  0.3797734E+04  0.7818609E-02  0.8046641E-01
       -2   -1    0    0    0  501  0.00000000000E+00  0.00000000000E+00  0.13902727887E+04  0.13902727887E+04  0.25500000920E-02 0.  1.
        2   -1    0    0  501    0  0.00000000000E+00  0.00000000000E+00 -0.25935174307E+04  0.25935174307E+04  0.25500000920E-02 0. -1.
    10030    2    1    2    0    0  0.00000000000E+00  0.00000000000E+00 -0.12032446420E+04  0.39837902195E+04  0.37977344357E+04 0.  0.
        1    1    3    3  502    0 -0.11377752749E+04 -0.58150573212E+03 -0.20750780308E+04  0.24369305133E+04  0.50400001928E-02 0. -1.
       -1    1    3    3    0  502  0.11377752749E+04  0.58150573212E+03  0.87183338885E+03  0.15468597062E+04  0.50400001928E-02 0.  1.
</event>
<event>
 5   0  0.5207474E-08  0.3800700E+04  0.7818609E-02  0.8046005E-01
        2   -1    0    0  501    0  0.00000000000E+00  0.00000000000E+00  0.21534382116E+04  0.21534382116E+04  0.25500000920E-02 0. -1.
       -2   -1    0    0    0  501  0.00000000000E+00  0.00000000000E+00 -0.16770063625E+04  0.16770063625E+04  0.25500000920E-02 0.  1.
    10030    2    1    2    0    0  0.00000000000E+00  0.00000000000E+00  0.47643184912E+03  0.38304445741E+04  0.38006997157E+04 0.  0.
        4    1    3    3  502    0  0.80629860204E+03  0.13039943992E+04  0.13698611580E+04  0.20559766618E+04  0.12699999809E+01 0. -1.
       -4    1    3    3    0  502 -0.80629860204E+03 -0.13039943992E+04 -0.89342930889E+03  0.17744679123E+04  0.12699999809E+01 0.  1.
</event>
<event>
 5   0  0.5147582E-08  0.3797990E+04  0.7818609E-02  0.8046586E-01
        2   -1    0    0  501    0  0.00000000000E+00  0.00000000000E+00  0.25084644250E+04  0.25084644250E+04  0.25500000920E-02 0.  1.
       -2   -1    0    0    0  501  0.00000000000E+00  0.00000000000E+00 -0.14376056735E+04  0.14376056735E+04  0.25500000920E-02 0. -1.
    10030    2    1    2    0    0  0.00000000000E+00  0.00000000000E+00  0.10708587516E+04  0.39460700985E+04  0.37979903576E+04 0.  0.
        1    1    3    3  502    0  0.48833791438E+03 -0.17137752804E+04  0.12172809264E+04  0.21580714733E+04  0.50400001928E-02 0.  1.
       -1    1    3    3    0  502 -0.48833791438E+03  0.17137752804E+04 -0.14642217480E+03  0.17879986252E+04  0.50400001928E-02 0. -1.
</event>
<event>
 5   0  0.5140842E-08  0.3805210E+04  0.7818609E-02  0.8045038E-01
       -2   -1    0    0    0  501  0.00000000000E+00  0.00000000000E+00  0.15382217030E+04  0.15382217030E+04  0.25500000920E-02 0.  1.
        2   -1    0    0  501    0  0.00000000000E+00  0.00000000000E+00 -0.23533058951E+04  0.23533058951E+04  0.25500000920E-02 0. -1.
    10030    2    1    2    0    0  0.00000000000E+00  0.00000000000E+00 -0.81508419211E+03  0.38915275982E+04  0.38052102185E+04 0.  0.
        2    1    3    3  502    0  0.15834437094E+03 -0.45974247862E+03  0.14736044646E+04  0.15517558457E+04  0.25500000920E-02 0.  1.
       -2    1    3    3    0  502 -0.15834437094E+03  0.45974247862E+03 -0.22886886567E+04  0.23397717525E+04  0.25500000920E-02 0. -1.
</event>
<event>
 5   0  0.1666051E-08  0.3781498E+04  0.7818609E-02  0.8050137E-01
       -1   -1    0    0    0  501  0.00000000000E+00  0.00000000000E+00  0.19974375020E+04  0.19974375020E+04  0.50400001928E-02 0. -1.
        1   -1    0    0  501    0  0.00000000000E+00  0.00000000000E+00 -0.17897588389E+04  0.17897588389E+04  0.50400001928E-02 0.  1.
    10030    2    1    2    0    0  0.00000000000E+00  0.00000000000E+00  0.20767866308E+03  0.37871963409E+04  0.37814978114E+04 0.  0.
        2    1    3    3  502    0  0.61807369228E+03 -0.93850437130E+03 -0.14190197062E+04  0.18100890781E+04  0.25500000920E-02 0.  1.
       -2    1    3    3    0  502 -0.61807369228E+03  0.93850437130E+03  0.16266983693E+04  0.19771072628E+04  0.25500000920E-02 0. -1.
</event>
<event>
 5   0  0.1666051E-08  0.3797588E+04  0.7818609E-02  0.8046673E-01
       -1   -1    0    0    0  501  0.00000000000E+00  0.00000000000E+00  0.28492198311E+04  0.28492198311E+04  0.50400001928E-02 0. -1.
        1   -1    0    0  501    0  0.00000000000E+00  0.00000000000E+00 -0.12654053217E+04  0.12654053217E+04  0.50400001928E-02 0.  1.
    10030    2    1    2    0    0  0.00000000000E+00  0.00000000000E+00  0.15838145094E+04  0.41146251529E+04  0.37975876222E+04 0.  0.
        2    1    3    3  502    0  0.10791241303E+04  0.33497962977E+03 -0.86149692129E+03  0.14208790189E+04  0.25500000920E-02 0.  1.
       -2    1    3    3    0  502 -0.10791241303E+04 -0.33497962977E+03  0.24453114307E+04  0.26937461339E+04  0.25500000920E-02 0. -1.
</event>
<event>
 5   0  0.5147582E-08  0.3801796E+04  0.7818609E-02  0.8045770E-01
       -2   -1    0    0    0  501  0.00000000000E+00  0.00000000000E+00  0.14819274212E+04  0.14819274212E+04  0.25500000920E-02 0.  1.
        2   -1    0    0  501    0  0.00000000000E+00  0.00000000000E+00 -0.24383198417E+04  0.24383198417E+04  0.25500000920E-02 0. -1.
    10030    2    1    2    0    0  0.00000000000E+00  0.00000000000E+00 -0.95639242056E+03  0.39202472629E+04  0.38017959099E+04 0.  0.
        1    1    3    3  502    0 -0.25517889403E+03  0.72571063121E+03  0.13142497968E+04  0.15228344350E+04  0.50400001928E-02 0.  1.
       -1    1    3    3    0  502  0.25517889403E+03 -0.72571063121E+03 -0.22706422173E+04  0.23974128279E+04  0.50400001928E-02 0. -1.
</event>
<event>
 5   0  0.1628473E-08  0.3808406E+04  0.7818609E-02  0.8044353E-01
        1   -1    0    0  501    0  0.00000000000E+00  0.00000000000E+00  0.20615516632E+04  0.20615516632E+04  0.50400001928E-02 0.  1.
       -1   -1    0    0    0  501  0.00000000000E+00  0.00000000000E+00 -0.17588644494E+04  0.17588644494E+04  0.50400001928E-02 0. -1.
    10030    2    1    2    0    0  0.00000000000E+00  0.00000000000E+00  0.30268721383E+03  0.38204161127E+04  0.38084064547E+04 0.  0.
        3    1    3    3  502    0  0.44109197840E+03 -0.10281611837E+03 -0.17040446871E+04  0.17632077567E+04  0.10100000352E+00 0. -1.
       -3    1    3    3    0  502 -0.44109197840E+03  0.10281611837E+03  0.20067319009E+04  0.20572083560E+04  0.10100000352E+00 0.  1.
</event>
<event>
 5   0  0.1628250E-08  0.3798631E+04  0.7818609E-02  0.8046449E-01
       -1   -1    0    0    0  501  0.00000000000E+00  0.00000000000E+00  0.18126341899E+04  0.18126341899E+04  0.50400001928E-02 0.  1.
        1   -1    0    0  501    0  0.00000000000E+00  0.00000000000E+00 -0.19901419129E+04  0.19901419129E+04  0.50400001928E-02 0. -1.
    10030    2    1    2    0    0  0.00000000000E+00  0.00000000000E+00 -0.17750772293E+03  0.38027761028E+04  0.37986309503E+04 0.  0.
        5    1    3    3  502    0  0.26012633730E+03 -0.68976910830E+03 -0.18410724851E+04  0.19831835819E+04  0.46999998093E+01 0. -1.
       -5    1    3    3    0  502 -0.26012633730E+03  0.68976910830E+03  0.16635647622E+04  0.18195925209E+04  0.46999998093E+01 0.  1.
</event>
<event>
 5   0  0.5147582E-08  0.3795407E+04  0.7818609E-02  0.8047141E-01
       -2   -1    0    0    0  501  0.00000000000E+00  0.00000000000E+00  0.18571847434E+04  0.18571847434E+04  0.25500000920E-02 0.  1.
        2   -1    0    0  501    0  0.00000000000E+00  0.00000000000E+00 -0.19391063011E+04  0.19391063011E+04  0.25500000920E-02 0. -1.
    10030    2    1    2    0    0  0.00000000000E+00  0.00000000000E+00 -0.81921557660E+02  0.37962910445E+04  0.37954070339E+04 0.  0.
        1    1    3    3  502    0 -0.69194240049E+03 -0.14414086847E+04 -0.10633707408E+04  0.19202084820E+04  0.50400001928E-02 0. -1.
       -1    1    3    3    0  502  0.69194240049E+03  0.14414086847E+04  0.98144918315E+03  0.18760825624E+04  0.50400001928E-02 0.  1.
</event>
<event>
 5   0  0.1628250E-08  0.3798146E+04  0.7818609E-02  0.8046553E-01
        1   -1    0    0  501    0  0.00000000000E+00  0.00000000000E+00  0.25540997175E+04  0.25540997175E+04  0.50400001928E-02 0.  1.
       -1   -1    0    0    0  501  0.00000000000E+00  0.00000000000E+00 -0.14120351535E+04  0.14120351535E+04  0.50400001928E-02 0. -1.
    10030    2    1    2    0    0  0.00000000000E+00  0.00000000000E+00  0.11420645640E+04  0.39661348710E+04  0.37981461724E+04 0.  0.
        4    1    3    3  502    0 -0.14303232954E+04 -0.53128070875E+03  0.17517008592E+04  0.23230457236E+04  0.12699999809E+01 0.  1.
       -4    1    3    3    0  502  0.14303232954E+04  0.53128070875E+03 -0.60963629521E+03  0.16430891474E+04  0.12699999809E+01 0. -1.
</event>
<event>
 5   0  0.5140842E-08  0.3808298E+04  0.7818609E-02  0.8044376E-01
       -2   -1    0    0    0  501  0.00000000000E+00  0.00000000000E+00  0.16884990808E+04  0.16884990808E+04  0.25500000920E-02 0.  1.
        2   -1    0    0  501    0  0.00000000000E+00  0.00000000000E+00 -0.21473413711E+04  0.21473413711E+04  0.25500000920E-02 0. -1.
    10030    2    1    2    0    0  0.00000000000E+00  0.00000000000E+00 -0.45884229026E+03  0.38358404519E+04  0.38082982716E+04 0.  0.
        2    1    3    3  502    0  0.81802825788E+03 -0.29970759472E+03 -0.19348258167E+04  0.21219203128E+04  0.25500000920E-02 0. -1.
       -2    1    3    3    0  502 -0.81802825788E+03  0.29970759472E+03  0.14759835264E+04  0.17139201391E+04  0.25500000920E-02 0.  1.
</event>
<event>
 5   0  0.1628250E-08  0.3799971E+04  0.7818609E-02  0.8046161E-01
       -1   -1    0    0    0  501  0.00000000000E+00  0.00000000000E+00  0.12381840723E+04  0.12381840724E+04  0.50400001928E-02 0. -1.
        1   -1    0    0  501    0  0.00000000000E+00  0.00000000000E+00 -0.29155150122E+04  0.29155150122E+04  0.50400001928E-02 0.  1.
    10030    2    1    2    0    0  0.00000000000E+00  0.00000000000E+00 -0.16773309399E+04  0.41536990846E+04  0.37999706582E+04 0.  0.
        1    1    3    3  502    0  0.15432574517E+04  0.59903673440E+03 -0.18579102877E+04  0.24884371016E+04  0.50400001928E-02 0.  1.
       -1    1    3    3    0  502 -0.15432574517E+04 -0.59903673440E+03  0.18057934781E+03  0.16652619830E+04  0.50400001928E-02 0. -1.
</event>
<event>
 5   0  0.1628250E-08  0.3799859E+04  0.7818609E-02  0.8046185E-01
       -1   -1    0    0    0  501  0.00000000000E+00  0.00000000000E+00  0.19599163319E+04  0.19599163319E+04  0.50400001928E-02 0. -1.
        1   -1    0    0  501    0  0.00000000000E+00  0.00000000000E+00 -0.18417787689E+04  0.18417787689E+04  0.50400001928E-02 0.  1.
    10030    2    1    2    0    0  0.00000000000E+00  0.00000000000E+00  0.11813756297E+03  0.38016951008E+04  0.37998590968E+04 0.  0.
        1    1    3    3  502    0  0.10376736511E+04 -0.13861242984E+04  0.84151130402E+03  0.19251619287E+04  0.50400001928E-02 0. -1.
       -1    1    3    3    0  502 -0.10376736511E+04  0.13861242984E+04 -0.72337374105E+03  0.18765331721E+04  0.50400001928E-02 0.  1.
</event>
<event>
 5   0  0.5159761E-08  0.3862422E+04  0.7818609E-02  0.8032890E-01
       -2   -1    0    0    0  501  0.00000000000E+00  0.00000000000E+00  0.13732424643E+04  0.13732424643E+04  0.25500000920E-02 0.  1.
        2   -1    0    0  501    0  0.00000000000E+00  0.00000000000E+00 -0.27158898399E+04  0.27158898399E+04  0.25500000920E-02 0. -1.
    10030    2    1    2    0    0  0.00000000000E+00  0.00000000000E+00 -0.13426473756E+04  0.40891323043E+04  0.38624216531E+04 0.  0.
        5    1    3    3  502    0  0.34442166920E+03 -0.57777590067E+03  0.12452099736E+04  0.14152813310E+04  0.46999998093E+01 0.  1.
       -5    1    3    3    0  502 -0.34442166920E+03  0.57777590067E+03 -0.25878573492E+04  0.26738509733E+04  0.46999998093E+01 0. -1.
</event>
<event>
 5   0  0.1628473E-08  0.3812413E+04  0.7818609E-02  0.8043496E-01
       -1   -1    0    0    0  501  0.00000000000E+00  0.00000000000E+00  0.22095052484E+04  0.22095052484E+04  0.50400001928E-02 0. -1.
        1   -1    0    0  501    0  0.00000000000E+00  0.00000000000E+00 -0.16445417933E+04  0.16445417933E+04  0.50400001928E-02 0.  1.
    10030    2    1    2    0    0  0.00000000000E+00  0.00000000000E+00  0.56496345507E+03  0.38540470417E+04  0.38124132638E+04 0.  0.
        3    1    3    3  502    0 -0.21309001378E+03  0.17470930495E+04 -0.45755235159E+03  0.18185421750E+04  0.10100000352E+00 0.  1.
       -3    1    3    3    0  502  0.21309001378E+03 -0.17470930495E+04  0.10225158067E+04  0.20355048668E+04  0.10100000352E+00 0. -1.
</event>
<event>
 5   0  0.1628250E-08  0.3776434E+04  0.7818609E-02  0.8051231E-01
       -1   -1    0    0    0  501  0.00000000000E+00  0.00000000000E+00  0.16389608995E+04  0.16389608995E+04  0.50400001928E-02 0. -1.
        1   -1    0    0  501    0  0.00000000000E+00  0.00000000000E+00 -0.21753799590E+04  0.21753799590E+04  0.50400001928E-02 0.  1.
    10030    2    1    2    0    0  0.00000000000E+00  0.00000000000E+00 -0.53641905945E+03  0.38143408585E+04  0.37764336056E+04 0.  0.
        5    1    3    3  502    0  0.90046710359E+03  0.52119685475E+03  0.13233144567E+04  0.16833509460E+04  0.46999998093E+01 0. -1.
       -5    1    3    3    0  502 -0.90046710359E+03 -0.52119685475E+03 -0.18597335162E+04  0.21309899125E+04  0.46999998093E+01 0.  1.
</event>
<event>
 5   0  0.5140842E-08  0.3794527E+04  0.7818609E-02  0.8047330E-01
       -2   -1    0    0    0  501  0.00000000000E+00  0.00000000000E+00  0.23652349908E+04  0.23652349908E+04  0.25500000920E-02 0. -1.
        2   -1    0    0  501    0  0.00000000000E+00  0.00000000000E+00 -0.15218817131E+04  0.15218817131E+04  0.25500000920E-02 0.  1.
    10030    2    1    2    0    0  0.00000000000E+00  0.00000000000E+00  0.84335327778E+03  0.38871167039E+04  0.37945265210E+04 0.  0.
        2    1    3    3  502    0 -0.18693244230E+04  0.31399487229E+03  0.50515935691E+03  0.19616708578E+04  0.25500000920E-02 0.  1.
       -2    1    3    3    0  502  0.18693244230E+04 -0.31399487229E+03  0.33819392087E+03  0.19254458461E+04  0.25500000920E-02 0. -1.
</event>
<event>
 5   0  0.5207474E-08  0.3801163E+04  0.7818609E-02  0.8045905E-01
       -2   -1    0    0    0  501  0.00000000000E+00  0.00000000000E+00  0.14861322319E+04  0.14861322319E+04  0.25500000920E-02 0.  1.
        2   -1    0    0  501    0  0.00000000000E+00  0.00000000000E+00 -0.24306115690E+04  0.24306115690E+04  0.25500000920E-02 0. -1.
    10030    2    1    2    0    0  0.00000000000E+00  0.00000000000E+00 -0.94447933710E+03  0.39167438010E+04  0.38011630831E+04 0.  0.
        4    1    3    3  502    0  0.12268760393E+04 -0.13169522107E+04 -0.11012273166E+04  0.21100452973E+04  0.12699999809E+01 0. -1.
       -4    1    3    3    0  502 -0.12268760393E+04  0.13169522107E+04  0.15674797954E+03  0.18066985036E+04  0.12699999809E+01 0.  1.
</event>
<event>
 5   0  0.1628473E-08  0.3801952E+04  0.7818609E-02  0.8045736E-01
        1   -1    0    0  501    0  0.00000000000E+00  0.00000000000E+00  0.12047006347E+04  0.12047006347E+04  0.50400001928E-02 0. -1.
       -1   -1    0    0    0  501  0.00000000000E+00  0.00000000000E+00 -0.29996749294E+04  0.29996749294E+04  0.50400001928E-02 0.  1.
    10030    2    1    2    0    0  0.00000000000E+00  0.00000000000E+00 -0.17949742947E+04  0.42043755641E+04  0.38019522834E+04 0.  0.
        3    1    3    3  502    0 -0.13936444503E+04 -0.41201108030E+02  0.53148214028E+03  0.14921178442E+04  0.10100000352E+00 0. -1.
       -3    1    3    3    0  502  0.13936444503E+04  0.41201108030E+02 -0.23264564350E+04  0.27122577199E+04  0.10100000352E+00 0.  1.
</event>
<event>
 5   0  0.5140842E-08  0.3810141E+04  0.7818609E-02  0.8043982E-01
       -2   -1    0    0    0  501  0.00000000000E+00  0.00000000000E+00  0.31409110340E+04  0.31409110340E+04  0.25500000920E-02 0. -1.
        2   -1    0    0  501    0  0.00000000000E+00  0.00000000000E+00 -0.11554904436E+04  0.11554904436E+04  0.25500000920E-02 0.  1.
    10030    2    1    2    0    0  0.00000000000E+00  0.00000000000E+00  0.19854205904E+04  0.42964014777E+04  0.38101405140E+04 0.  0.
        2    1    3    3  502    0 -0.86785740297E+03  0.87622319929E+03  0.26300361818E+04  0.29048294071E+04  0.25500000920E-02 0. -1.
       -2    1    3    3    0  502  0.86785740297E+03 -0.87622319929E+03 -0.64461559140E+03  0.13915720706E+04  0.25500000920E-02 0.  1.
</event>
<event>
 5   0  0.5207474E-08  0.3801336E+04  0.7818609E-02  0.8045868E-01
       -2   -1    0    0    0  501  0.00000000000E+00  0.00000000000E+00  0.15850078694E+04  0.15850078694E+04  0.25500000920E-02 0.  1.
        2   -1    0    0  501    0  0.00000000000E+00  0.00000000000E+00 -0.22791932612E+04  0.22791932612E+04  0.25500000920E-02 0. -1.
    10030    2    1    2    0    0  0.00000000000E+00  0.00000000000E+00 -0.69418539183E+03  0.38642011306E+04  0.38013362150E+04 0.  0.
        4    1    3    3  502    0  0.15620072167E+04 -0.96185615942E+03  0.15863227481E+03  0.18412494747E+04  0.12699999809E+01 0. -1.
       -4    1    3    3    0  502 -0.15620072167E+04  0.96185615942E+03 -0.85281766664E+03  0.20229516559E+04  0.12699999809E+01 0.  1.
</event>
<event>
 5   0  0.5086209E-08  0.3796471E+04  0.7818609E-02  0.8046913E-01
       -2   -1    0    0    0  501  0.00000000000E+00  0.00000000000E+00  0.13343503908E+04  0.13343503908E+04  0.25500000920E-02 0. -1.
        2   -1    0    0  501    0  0.00000000000E+00  0.00000000000E+00 -0.27004139305E+04  0.27004139305E+04  0.25500000920E-02 0.  1.
    10030    2    1    2    0    0  0.00000000000E+00  0.00000000000E+00 -0.13660635397E+04  0.40347643213E+04  0.37964711950E+04 0.  0.
        3    1    3    3  502    0  0.68118427213E+03  0.56020032455E+03 -0.24694485718E+04  0.26222152229E+04  0.10100000352E+00 0.  1.
       -3    1    3    3    0  502 -0.68118427213E+03 -0.56020032455E+03  0.11033850321E+04  0.14125490984E+04  0.10100000352E+00 0. -1.
</event>
<event>
 5   0  0.1628250E-08  0.3788311E+04  0.7818609E-02  0.8048668E-01
       -1   -1    0    0    0  501  0.00000000000E+00  0.00000000000E+00  0.28066825185E+04  0.28066825185E+04  0.50400001928E-02 0. -1.
        1   -1    0    0  501    0  0.00000000000E+00  0.00000000000E+00 -0.12783153236E+04  0.12783153236E+04  0.50400001928E-02 0.  1.
    10030    2    1    2    0    0  0.00000000000E+00  0.00000000000E+00  0.15283671949E+04  0.40849978421E+04  0.37883111129E+04 0.  0.
        5    1    3    3  502    0 -0.57343785864E+02 -0.56569245583E+03 -0.11841126323E+04  0.13135604593E+04  0.46999998093E+01 0.  1.
       -5    1    3    3    0  502  0.57343785864E+02  0.56569245583E+03  0.27124798271E+04  0.27714373828E+04  0.46999998093E+01 0. -1.
</event>
<event>
 5   0  0.5140842E-08  0.3795304E+04  0.7818609E-02  0.8047163E-01
       -2   -1    0    0    0  501  0.00000000000E+00  0.00000000000E+00  0.17742816419E+04  0.17742816419E+04  0.25500000920E-02 0.  1.
        2   -1    0    0  501    0  0.00000000000E+00  0.00000000000E+00 -0.20296001332E+04  0.20296001332E+04  0.25500000920E-02 0. -1.
    10030    2    1    2    0    0  0.00000000000E+00  0.00000000000E+00 -0.25531849136E+03  0.38038817751E+04  0.37953035487E+04 0.  0.
        2    1    3    3  502    0  0.12464787744E+04 -0.55194228277E+03  0.11954505247E+04  0.18131330827E+04  0.25500000920E-02 0.  1.
       -2    1    3    3    0  502 -0.12464787744E+04  0.55194228277E+03 -0.14507690160E+04  0.19907486924E+04  0.25500000920E-02 0. -1.
</event>
<event>
 5   0  0.1628250E-08  0.3805739E+04  0.7818609E-02  0.8044924E-01
       -1   -1    0    0    0  501  0.00000000000E+00  0.00000000000E+00  0.17204618299E+04  0.17204618299E+04  0.50400001928E-02 0.  1.
        1   -1    0    0  501    0  0.00000000000E+00  0.00000000000E+00 -0.21046162159E+04  0.21046162159E+04  0.50400001928E-02 0. -1.
    10030    2    1    2    0    0  0.00000000000E+00  0.00000000000E+00 -0.38415438602E+03  0.38250780457E+04  0.38057387540E+04 0.  0.
        4    1    3    3  502    0  0.18285897824E+04 -0.52039762277E+03 -0.11194769520E+03  0.19044915797E+04  0.12699999809E+01 0.  1.
       -4    1    3    3    0  502 -0.18285897824E+04  0.52039762277E+03 -0.27220669082E+03  0.19205864660E+04  0.12699999809E+01 0. -1.
</event>
<event>
 5   0  0.5140842E-08  0.3789513E+04  0.7818609E-02  0.8048409E-01
       -2   -1    0    0    0  501  0.00000000000E+00  0.00000000000E+00  0.16729649612E+04  0.16729649612E+04  0.25500000920E-02 0. -1.
        2   -1    0    0  501    0  0.00000000000E+00  0.00000000000E+00 -0.21459520060E+04  0.21459520060E+04  0.25500000920E-02 0.  1.
    10030    2    1    2    0    0  0.00000000000E+00  0.00000000000E+00 -0.47298704480E+03  0.38189169672E+04  0.37895131689E+04 0.  0.
        2    1    3    3  502    0 -0.10785706938E+03 -0.13174751314E+04 -0.16044979050E+04  0.20788909053E+04  0.25500000920E-02 0.  1.
       -2    1    3    3    0  502  0.10785706938E+03  0.13174751314E+04  0.11315108602E+04  0.17400260618E+04  0.25500000920E-02 0. -1.
</event>
<event>
 5   0  0.1628250E-08  0.3792371E+04  0.7818609E-02  0.8047794E-01
       -1   -1    0    0    0  501  0.00000000000E+00  0.00000000000E+00  0.19924661330E+04  0.19924661330E+04  0.50400001928E-02 0.  1.
        1   -1    0    0  501    0  0.00000000000E+00  0.00000000000E+00 -0.18045571928E+04  0.18045571928E+04  0.50400001928E-02 0. -1.
    10030    2    1    2    0    0  0.00000000000E+00  0.00000000000E+00  0.18790894015E+03  0.37970233258E+04  0.37923708109E+04 0.  0.
        5    1    3    3  502    0 -0.13299703843E+04  0.85477580321E+03  0.11421553113E+04  0.19503855368E+04  0.46999998093E+01 0.  1.
       -5    1    3    3    0  502  0.13299703843E+04 -0.85477580321E+03 -0.95424637119E+03  0.18466377890E+04  0.46999998093E+01 0. -1.
</event>
<event>
 5   0  0.1628250E-08  0.3789704E+04  0.7818609E-02  0.8048368E-01
        1   -1    0    0  501    0  0.00000000000E+00  0.00000000000E+00  0.20300718785E+04  0.20300718785E+04  0.50400001928E-02 0.  1.
       -1   -1    0    0    0  501  0.00000000000E+00  0.00000000000E+00 -0.17686387689E+04  0.17686387689E+04  0.50400001928E-02 0. -1.
    10030    2    1    2    0    0  0.00000000000E+00  0.00000000000E+00  0.26143310967E+03  0.37987106474E+04  0.37897038555E+04 0.  0.
        5    1    3    3  502    0 -0.33101000258E+03  0.17696064306E+04  0.72319424730E+03  0.19401305498E+04  0.46999998093E+01 0.  1.
       -5    1    3    3    0  502  0.33101000258E+03 -0.17696064306E+04 -0.46176113763E+03  0.18585800976E+04  0.46999998093E+01 0. -1.
</event>
<event>
 5   0  0.1628473E-08  0.3795360E+04  0.7818609E-02  0.8047151E-01
        1   -1    0    0  501    0  0.00000000000E+00  0.00000000000E+00  0.17006171311E+04  0.17006171311E+04  0.50400001928E-02 0. -1.
       -1   -1    0    0    0  501  0.00000000000E+00  0.00000000000E+00 -0.21175783404E+04  0.21175783404E+04  0.50400001928E-02 0.  1.
    10030    2    1    2    0    0  0.00000000000E+00  0.00000000000E+00 -0.41696120935E+03  0.38181954716E+04  0.37953603266E+04 0.  0.
        3    1    3    3  502    0  0.21076505045E+03 -0.78158032564E+02  0.16871759298E+04  0.17020849605E+04  0.10100000352E+00 0. -1.
       -3    1    3    3    0  502 -0.21076505045E+03  0.78158032564E+02 -0.21041371391E+04  0.21161105111E+04  0.10100000352E+00 0.  1.
</event>
<event>
 5   0  0.1666051E-08  0.3804010E+04  0.7818609E-02  0.8045295E-01
        1   -1    0    0  501    0  0.00000000000E+00  0.00000000000E+00  0.22638694604E+04  0.22638694604E+04  0.50400001928E-02 0.  1.
       -1   -1    0    0    0  501  0.00000000000E+00  0.00000000000E+00 -0.15979820429E+04  0.15979820429E+04  0.50400001928E-02 0. -1.
    10030    2    1    2    0    0  0.00000000000E+00  0.00000000000E+00  0.66588741753E+03  0.38618515033E+04  0.38040098555E+04 0.  0.
        2    1    3    3  502    0 -0.18077563473E+04 -0.41757605662E+03 -0.92074653912E+02  0.18576411161E+04  0.25500000920E-02 0. -1.
       -2    1    3    3    0  502  0.18077563473E+04  0.41757605662E+03  0.75796207144E+03  0.20042103872E+04  0.25500000920E-02 0.  1.
</event>
<event>
 5   0  0.5159761E-08  0.3801774E+04  0.7818609E-02  0.8045774E-01
        2   -1    0    0  501    0  0.00000000000E+00  0.00000000000E+00  0.17755114991E+04  0.17755114991E+04  0.25500000920E-02 0. -1.
       -2   -1    0    0    0  501  0.00000000000E+00  0.00000000000E+00 -0.20351157245E+04  0.20351157245E+04  0.25500000920E-02 0.  1.
    10030    2    1    2    0    0  0.00000000000E+00  0.00000000000E+00 -0.25960422534E+03  0.38106272236E+04  0.38017739916E+04 0.  0.
        5    1    3    3  502    0 -0.93817299322E+03  0.95083406999E+03 -0.14853920483E+04  0.19976650423E+04  0.46999998093E+01 0.  1.
       -5    1    3    3    0  502  0.93817299322E+03 -0.95083406999E+03  0.12257878230E+04  0.18129621813E+04  0.46999998093E+01 0. -1.
</event>
<event>
 5   0  0.1628250E-08  0.3797949E+04  0.7818609E-02  0.8046595E-01
        1   -1    0    0  501    0  0.00000000000E+00  0.00000000000E+00  0.12300554117E+04  0.12300554117E+04  0.50400001928E-02 0. -1.
       -1   -1    0    0    0  501  0.00000000000E+00  0.00000000000E+00 -0.29316606684E+04  0.29316606684E+04  0.50400001928E-02 0.  1.
    10030    2    1    2    0    0  0.00000000000E+00  0.00000000000E+00 -0.17016052567E+04  0.41617160800E+04  0.37979494838E+04 0.  0.
        4    1    3    3  502    0  0.16194377024E+04  0.69511864381E+03 -0.75709777383E+02  0.17639450060E+04  0.12699999809E+01 0. -1.
       -4    1    3    3    0  502 -0.16194377024E+04 -0.69511864381E+03 -0.16258954793E+04  0.23977710740E+04  0.12699999809E+01 0.  1.
</event>
<event>
 5   0  0.1628250E-08  0.3821066E+04  0.7818609E-02  0.8041649E-01
       -1   -1    0    0    0  501  0.00000000000E+00  0.00000000000E+00  0.20200510811E+04  0.20200510811E+04  0.50400001928E-02 0. -1.
        1   -1    0    0  501    0  0.00000000000E+00  0.00000000000E+00 -0.18069526406E+04  0.18069526406E+04  0.50400001928E-02 0.  1.
    10030    2    1    2    0    0  0.00000000000E+00  0.00000000000E+00  0.21309844053E+03  0.38270037217E+04  0.38210661523E+04 0.  0.
        5    1    3    3  502    0  0.30091385735E+03 -0.37226081998E+03 -0.17459159773E+04  0.18103513354E+04  0.46999998093E+01 0.  1.
       -5    1    3    3    0  502 -0.30091385735E+03  0.37226081998E+03  0.19590144179E+04  0.20166523863E+04  0.46999998093E+01 0. -1.
</event>
<event>
 5   0  0.5140842E-08  0.3880501E+04  0.7818609E-02  0.8029097E-01
        2   -1    0    0  501    0  0.00000000000E+00  0.00000000000E+00  0.22008472387E+04  0.22008472387E+04  0.25500000920E-02 0. -1.
       -2   -1    0    0    0  501  0.00000000000E+00  0.00000000000E+00 -0.17105105189E+04  0.17105105189E+04  0.25500000920E-02 0.  1.
    10030    2    1    2    0    0  0.00000000000E+00  0.00000000000E+00  0.49033671980E+03  0.39113577576E+04  0.38805011801E+04 0.  0.
        2    1    3    3  502    0  0.75109363653E+03 -0.15069210385E+04 -0.72666628470E+03  0.18338474736E+04  0.25500000920E-02 0. -1.
       -2    1    3    3    0  502 -0.75109363653E+03  0.15069210385E+04  0.12170030045E+04  0.20775102840E+04  0.25500000920E-02 0.  1.
</event>
<event>
 5   0  0.1666051E-08  0.3758014E+04  0.7818609E-02  0.8055226E-01
       -1   -1    0    0    0  501  0.00000000000E+00  0.00000000000E+00  0.12085864314E+04  0.12085864314E+04  0.50400001928E-02 0.  1.
        1   -1    0    0  501    0  0.00000000000E+00  0.00000000000E+00 -0.29213191193E+04  0.29213191194E+04  0.50400001928E-02 0. -1.
    10030    2    1    2    0    0  0.00000000000E+00  0.00000000000E+00 -0.17127326879E+04  0.41299055508E+04  0.37580136506E+04 0.  0.
        2    1    3    3  502    0  0.59218139410E+03 -0.96645622968E+01 -0.28160596907E+04  0.28776664832E+04  0.25500000920E-02 0. -1.
       -2    1    3    3    0  502 -0.59218139410E+03  0.96645622968E+01  0.11033270027E+04  0.12522390675E+04  0.25500000920E-02 0.  1.
</event>
<event>
 5   0  0.5159761E-08  0.3787483E+04  0.7818609E-02  0.8048846E-01
        2   -1    0    0  501    0  0.00000000000E+00  0.00000000000E+00  0.25341598383E+04  0.25341598383E+04  0.25500000920E-02 0. -1.
       -2   -1    0    0    0  501  0.00000000000E+00  0.00000000000E+00 -0.14151658354E+04  0.14151658354E+04  0.25500000920E-02 0.  1.
    10030    2    1    2    0    0  0.00000000000E+00  0.00000000000E+00  0.11189940029E+04  0.39493256737E+04  0.37874827654E+04 0.  0.
        5    1    3    3  502    0 -0.15758824738E+04  0.98907060821E+03  0.92752062327E+03  0.20789379106E+04  0.46999998093E+01 0. -1.
       -5    1    3    3    0  502  0.15758824738E+04 -0.98907060821E+03  0.19147337965E+03  0.18703877631E+04  0.46999998093E+01 0.  1.
</event>
<event>
 5   0  0.1628250E-08  0.3797597E+04  0.7818609E-02  0.8046671E-01
        1   -1    0    0  501    0  0.00000000000E+00  0.00000000000E+00  0.25079496214E+04  0.25079496214E+04  0.50400001928E-02 0. -1.
       -1   -1    0    0    0  501  0.00000000000E+00  0.00000000000E+00 -0.14376032471E+04  0.14376032472E+04  0.50400001928E-02 0.  1.
    10030    2    1    2    0    0  0.00000000000E+00  0.00000000000E+00  0.10703463743E+04  0.39455528686E+04  0.37975974086E+04 0.  0.
        1    1    3    3  502    0 -0.21603188882E+03 -0.84106193505E+03  0.22895650865E+04  0.24487064423E+04  0.50400001928E-02 0. -1.
       -1    1    3    3    0  502  0.21603188882E+03  0.84106193505E+03 -0.12192187122E+04  0.14968464262E+04  0.50400001928E-02 0.  1.
</event>
<event>
 5   0  0.5086209E-08  0.3800904E+04  0.7818609E-02  0.8045961E-01
        2   -1    0    0  501    0  0.00000000000E+00  0.00000000000E+00  0.14083769824E+04  0.14083769824E+04  0.25500000920E-02 0. -1.
       -2   -1    0    0    0  501  0.00000000000E+00  0.00000000000E+00 -0.25644539986E+04  0.25644539986E+04  0.25500000920E-02 0.  1.
    10030    2    1    2    0    0  0.00000000000E+00  0.00000000000E+00 -0.11560770162E+04  0.39728309809E+04  0.38009040945E+04 0.  0.
        3    1    3    3  502    0  0.10344766188E+04 -0.13688714085E+04  0.27609489799E+03  0.17378662810E+04  0.10100000352E+00 0. -1.
       -3    1    3    3    0  502 -0.10344766188E+04  0.13688714085E+04 -0.14321719142E+04  0.22349646999E+04  0.10100000352E+00 0.  1.
</event>
<event>
 5   0  0.5159761E-08  0.3802669E+04  0.7818609E-02  0.8045582E-01
       -2   -1    0    0    0  501  0.00000000000E+00  0.00000000000E+00  0.18312607413E+04  0.18312607413E+04  0.25500000920E-02 0.  1.
        2   -1    0    0  501    0  0.00000000000E+00  0.00000000000E+00 -0.19740893930E+04  0.19740893930E+04  0.25500000920E-02 0. -1.
    10030    2    1    2    0    0  0.00000000000E+00  0.00000000000E+00 -0.14282865171E+03  0.38053501343E+04  0.38026687498E+04 0.  0.
        5    1    3    3  502    0 -0.28213441041E+03  0.13535035804E+04 -0.13775084074E+04  0.19516975355E+04  0.46999998093E+01 0. -1.
       -5    1    3    3    0  502  0.28213441041E+03 -0.13535035804E+04  0.12346797557E+04  0.18536525988E+04  0.46999998093E+01 0.  1.
</event>
<event>
 5   0  0.1628250E-08  0.3782993E+04  0.7818609E-02  0.8049814E-01
       -1   -1    0    0    0  501  0.00000000000E+00  0.00000000000E+00  0.20148202747E+04  0.20148202747E+04  0.50400001928E-02 0.  1.
        1   -1    0    0  501    0  0.00000000000E+00  0.00000000000E+00 -0.17757216047E+04  0.17757216047E+04  0.50400001928E-02 0. -1.
    10030    2    1    2    0    0  0.00000000000E+00  0.00000000000E+00  0.23909867001E+03  0.37905418794E+04  0.37829934662E+04 0.  0.
        1    1    3    3  502    0 -0.13357109743E+04 -0.12320109058E+04 -0.40665109165E+03  0.18620794261E+04  0.50400001928E-02 0. -1.
       -1    1    3    3    0  502  0.13357109743E+04  0.12320109058E+04  0.64574976166E+03  0.19284624532E+04  0.50400001928E-02 0.  1.
</event>
<event>
 5   0  0.5140842E-08  0.3800303E+04  0.7818609E-02  0.8046090E-01
       -2   -1    0    0    0  501  0.00000000000E+00  0.00000000000E+00  0.15016628686E+04  0.15016628686E+04  0.25500000920E-02 0.  1.
        2   -1    0    0  501    0  0.00000000000E+00  0.00000000000E+00 -0.24043852082E+04  0.24043852082E+04  0.25500000920E-02 0. -1.
    10030    2    1    2    0    0  0.00000000000E+00  0.00000000000E+00 -0.90272233969E+03  0.39060480768E+04  0.38003031400E+04 0.  0.
        2    1    3    3  502    0  0.45774306792E+02 -0.14228065890E+03 -0.23983340352E+04  0.24029867285E+04  0.25500000920E-02 0. -1.
       -2    1    3    3    0  502 -0.45774306792E+02  0.14228065890E+03  0.14956116955E+04  0.15030613483E+04  0.25500000920E-02 0.  1.
</event>
<event>
 5   0  0.5159761E-08  0.3800817E+04  0.7818609E-02  0.8045980E-01
        2   -1    0    0  501    0  0.00000000000E+00  0.00000000000E+00  0.11511029536E+04  0.11511029536E+04  0.25500000920E-02 0. -1.
       -2   -1    0    0    0  501  0.00000000000E+00  0.00000000000E+00 -0.31374715366E+04  0.31374715366E+04  0.25500000920E-02 0.  1.
    10030    2    1    2    0    0  0.00000000000E+00  0.00000000000E+00 -0.19863685830E+04  0.42885744901E+04  0.38008171503E+04 0.  0.
        5    1    3    3  502    0 -0.15961025494E+03 -0.14505867194E+04 -0.23667157198E+04  0.27804752565E+04  0.46999998093E+01 0.  1.
       -5    1    3    3    0  502  0.15961025494E+03  0.14505867194E+04  0.38034713675E+03  0.15080992336E+04  0.46999998093E+01 0. -1.
</event>
<event>
 5   0  0.1628250E-08  0.3796817E+04  0.7818609E-02  0.8046838E-01
       -1   -1    0    0    0  501  0.00000000000E+00  0.00000000000E+00  0.18423128166E+04  0.18423128166E+04  0.50400001928E-02 0. -1.
        1   -1    0    0  501    0  0.00000000000E+00  0.00000000000E+00 -0.19562121544E+04  0.19562121544E+04  0.50400001928E-02 0.  1.
    10030    2    1    2    0    0  0.00000000000E+00  0.00000000000E+00 -0.11389933782E+03  0.37985249710E+04  0.37968169426E+04 0.  0.
        4    1    3    3  502    0 -0.86270182721E+03 -0.13607348458E+04 -0.10614428520E+04  0.19293823634E+04  0.12699999809E+01 0.  1.
       -4    1    3    3    0  502  0.86270182721E+03  0.13607348458E+04  0.94754351422E+03  0.18691426076E+04  0.12699999809E+01 0. -1.
</event>
<event>
 5   0  0.5159761E-08  0.3800012E+04  0.7818609E-02  0.8046152E-01
        2   -1    0    0  501    0  0.00000000000E+00  0.00000000000E+00  0.13483731959E+04  0.13483731959E+04  0.25500000920E-02 0. -1.
       -2   -1    0    0    0  501  0.00000000000E+00  0.00000000000E+00 -0.26773168307E+04  0.26773168307E+04  0.25500000920E-02 0.  1.
    10030    2    1    2    0    0  0.00000000000E+00  0.00000000000E+00 -0.13289436347E+04  0.40256900266E+04  0.38000117113E+04 0.  0.
        5    1    3    3  502    0  0.31715218098E+03  0.11713023678E+04  0.88436243754E+03  0.15015504500E+04  0.46999998093E+01 0.  1.
       -5    1    3    3    0  502 -0.31715218098E+03 -0.11713023678E+04 -0.22133060723E+04  0.25241395767E+04  0.46999998093E+01 0. -1.
</event>
<event>
 5   0  0.1628250E-08  0.3780640E+04  0.7818609E-02  0.8050322E-01
        1   -1    0    0  501    0  0.00000000000E+00  0.00000000000E+00  0.20397484288E+04  0.20397484288E+04  0.50400001928E-02 0.  1.
       -1   -1    0    0    0  501  0.00000000000E+00  0.00000000000E+00 -0.17518382467E+04  0.17518382467E+04  0.50400001928E-02 0. -1.
    10030    2    1    2    0    0  0.00000000000E+00  0.00000000000E+00  0.28791018203E+03  0.37915866755E+04  0.37806397931E+04 0.  0.
        4    1    3    3  502    0  0.21913152314E+03  0.18770341933E+04  0.18916011104E+03  0.18992259338E+04  0.12699999809E+01 0.  1.
       -4    1    3    3    0  502 -0.21913152314E+03 -0.18770341933E+04  0.98750070999E+02  0.18923607417E+04  0.12699999809E+01 0. -1.
</event>
<event>
 5   0  0.1628250E-08  0.3795674E+04  0.7818609E-02  0.8047084E-01
        1   -1    0    0  501    0  0.00000000000E+00  0.00000000000E+00  0.26128410880E+04  0.26128410880E+04  0.50400001928E-02 0. -1.
       -1   -1    0    0    0  501  0.00000000000E+00  0.00000000000E+00 -0.13784940956E+04  0.13784940956E+04  0.50400001928E-02 0.  1.
    10030    2    1    2    0    0  0.00000000000E+00  0.00000000000E+00  0.12343469924E+04  0.39913351836E+04  0.37956743867E+04 0.  0.
        5    1    3    3  502    0 -0.13440404419E+04  0.10848622662E+04 -0.20974281846E+03  0.17399382133E+04  0.46999998093E+01 0.  1.
       -5    1    3    3    0  502  0.13440404419E+04 -0.10848622662E+04  0.14440898109E+04  0.22513969703E+04  0.46999998093E+01 0. -1.
</event>
<event>
 5   0  0.1628250E-08  0.3800958E+04  0.7818609E-02  0.8045949E-01
        1   -1    0    0  501    0  0.00000000000E+00  0.00000000000E+00  0.22655885897E+04  0.22655885897E+04  0.50400001928E-02 0. -1.
       -1   -1    0    0    0  501  0.00000000000E+00  0.00000000000E+00 -0.15942083668E+04  0.15942083668E+04  0.50400001928E-02 0.  1.
    10030    2    1    2    0    0  0.00000000000E+00  0.00000000000E+00  0.67138022292E+03  0.38597969565E+04  0.38009579242E+04 0.  0.
        5    1    3    3  502    0 -0.16284588886E+04 -0.60260042996E+03 -0.44879209848E+03  0.17934441914E+04  0.46999998093E+01 0.  1.
       -5    1    3    3    0  502  0.16284588886E+04  0.60260042996E+03  0.11201723214E+04  0.20663527651E+04  0.46999998093E+01 0. -1.
</event>
<event>
 5   0  0.5086209E-08  0.3804836E+04  0.7818609E-02  0.8045118E-01
       -2   -1    0    0    0  501  0.00000000000E+00  0.00000000000E+00  0.16760820333E+04  0.16760820333E+04  0.25500000920E-02 0. -1.
        2   -1    0    0  501    0  0.00000000000E+00  0.00000000000E+00 -0.21593176911E+04  0.21593176911E+04  0.25500000920E-02 0.  1.
    10030    2    1    2    0    0  0.00000000000E+00  0.00000000000E+00 -0.48323565777E+03  0.38353997245E+04  0.38048356529E+04 0.  0.
        3    1    3    3  502    0 -0.41211864233E+03 -0.77353786536E+03 -0.19436691509E+04  0.21321473643E+04  0.10100000352E+00 0.  1.
       -3    1    3    3    0  502  0.41211864233E+03  0.77353786536E+03  0.14604334931E+04  0.17032523602E+04  0.10100000352E+00 0. -1.
</event>
<event>
 5   0  0.1628250E-08  0.3833948E+04  0.7818609E-02  0.8038909E-01
       -1   -1    0    0    0  501  0.00000000000E+00  0.00000000000E+00  0.16971451019E+04  0.16971451019E+04  0.50400001928E-02 0. -1.
        1   -1    0    0  501    0  0.00000000000E+00  0.00000000000E+00 -0.21652771085E+04  0.21652771085E+04  0.50400001928E-02 0.  1.
    10030    2    1    2    0    0  0.00000000000E+00  0.00000000000E+00 -0.46813200663E+03  0.38624222105E+04  0.38339480638E+04 0.  0.
        5    1    3    3  502    0 -0.77244738251E+03 -0.65532464615E+03  0.14054858292E+04  0.17324946917E+04  0.46999998093E+01 0. -1.
       -5    1    3    3    0  502  0.77244738251E+03  0.65532464615E+03 -0.18736178358E+04  0.21299275188E+04  0.46999998093E+01 0.  1.
</event>
<event>
 5   0  0.1628250E-08  0.3774557E+04  0.7818609E-02  0.8051637E-01
        1   -1    0    0  501    0  0.00000000000E+00  0.00000000000E+00  0.16867824693E+04  0.16867824693E+04  0.50400001928E-02 0.  1.
       -1   -1    0    0    0  501  0.00000000000E+00  0.00000000000E+00 -0.21116063464E+04  0.21116063464E+04  0.50400001928E-02 0. -1.
    10030    2    1    2    0    0  0.00000000000E+00  0.00000000000E+00 -0.42482387711E+03  0.37983888158E+04  0.37745572282E+04 0.  0.
        5    1    3    3  502    0  0.17419048660E+04 -0.72099853754E+03 -0.12395344531E+03  0.18893009289E+04  0.46999998093E+01 0.  1.
       -5    1    3    3    0  502 -0.17419048660E+04  0.72099853754E+03 -0.30087043180E+03  0.19090878869E+04  0.46999998093E+01 0. -1.
</event>
<event>
 5   0  0.5086209E-08  0.3799425E+04  0.7818609E-02  0.8046278E-01
        2   -1    0    0  501    0  0.00000000000E+00  0.00000000000E+00  0.31838932381E+04  0.31838932381E+04  0.25500000920E-02 0.  1.
       -2   -1    0    0    0  501  0.00000000000E+00  0.00000000000E+00 -0.11334886279E+04  0.11334886279E+04  0.25500000920E-02 0. -1.
    10030    2    1    2    0    0  0.00000000000E+00  0.00000000000E+00  0.20504046102E+04  0.43173818660E+04  0.37994245763E+04 0.  0.
        3    1    3    3  502    0  0.82166125808E+03  0.38056512814E+03  0.29228822960E+04  0.30599343075E+04  0.10100000352E+00 0.  1.
       -3    1    3    3    0  502 -0.82166125808E+03 -0.38056512814E+03 -0.87247768580E+03  0.12574475584E+04  0.10100000352E+00 0. -1.
</event>
<event>
 5   0  0.5147582E-08  0.3815177E+04  0.7818609E-02  0.8042906E-01
       -2   -1    0    0    0  501  0.00000000000E+00  0.00000000000E+00  0.11943573831E+04  0.11943573831E+04  0.25500000920E-02 0. -1.
        2   -1    0    0  501    0  0.00000000000E+00  0.00000000000E+00 -0.30467386315E+04  0.30467386315E+04  0.25500000920E-02 0.  1.
    10030    2    1    2    0    0  0.00000000000E+00  0.00000000000E+00 -0.18523812483E+04  0.42410960146E+04  0.38151774684E+04 0.  0.
        1    1    3    3  502    0 -0.16024809111E+04 -0.77151666832E+03 -0.16929079799E+04  0.24554267386E+04  0.50400001928E-02 0.  1.
       -1    1    3    3    0  502  0.16024809111E+04  0.77151666832E+03 -0.15947326841E+03  0.17856692760E+04  0.50400001928E-02 0. -1.
</event>
<event>
 5   0  0.5207474E-08  0.3799123E+04  0.7818609E-02  0.8046343E-01
       -2   -1    0    0    0  501  0.00000000000E+00  0.00000000000E+00  0.13726180739E+04  0.13726180739E+04  0.25500000920E-02 0. -1.
        2   -1    0    0  501    0  0.00000000000E+00  0.00000000000E+00 -0.26287971504E+04  0.26287971504E+04  0.25500000920E-02 0.  1.
    10030    2    1    2    0    0  0.00000000000E+00  0.00000000000E+00 -0.12561790765E+04  0.40014152242E+04  0.37991233100E+04 0.  0.
        4    1    3    3  502    0 -0.43646986213E+00  0.91447485859E+03  0.11255171864E+04  0.14501913692E+04  0.12699999809E+01 0. -1.
       -4    1    3    3    0  502  0.43646986213E+00 -0.91447485859E+03 -0.23816962628E+04  0.25512238551E+04  0.12699999809E+01 0.  1.
</event>
<event>
 5   0  0.1666051E-08  0.3806767E+04  0.7818609E-02  0.8044704E-01
       -1   -1    0    0    0  501  0.00000000000E+00  0.00000000000E+00  0.28926259073E+04  0.28926259073E+04  0.50400001928E-02 0.  1.
        1   -1    0    0  501    0  0.00000000000E+00  0.00000000000E+00 -0.12524499588E+04  0.12524499588E+04  0.50400001928E-02 0. -1.
    10030    2    1    2    0    0  0.00000000000E+00  0.00000000000E+00  0.16401759485E+04  0.41450758661E+04  0.38067672366E+04 0.  0.
        2    1    3    3  502    0  0.12910036223E+04 -0.59067248146E+03  0.22005440372E+04  0.26187742157E+04  0.25500000920E-02 0.  1.
       -2    1    3    3    0  502 -0.12910036223E+04  0.59067248146E+03 -0.56036808868E+03  0.15263016504E+04  0.25500000920E-02 0. -1.
</event>
<event>
 5   0  0.5159761E-08  0.3806101E+04  0.7818609E-02  0.8044847E-01
        2   -1    0    0  501    0  0.00000000000E+00  0.00000000000E+00  0.25061997695E+04  0.25061997695E+04  0.25500000920E-02 0. -1.
       -2   -1    0    0    0  501  0.00000000000E+00  0.00000000000E+00 -0.14450566838E+04  0.14450566838E+04  0.25500000920E-02 0.  1.
    10030    2    1    2    0    0  0.00000000000E+00  0.00000000000E+00  0.10611430856E+04  0.39512564533E+04  0.38061007490E+04 0.  0.
        5    1    3    3  502    0 -0.83919140749E+03  0.34105181975E+03  0.22680244772E+04  0.24422357956E+04  0.46999998093E+01 0. -1.
       -5    1    3    3    0  502  0.83919140749E+03 -0.34105181975E+03 -0.12068813915E+04  0.15090206577E+04  0.46999998093E+01 0.  1.
</event>
<event>
 5   0  0.1628250E-08  0.3803626E+04  0.7818609E-02  0.8045377E-01
       -1   -1    0    0    0  501  0.00000000000E+00  0.00000000000E+00  0.12975244191E+04  0.12975244191E+04  0.50400001928E-02 0. -1.
        1   -1    0    0  501    0  0.00000000000E+00  0.00000000000E+00 -0.27875337461E+04  0.27875337461E+04  0.50400001928E-02 0.  1.
    10030    2    1    2    0    0  0.00000000000E+00  0.00000000000E+00 -0.14900093269E+04  0.40850581652E+04  0.38036262196E+04 0.  0.
        4    1    3    3  502    0 -0.13954440696E+04 -0.89604249822E+03 -0.17448748633E+04  0.24072279102E+04  0.12699999809E+01 0.  1.
       -4    1    3    3    0  502  0.13954440696E+04  0.89604249822E+03  0.25486553632E+03  0.16778302550E+04  0.12699999809E+01 0. -1.
</event>
<event>
 5   0  0.5147582E-08  0.3798040E+04  0.7818609E-02  0.8046576E-01
        2   -1    0    0  501    0  0.00000000000E+00  0.00000000000E+00  0.18848286862E+04  0.18848286862E+04  0.25500000920E-02 0. -1.
       -2   -1    0    0    0  501  0.00000000000E+00  0.00000000000E+00 -0.19133183232E+04  0.19133183232E+04  0.25500000920E-02 0.  1.
    10030    2    1    2    0    0  0.00000000000E+00  0.00000000000E+00 -0.28489637055E+02  0.37981470094E+04  0.37980401585E+04 0.  0.
        1    1    3    3  502    0 -0.32502948589E+03 -0.10163378659E+04  0.15566877984E+04  0.18872900482E+04  0.50400001928E-02 0. -1.
       -1    1    3    3    0  502  0.32502948589E+03  0.10163378659E+04 -0.15851774354E+04  0.19108569612E+04  0.50400001928E-02 0.  1.
</event>
<event>
 5   0  0.5159761E-08  0.3816198E+04  0.7818609E-02  0.8042688E-01
        2   -1    0    0  501    0  0.00000000000E+00  0.00000000000E+00  0.18554202109E+04  0.18554202109E+04  0.25500000920E-02 0. -1.
       -2   -1    0    0    0  501  0.00000000000E+00  0.00000000000E+00 -0.19622733322E+04  0.19622733322E+04  0.25500000920E-02 0.  1.
    10030    2    1    2    0    0  0.00000000000E+00  0.00000000000E+00 -0.10685312125E+03  0.38176935431E+04  0.38161978984E+04 0.  0.
        5    1    3    3  502    0 -0.17440667604E+04 -0.55779837571E+03 -0.59021081712E+03  0.19238707835E+04  0.46999998093E+01 0.  1.
       -5    1    3    3    0  502  0.17440667604E+04  0.55779837571E+03  0.48335769588E+03  0.18938227596E+04  0.46999998093E+01 0. -1.
</event>
<event>
 5   0  0.5140842E-08  0.3809042E+04  0.7818609E-02  0.8044217E-01
       -2   -1    0    0    0  501  0.00000000000E+00  0.00000000000E+00  0.15790384198E+04  0.15790384198E+04  0.25500000920E-02 0. -1.
        2   -1    0    0  501    0  0.00000000000E+00  0.00000000000E+00 -0.22970948006E+04  0.22970948006E+04  0.25500000920E-02 0.  1.
    10030    2    1    2    0    0  0.00000000000E+00  0.00000000000E+00 -0.71805638082E+03  0.38761332205E+04  0.38090423700E+04 0.  0.
        2    1    3    3  502    0  0.12010383916E+03  0.16895560537E+04 -0.12450981421E+04  0.21022116864E+04  0.25500000920E-02 0.  1.
       -2    1    3    3    0  502 -0.12010383916E+03 -0.16895560537E+04  0.52704176126E+03  0.17739215341E+04  0.25500000920E-02 0. -1.
</event>
<event>
 5   0  0.1628250E-08  0.3796267E+04  0.7818609E-02  0.8046956E-01
        1   -1    0    0  501    0  0.00000000000E+00  0.00000000000E+00  0.20410209019E+04  0.20410209019E+04  0.50400001928E-02 0. -1.
       -1   -1    0    0    0  501  0.00000000000E+00  0.00000000000E+00 -0.17652494748E+04  0.17652494748E+04  0.50400001928E-02 0.  1.
    10030    2    1    2    0    0  0.00000000000E+00  0.00000000000E+00  0.27577142712E+03  0.38062703767E+04  0.37962671535E+04 0.  0.
        1    1    3    3  502    0  0.10340149506E+04  0.14815976737E+04  0.72130600321E+03  0.19454050825E+04  0.50400001928E-02 0. -1.
       -1    1    3    3    0  502 -0.10340149506E+04 -0.14815976737E+04 -0.44553457609E+03  0.18608652942E+04  0.50400001928E-02 0.  1.
</event>
<event>
 5   0  0.1628250E-08  0.3799156E+04  0.7818609E-02  0.8046336E-01
       -1   -1    0    0    0  501  0.00000000000E+00  0.00000000000E+00  0.24787648164E+04  0.24787648164E+04  0.50400001928E-02 0.  1.
        1   -1    0    0  501    0  0.00000000000E+00  0.00000000000E+00 -0.14557239999E+04  0.14557240000E+04  0.50400001928E-02 0. -1.
    10030    2    1    2    0    0  0.00000000000E+00  0.00000000000E+00  0.10230408165E+04  0.39344888164E+04  0.37991564503E+04 0.  0.
        4    1    3    3  502    0 -0.85413096059E+03 -0.15494131482E+04 -0.20461406251E+03  0.17810360269E+04  0.12699999809E+01 0. -1.
       -4    1    3    3    0  502  0.85413096059E+03  0.15494131482E+04  0.12276548790E+04  0.21534527895E+04  0.12699999809E+01 0.  1.
</event>
<event>
 5   0  0.5140842E-08  0.3802855E+04  0.7818609E-02  0.8045542E-01
       -2   -1    0    0    0  501  0.00000000000E+00  0.00000000000E+00  0.17898747482E+04  0.17898747482E+04  0.25500000920E-02 0. -1.
        2   -1    0    0  501    0  0.00000000000E+00  0.00000000000E+00 -0.20199329965E+04  0.20199329965E+04  0.25500000920E-02 0.  1.
    10030    2    1    2    0    0  0.00000000000E+00  0.00000000000E+00 -0.23005824830E+03  0.38098077446E+04  0.38028552764E+04 0.  0.
        2    1    3    3  502    0 -0.13609489596E+04 -0.10273253389E+04  0.72784584497E+03  0.18540062019E+04  0.25500000920E-02 0. -1.
       -2    1    3    3    0  502  0.13609489596E+04  0.10273253389E+04 -0.95790409328E+03  0.19558015427E+04  0.25500000920E-02 0.  1.
</event>
<event>
 5   0  0.5159761E-08  0.3802371E+04  0.7818609E-02  0.8045646E-01
       -2   -1    0    0    0  501  0.00000000000E+00  0.00000000000E+00  0.19147214359E+04  0.19147214359E+04  0.25500000920E-02 0.  1.
        2   -1    0    0  501    0  0.00000000000E+00  0.00000000000E+00 -0.18877450626E+04  0.18877450627E+04  0.25500000920E-02 0. -1.
    10030    2    1    2    0    0  0.00000000000E+00  0.00000000000E+00  0.26976373234E+02  0.38024664985E+04  0.38023708062E+04 0.  0.
        5    1    3    3  502    0  0.16270191866E+04 -0.82810083487E+03  0.54410630898E+03  0.19049976881E+04  0.46999998093E+01 0.  1.
       -5    1    3    3    0  502 -0.16270191866E+04  0.82810083487E+03 -0.51712993574E+03  0.18974688104E+04  0.46999998093E+01 0. -1.
</event>
<event>
 5   0  0.1628250E-08  0.3804352E+04  0.7818609E-02  0.8045222E-01
        1   -1    0    0  501    0  0.00000000000E+00  0.00000000000E+00  0.24850995447E+04  0.24850995447E+04  0.50400001928E-02 0. -1.
       -1   -1    0    0    0  501  0.00000000000E+00  0.00000000000E+00 -0.14559872162E+04  0.14559872162E+04  0.50400001928E-02 0.  1.
    10030    2    1    2    0    0  0.00000000000E+00  0.00000000000E+00  0.10291123286E+04  0.39410867609E+04  0.38043518071E+04 0.  0.
        1    1    3    3  502    0 -0.58120842861E+03  0.16173728182E+04  0.13590711416E+04  0.21910665071E+04  0.50400001928E-02 0. -1.
       -1    1    3    3    0  502  0.58120842861E+03 -0.16173728182E+04 -0.32995881299E+03  0.17500202538E+04  0.50400001928E-02 0.  1.
</event>
<event>
 5   0  0.1666051E-08  0.3815636E+04  0.7818609E-02  0.8042808E-01
        1   -1    0    0  501    0  0.00000000000E+00  0.00000000000E+00  0.17644849175E+04  0.17644849176E+04  0.50400001928E-02 0. -1.
       -1   -1    0    0    0  501  0.00000000000E+00  0.00000000000E+00 -0.20627940668E+04  0.20627940668E+04  0.50400001928E-02 0.  1.
    10030    2    1    2    0    0  0.00000000000E+00  0.00000000000E+00 -0.29830914921E+03  0.38272789843E+04  0.38156357367E+04 0.  0.
        2    1    3    3  502    0  0.16615201988E+04  0.83224387849E+03 -0.58231694831E+03  0.19474014154E+04  0.25500000920E-02 0.  1.
       -2    1    3    3    0  502 -0.16615201988E+04 -0.83224387849E+03  0.28400779911E+03  0.18798775689E+04  0.25500000920E-02 0. -1.
</event>
<event>
 5   0  0.5207474E-08  0.3799208E+04  0.7818609E-02  0.8046325E-01
        2   -1    0    0  501    0  0.00000000000E+00  0.00000000000E+00  0.26016323341E+04  0.26016323341E+04  0.25500000920E-02 0.  1.
       -2   -1    0    0    0  501  0.00000000000E+00  0.00000000000E+00 -0.13870118681E+04  0.13870118682E+04  0.25500000920E-02 0. -1.
    10030    2    1    2    0    0  0.00000000000E+00  0.00000000000E+00  0.12146204660E+04  0.39886442023E+04  0.37992077722E+04 0.  0.
        4    1    3    3  502    0  0.83109942436E+03 -0.30535294552E+03 -0.11571224354E+04  0.14570177137E+04  0.12699999809E+01 0. -1.
       -4    1    3    3    0  502 -0.83109942436E+03  0.30535294552E+03  0.23717429014E+04  0.25316264886E+04  0.12699999809E+01 0.  1.
</event>
<event>
 5   0  0.1628250E-08  0.3787943E+04  0.7818609E-02  0.8048747E-01
        3   -1    0    0  501    0  0.00000000000E+00  0.00000000000E+00  0.15966482046E+04  0.15966482078E+04  0.10100000352E+00 0. -1.
       -3   -1    0    0    0  501  0.00000000000E+00  0.00000000000E+00 -0.22466613742E+04  0.22466613764E+04  0.10100000352E+00 0.  1.
    10030    2    1    2    0    0  0.00000000000E+00  0.00000000000E+00 -0.65001316958E+03  0.38433095842E+04  0.37879429034E+04 0.  0.
        5    1    3    3  502    0  0.13674230731E+04  0.13104418720E+04 -0.32644481212E+03  0.19218980373E+04  0.46999998093E+01 0.  1.
       -5    1    3    3    0  502 -0.13674230731E+04 -0.13104418720E+04 -0.32356835746E+03  0.19214115469E+04  0.46999998093E+01 0. -1.
</event>
<event>
 5   0  0.5207474E-08  0.3796274E+04  0.7818609E-02  0.8046955E-01
        2   -1    0    0  501    0  0.00000000000E+00  0.00000000000E+00  0.28383518715E+04  0.28383518715E+04  0.25500000920E-02 0.  1.
       -2   -1    0    0    0  501  0.00000000000E+00  0.00000000000E+00 -0.12693721390E+04  0.12693721390E+04  0.25500000920E-02 0. -1.
    10030    2    1    2    0    0  0.00000000000E+00  0.00000000000E+00  0.15689797325E+04  0.41077240104E+04  0.37962743769E+04 0.  0.
        4    1    3    3  502    0  0.11392982638E+04  0.13955751594E+04  0.14312685260E+04  0.23009045538E+04  0.12699999809E+01 0. -1.
       -4    1    3    3    0  502 -0.11392982638E+04 -0.13955751594E+04  0.13771120647E+03  0.18068194566E+04  0.12699999809E+01 0.  1.
</event>
<event>
 5   0  0.5207474E-08  0.3802064E+04  0.7818609E-02  0.8045712E-01
        2   -1    0    0  501    0  0.00000000000E+00  0.00000000000E+00  0.24055820824E+04  0.24055820825E+04  0.25500000920E-02 0. -1.
       -2   -1    0    0    0  501  0.00000000000E+00  0.00000000000E+00 -0.15023068215E+04  0.15023068215E+04  0.25500000920E-02 0.  1.
    10030    2    1    2    0    0  0.00000000000E+00  0.00000000000E+00  0.90327526090E+03  0.39078889040E+04  0.38020638460E+04 0.  0.
        4    1    3    3  502    0  0.22226567688E+03 -0.51337122862E+03 -0.14157888254E+04  0.15223047200E+04  0.12699999809E+01 0.  1.
       -4    1    3    3    0  502 -0.22226567688E+03  0.51337122862E+03  0.23190640863E+04  0.23855841840E+04  0.12699999809E+01 0. -1.
</event>
<event>
 5   0  0.5086209E-08  0.3807499E+04  0.7818609E-02  0.8044548E-01
        2   -1    0    0  501    0  0.00000000000E+00  0.00000000000E+00  0.26444782278E+04  0.26444782278E+04  0.25500000920E-02 0. -1.
       -2   -1    0    0    0  501  0.00000000000E+00  0.00000000000E+00 -0.13705015024E+04  0.13705015024E+04  0.25500000920E-02 0.  1.
    10030    2    1    2    0    0  0.00000000000E+00  0.00000000000E+00  0.12739767254E+04  0.40149797302E+04  0.38074985932E+04 0.  0.
        3    1    3    3  502    0 -0.14149399023E+04 -0.46947058835E+03 -0.61150783518E+03  0.16113346652E+04  0.10100000352E+00 0.  1.
       -3    1    3    3    0  502  0.14149399023E+04  0.46947058835E+03  0.18854845606E+04  0.24036450651E+04  0.10100000352E+00 0. -1.
</event>
<event>
 5   0  0.1666051E-08  0.3799955E+04  0.7818609E-02  0.8046165E-01
        1   -1    0    0  501    0  0.00000000000E+00  0.00000000000E+00  0.26408288896E+04  0.26408288896E+04  0.50400001928E-02 0.  1.
       -1   -1    0    0    0  501  0.00000000000E+00  0.00000000000E+00 -0.13669625514E+04  0.13669625514E+04  0.50400001928E-02 0. -1.
    10030    2    1    2    0    0  0.00000000000E+00  0.00000000000E+00  0.12738663382E+04  0.40077914410E+04  0.37999548402E+04 0.  0.
        2    1    3    3  502    0  0.13380528542E+04  0.10546817532E+04  0.15238648651E+04  0.22858047092E+04  0.25500000920E-02 0.  1.
       -2    1    3    3    0  502 -0.13380528542E+04 -0.10546817532E+04 -0.24999852700E+03  0.17219867319E+04  0.25500000920E-02 0. -1.
</event>
<event>
 5   0  0.1628250E-08  0.3803160E+04  0.7818609E-02  0.8045477E-01
        1   -1    0    0  501    0  0.00000000000E+00  0.00000000000E+00  0.12143598960E+04  0.12143598960E+04  0.50400001928E-02 0. -1.
       -1   -1    0    0    0  501  0.00000000000E+00  0.00000000000E+00 -0.29777063374E+04  0.29777063374E+04  0.50400001928E-02 0.  1.
    10030    2    1    2    0    0  0.00000000000E+00  0.00000000000E+00 -0.17633464414E+04  0.41920662334E+04  0.38031603480E+04 0.  0.
        1    1    3    3  502    0  0.66980414616E+02 -0.15702423236E+04 -0.20615842105E+04  0.25923496654E+04  0.50400001928E-02 0.  1.
       -1    1    3    3    0  502 -0.66980414616E+02  0.15702423236E+04  0.29823776915E+03  0.15997165680E+04  0.50400001928E-02 0. -1.
</event>
<event>
 5   0  0.1628250E-08  0.3801557E+04  0.7818609E-02  0.8045821E-01
       -3   -1    0    0    0  501  0.00000000000E+00  0.00000000000E+00  0.16583807497E+04  0.16583807528E+04  0.10100000352E+00 0.  1.
        3   -1    0    0  501    0  0.00000000000E+00  0.00000000000E+00 -0.21786064160E+04  0.21786064184E+04  0.10100000352E+00 0. -1.
    10030    2    1    2    0    0  0.00000000000E+00  0.00000000000E+00 -0.52022566633E+03  0.38369871712E+04  0.38015570241E+04 0.  0.
        1    1    3    3  502    0  0.97721568897E+03  0.67176740757E+03  0.12392409718E+04  0.17152084826E+04  0.50400001928E-02 0.  1.
       -1    1    3    3    0  502 -0.97721568897E+03 -0.67176740757E+03 -0.17594666381E+04  0.21217786886E+04  0.50400001928E-02 0. -1.
</event>
<event>
 5   0  0.5147582E-08  0.3789091E+04  0.7818609E-02  0.8048500E-01
        2   -1    0    0  501    0  0.00000000000E+00  0.00000000000E+00  0.24805461075E+04  0.24805461075E+04  0.25500000920E-02 0.  1.
       -2   -1    0    0    0  501  0.00000000000E+00  0.00000000000E+00 -0.14469810277E+04  0.14469810277E+04  0.25500000920E-02 0. -1.
    10030    2    1    2    0    0  0.00000000000E+00  0.00000000000E+00  0.10335650797E+04  0.39275271352E+04  0.37890912662E+04 0.  0.
        1    1    3    3  502    0 -0.42693972260E+03 -0.15371612156E+04 -0.54239281678E+03  0.16850317793E+04  0.50400001928E-02 0. -1.
       -1    1    3    3    0  502  0.42693972260E+03  0.15371612156E+04  0.15759578965E+04  0.22424953559E+04  0.50400001928E-02 0.  1.
</event>
<event>
 5   0  0.5159761E-08  0.3796255E+04  0.7818609E-02  0.8046959E-01
        2   -1    0    0  501    0  0.00000000000E+00  0.00000000000E+00  0.25401381725E+04  0.25401381725E+04  0.25500000920E-02 0. -1.
       -2   -1    0    0    0  501  0.00000000000E+00  0.00000000000E+00 -0.14183825511E+04  0.14183825511E+04  0.25500000920E-02 0.  1.
    10030    2    1    2    0    0  0.00000000000E+00  0.00000000000E+00  0.11217556214E+04  0.39585207236E+04  0.37962548183E+04 0.  0.
        5    1    3    3  502    0 -0.82146893621E+03  0.17071113899E+04  0.68348363179E+03  0.20140040903E+04  0.46999998093E+01 0.  1.
       -5    1    3    3    0  502  0.82146893621E+03 -0.17071113899E+04  0.43827198957E+03  0.19445166334E+04  0.46999998093E+01 0. -1.
</event>
<event>
 5   0  0.5207474E-08  0.3800408E+04  0.7818609E-02  0.8046067E-01
       -2   -1    0    0    0  501  0.00000000000E+00  0.00000000000E+00  0.14443264720E+04  0.14443264720E+04  0.25500000920E-02 0.  1.
        2   -1    0    0  501    0  0.00000000000E+00  0.00000000000E+00 -0.24999712556E+04  0.24999712556E+04  0.25500000920E-02 0. -1.
    10030    2    1    2    0    0  0.00000000000E+00  0.00000000000E+00 -0.10556447837E+04  0.39442977276E+04  0.38004076959E+04 0.  0.
        4    1    3    3  502    0 -0.56372016285E+03  0.17978483277E+04 -0.27204891209E+03  0.19036941075E+04  0.12699999809E+01 0. -1.
       -4    1    3    3    0  502  0.56372016285E+03 -0.17978483277E+04 -0.78359587158E+03  0.20406036201E+04  0.12699999809E+01 0.  1.
</event>
<event>
 5   0  0.1628250E-08  0.3745757E+04  0.7818609E-02  0.8057897E-01
       -3   -1    0    0    0  501  0.00000000000E+00  0.00000000000E+00  0.17498786332E+04  0.17498786361E+04  0.10100000352E+00 0.  1.
        3   -1    0    0  501    0  0.00000000000E+00  0.00000000000E+00 -0.20045239226E+04  0.20045239252E+04  0.10100000352E+00 0. -1.
    10030    2    1    2    0    0  0.00000000000E+00  0.00000000000E+00 -0.25464528940E+03  0.37544025613E+04  0.37457568486E+04 0.  0.
        2    1    3    3  502    0 -0.13472800209E+04 -0.31068491536E+03 -0.13935615722E+04  0.19630849260E+04  0.25500000920E-02 0. -1.
       -2    1    3    3    0  502  0.13472800209E+04  0.31068491536E+03  0.11389162828E+04  0.17913176353E+04  0.25500000920E-02 0.  1.
</event>
<event>
 5   0  0.1628473E-08  0.3797514E+04  0.7818609E-02  0.8046689E-01
        1   -1    0    0  501    0  0.00000000000E+00  0.00000000000E+00  0.13870424252E+04  0.13870424252E+04  0.50400001928E-02 0. -1.
       -1   -1    0    0    0  501  0.00000000000E+00  0.00000000000E+00 -0.25992563529E+04  0.25992563530E+04  0.50400001928E-02 0.  1.
    10030    2    1    2    0    0  0.00000000000E+00  0.00000000000E+00 -0.12122139278E+04  0.39862987781E+04  0.37975143636E+04 0.  0.
        3    1    3    3  502    0  0.48110196559E+03  0.71485101523E+03  0.11699893520E+04  0.14530472013E+04  0.10100000352E+00 0. -1.
       -3    1    3    3    0  502 -0.48110196559E+03 -0.71485101523E+03 -0.23822032797E+04  0.25332515768E+04  0.10100000352E+00 0.  1.
</event>
<event>
 5   0  0.1666051E-08  0.3803806E+04  0.7818609E-02  0.8045339E-01
        1   -1    0    0  501    0  0.00000000000E+00  0.00000000000E+00  0.27761344919E+04  0.27761344920E+04  0.50400001928E-02 0. -1.
       -1   -1    0    0    0  501  0.00000000000E+00  0.00000000000E+00 -0.13029754446E+04  0.13029754446E+04  0.50400001928E-02 0.  1.
    10030    2    1    2    0    0  0.00000000000E+00  0.00000000000E+00  0.14731590473E+04  0.40791099366E+04  0.38038060276E+04 0.  0.
        2    1    3    3  502    0  0.61789047659E+03 -0.13605174718E+04 -0.52520124604E+03  0.15838664025E+04  0.25500000920E-02 0.  1.
       -2    1    3    3    0  502 -0.61789047659E+03  0.13605174718E+04  0.19983602934E+04  0.24952435341E+04  0.25500000920E-02 0. -1.
</event>
<event>
 5   0  0.1666051E-08  0.3796985E+04  0.7818609E-02  0.8046802E-01
        1   -1    0    0  501    0  0.00000000000E+00  0.00000000000E+00  0.25855021345E+04  0.25855021345E+04  0.50400001928E-02 0.  1.
       -1   -1    0    0    0  501  0.00000000000E+00  0.00000000000E+00 -0.13940322433E+04  0.13940322433E+04  0.50400001928E-02 0. -1.
    10030    2    1    2    0    0  0.00000000000E+00  0.00000000000E+00  0.11914698912E+04  0.39795343778E+04  0.37969847725E+04 0.  0.
        2    1    3    3  502    0  0.10330840940E+04 -0.32747956962E+03 -0.10379781299E+04  0.15006346031E+04  0.25500000920E-02 0. -1.
       -2    1    3    3    0  502 -0.10330840940E+04  0.32747956962E+03  0.22294480212E+04  0.24788997747E+04  0.25500000920E-02 0.  1.
</event>
<event>
 5   0  0.1628250E-08  0.3800843E+04  0.7818609E-02  0.8045974E-01
       -1   -1    0    0    0  501  0.00000000000E+00  0.00000000000E+00  0.21052117355E+04  0.21052117356E+04  0.50400001928E-02 0.  1.
        1   -1    0    0  501    0  0.00000000000E+00  0.00000000000E+00 -0.17155528226E+04  0.17155528227E+04  0.50400001928E-02 0. -1.
    10030    2    1    2    0    0  0.00000000000E+00  0.00000000000E+00  0.38965891290E+03  0.38207645582E+04  0.38008430303E+04 0.  0.
        5    1    3    3  502    0 -0.62114113818E+03  0.77443208272E+03  0.18238225066E+04  0.20765143847E+04  0.46999998093E+01 0.  1.
       -5    1    3    3    0  502  0.62114113818E+03 -0.77443208272E+03 -0.14341635937E+04  0.17442501735E+04  0.46999998093E+01 0. -1.
</event>
<event>
 5   0  0.5147582E-08  0.3799336E+04  0.7818609E-02  0.8046297E-01
       -2   -1    0    0    0  501  0.00000000000E+00  0.00000000000E+00  0.14693904549E+04  0.14693904549E+04  0.25500000920E-02 0.  1.
        2   -1    0    0  501    0  0.00000000000E+00  0.00000000000E+00 -0.24559423082E+04  0.24559423082E+04  0.25500000920E-02 0. -1.
    10030    2    1    2    0    0  0.00000000000E+00  0.00000000000E+00 -0.98655185327E+03  0.39253327632E+04  0.37993358291E+04 0.  0.
        1    1    3    3  502    0 -0.11066591602E+04 -0.26740923548E+03 -0.20644092722E+04  0.23575385128E+04  0.50400001928E-02 0. -1.
       -1    1    3    3    0  502  0.11066591602E+04  0.26740923548E+03  0.10778574189E+04  0.15677942504E+04  0.50400001928E-02 0.  1.
</event>
<event>
 5   0  0.1628250E-08  0.3800707E+04  0.7818609E-02  0.8046003E-01
        1   -1    0    0  501    0  0.00000000000E+00  0.00000000000E+00  0.27351984128E+04  0.27351984128E+04  0.50400001928E-02 0. -1.
       -1   -1    0    0    0  501  0.00000000000E+00  0.00000000000E+00 -0.13203219851E+04  0.13203219851E+04  0.50400001928E-02 0.  1.
    10030    2    1    2    0    0  0.00000000000E+00  0.00000000000E+00  0.14148764277E+04  0.40555203980E+04  0.38007065649E+04 0.  0.
        4    1    3    3  502    0 -0.13152120369E+04  0.12975873540E+04  0.23284315596E+03  0.18621850584E+04  0.12699999809E+01 0.  1.
       -4    1    3    3    0  502  0.13152120369E+04 -0.12975873540E+04  0.11820332717E+04  0.21933353396E+04  0.12699999809E+01 0. -1.
</event>
<event>
 5   0  0.1628250E-08  0.3784112E+04  0.7818609E-02  0.8049573E-01
        1   -1    0    0  501    0  0.00000000000E+00  0.00000000000E+00  0.27836893762E+04  0.27836893762E+04  0.50400001928E-02 0.  1.
       -1   -1    0    0    0  501  0.00000000000E+00  0.00000000000E+00 -0.12860182667E+04  0.12860182668E+04  0.50400001928E-02 0. -1.
    10030    2    1    2    0    0  0.00000000000E+00  0.00000000000E+00  0.14976711095E+04  0.40697076430E+04  0.37841117250E+04 0.  0.
        1    1    3    3  502    0  0.14608666538E+04  0.11111182097E+04  0.25463249731E+03  0.18529848259E+04  0.50400001928E-02 0. -1.
       -1    1    3    3    0  502 -0.14608666538E+04 -0.11111182097E+04  0.12430386122E+04  0.22167228171E+04  0.50400001928E-02 0.  1.
</event>
<event>
 5   0  0.5207474E-08  0.3781339E+04  0.7818609E-02  0.8050171E-01
       -2   -1    0    0    0  501  0.00000000000E+00  0.00000000000E+00  0.14865328460E+04  0.14865328460E+04  0.25500000920E-02 0. -1.
        2   -1    0    0  501    0  0.00000000000E+00  0.00000000000E+00 -0.24046768427E+04  0.24046768427E+04  0.25500000920E-02 0.  1.
    10030    2    1    2    0    0  0.00000000000E+00  0.00000000000E+00 -0.91814399666E+03  0.38912096887E+04  0.37813389749E+04 0.  0.
        4    1    3    3  502    0  0.65402077281E+03 -0.27261639260E+03  0.13447333830E+04  0.15199909056E+04  0.12699999809E+01 0. -1.
       -4    1    3    3    0  502 -0.65402077281E+03  0.27261639260E+03 -0.22628773797E+04  0.23712187831E+04  0.12699999809E+01 0.  1.
</event>
<event>
 5   0  0.1628250E-08  0.3801283E+04  0.7818609E-02  0.8045880E-01
        1   -1    0    0  501    0  0.00000000000E+00  0.00000000000E+00  0.19473217467E+04  0.19473217467E+04  0.50400001928E-02 0. -1.
       -1   -1    0    0    0  501  0.00000000000E+00  0.00000000000E+00 -0.18550802554E+04  0.18550802554E+04  0.50400001928E-02 0.  1.
    10030    2    1    2    0    0  0.00000000000E+00  0.00000000000E+00  0.92241491332E+02  0.38024020021E+04  0.38012830062E+04 0.  0.
        5    1    3    3  502    0  0.25747554197E+03  0.99583727732E+03 -0.15526083211E+04  0.18624178442E+04  0.46999998093E+01 0.  1.
       -5    1    3    3    0  502 -0.25747554197E+03 -0.99583727732E+03  0.16448498124E+04  0.19399841579E+04  0.46999998093E+01 0. -1.
</event>
<event>
 5   0  0.1628250E-08  0.3791830E+04  0.7818609E-02  0.8047910E-01
        3   -1    0    0  501    0  0.00000000000E+00  0.00000000000E+00  0.18773213815E+04  0.18773213842E+04  0.10100000352E+00 0. -1.
       -3   -1    0    0    0  501  0.00000000000E+00  0.00000000000E+00 -0.19146932071E+04  0.19146932098E+04  0.10100000352E+00 0.  1.
    10030    2    1    2    0    0  0.00000000000E+00  0.00000000000E+00 -0.37371825561E+02  0.37920145940E+04  0.37918304324E+04 0.  0.
        4    1    3    3  502    0 -0.63973431263E+03  0.17424632859E+04  0.36740873828E+03  0.18922021793E+04  0.12699999809E+01 0. -1.
       -4    1    3    3    0  502  0.63973431263E+03 -0.17424632859E+04 -0.40478056384E+03  0.18998124147E+04  0.12699999809E+01 0.  1.
</event>
<event>
 5   0  0.1628250E-08  0.3803267E+04  0.7818609E-02  0.8045454E-01
        1   -1    0    0  501    0  0.00000000000E+00  0.00000000000E+00  0.14554917774E+04  0.14554917774E+04  0.50400001928E-02 0. -1.
       -1   -1    0    0    0  501  0.00000000000E+00  0.00000000000E+00 -0.24845285172E+04  0.24845285172E+04  0.50400001928E-02 0.  1.
    10030    2    1    2    0    0  0.00000000000E+00  0.00000000000E+00 -0.10290367398E+04  0.39400202946E+04  0.38032674519E+04 0.  0.
        4    1    3    3  502    0 -0.13649519180E+04  0.11953405277E+04 -0.11044468049E+04  0.21240849967E+04  0.12699999809E+01 0. -1.
       -4    1    3    3    0  502  0.13649519180E+04 -0.11953405277E+04  0.75410065116E+02  0.18159352979E+04  0.12699999809E+01 0.  1.
</event>
<event>
 5   0  0.5147582E-08  0.3799917E+04  0.7818609E-02  0.8046173E-01
       -2   -1    0    0    0  501  0.00000000000E+00  0.00000000000E+00  0.21871119126E+04  0.21871119126E+04  0.25500000920E-02 0. -1.
        2   -1    0    0  501    0  0.00000000000E+00  0.00000000000E+00 -0.16505061352E+04  0.16505061352E+04  0.25500000920E-02 0.  1.
    10030    2    1    2    0    0  0.00000000000E+00  0.00000000000E+00  0.53660577733E+03  0.38376180478E+04  0.37999166465E+04 0.  0.
        1    1    3    3  502    0  0.83868582031E+03 -0.14204328405E+04  0.12204283179E+04  0.20519426499E+04  0.50400001928E-02 0. -1.
       -1    1    3    3    0  502 -0.83868582031E+03  0.14204328405E+04 -0.68382254057E+03  0.17856753979E+04  0.50400001928E-02 0.  1.
</event>
<event>
 5   0  0.1628250E-08  0.3799881E+04  0.7818609E-02  0.8046180E-01
       -1   -1    0    0    0  501  0.00000000000E+00  0.00000000000E+00  0.23803938704E+04  0.23803938704E+04  0.50400001928E-02 0.  1.
        1   -1    0    0  501    0  0.00000000000E+00  0.00000000000E+00 -0.15164609132E+04  0.15164609132E+04  0.50400001928E-02 0. -1.
    10030    2    1    2    0    0  0.00000000000E+00  0.00000000000E+00  0.86393295716E+03  0.38968547837E+04  0.37998811890E+04 0.  0.
        4    1    3    3  502    0 -0.21071554265E+03 -0.15785404745E+04  0.14945467057E+04  0.21840014968E+04  0.12699999809E+01 0.  1.
       -4    1    3    3    0  502  0.21071554265E+03  0.15785404745E+04 -0.63061374858E+03  0.17128532869E+04  0.12699999809E+01 0. -1.
</event>
<event>
 5   0  0.5147582E-08  0.3799870E+04  0.7818609E-02  0.8046183E-01
       -2   -1    0    0    0  501  0.00000000000E+00  0.00000000000E+00  0.15322366044E+04  0.15322366044E+04  0.25500000920E-02 0. -1.
        2   -1    0    0  501    0  0.00000000000E+00  0.00000000000E+00 -0.23558719349E+04  0.23558719349E+04  0.25500000920E-02 0.  1.
    10030    2    1    2    0    0  0.00000000000E+00  0.00000000000E+00 -0.82363533052E+03  0.38881085394E+04  0.37998701104E+04 0.  0.
        1    1    3    3  502    0  0.18288268601E+04 -0.39143570676E+03 -0.69499065432E+02  0.18715393977E+04  0.50400001928E-02 0. -1.
       -1    1    3    3    0  502 -0.18288268601E+04  0.39143570676E+03 -0.75413626509E+03  0.20165691417E+04  0.50400001928E-02 0.  1.
</event>
<event>
 5   0  0.5086209E-08  0.3822497E+04  0.7818609E-02  0.8041344E-01
        2   -1    0    0  501    0  0.00000000000E+00  0.00000000000E+00  0.19407561661E+04  0.19407561661E+04  0.25500000920E-02 0.  1.
       -2   -1    0    0    0  501  0.00000000000E+00  0.00000000000E+00 -0.18821892865E+04  0.18821892865E+04  0.25500000920E-02 0. -1.
    10030    2    1    2    0    0  0.00000000000E+00  0.00000000000E+00  0.58566879618E+02  0.38229454526E+04  0.38224968090E+04 0.  0.
        3    1    3    3  502    0 -0.14852036418E+04 -0.11964227868E+04  0.15425054050E+03  0.19133872012E+04  0.10100000352E+00 0. -1.
       -3    1    3    3    0  502  0.14852036418E+04  0.11964227868E+04 -0.95683660881E+02  0.19095582514E+04  0.10100000352E+00 0.  1.
</event>
<event>
 5   0  0.5086209E-08  0.3805449E+04  0.7818609E-02  0.8044987E-01
       -2   -1    0    0    0  501  0.00000000000E+00  0.00000000000E+00  0.28076295441E+04  0.28076295441E+04  0.25500000920E-02 0. -1.
        2   -1    0    0  501    0  0.00000000000E+00  0.00000000000E+00 -0.12894722140E+04  0.12894722140E+04  0.25500000920E-02 0.  1.
    10030    2    1    2    0    0  0.00000000000E+00  0.00000000000E+00  0.15181573301E+04  0.40971017582E+04  0.38054488747E+04 0.  0.
        3    1    3    3  502    0  0.16465393737E+04  0.20724690466E+03 -0.24301726594E+03  0.16772300350E+04  0.10100000352E+00 0.  1.
       -3    1    3    3    0  502 -0.16465393737E+04 -0.20724690466E+03  0.17611745960E+04  0.24198717232E+04  0.10100000352E+00 0. -1.
</event>
<event>
 5   0  0.1628250E-08  0.3803204E+04  0.7818609E-02  0.8045468E-01
        1   -1    0    0  501    0  0.00000000000E+00  0.00000000000E+00  0.20345982373E+04  0.20345982373E+04  0.50400001928E-02 0.  1.
       -1   -1    0    0    0  501  0.00000000000E+00  0.00000000000E+00 -0.17772993732E+04  0.17772993732E+04  0.50400001928E-02 0. -1.
    10030    2    1    2    0    0  0.00000000000E+00  0.00000000000E+00  0.25729886409E+03  0.38118976105E+04  0.38032040029E+04 0.  0.
        1    1    3    3  502    0  0.10763986408E+03  0.69257266770E+03 -0.16431150022E+04  0.17863566695E+04  0.50400001928E-02 0. -1.
       -1    1    3    3    0  502 -0.10763986408E+03 -0.69257266770E+03  0.19004138663E+04  0.20255409410E+04  0.50400001928E-02 0.  1.
</event>
<event>
 5   0  0.1628250E-08  0.3797170E+04  0.7818609E-02  0.8046763E-01
       -1   -1    0    0    0  501  0.00000000000E+00  0.00000000000E+00  0.21538883287E+04  0.21538883287E+04  0.50400001928E-02 0.  1.
        1   -1    0    0  501    0  0.00000000000E+00  0.00000000000E+00 -0.16735429102E+04  0.16735429102E+04  0.50400001928E-02 0. -1.
    10030    2    1    2    0    0  0.00000000000E+00  0.00000000000E+00  0.48034541851E+03  0.38274312390E+04  0.37971697576E+04 0.  0.
        5    1    3    3  502    0  0.71976159934E+03 -0.16995933183E+04  0.68860953553E+03  0.19699947690E+04  0.46999998093E+01 0.  1.
       -5    1    3    3    0  502 -0.71976159934E+03  0.16995933183E+04 -0.20826411703E+03  0.18574364700E+04  0.46999998093E+01 0. -1.
</event>
<event>
 5   0  0.5086209E-08  0.3793161E+04  0.7818609E-02  0.8047624E-01
        2   -1    0    0  501    0  0.00000000000E+00  0.00000000000E+00  0.17272460414E+04  0.17272460414E+04  0.25500000920E-02 0.  1.
       -2   -1    0    0    0  501  0.00000000000E+00  0.00000000000E+00 -0.20825161848E+04  0.20825161848E+04  0.25500000920E-02 0. -1.
    10030    2    1    2    0    0  0.00000000000E+00  0.00000000000E+00 -0.35527014346E+03  0.38097622262E+04  0.37931611283E+04 0.  0.
        3    1    3    3  502    0 -0.16015376299E+04  0.15576854343E+03 -0.11859367293E+04  0.19989078406E+04  0.10100000352E+00 0. -1.
       -3    1    3    3    0  502  0.16015376299E+04 -0.15576854343E+03  0.83066658584E+03  0.18108543857E+04  0.10100000352E+00 0.  1.
</event>
<event>
 5   0  0.1628250E-08  0.3807329E+04  0.7818609E-02  0.8044584E-01
        1   -1    0    0  501    0  0.00000000000E+00  0.00000000000E+00  0.19585703488E+04  0.19585703488E+04  0.50400001928E-02 0. -1.
       -1   -1    0    0    0  501  0.00000000000E+00  0.00000000000E+00 -0.18502980473E+04  0.18502980473E+04  0.50400001928E-02 0.  1.
    10030    2    1    2    0    0  0.00000000000E+00  0.00000000000E+00  0.10827230157E+03  0.38088683961E+04  0.38073291909E+04 0.  0.
        5    1    3    3  502    0  0.80352558915E+03  0.17254541230E+04  0.86883143882E+02  0.19053650762E+04  0.46999998093E+01 0.  1.
       -5    1    3    3    0  502 -0.80352558915E+03 -0.17254541230E+04  0.21389157691E+02  0.19035033199E+04  0.46999998093E+01 0. -1.
</event>
<event>
 5   0  0.5140842E-08  0.3797984E+04  0.7818609E-02  0.8046588E-01
        2   -1    0    0  501    0  0.00000000000E+00  0.00000000000E+00  0.20299049761E+04  0.20299049761E+04  0.25500000920E-02 0.  1.
       -2   -1    0    0    0  501  0.00000000000E+00  0.00000000000E+00 -0.17765217440E+04  0.17765217440E+04  0.25500000920E-02 0. -1.
    10030    2    1    2    0    0  0.00000000000E+00  0.00000000000E+00  0.25338323207E+03  0.38064267200E+04  0.37979838484E+04 0.  0.
        2    1    3    3  502    0  0.16764730136E+04  0.87901368728E+03 -0.25116223308E+02  0.18931079347E+04  0.25500000920E-02 0. -1.
       -2    1    3    3    0  502 -0.16764730136E+04 -0.87901368728E+03  0.27849945538E+03  0.19133187853E+04  0.25500000920E-02 0.  1.
</event>
<event>
 5   0  0.1628473E-08  0.3795286E+04  0.7818609E-02  0.8047167E-01
        1   -1    0    0  501    0  0.00000000000E+00  0.00000000000E+00  0.11017636727E+04  0.11017636727E+04  0.50400001928E-02 0. -1.
       -1   -1    0    0    0  501  0.00000000000E+00  0.00000000000E+00 -0.32684403477E+04  0.32684403477E+04  0.50400001928E-02 0.  1.
    10030    2    1    2    0    0  0.00000000000E+00  0.00000000000E+00 -0.21666766750E+04  0.43702040204E+04  0.37952859399E+04 0.  0.
        3    1    3    3  502    0  0.13974827243E+04 -0.12837668107E+04 -0.10766595202E+04  0.21817907603E+04  0.10100000352E+00 0. -1.
       -3    1    3    3    0  502 -0.13974827243E+04  0.12837668107E+04 -0.10900171548E+04  0.21884132601E+04  0.10100000352E+00 0.  1.
</event>
<event>
 5   0  0.1628473E-08  0.3821632E+04  0.7818609E-02  0.8041529E-01
       -1   -1    0    0    0  501  0.00000000000E+00  0.00000000000E+00  0.17807691178E+04  0.17807691178E+04  0.50400001928E-02 0. -1.
        1   -1    0    0  501    0  0.00000000000E+00  0.00000000000E+00 -0.20503594792E+04  0.20503594792E+04  0.50400001928E-02 0.  1.
    10030    2    1    2    0    0  0.00000000000E+00  0.00000000000E+00 -0.26959036140E+03  0.38311285970E+04  0.38216315055E+04 0.  0.
        3    1    3    3  502    0  0.63159358373E+03 -0.48210870722E+03  0.16073028488E+04  0.17929756603E+04  0.10100000352E+00 0. -1.
       -3    1    3    3    0  502 -0.63159358373E+03  0.48210870722E+03 -0.18768932102E+04  0.20381529367E+04  0.10100000352E+00 0.  1.
</event>
<event>
 5   0  0.1628250E-08  0.3792154E+04  0.7818609E-02  0.8047841E-01
        1   -1    0    0  501    0  0.00000000000E+00  0.00000000000E+00  0.20814289371E+04  0.20814289371E+04  0.50400001928E-02 0. -1.
       -1   -1    0    0    0  501  0.00000000000E+00  0.00000000000E+00 -0.17272311582E+04  0.17272311582E+04  0.50400001928E-02 0.  1.
    10030    2    1    2    0    0  0.00000000000E+00  0.00000000000E+00  0.35419777894E+03  0.38086600953E+04  0.37921544872E+04 0.  0.
        4    1    3    3  502    0  0.76038797381E+03  0.37107618543E+03 -0.15271130805E+04  0.17458417396E+04  0.12699999809E+01 0.  1.
       -4    1    3    3    0  502 -0.76038797381E+03 -0.37107618543E+03  0.18813108594E+04  0.20628183557E+04  0.12699999809E+01 0. -1.
</event>
<event>
 5   0  0.5207474E-08  0.3725948E+04  0.7818609E-02  0.8062236E-01
        2   -1    0    0  501    0  0.00000000000E+00  0.00000000000E+00  0.17492632264E+04  0.17492632264E+04  0.25500000920E-02 0.  1.
       -2   -1    0    0    0  501  0.00000000000E+00  0.00000000000E+00 -0.19840761352E+04  0.19840761352E+04  0.25500000920E-02 0. -1.
    10030    2    1    2    0    0  0.00000000000E+00  0.00000000000E+00 -0.23481290888E+03  0.37333393616E+04  0.37259476227E+04 0.  0.
        4    1    3    3  502    0  0.30314432685E+03 -0.43842325072E+03  0.16712282926E+04  0.17541713282E+04  0.12699999809E+01 0.  1.
       -4    1    3    3    0  502 -0.30314432685E+03  0.43842325072E+03 -0.19060412015E+04  0.19791680334E+04  0.12699999809E+01 0. -1.
</event>
<event>
 5   0  0.1628473E-08  0.3795032E+04  0.7818609E-02  0.8047222E-01
       -1   -1    0    0    0  501  0.00000000000E+00  0.00000000000E+00  0.20297724368E+04  0.20297724368E+04  0.50400001928E-02 0.  1.
        1   -1    0    0  501    0  0.00000000000E+00  0.00000000000E+00 -0.17738773955E+04  0.17738773955E+04  0.50400001928E-02 0. -1.
    10030    2    1    2    0    0  0.00000000000E+00  0.00000000000E+00  0.25589504123E+03  0.38036498323E+04  0.37950322495E+04 0.  0.
        3    1    3    3  502    0  0.58040816855E+03 -0.58519267299E+03 -0.15850980820E+04  0.17865777471E+04  0.10100000352E+00 0. -1.
       -3    1    3    3    0  502 -0.58040816855E+03  0.58519267299E+03  0.18409931233E+04  0.20170720852E+04  0.10100000352E+00 0.  1.
</event>
<event>
 5   0  0.1628250E-08  0.3803493E+04  0.7818609E-02  0.8045406E-01
       -1   -1    0    0    0  501  0.00000000000E+00  0.00000000000E+00  0.19242224609E+04  0.19242224610E+04  0.50400001928E-02 0. -1.
        1   -1    0    0  501    0  0.00000000000E+00  0.00000000000E+00 -0.18795332191E+04  0.18795332191E+04  0.50400001928E-02 0.  1.
    10030    2    1    2    0    0  0.00000000000E+00  0.00000000000E+00  0.44689241812E+02  0.38037556801E+04  0.38034931505E+04 0.  0.
        5    1    3    3  502    0 -0.10206606325E+04 -0.13765304671E+04 -0.80235385260E+03  0.18921886926E+04  0.46999998093E+01 0.  1.
       -5    1    3    3    0  502  0.10206606325E+04  0.13765304671E+04  0.84704309441E+03  0.19115669875E+04  0.46999998093E+01 0. -1.
</event>
<event>
 5   0  0.1628250E-08  0.3794711E+04  0.7818609E-02  0.8047291E-01
       -1   -1    0    0    0  501  0.00000000000E+00  0.00000000000E+00  0.25487155865E+04  0.25487155865E+04  0.50400001928E-02 0.  1.
        1   -1    0    0  501    0  0.00000000000E+00  0.00000000000E+00 -0.14124595421E+04  0.14124595421E+04  0.50400001928E-02 0. -1.
    10030    2    1    2    0    0  0.00000000000E+00  0.00000000000E+00  0.11362560444E+04  0.39611751286E+04  0.37947108719E+04 0.  0.
        4    1    3    3  502    0 -0.11800636448E+04  0.74547742811E+03  0.19096781093E+04  0.23654088221E+04  0.12699999809E+01 0.  1.
       -4    1    3    3    0  502  0.11800636448E+04 -0.74547742811E+03 -0.77342206490E+03  0.15957663065E+04  0.12699999809E+01 0. -1.
</event>
<event>
 5   0  0.5140842E-08  0.3776325E+04  0.7818609E-02  0.8051255E-01
        2   -1    0    0  501    0  0.00000000000E+00  0.00000000000E+00  0.11070632662E+04  0.11070632662E+04  0.25500000920E-02 0.  1.
       -2   -1    0    0    0  501  0.00000000000E+00  0.00000000000E+00 -0.32203742765E+04  0.32203742765E+04  0.25500000920E-02 0. -1.
    10030    2    1    2    0    0  0.00000000000E+00  0.00000000000E+00 -0.21133110103E+04  0.43274375427E+04  0.37763252322E+04 0.  0.
        2    1    3    3  502    0 -0.71307971979E+03 -0.12158409795E+04  0.38304047523E+03  0.14606409483E+04  0.25500000920E-02 0.  1.
       -2    1    3    3    0  502  0.71307971979E+03  0.12158409795E+04 -0.24963514855E+04  0.28667965943E+04  0.25500000920E-02 0. -1.
</event>
<event>
 5   0  0.5207474E-08  0.3811680E+04  0.7818609E-02  0.8043653E-01
       -2   -1    0    0    0  501  0.00000000000E+00  0.00000000000E+00  0.16365790841E+04  0.16365790841E+04  0.25500000920E-02 0.  1.
        2   -1    0    0  501    0  0.00000000000E+00  0.00000000000E+00 -0.22194015315E+04  0.22194015315E+04  0.25500000920E-02 0. -1.
    10030    2    1    2    0    0  0.00000000000E+00  0.00000000000E+00 -0.58282244749E+03  0.38559806156E+04  0.38116800105E+04 0.  0.
        4    1    3    3  502    0  0.10651214298E+04  0.14044237619E+04  0.44181243872E+03  0.18171652669E+04  0.12699999809E+01 0.  1.
       -4    1    3    3    0  502 -0.10651214298E+04 -0.14044237619E+04 -0.10246348862E+04  0.20388153487E+04  0.12699999809E+01 0. -1.
</event>
<event>
 5   0  0.5207474E-08  0.3776272E+04  0.7818609E-02  0.8051266E-01
       -2   -1    0    0    0  501  0.00000000000E+00  0.00000000000E+00  0.14265554489E+04  0.14265554489E+04  0.25500000920E-02 0. -1.
        2   -1    0    0  501    0  0.00000000000E+00  0.00000000000E+00 -0.24990673184E+04  0.24990673184E+04  0.25500000920E-02 0.  1.
    10030    2    1    2    0    0  0.00000000000E+00  0.00000000000E+00 -0.10725118695E+04  0.39256227672E+04  0.37762722890E+04 0.  0.
        4    1    3    3  502    0 -0.57731790784E+03  0.82423985635E+03  0.11245493171E+04  0.15090659651E+04  0.12699999809E+01 0. -1.
       -4    1    3    3    0  502  0.57731790784E+03 -0.82423985635E+03 -0.21970611866E+04  0.24165568022E+04  0.12699999809E+01 0.  1.
</event>
<event>
 5   0  0.1628250E-08  0.3808362E+04  0.7818609E-02  0.8044363E-01
       -1   -1    0    0    0  501  0.00000000000E+00  0.00000000000E+00  0.13967954021E+04  0.13967954021E+04  0.50400001928E-02 0. -1.
        1   -1    0    0  501    0  0.00000000000E+00  0.00000000000E+00 -0.25958737881E+04  0.25958737881E+04  0.50400001928E-02 0.  1.
    10030    2    1    2    0    0  0.00000000000E+00  0.00000000000E+00 -0.11990783861E+04  0.39926691902E+04  0.38083616276E+04 0.  0.
        4    1    3    3  502    0  0.82224331196E+03  0.72686417462E+03  0.10318825707E+04  0.15063860213E+04  0.12699999809E+01 0. -1.
       -4    1    3    3    0  502 -0.82224331196E+03 -0.72686417462E+03 -0.22309609568E+04  0.24862831689E+04  0.12699999809E+01 0.  1.
</event>
<event>
 5   0  0.5140842E-08  0.3804637E+04  0.7818609E-02  0.8045161E-01
       -2   -1    0    0    0  501  0.00000000000E+00  0.00000000000E+00  0.16118182776E+04  0.16118182776E+04  0.25500000920E-02 0.  1.
        2   -1    0    0  501    0  0.00000000000E+00  0.00000000000E+00 -0.22451759152E+04  0.22451759152E+04  0.25500000920E-02 0. -1.
    10030    2    1    2    0    0  0.00000000000E+00  0.00000000000E+00 -0.63335763766E+03  0.38569941928E+04  0.38046369480E+04 0.  0.
        2    1    3    3  502    0 -0.32516962293E+03  0.12261715162E+04  0.11204272195E+04  0.16925096824E+04  0.25500000920E-02 0.  1.
       -2    1    3    3    0  502  0.32516962293E+03 -0.12261715162E+04 -0.17537848571E+04  0.21644845104E+04  0.25500000920E-02 0. -1.
</event>
<event>
 5   0  0.5207474E-08  0.3789152E+04  0.7818609E-02  0.8048487E-01
        2   -1    0    0  501    0  0.00000000000E+00  0.00000000000E+00  0.23345324563E+04  0.23345324563E+04  0.25500000920E-02 0.  1.
       -2   -1    0    0    0  501  0.00000000000E+00  0.00000000000E+00 -0.15375317181E+04  0.15375317181E+04  0.25500000920E-02 0. -1.
    10030    2    1    2    0    0  0.00000000000E+00  0.00000000000E+00  0.79700073826E+03  0.38720641744E+04  0.37891517249E+04 0.  0.
        4    1    3    3  502    0 -0.81468385298E+03  0.10030506738E+04  0.18143118497E+04  0.22274535989E+04  0.12699999809E+01 0.  1.
       -4    1    3    3    0  502  0.81468385298E+03 -0.10030506738E+04 -0.10173111114E+04  0.16446105755E+04  0.12699999809E+01 0. -1.
</event>
<event>
 5   0  0.5159761E-08  0.3802513E+04  0.7818609E-02  0.8045616E-01
        2   -1    0    0  501    0  0.00000000000E+00  0.00000000000E+00  0.18339685233E+04  0.18339685233E+04  0.25500000920E-02 0. -1.
       -2   -1    0    0    0  501  0.00000000000E+00  0.00000000000E+00 -0.19710133852E+04  0.19710133852E+04  0.25500000920E-02 0.  1.
    10030    2    1    2    0    0  0.00000000000E+00  0.00000000000E+00 -0.13704486187E+03  0.38049819085E+04  0.38025131202E+04 0.  0.
        5    1    3    3  502    0 -0.18622902020E+03 -0.39392597150E+03 -0.19203712857E+04  0.19691893976E+04  0.46999998093E+01 0.  1.
       -5    1    3    3    0  502  0.18622902020E+03  0.39392597150E+03  0.17833264238E+04  0.18357925108E+04  0.46999998093E+01 0. -1.
</event>
<event>
 5   0  0.1666051E-08  0.3798908E+04  0.7818609E-02  0.8046389E-01
        1   -1    0    0  501    0  0.00000000000E+00  0.00000000000E+00  0.17484962565E+04  0.17484962565E+04  0.50400001928E-02 0. -1.
       -1   -1    0    0    0  501  0.00000000000E+00  0.00000000000E+00 -0.20634442618E+04  0.20634442619E+04  0.50400001928E-02 0.  1.
    10030    2    1    2    0    0  0.00000000000E+00  0.00000000000E+00 -0.31494800534E+03  0.38119405184E+04  0.37989075100E+04 0.  0.
        2    1    3    3  502    0 -0.15749157561E+04  0.86259616380E+03  0.46391847971E+03  0.18546299190E+04  0.25500000920E-02 0.  1.
       -2    1    3    3    0  502  0.15749157561E+04 -0.86259616380E+03 -0.77886648505E+03  0.19573105993E+04  0.25500000920E-02 0. -1.
</event>
<event>
 5   0  0.5159761E-08  0.3796943E+04  0.7818609E-02  0.8046811E-01
       -2   -1    0    0    0  501  0.00000000000E+00  0.00000000000E+00  0.13661876219E+04  0.13661876219E+04  0.25500000920E-02 0. -1.
        2   -1    0    0  501    0  0.00000000000E+00  0.00000000000E+00 -0.26381399043E+04  0.26381399043E+04  0.25500000920E-02 0.  1.
    10030    2    1    2    0    0  0.00000000000E+00  0.00000000000E+00 -0.12719522823E+04  0.40043275262E+04  0.37969430241E+04 0.  0.
        5    1    3    3  502    0 -0.12537293388E+04 -0.72573726516E+03  0.65808890662E+03  0.15911112255E+04  0.46999998093E+01 0. -1.
       -5    1    3    3    0  502  0.12537293388E+04  0.72573726516E+03 -0.19300411889E+04  0.24132163007E+04  0.46999998093E+01 0.  1.
</event>
<event>
 5   0  0.1628250E-08  0.3801021E+04  0.7818609E-02  0.8045936E-01
        3   -1    0    0  501    0  0.00000000000E+00  0.00000000000E+00  0.13970432416E+04  0.13970432452E+04  0.10100000352E+00 0. -1.
       -3   -1    0    0    0  501  0.00000000000E+00  0.00000000000E+00 -0.25854181296E+04  0.25854181316E+04  0.10100000352E+00 0.  1.
    10030    2    1    2    0    0  0.00000000000E+00  0.00000000000E+00 -0.11883748880E+04  0.39824613768E+04  0.38010214079E+04 0.  0.
        3    1    3    3  502    0  0.11265803886E+04 -0.40464646634E+03 -0.21408007587E+04  0.24527433688E+04  0.10100000352E+00 0.  1.
       -3    1    3    3    0  502 -0.11265803886E+04  0.40464646634E+03  0.95242587064E+03  0.15297180080E+04  0.10100000352E+00 0. -1.
</event>
<event>
 5   0  0.1666051E-08  0.3797197E+04  0.7818609E-02  0.8046757E-01
        1   -1    0    0  501    0  0.00000000000E+00  0.00000000000E+00  0.22345130015E+04  0.22345130015E+04  0.50400001928E-02 0.  1.
       -1   -1    0    0    0  501  0.00000000000E+00  0.00000000000E+00 -0.16131822744E+04  0.16131822744E+04  0.50400001928E-02 0. -1.
    10030    2    1    2    0    0  0.00000000000E+00  0.00000000000E+00  0.62133072707E+03  0.38476952758E+04  0.37971972642E+04 0.  0.
        2    1    3    3  502    0 -0.45785781617E+03  0.46349878204E+03 -0.14963653641E+04  0.16320460176E+04  0.25500000920E-02 0. -1.
       -2    1    3    3    0  502  0.45785781617E+03 -0.46349878204E+03  0.21176960912E+04  0.22156492582E+04  0.25500000920E-02 0.  1.
</event>
<event>
 5   0  0.5147582E-08  0.3804541E+04  0.7818609E-02  0.8045181E-01
        2   -1    0    0  501    0  0.00000000000E+00  0.00000000000E+00  0.17604271956E+04  0.17604271957E+04  0.25500000920E-02 0.  1.
       -2   -1    0    0    0  501  0.00000000000E+00  0.00000000000E+00 -0.20555425072E+04  0.20555425072E+04  0.25500000920E-02 0. -1.
    10030    2    1    2    0    0  0.00000000000E+00  0.00000000000E+00 -0.29511531151E+03  0.38159697028E+04  0.38045409349E+04 0.  0.
        1    1    3    3  502    0  0.18975990516E+04 -0.10911186492E+03 -0.70872956670E+02  0.19020542936E+04  0.50400001928E-02 0.  1.
       -1    1    3    3    0  502 -0.18975990516E+04  0.10911186492E+03 -0.22424235484E+03  0.19139154092E+04  0.50400001928E-02 0. -1.
</event>
<event>
 5   0  0.1628250E-08  0.3808737E+04  0.7818609E-02  0.8044282E-01
       -1   -1    0    0    0  501  0.00000000000E+00  0.00000000000E+00  0.14580925830E+04  0.14580925831E+04  0.50400001928E-02 0.  1.
        1   -1    0    0  501    0  0.00000000000E+00  0.00000000000E+00 -0.24872359767E+04  0.24872359767E+04  0.50400001928E-02 0. -1.
    10030    2    1    2    0    0  0.00000000000E+00  0.00000000000E+00 -0.10291433937E+04  0.39453285598E+04  0.38087374968E+04 0.  0.
        4    1    3    3  502    0 -0.45108314129E+02 -0.10604772525E+04 -0.21524050202E+04  0.23998949450E+04  0.12699999809E+01 0. -1.
       -4    1    3    3    0  502  0.45108314129E+02  0.10604772525E+04  0.11232616265E+04  0.15454336148E+04  0.12699999809E+01 0.  1.
</event>
<event>
 5   0  0.5086209E-08  0.3805546E+04  0.7818609E-02  0.8044966E-01
        2   -1    0    0  501    0  0.00000000000E+00  0.00000000000E+00  0.20011392454E+04  0.20011392454E+04  0.25500000920E-02 0. -1.
       -2   -1    0    0    0  501  0.00000000000E+00  0.00000000000E+00 -0.18092420963E+04  0.18092420963E+04  0.25500000920E-02 0.  1.
    10030    2    1    2    0    0  0.00000000000E+00  0.00000000000E+00  0.19189714908E+03  0.38103813417E+04  0.38055461439E+04 0.  0.
        3    1    3    3  502    0 -0.14345248399E+04 -0.33058777844E+03  0.13030488910E+04  0.19659822527E+04  0.10100000352E+00 0. -1.
       -3    1    3    3    0  502  0.14345248399E+04  0.33058777844E+03 -0.11111517419E+04  0.18443990890E+04  0.10100000352E+00 0.  1.
</event>
<event>
 5   0  0.1628250E-08  0.3794361E+04  0.7818609E-02  0.8047366E-01
        1   -1    0    0  501    0  0.00000000000E+00  0.00000000000E+00  0.14699628671E+04  0.14699628671E+04  0.50400001928E-02 0.  1.
       -1   -1    0    0    0  501  0.00000000000E+00  0.00000000000E+00 -0.24485616404E+04  0.24485616404E+04  0.50400001928E-02 0. -1.
    10030    2    1    2    0    0  0.00000000000E+00  0.00000000000E+00 -0.97859877332E+03  0.39185245075E+04  0.37943614425E+04 0.  0.
        5    1    3    3  502    0  0.11584863379E+04  0.15000081020E+04 -0.57667104077E+03  0.19810821488E+04  0.46999998093E+01 0. -1.
       -5    1    3    3    0  502 -0.11584863379E+04 -0.15000081020E+04 -0.40192773255E+03  0.19374423587E+04  0.46999998093E+01 0.  1.
</event>
<event>
 5   0  0.1628473E-08  0.3765026E+04  0.7818609E-02  0.8053702E-01
       -1   -1    0    0    0  501  0.00000000000E+00  0.00000000000E+00  0.20161812560E+04  0.20161812560E+04  0.50400001928E-02 0.  1.
        1   -1    0    0  501    0  0.00000000000E+00  0.00000000000E+00 -0.17577066789E+04  0.17577066789E+04  0.50400001928E-02 0. -1.
    10030    2    1    2    0    0  0.00000000000E+00  0.00000000000E+00  0.25847457713E+03  0.37738879350E+04  0.37650260343E+04 0.  0.
        3    1    3    3  502    0 -0.14724935842E+04 -0.10419666858E+04  0.66894992994E+03  0.19239090282E+04  0.10100000352E+00 0.  1.
       -3    1    3    3    0  502  0.14724935842E+04  0.10419666858E+04 -0.41047535281E+03  0.18499789067E+04  0.10100000352E+00 0. -1.
</event>
<event>
 5   0  0.5140842E-08  0.3812354E+04  0.7818609E-02  0.8043509E-01
       -2   -1    0    0    0  501  0.00000000000E+00  0.00000000000E+00  0.12829142299E+04  0.12829142299E+04  0.25500000920E-02 0.  1.
        2   -1    0    0  501    0  0.00000000000E+00  0.00000000000E+00 -0.28322313036E+04  0.28322313036E+04  0.25500000920E-02 0. -1.
    10030    2    1    2    0    0  0.00000000000E+00  0.00000000000E+00 -0.15493170738E+04  0.41151455335E+04  0.38123535207E+04 0.  0.
        2    1    3    3  502    0 -0.80233135286E+03 -0.10743891942E+04 -0.22370537052E+04  0.26081520317E+04  0.25500000920E-02 0. -1.
       -2    1    3    3    0  502  0.80233135286E+03  0.10743891942E+04  0.68773663140E+03  0.15069935018E+04  0.25500000920E-02 0.  1.
</event>
<event>
 5   0  0.5159761E-08  0.3798679E+04  0.7818609E-02  0.8046438E-01
       -2   -1    0    0    0  501  0.00000000000E+00  0.00000000000E+00  0.17010989820E+04  0.17010989820E+04  0.25500000920E-02 0. -1.
        2   -1    0    0  501    0  0.00000000000E+00  0.00000000000E+00 -0.21206819300E+04  0.21206819300E+04  0.25500000920E-02 0.  1.
    10030    2    1    2    0    0  0.00000000000E+00  0.00000000000E+00 -0.41958294803E+03  0.38217809120E+04  0.37986786504E+04 0.  0.
        5    1    3    3  502    0 -0.17961329567E+04  0.40980567639E+03  0.25500680963E+03  0.18598615146E+04  0.46999998093E+01 0. -1.
       -5    1    3    3    0  502  0.17961329567E+04 -0.40980567639E+03 -0.67458975766E+03  0.19619193974E+04  0.46999998093E+01 0.  1.
</event>
<event>
 5   0  0.1628250E-08  0.3805708E+04  0.7818609E-02  0.8044931E-01
        1   -1    0    0  501    0  0.00000000000E+00  0.00000000000E+00  0.22921069107E+04  0.22921069107E+04  0.50400001928E-02 0. -1.
       -1   -1    0    0    0  501  0.00000000000E+00  0.00000000000E+00 -0.15797055341E+04  0.15797055341E+04  0.50400001928E-02 0.  1.
    10030    2    1    2    0    0  0.00000000000E+00  0.00000000000E+00  0.71240137659E+03  0.38718124448E+04  0.38057083291E+04 0.  0.
        4    1    3    3  502    0  0.75925632790E+03  0.10626686501E+04 -0.10517146041E+04  0.16768542134E+04  0.12699999809E+01 0.  1.
       -4    1    3    3    0  502 -0.75925632790E+03 -0.10626686501E+04  0.17641159807E+04  0.21949582314E+04  0.12699999809E+01 0. -1.
</event>
<event>
 5   0  0.5207474E-08  0.3819016E+04  0.7818609E-02  0.8042086E-01
        2   -1    0    0  501    0  0.00000000000E+00  0.00000000000E+00  0.21592355552E+04  0.21592355552E+04  0.25500000920E-02 0. -1.
       -2   -1    0    0    0  501  0.00000000000E+00  0.00000000000E+00 -0.16886626343E+04  0.16886626343E+04  0.25500000920E-02 0.  1.
    10030    2    1    2    0    0  0.00000000000E+00  0.00000000000E+00  0.47057292088E+03  0.38478981895E+04  0.38190157899E+04 0.  0.
        4    1    3    3  502    0  0.13002407211E+04 -0.12478186383E+04  0.87136229256E+03  0.20017370318E+04  0.12699999809E+01 0. -1.
       -4    1    3    3    0  502 -0.13002407211E+04  0.12478186383E+04 -0.40078937168E+03  0.18461611577E+04  0.12699999809E+01 0.  1.
</event>
<event>
 5   0  0.1628250E-08  0.3799768E+04  0.7818609E-02  0.8046205E-01
        1   -1    0    0  501    0  0.00000000000E+00  0.00000000000E+00  0.15187325216E+04  0.15187325216E+04  0.50400001928E-02 0.  1.
       -1   -1    0    0    0  501  0.00000000000E+00  0.00000000000E+00 -0.23766912334E+04  0.23766912334E+04  0.50400001928E-02 0. -1.
    10030    2    1    2    0    0  0.00000000000E+00  0.00000000000E+00 -0.85795871184E+03  0.38954237550E+04  0.37997675034E+04 0.  0.
        5    1    3    3  502    0 -0.56063807332E+02  0.12847021002E+04 -0.18627336494E+04  0.22634931799E+04  0.46999998093E+01 0. -1.
       -5    1    3    3    0  502  0.56063807332E+02 -0.12847021002E+04  0.10047749375E+04  0.16319305751E+04  0.46999998093E+01 0.  1.
</event>
<event>
 5   0  0.5140842E-08  0.3796316E+04  0.7818609E-02  0.8046946E-01
       -2   -1    0    0    0  501  0.00000000000E+00  0.00000000000E+00  0.27443290442E+04  0.27443290442E+04  0.25500000920E-02 0.  1.
        2   -1    0    0  501    0  0.00000000000E+00  0.00000000000E+00 -0.13128909281E+04  0.13128909281E+04  0.25500000920E-02 0. -1.
    10030    2    1    2    0    0  0.00000000000E+00  0.00000000000E+00  0.14314381161E+04  0.40572199723E+04  0.37963164809E+04 0.  0.
        2    1    3    3  502    0 -0.57143348743E+03  0.12515333809E+04 -0.68187500284E+03  0.15355212645E+04  0.25500000920E-02 0. -1.
       -2    1    3    3    0  502  0.57143348743E+03 -0.12515333809E+04  0.21133131190E+04  0.25216987078E+04  0.25500000920E-02 0.  1.
</event>
<event>
 5   0  0.5086209E-08  0.3797727E+04  0.7818609E-02  0.8046643E-01
       -2   -1    0    0    0  501  0.00000000000E+00  0.00000000000E+00  0.18407188175E+04  0.18407188175E+04  0.25500000920E-02 0. -1.
        2   -1    0    0  501    0  0.00000000000E+00  0.00000000000E+00 -0.19588448944E+04  0.19588448944E+04  0.25500000920E-02 0.  1.
    10030    2    1    2    0    0  0.00000000000E+00  0.00000000000E+00 -0.11812607689E+03  0.37995637119E+04  0.37977270348E+04 0.  0.
        3    1    3    3  502    0 -0.11491345151E+04 -0.29330267071E+01 -0.15714699849E+04  0.19468016489E+04  0.10100000352E+00 0.  1.
       -3    1    3    3    0  502  0.11491345151E+04  0.29330267071E+01  0.14533439081E+04  0.18527620629E+04  0.10100000352E+00 0. -1.
</event>
<event>
 5   0  0.1666051E-08  0.3793675E+04  0.7818609E-02  0.8047514E-01
        1   -1    0    0  501    0  0.00000000000E+00  0.00000000000E+00  0.13781287837E+04  0.13781287837E+04  0.50400001928E-02 0. -1.
       -1   -1    0    0    0  501  0.00000000000E+00  0.00000000000E+00 -0.26107812327E+04  0.26107812327E+04  0.50400001928E-02 0.  1.
    10030    2    1    2    0    0  0.00000000000E+00  0.00000000000E+00 -0.12326524490E+04  0.39889100164E+04  0.37936751388E+04 0.  0.
        2    1    3    3  502    0  0.71189809218E+03 -0.12922280451E+04 -0.18698805915E+04  0.23818282139E+04  0.25500000920E-02 0.  1.
       -2    1    3    3    0  502 -0.71189809218E+03  0.12922280451E+04  0.63722814243E+03  0.16070818025E+04  0.25500000920E-02 0. -1.
</event>
<event>
 5   0  0.1628250E-08  0.3795542E+04  0.7818609E-02  0.8047112E-01
       -1   -1    0    0    0  501  0.00000000000E+00  0.00000000000E+00  0.17643619178E+04  0.17643619179E+04  0.50400001928E-02 0. -1.
        1   -1    0    0  501    0  0.00000000000E+00  0.00000000000E+00 -0.20412676361E+04  0.20412676361E+04  0.50400001928E-02 0.  1.
    10030    2    1    2    0    0  0.00000000000E+00  0.00000000000E+00 -0.27690571827E+03  0.38056295540E+04  0.37955420595E+04 0.  0.
        5    1    3    3  502    0 -0.39137079634E+03  0.93335838028E+03  0.14711747076E+04  0.17856948442E+04  0.46999998093E+01 0. -1.
       -5    1    3    3    0  502  0.39137079634E+03 -0.93335838028E+03 -0.17480804259E+04  0.20199347098E+04  0.46999998093E+01 0.  1.
</event>
<event>
 5   0  0.5086209E-08  0.3797781E+04  0.7818609E-02  0.8046631E-01
        2   -1    0    0  501    0  0.00000000000E+00  0.00000000000E+00  0.24580014352E+04  0.24580014352E+04  0.25500000920E-02 0.  1.
       -2   -1    0    0    0  501  0.00000000000E+00  0.00000000000E+00 -0.14669583414E+04  0.14669583414E+04  0.25500000920E-02 0. -1.
    10030    2    1    2    0    0  0.00000000000E+00  0.00000000000E+00  0.99104309376E+03  0.39249597766E+04  0.37977813042E+04 0.  0.
        3    1    3    3  502    0 -0.95295314912E+03 -0.29227606205E+03  0.21658883639E+04  0.23842435731E+04  0.10100000352E+00 0.  1.
       -3    1    3    3    0  502  0.95295314912E+03  0.29227606205E+03 -0.11748452701E+04  0.15407162035E+04  0.10100000352E+00 0. -1.
</event>
<event>
 5   0  0.5086209E-08  0.3798722E+04  0.7818609E-02  0.8046429E-01
        2   -1    0    0  501    0  0.00000000000E+00  0.00000000000E+00  0.18034952698E+04  0.18034952698E+04  0.25500000920E-02 0. -1.
       -2   -1    0    0    0  501  0.00000000000E+00  0.00000000000E+00 -0.20003222623E+04  0.20003222623E+04  0.25500000920E-02 0.  1.
    10030    2    1    2    0    0  0.00000000000E+00  0.00000000000E+00 -0.19682699258E+03  0.38038175321E+04  0.37987217525E+04 0.  0.
        3    1    3    3  502    0 -0.59615539492E+03 -0.69158641929E+03  0.15693172091E+04  0.18156127184E+04  0.10100000352E+00 0. -1.
       -3    1    3    3    0  502  0.59615539492E+03  0.69158641929E+03 -0.17661442016E+04  0.19882048137E+04  0.10100000352E+00 0.  1.
</event>
<event>
 5   0  0.5140842E-08  0.3899955E+04  0.7818609E-02  0.8025039E-01
       -2   -1    0    0    0  501  0.00000000000E+00  0.00000000000E+00  0.32850345173E+04  0.32850345173E+04  0.25500000920E-02 0.  1.
        2   -1    0    0  501    0  0.00000000000E+00  0.00000000000E+00 -0.11574952944E+04  0.11574952944E+04  0.25500000920E-02 0. -1.
    10030    2    1    2    0    0  0.00000000000E+00  0.00000000000E+00  0.21275392229E+04  0.44425298117E+04  0.38999548693E+04 0.  0.
        2    1    3    3  502    0 -0.11514333957E+04  0.49604213625E+03 -0.63751615969E+03  0.14065146709E+04  0.25500000920E-02 0. -1.
       -2    1    3    3    0  502  0.11514333957E+04 -0.49604213625E+03  0.27650553826E+04  0.30360151407E+04  0.25500000920E-02 0.  1.
</event>
<event>
 5   0  0.1628250E-08  0.3833046E+04  0.7818609E-02  0.8039100E-01
       -1   -1    0    0    0  501  0.00000000000E+00  0.00000000000E+00  0.19185444914E+04  0.19185444914E+04  0.50400001928E-02 0.  1.
        1   -1    0    0  501    0  0.00000000000E+00  0.00000000000E+00 -0.19145032777E+04  0.19145032777E+04  0.50400001928E-02 0. -1.
    10030    2    1    2    0    0  0.00000000000E+00  0.00000000000E+00  0.40412136955E+01  0.38330477691E+04  0.38330456388E+04 0.  0.
        1    1    3    3  502    0 -0.22474146294E+03 -0.55796697414E+02  0.19045036538E+04  0.19185296880E+04  0.50400001928E-02 0.  1.
       -1    1    3    3    0  502  0.22474146294E+03  0.55796697414E+02 -0.19004624401E+04  0.19145180811E+04  0.50400001928E-02 0. -1.
</event>
<event>
 5   0  0.5207474E-08  0.3793491E+04  0.7818609E-02  0.8047553E-01
        2   -1    0    0  501    0  0.00000000000E+00  0.00000000000E+00  0.33089270155E+04  0.33089270155E+04  0.25500000920E-02 0.  1.
       -2   -1    0    0    0  501  0.00000000000E+00  0.00000000000E+00 -0.10872537386E+04  0.10872537386E+04  0.25500000920E-02 0. -1.
    10030    2    1    2    0    0  0.00000000000E+00  0.00000000000E+00  0.22216732769E+04  0.43961807541E+04  0.37934908822E+04 0.  0.
        4    1    3    3  502    0 -0.35027123221E+01 -0.13108718512E+03 -0.10819937043E+04  0.10899119727E+04  0.12699999809E+01 0. -1.
       -4    1    3    3    0  502  0.35027123221E+01  0.13108718512E+03  0.33036669812E+04  0.33062687814E+04  0.12699999809E+01 0.  1.
</event>
<event>
 5   0  0.5086209E-08  0.3772264E+04  0.7818609E-02  0.8052133E-01
       -2   -1    0    0    0  501  0.00000000000E+00  0.00000000000E+00  0.21249237394E+04  0.21249237394E+04  0.25500000920E-02 0.  1.
        2   -1    0    0  501    0  0.00000000000E+00  0.00000000000E+00 -0.16741746717E+04  0.16741746717E+04  0.25500000920E-02 0. -1.
    10030    2    1    2    0    0  0.00000000000E+00  0.00000000000E+00  0.45074906771E+03  0.37990984111E+04  0.37722637786E+04 0.  0.
        3    1    3    3  502    0  0.51945592459E+03 -0.16818794767E+04 -0.45689607708E+03  0.18186003044E+04  0.10100000352E+00 0. -1.
       -3    1    3    3    0  502 -0.51945592459E+03  0.16818794767E+04  0.90764514479E+03  0.19804981067E+04  0.10100000352E+00 0.  1.
</event>
<event>
 5   0  0.1666051E-08  0.3789971E+04  0.7818609E-02  0.8048311E-01
       -1   -1    0    0    0  501  0.00000000000E+00  0.00000000000E+00  0.26617161342E+04  0.26617161342E+04  0.50400001928E-02 0.  1.
        1   -1    0    0  501    0  0.00000000000E+00  0.00000000000E+00 -0.13491181596E+04  0.13491181596E+04  0.50400001928E-02 0. -1.
    10030    2    1    2    0    0  0.00000000000E+00  0.00000000000E+00  0.13125979746E+04  0.40108342938E+04  0.37899707505E+04 0.  0.
        2    1    3    3  502    0 -0.69259578889E+03 -0.34403867403E+03 -0.11745236477E+04  0.14062564969E+04  0.25500000920E-02 0. -1.
       -2    1    3    3    0  502  0.69259578889E+03  0.34403867403E+03  0.24871216223E+04  0.26045777969E+04  0.25500000920E-02 0.  1.
</event>
<event>
 5   0  0.1628250E-08  0.3809207E+04  0.7818609E-02  0.8044182E-01
       -1   -1    0    0    0  501  0.00000000000E+00  0.00000000000E+00  0.17349339787E+04  0.17349339787E+04  0.50400001928E-02 0.  1.
        1   -1    0    0  501    0  0.00000000000E+00  0.00000000000E+00 -0.20908664509E+04  0.20908664509E+04  0.50400001928E-02 0. -1.
    10030    2    1    2    0    0  0.00000000000E+00  0.00000000000E+00 -0.35593247217E+03  0.38258004296E+04  0.38092073982E+04 0.  0.
        1    1    3    3  502    0  0.12956265865E+04 -0.12476968596E+04 -0.80688845457E+03  0.19714118503E+04  0.50400001928E-02 0.  1.
       -1    1    3    3    0  502 -0.12956265865E+04  0.12476968596E+04  0.45095598240E+03  0.18543885794E+04  0.50400001928E-02 0. -1.
</event>
<event>
 5   0  0.5147582E-08  0.3761204E+04  0.7818609E-02  0.8054532E-01
       -2   -1    0    0    0  501  0.00000000000E+00  0.00000000000E+00  0.12196876230E+04  0.12196876231E+04  0.25500000920E-02 0.  1.
        2   -1    0    0  501    0  0.00000000000E+00  0.00000000000E+00 -0.28996477114E+04  0.28996477114E+04  0.25500000920E-02 0. -1.
    10030    2    1    2    0    0  0.00000000000E+00  0.00000000000E+00 -0.16799600883E+04  0.41193353344E+04  0.37612042884E+04 0.  0.
        1    1    3    3  502    0  0.17914557206E+04 -0.56438058230E+03 -0.73709149763E+03  0.20177073417E+04  0.50400001928E-02 0.  1.
       -1    1    3    3    0  502 -0.17914557206E+04  0.56438058230E+03 -0.94286859069E+03  0.21016279928E+04  0.50400001928E-02 0. -1.
</event>
<event>
 5   0  0.1628250E-08  0.3798297E+04  0.7818609E-02  0.8046520E-01
        1   -1    0    0  501    0  0.00000000000E+00  0.00000000000E+00  0.25481449348E+04  0.25481449348E+04  0.50400001928E-02 0. -1.
       -1   -1    0    0    0  501  0.00000000000E+00  0.00000000000E+00 -0.14154474722E+04  0.14154474722E+04  0.50400001928E-02 0.  1.
    10030    2    1    2    0    0  0.00000000000E+00  0.00000000000E+00  0.11326974626E+04  0.39635924070E+04  0.37982971484E+04 0.  0.
        5    1    3    3  502    0 -0.13304717245E+04  0.96421448968E+03 -0.42739552882E+03  0.16978084756E+04  0.46999998093E+01 0.  1.
       -5    1    3    3    0  502  0.13304717245E+04 -0.96421448968E+03  0.15600929914E+04  0.22657839314E+04  0.46999998093E+01 0. -1.
</event>
<event>
 5   0  0.1628250E-08  0.3800304E+04  0.7818609E-02  0.8046090E-01
        1   -1    0    0  501    0  0.00000000000E+00  0.00000000000E+00  0.30635967201E+04  0.30635967201E+04  0.50400001928E-02 0.  1.
       -1   -1    0    0    0  501  0.00000000000E+00  0.00000000000E+00 -0.11785422047E+04  0.11785422048E+04  0.50400001928E-02 0. -1.
    10030    2    1    2    0    0  0.00000000000E+00  0.00000000000E+00  0.18850545153E+04  0.42421389248E+04  0.38003042157E+04 0.  0.
        1    1    3    3  502    0  0.12860888841E+04 -0.13938145339E+04  0.81123242555E+03  0.20627267442E+04  0.50400001928E-02 0. -1.
       -1    1    3    3    0  502 -0.12860888841E+04  0.13938145339E+04  0.10738220898E+04  0.21794121807E+04  0.50400001928E-02 0.  1.
</event>
<event>
 5   0  0.5086209E-08  0.3798822E+04  0.7818609E-02  0.8046408E-01
        2   -1    0    0  501    0  0.00000000000E+00  0.00000000000E+00  0.11355977158E+04  0.11355977158E+04  0.25500000920E-02 0.  1.
       -2   -1    0    0    0  501  0.00000000000E+00  0.00000000000E+00 -0.31769717170E+04  0.31769717170E+04  0.25500000920E-02 0. -1.
    10030    2    1    2    0    0  0.00000000000E+00  0.00000000000E+00 -0.20413740011E+04  0.43125694328E+04  0.37988218306E+04 0.  0.
        3    1    3    3  502    0  0.51260443584E+03  0.14671798677E+04 -0.22603248677E+04  0.27430728371E+04  0.10100000352E+00 0. -1.
       -3    1    3    3    0  502 -0.51260443584E+03 -0.14671798677E+04  0.21895086659E+03  0.15694965957E+04  0.10100000352E+00 0.  1.
</event>
<event>
 5   0  0.1628250E-08  0.3773401E+04  0.7818609E-02  0.8051887E-01
        1   -1    0    0  501    0  0.00000000000E+00  0.00000000000E+00  0.20972880843E+04  0.20972880843E+04  0.50400001928E-02 0.  1.
       -1   -1    0    0    0  501  0.00000000000E+00  0.00000000000E+00 -0.16972581233E+04  0.16972581233E+04  0.50400001928E-02 0. -1.
    10030    2    1    2    0    0  0.00000000000E+00  0.00000000000E+00  0.40002996100E+03  0.37945462077E+04  0.37734012446E+04 0.  0.
        1    1    3    3  502    0 -0.13014846887E+04  0.13219878667E+04 -0.14560403407E+03  0.18608371367E+04  0.50400001928E-02 0.  1.
       -1    1    3    3    0  502  0.13014846887E+04 -0.13219878667E+04  0.54563399507E+03  0.19337090710E+04  0.50400001928E-02 0. -1.
</event>
<event>
 5   0  0.1628250E-08  0.3806152E+04  0.7818609E-02  0.8044836E-01
        1   -1    0    0  501    0  0.00000000000E+00  0.00000000000E+00  0.23681153094E+04  0.23681153094E+04  0.50400001928E-02 0.  1.
       -1   -1    0    0    0  501  0.00000000000E+00  0.00000000000E+00 -0.15293591638E+04  0.15293591638E+04  0.50400001928E-02 0. -1.
    10030    2    1    2    0    0  0.00000000000E+00  0.00000000000E+00  0.83875614563E+03  0.38974744732E+04  0.38061523088E+04 0.  0.
        1    1    3    3  502    0  0.17771006985E+04  0.32259357384E+03  0.10333859604E+04  0.20808748280E+04  0.50400001928E-02 0.  1.
       -1    1    3    3    0  502 -0.17771006985E+04 -0.32259357384E+03 -0.19462981481E+03  0.18165996453E+04  0.50400001928E-02 0. -1.
</event>
<event>
 5   0  0.1666051E-08  0.3805598E+04  0.7818609E-02  0.8044955E-01
       -1   -1    0    0    0  501  0.00000000000E+00  0.00000000000E+00  0.15724790304E+04  0.15724790305E+04  0.50400001928E-02 0. -1.
        1   -1    0    0  501    0  0.00000000000E+00  0.00000000000E+00 -0.23025074362E+04  0.23025074362E+04  0.50400001928E-02 0.  1.
    10030    2    1    2    0    0  0.00000000000E+00  0.00000000000E+00 -0.73002840577E+03  0.38749864667E+04  0.38055983293E+04 0.  0.
        2    1    3    3  502    0 -0.14929455779E+04 -0.98390106528E+03  0.29777414247E+03  0.18126271665E+04  0.25500000920E-02 0. -1.
       -2    1    3    3    0  502  0.14929455779E+04  0.98390106528E+03 -0.10278025482E+04  0.20623593002E+04  0.25500000920E-02 0.  1.
</event>
<event>
 5   0  0.5147582E-08  0.3796905E+04  0.7818609E-02  0.8046819E-01
        2   -1    0    0  501    0  0.00000000000E+00  0.00000000000E+00  0.19496478465E+04  0.19496478465E+04  0.25500000920E-02 0.  1.
       -2   -1    0    0    0  501  0.00000000000E+00  0.00000000000E+00 -0.18486014784E+04  0.18486014784E+04  0.25500000920E-02 0. -1.
    10030    2    1    2    0    0  0.00000000000E+00  0.00000000000E+00  0.10104636816E+03  0.37982493249E+04  0.37969049982E+04 0.  0.
        1    1    3    3  502    0  0.77298883434E+03 -0.17241622346E+04 -0.13359290316E+03  0.18942265475E+04  0.50400001928E-02 0. -1.
       -1    1    3    3    0  502 -0.77298883434E+03  0.17241622346E+04  0.23463927132E+03  0.19040227774E+04  0.50400001928E-02 0.  1.
</event>
<event>
 5   0  0.5086209E-08  0.3792515E+04  0.7818609E-02  0.8047763E-01
        2   -1    0    0  501    0  0.00000000000E+00  0.00000000000E+00  0.20762913728E+04  0.20762913728E+04  0.25500000920E-02 0.  1.
       -2   -1    0    0    0  501  0.00000000000E+00  0.00000000000E+00 -0.17318338037E+04  0.17318338037E+04  0.25500000920E-02 0. -1.
    10030    2    1    2    0    0  0.00000000000E+00  0.00000000000E+00  0.34445756919E+03  0.38081251765E+04  0.37925145145E+04 0.  0.
        3    1    3    3  502    0  0.87815817523E+03  0.12576013624E+04  0.12917479005E+04  0.20053268103E+04  0.10100000352E+00 0.  1.
       -3    1    3    3    0  502 -0.87815817523E+03 -0.12576013624E+04 -0.94729033131E+03  0.18027983662E+04  0.10100000352E+00 0. -1.
</event>
<event>
 5   0  0.5140842E-08  0.3785533E+04  0.7818609E-02  0.8049267E-01
       -2   -1    0    0    0  501  0.00000000000E+00  0.00000000000E+00  0.17564733372E+04  0.17564733372E+04  0.25500000920E-02 0. -1.
        2   -1    0    0  501    0  0.00000000000E+00  0.00000000000E+00 -0.20396356560E+04  0.20396356560E+04  0.25500000920E-02 0.  1.
    10030    2    1    2    0    0  0.00000000000E+00  0.00000000000E+00 -0.28316231880E+03  0.37961089931E+04  0.37855333295E+04 0.  0.
        2    1    3    3  502    0  0.60082295135E+03 -0.78402920286E+03 -0.17606740125E+04  0.20188271318E+04  0.25500000920E-02 0.  1.
       -2    1    3    3    0  502 -0.60082295135E+03  0.78402920286E+03  0.14775116937E+04  0.17772818614E+04  0.25500000920E-02 0. -1.
</event>
<event>
 5   0  0.5207474E-08  0.3809321E+04  0.7818609E-02  0.8044157E-01
        2   -1    0    0  501    0  0.00000000000E+00  0.00000000000E+00  0.22292784708E+04  0.22292784708E+04  0.25500000920E-02 0. -1.
       -2   -1    0    0    0  501  0.00000000000E+00  0.00000000000E+00 -0.16273123441E+04  0.16273123441E+04  0.25500000920E-02 0.  1.
    10030    2    1    2    0    0  0.00000000000E+00  0.00000000000E+00  0.60196612667E+03  0.38565908149E+04  0.38093213958E+04 0.  0.
        4    1    3    3  502    0 -0.88002005420E+03  0.11531312522E+04  0.15506351448E+04  0.21233506413E+04  0.12699999809E+01 0.  1.
       -4    1    3    3    0  502  0.88002005420E+03 -0.11531312522E+04 -0.94866901813E+03  0.17332401736E+04  0.12699999809E+01 0. -1.
</event>
<event>
 5   0  0.5086209E-08  0.3826981E+04  0.7818609E-02  0.8040389E-01
        2   -1    0    0  501    0  0.00000000000E+00  0.00000000000E+00  0.23378918248E+04  0.23378918248E+04  0.25500000920E-02 0.  1.
       -2   -1    0    0    0  501  0.00000000000E+00  0.00000000000E+00 -0.15661316398E+04  0.15661316398E+04  0.25500000920E-02 0. -1.
    10030    2    1    2    0    0  0.00000000000E+00  0.00000000000E+00  0.77176018504E+03  0.39040234646E+04  0.38269812423E+04 0.  0.
        3    1    3    3  502    0 -0.91424305398E+03 -0.15341496237E+04  0.10867265888E+04  0.20905573703E+04  0.10100000352E+00 0. -1.
       -3    1    3    3    0  502  0.91424305398E+03  0.15341496237E+04 -0.31496640373E+03  0.18134660943E+04  0.10100000352E+00 0.  1.
</event>
<event>
 5   0  0.1628473E-08  0.3794057E+04  0.7818609E-02  0.8047431E-01
       -1   -1    0    0    0  501  0.00000000000E+00  0.00000000000E+00  0.18362937492E+04  0.18362937492E+04  0.50400001928E-02 0. -1.
        1   -1    0    0  501    0  0.00000000000E+00  0.00000000000E+00 -0.19597720388E+04  0.19597720388E+04  0.50400001928E-02 0.  1.
    10030    2    1    2    0    0  0.00000000000E+00  0.00000000000E+00 -0.12347828953E+03  0.37960657880E+04  0.37940570079E+04 0.  0.
        3    1    3    3  502    0  0.24228824573E+03 -0.16456961296E+04 -0.97419665868E+03  0.19277132787E+04  0.10100000352E+00 0.  1.
       -3    1    3    3    0  502 -0.24228824573E+03  0.16456961296E+04  0.85071836914E+03  0.18683525093E+04  0.10100000352E+00 0. -1.
</event>
<event>
 5   0  0.5207474E-08  0.3805219E+04  0.7818609E-02  0.8045036E-01
        2   -1    0    0  501    0  0.00000000000E+00  0.00000000000E+00  0.14660108237E+04  0.14660108237E+04  0.25500000920E-02 0.  1.
       -2   -1    0    0    0  501  0.00000000000E+00  0.00000000000E+00 -0.24692334120E+04  0.24692334120E+04  0.25500000920E-02 0. -1.
    10030    2    1    2    0    0  0.00000000000E+00  0.00000000000E+00 -0.10032225883E+04  0.39352442356E+04  0.38052189993E+04 0.  0.
        4    1    3    3  502    0  0.69766745043E+03  0.15706749616E+04 -0.13456878319E+04  0.21828048608E+04  0.12699999809E+01 0. -1.
       -4    1    3    3    0  502 -0.69766745043E+03 -0.15706749616E+04  0.34246524364E+03  0.17524393748E+04  0.12699999809E+01 0.  1.
</event>
<event>
 5   0  0.5140842E-08  0.3796695E+04  0.7818609E-02  0.8046865E-01
       -2   -1    0    0    0  501  0.00000000000E+00  0.00000000000E+00  0.13929440944E+04  0.13929440944E+04  0.25500000920E-02 0.  1.
        2   -1    0    0  501    0  0.00000000000E+00  0.00000000000E+00 -0.25871266037E+04  0.25871266037E+04  0.25500000920E-02 0. -1.
    10030    2    1    2    0    0  0.00000000000E+00  0.00000000000E+00 -0.11941825093E+04  0.39800706982E+04  0.37966947332E+04 0.  0.
        2    1    3    3  502    0  0.14246306420E+04  0.71604096956E+03  0.48292907146E+03  0.16659854814E+04  0.25500000920E-02 0.  1.
       -2    1    3    3    0  502 -0.14246306420E+04 -0.71604096956E+03 -0.16771115808E+04  0.23140852168E+04  0.25500000920E-02 0. -1.
</event>
<event>
 5   0  0.1666051E-08  0.3801725E+04  0.7818609E-02  0.8045785E-01
       -1   -1    0    0    0  501  0.00000000000E+00  0.00000000000E+00  0.20565947084E+04  0.20565947084E+04  0.50400001928E-02 0.  1.
        1   -1    0    0  501    0  0.00000000000E+00  0.00000000000E+00 -0.17569232031E+04  0.17569232031E+04  0.50400001928E-02 0. -1.
    10030    2    1    2    0    0  0.00000000000E+00  0.00000000000E+00  0.29967150526E+03  0.38135179115E+04  0.38017253781E+04 0.  0.
        2    1    3    3  502    0  0.32883667875E+03 -0.10927924461E+04 -0.13750606149E+04  0.17869304928E+04  0.25500000920E-02 0. -1.
       -2    1    3    3    0  502 -0.32883667875E+03  0.10927924461E+04  0.16747321202E+04  0.20265874187E+04  0.25500000920E-02 0.  1.
</event>
<event>
 5   0  0.1666051E-08  0.3801779E+04  0.7818609E-02  0.8045773E-01
        1   -1    0    0  501    0  0.00000000000E+00  0.00000000000E+00  0.26218407293E+04  0.26218407293E+04  0.50400001928E-02 0. -1.
       -1   -1    0    0    0  501  0.00000000000E+00  0.00000000000E+00 -0.13781847945E+04  0.13781847945E+04  0.50400001928E-02 0.  1.
    10030    2    1    2    0    0  0.00000000000E+00  0.00000000000E+00  0.12436559348E+04  0.40000255238E+04  0.38017790713E+04 0.  0.
        2    1    3    3  502    0 -0.13975598433E+04 -0.72617543800E+03 -0.49804101985E+03  0.16518320556E+04  0.25500000920E-02 0.  1.
       -2    1    3    3    0  502  0.13975598433E+04  0.72617543800E+03  0.17416969546E+04  0.23481934682E+04  0.25500000920E-02 0. -1.
</event>
<event>
 5   0  0.5147582E-08  0.3815064E+04  0.7818609E-02  0.8042930E-01
        2   -1    0    0  501    0  0.00000000000E+00  0.00000000000E+00  0.22437604717E+04  0.22437604717E+04  0.25500000920E-02 0. -1.
       -2   -1    0    0    0  501  0.00000000000E+00  0.00000000000E+00 -0.16216873644E+04  0.16216873644E+04  0.25500000920E-02 0.  1.
    10030    2    1    2    0    0  0.00000000000E+00  0.00000000000E+00  0.62207310726E+03  0.38654478361E+04  0.38150638294E+04 0.  0.
        1    1    3    3  502    0 -0.13973256333E+04  0.56582023354E+03  0.14952347581E+04  0.21232989531E+04  0.50400001928E-02 0. -1.
       -1    1    3    3    0  502  0.13973256333E+04 -0.56582023354E+03 -0.87316165088E+03  0.17421488830E+04  0.50400001928E-02 0.  1.
</event>
<event>
 5   0  0.1628250E-08  0.3793224E+04  0.7818609E-02  0.8047611E-01
        1   -1    0    0  501    0  0.00000000000E+00  0.00000000000E+00  0.14962936093E+04  0.14962936093E+04  0.50400001928E-02 0. -1.
       -1   -1    0    0    0  501  0.00000000000E+00  0.00000000000E+00 -0.24040311440E+04  0.24040311440E+04  0.50400001928E-02 0.  1.
    10030    2    1    2    0    0  0.00000000000E+00  0.00000000000E+00 -0.90773753469E+03  0.39003247532E+04  0.37932236618E+04 0.  0.
        1    1    3    3  502    0  0.14214551722E+04  0.58152666449E+03  0.69039926268E+03  0.16838524906E+04  0.50400001928E-02 0. -1.
       -1    1    3    3    0  502 -0.14214551722E+04 -0.58152666449E+03 -0.15981367974E+04  0.22164722627E+04  0.50400001928E-02 0.  1.
</event>
<event>
 5   0  0.1628250E-08  0.3800527E+04  0.7818609E-02  0.8046042E-01
        1   -1    0    0  501    0  0.00000000000E+00  0.00000000000E+00  0.18735934591E+04  0.18735934591E+04  0.50400001928E-02 0. -1.
       -1   -1    0    0    0  501  0.00000000000E+00  0.00000000000E+00 -0.19273128284E+04  0.19273128284E+04  0.50400001928E-02 0.  1.
    10030    2    1    2    0    0  0.00000000000E+00  0.00000000000E+00 -0.53719369316E+02  0.38009062875E+04  0.38005266525E+04 0.  0.
        5    1    3    3  502    0 -0.74272766802E+03  0.73559230023E+03  0.15601946047E+04  0.18780228208E+04  0.46999998093E+01 0. -1.
       -5    1    3    3    0  502  0.74272766802E+03 -0.73559230023E+03 -0.16139139740E+04  0.19228834667E+04  0.46999998093E+01 0.  1.
</event>
<event>
 5   0  0.1628250E-08  0.3800208E+04  0.7818609E-02  0.8046110E-01
       -1   -1    0    0    0  501  0.00000000000E+00  0.00000000000E+00  0.15298052848E+04  0.15298052848E+04  0.50400001928E-02 0. -1.
        1   -1    0    0  501    0  0.00000000000E+00  0.00000000000E+00 -0.23600356936E+04  0.23600356936E+04  0.50400001928E-02 0.  1.
    10030    2    1    2    0    0  0.00000000000E+00  0.00000000000E+00 -0.83023040876E+03  0.38898409784E+04  0.38002079292E+04 0.  0.
        1    1    3    3  502    0 -0.18872178185E+04  0.12924212034E+03 -0.59850707940E+03  0.19840628377E+04  0.50400001928E-02 0. -1.
       -1    1    3    3    0  502  0.18872178185E+04 -0.12924212034E+03 -0.23172332936E+03  0.19057781406E+04  0.50400001928E-02 0.  1.
</event>
<event>
 5   0  0.1628473E-08  0.3800058E+04  0.7818609E-02  0.8046142E-01
        1   -1    0    0  501    0  0.00000000000E+00  0.00000000000E+00  0.21741762995E+04  0.21741762995E+04  0.50400001928E-02 0. -1.
       -1   -1    0    0    0  501  0.00000000000E+00  0.00000000000E+00 -0.16604493976E+04  0.16604493976E+04  0.50400001928E-02 0.  1.
    10030    2    1    2    0    0  0.00000000000E+00  0.00000000000E+00  0.51372690190E+03  0.38346256971E+04  0.38000577505E+04 0.  0.
        3    1    3    3  502    0 -0.64780721687E+03  0.57349601855E+03  0.19638655143E+04  0.21460008486E+04  0.10100000352E+00 0. -1.
       -3    1    3    3    0  502  0.64780721687E+03 -0.57349601855E+03 -0.14501386124E+04  0.16886248485E+04  0.10100000352E+00 0.  1.
</event>
<event>
 5   0  0.5086209E-08  0.3797447E+04  0.7818609E-02  0.8046703E-01
       -2   -1    0    0    0  501  0.00000000000E+00  0.00000000000E+00  0.16858441230E+04  0.16858441230E+04  0.25500000920E-02 0.  1.
        2   -1    0    0  501    0  0.00000000000E+00  0.00000000000E+00 -0.21384845919E+04  0.21384845919E+04  0.25500000920E-02 0. -1.
    10030    2    1    2    0    0  0.00000000000E+00  0.00000000000E+00 -0.45264046888E+03  0.38243287150E+04  0.37974473961E+04 0.  0.
        3    1    3    3  502    0  0.10802215083E+04  0.11036231756E+04 -0.13388068767E+04  0.20438362175E+04  0.10100000352E+00 0. -1.
       -3    1    3    3    0  502 -0.10802215083E+04 -0.11036231756E+04  0.88616640784E+03  0.17804924974E+04  0.10100000352E+00 0.  1.
</event>
<event>
 5   0  0.5147582E-08  0.3788839E+04  0.7818609E-02  0.8048554E-01
        2   -1    0    0  501    0  0.00000000000E+00  0.00000000000E+00  0.12589959543E+04  0.12589959543E+04  0.25500000920E-02 0. -1.
       -2   -1    0    0    0  501  0.00000000000E+00  0.00000000000E+00 -0.28505455305E+04  0.28505455305E+04  0.25500000920E-02 0.  1.
    10030    2    1    2    0    0  0.00000000000E+00  0.00000000000E+00 -0.15915495762E+04  0.41095414848E+04  0.37888390256E+04 0.  0.
        1    1    3    3  502    0  0.77469426621E+03 -0.97667311497E+03 -0.23429743759E+04  0.26539725895E+04  0.50400001928E-02 0.  1.
       -1    1    3    3    0  502 -0.77469426621E+03  0.97667311497E+03  0.75142479966E+03  0.14555688954E+04  0.50400001928E-02 0. -1.
</event>
<event>
 5   0  0.5207474E-08  0.3819238E+04  0.7818609E-02  0.8042039E-01
        2   -1    0    0  501    0  0.00000000000E+00  0.00000000000E+00  0.25587743083E+04  0.25587743083E+04  0.25500000920E-02 0.  1.
       -2   -1    0    0    0  501  0.00000000000E+00  0.00000000000E+00 -0.14251527169E+04  0.14251527169E+04  0.25500000920E-02 0. -1.
    10030    2    1    2    0    0  0.00000000000E+00  0.00000000000E+00  0.11336215914E+04  0.39839270252E+04  0.38192377026E+04 0.  0.
        4    1    3    3  502    0  0.97453230137E+03 -0.16393931433E+04  0.46611066127E+03  0.19633094118E+04  0.12699999809E+01 0.  1.
       -4    1    3    3    0  502 -0.97453230137E+03  0.16393931433E+04  0.66751093014E+03  0.20206176134E+04  0.12699999809E+01 0. -1.
</event>
<event>
 5   0  0.1666051E-08  0.3812635E+04  0.7818609E-02  0.8043449E-01
       -1   -1    0    0    0  501  0.00000000000E+00  0.00000000000E+00  0.33178881309E+04  0.33178881309E+04  0.50400001928E-02 0.  1.
        1   -1    0    0  501    0  0.00000000000E+00  0.00000000000E+00 -0.10952889084E+04  0.10952889084E+04  0.50400001928E-02 0. -1.
    10030    2    1    2    0    0  0.00000000000E+00  0.00000000000E+00  0.22225992226E+04  0.44131770393E+04  0.38126348207E+04 0.  0.
        2    1    3    3  502    0 -0.18621422306E+04  0.39512686958E+03  0.99355629006E+03  0.21472896944E+04  0.25500000920E-02 0. -1.
       -2    1    3    3    0  502  0.18621422306E+04 -0.39512686958E+03  0.12290429325E+04  0.22658873449E+04  0.25500000920E-02 0.  1.
</event>
<event>
 5   0  0.5159761E-08  0.3799474E+04  0.7818609E-02  0.8046268E-01
        2   -1    0    0  501    0  0.00000000000E+00  0.00000000000E+00  0.22283840628E+04  0.22283840628E+04  0.25500000920E-02 0.  1.
       -2   -1    0    0    0  501  0.00000000000E+00  0.00000000000E+00 -0.16195591529E+04  0.16195591529E+04  0.25500000920E-02 0. -1.
    10030    2    1    2    0    0  0.00000000000E+00  0.00000000000E+00  0.60882490987E+03  0.38479432157E+04  0.37994735451E+04 0.  0.
        5    1    3    3  502    0 -0.86033443155E+03 -0.42803024263E+02  0.20192256836E+04  0.21952908428E+04  0.46999998093E+01 0.  1.
       -5    1    3    3    0  502  0.86033443155E+03  0.42803024263E+02 -0.14104007738E+04  0.16526523729E+04  0.46999998093E+01 0. -1.
</event>
<event>
 5   0  0.5159761E-08  0.3798427E+04  0.7818609E-02  0.8046492E-01
       -2   -1    0    0    0  501  0.00000000000E+00  0.00000000000E+00  0.20994303009E+04  0.20994303009E+04  0.25500000920E-02 0. -1.
        2   -1    0    0  501    0  0.00000000000E+00  0.00000000000E+00 -0.17180910178E+04  0.17180910178E+04  0.25500000920E-02 0.  1.
    10030    2    1    2    0    0  0.00000000000E+00  0.00000000000E+00  0.38133928303E+03  0.38175213187E+04  0.37984272232E+04 0.  0.
        5    1    3    3  502    0  0.17422317267E+04 -0.24612670969E+03  0.90913415683E+03  0.19805294120E+04  0.46999998093E+01 0. -1.
       -5    1    3    3    0  502 -0.17422317267E+04  0.24612670969E+03 -0.52779487380E+03  0.18369919067E+04  0.46999998093E+01 0.  1.
</event>
<event>
 5   0  0.5086209E-08  0.3797791E+04  0.7818609E-02  0.8046629E-01
        2   -1    0    0  501    0  0.00000000000E+00  0.00000000000E+00  0.21761014264E+04  0.21761014264E+04  0.25500000920E-02 0. -1.
       -2   -1    0    0    0  501  0.00000000000E+00  0.00000000000E+00 -0.16570021173E+04  0.16570021173E+04  0.25500000920E-02 0.  1.
    10030    2    1    2    0    0  0.00000000000E+00  0.00000000000E+00  0.51909930914E+03  0.38331035437E+04  0.37977912902E+04 0.  0.
        3    1    3    3  502    0 -0.17790328645E+03 -0.15341219024E+04 -0.85554208755E+03  0.17655401056E+04  0.10100000352E+00 0.  1.
       -3    1    3    3    0  502  0.17790328645E+03  0.15341219024E+04  0.13746413967E+04  0.20675634381E+04  0.10100000352E+00 0. -1.
</event>
<event>
 5   0  0.5159761E-08  0.3796976E+04  0.7818609E-02  0.8046804E-01
        2   -1    0    0  501    0  0.00000000000E+00  0.00000000000E+00  0.19322014933E+04  0.19322014933E+04  0.25500000920E-02 0.  1.
       -2   -1    0    0    0  501  0.00000000000E+00  0.00000000000E+00 -0.18653631215E+04  0.18653631215E+04  0.25500000920E-02 0. -1.
    10030    2    1    2    0    0  0.00000000000E+00  0.00000000000E+00  0.66838371842E+02  0.37975646148E+04  0.37969763808E+04 0.  0.
        5    1    3    3  502    0  0.12898332779E+04  0.66027647378E+03  0.12602307604E+04  0.19203745900E+04  0.46999998093E+01 0.  1.
       -5    1    3    3    0  502 -0.12898332779E+04 -0.66027647378E+03 -0.11933923885E+04  0.18771900249E+04  0.46999998093E+01 0. -1.
</event>
<event>
 5   0  0.5140842E-08  0.3795667E+04  0.7818609E-02  0.8047085E-01
        2   -1    0    0  501    0  0.00000000000E+00  0.00000000000E+00  0.21595620524E+04  0.21595620525E+04  0.25500000920E-02 0.  1.
       -2   -1    0    0    0  501  0.00000000000E+00  0.00000000000E+00 -0.16678252656E+04  0.16678252656E+04  0.25500000920E-02 0. -1.
    10030    2    1    2    0    0  0.00000000000E+00  0.00000000000E+00  0.49173678687E+03  0.38273873180E+04  0.37956670843E+04 0.  0.
        2    1    3    3  502    0  0.11369486288E+03  0.14676578686E+03 -0.16586468261E+04  0.16690044973E+04  0.25500000920E-02 0. -1.
       -2    1    3    3    0  502 -0.11369486288E+03 -0.14676578686E+03  0.21503836130E+04  0.21583828208E+04  0.25500000920E-02 0.  1.
</event>
<event>
 5   0  0.5159761E-08  0.3794318E+04  0.7818609E-02  0.8047375E-01
       -2   -1    0    0    0  501  0.00000000000E+00  0.00000000000E+00  0.24659818626E+04  0.24659818626E+04  0.25500000920E-02 0.  1.
        2   -1    0    0  501    0  0.00000000000E+00  0.00000000000E+00 -0.14595456955E+04  0.14595456955E+04  0.25500000920E-02 0. -1.
    10030    2    1    2    0    0  0.00000000000E+00  0.00000000000E+00  0.10064361672E+04  0.39255275581E+04  0.37943184962E+04 0.  0.
        5    1    3    3  502    0 -0.12569451152E+04 -0.13620818633E+04  0.84228223148E+02  0.18553421540E+04  0.46999998093E+01 0. -1.
       -5    1    3    3    0  502  0.12569451152E+04  0.13620818633E+04  0.92220794400E+03  0.20701854040E+04  0.46999998093E+01 0.  1.
</event>
<event>
 5   0  0.5140842E-08  0.3798959E+04  0.7818609E-02  0.8046378E-01
       -2   -1    0    0    0  501  0.00000000000E+00  0.00000000000E+00  0.21618745315E+04  0.21618745315E+04  0.25500000920E-02 0. -1.
        2   -1    0    0  501    0  0.00000000000E+00  0.00000000000E+00 -0.16689322880E+04  0.16689322880E+04  0.25500000920E-02 0.  1.
    10030    2    1    2    0    0  0.00000000000E+00  0.00000000000E+00  0.49294224346E+03  0.38308068195E+04  0.37989589143E+04 0.  0.
        2    1    3    3  502    0 -0.77415732715E+03 -0.15830400065E+04 -0.46847690707E+03  0.18234050131E+04  0.25500000920E-02 0.  1.
       -2    1    3    3    0  502  0.77415732715E+03  0.15830400065E+04  0.96141915053E+03  0.20074018064E+04  0.25500000920E-02 0. -1.
</event>
<event>
 5   0  0.5207474E-08  0.3795901E+04  0.7818609E-02  0.8047035E-01
       -2   -1    0    0    0  501  0.00000000000E+00  0.00000000000E+00  0.24450958502E+04  0.24450958502E+04  0.25500000920E-02 0. -1.
        2   -1    0    0  501    0  0.00000000000E+00  0.00000000000E+00 -0.14732411014E+04  0.14732411014E+04  0.25500000920E-02 0.  1.
    10030    2    1    2    0    0  0.00000000000E+00  0.00000000000E+00  0.97185474882E+03  0.39183369515E+04  0.37959007907E+04 0.  0.
        4    1    3    3  502    0 -0.18585769481E+04  0.15153320344E+03  0.12105265664E+03  0.18686695647E+04  0.12699999809E+01 0. -1.
       -4    1    3    3    0  502  0.18585769481E+04 -0.15153320344E+03  0.85080209218E+03  0.20496673868E+04  0.12699999809E+01 0.  1.
</event>
<event>
 5   0  0.5147582E-08  0.3800579E+04  0.7818609E-02  0.8046031E-01
        2   -1    0    0  501    0  0.00000000000E+00  0.00000000000E+00  0.33420325759E+04  0.33420325759E+04  0.25500000920E-02 0. -1.
       -2   -1    0    0    0  501  0.00000000000E+00  0.00000000000E+00 -0.10805103147E+04  0.10805103147E+04  0.25500000920E-02 0.  1.
    10030    2    1    2    0    0  0.00000000000E+00  0.00000000000E+00  0.22615222612E+04  0.44225428906E+04  0.38005792559E+04 0.  0.
        1    1    3    3  502    0 -0.41932529894E+03 -0.62355988325E+03 -0.90027933857E+03  0.11726736638E+04  0.50400001928E-02 0.  1.
       -1    1    3    3    0  502  0.41932529894E+03  0.62355988325E+03  0.31618015998E+04  0.32498692267E+04  0.50400001928E-02 0. -1.
</event>
<event>
 5   0  0.1628250E-08  0.3809271E+04  0.7818609E-02  0.8044168E-01
       -1   -1    0    0    0  501  0.00000000000E+00  0.00000000000E+00  0.21233724139E+04  0.21233724139E+04  0.50400001928E-02 0. -1.
        1   -1    0    0  501    0  0.00000000000E+00  0.00000000000E+00 -0.17084316320E+04  0.17084316320E+04  0.50400001928E-02 0.  1.
    10030    2    1    2    0    0  0.00000000000E+00  0.00000000000E+00  0.41494078187E+03  0.38318040459E+04  0.38092711106E+04 0.  0.
        1    1    3    3  502    0  0.28530314622E+03  0.14541621716E+04 -0.99612357839E+03  0.17855664900E+04  0.50400001928E-02 0.  1.
       -1    1    3    3    0  502 -0.28530314622E+03 -0.14541621716E+04  0.14110643603E+04  0.20462375560E+04  0.50400001928E-02 0. -1.
</event>
<event>
 5   0  0.1628250E-08  0.3797762E+04  0.7818609E-02  0.8046635E-01
        1   -1    0    0  501    0  0.00000000000E+00  0.00000000000E+00  0.14095915248E+04  0.14095915248E+04  0.50400001928E-02 0.  1.
       -1   -1    0    0    0  501  0.00000000000E+00  0.00000000000E+00 -0.25580099893E+04  0.25580099893E+04  0.50400001928E-02 0. -1.
    10030    2    1    2    0    0  0.00000000000E+00  0.00000000000E+00 -0.11484184645E+04  0.39676015141E+04  0.37977620785E+04 0.  0.
        5    1    3    3  502    0  0.14956412889E+04  0.72326837404E+03  0.38651780405E+03  0.17057192350E+04  0.46999998093E+01 0.  1.
       -5    1    3    3    0  502 -0.14956412889E+04 -0.72326837404E+03 -0.15349362685E+04  0.22618822791E+04  0.46999998093E+01 0. -1.
</event>
<event>
 5   0  0.1666051E-08  0.3812883E+04  0.7818609E-02  0.8043396E-01
        1   -1    0    0  501    0  0.00000000000E+00  0.00000000000E+00  0.16535823795E+04  0.16535823795E+04  0.50400001928E-02 0. -1.
       -1   -1    0    0    0  501  0.00000000000E+00  0.00000000000E+00 -0.21979670987E+04  0.21979670987E+04  0.50400001928E-02 0.  1.
    10030    2    1    2    0    0  0.00000000000E+00  0.00000000000E+00 -0.54438471912E+03  0.38515494782E+04  0.38128832477E+04 0.  0.
        2    1    3    3  502    0 -0.17137641125E+04  0.76095044774E+03  0.75517239771E+02  0.18766288580E+04  0.25500000920E-02 0. -1.
       -2    1    3    3    0  502  0.17137641125E+04 -0.76095044774E+03 -0.61990195889E+03  0.19749206202E+04  0.25500000920E-02 0.  1.
</event>
<event>
 5   0  0.1628250E-08  0.3793243E+04  0.7818609E-02  0.8047607E-01
       -3   -1    0    0    0  501  0.00000000000E+00  0.00000000000E+00  0.15316676145E+04  0.15316676178E+04  0.10100000352E+00 0. -1.
        3   -1    0    0  501    0  0.00000000000E+00  0.00000000000E+00 -0.23485333364E+04  0.23485333385E+04  0.10100000352E+00 0.  1.
    10030    2    1    2    0    0  0.00000000000E+00  0.00000000000E+00 -0.81686572191E+03  0.38802009563E+04  0.37932426569E+04 0.  0.
        4    1    3    3  502    0 -0.13578980145E+04 -0.49405212812E+02 -0.17619606900E+04  0.22250471857E+04  0.12699999809E+01 0.  1.
       -4    1    3    3    0  502  0.13578980145E+04  0.49405212812E+02  0.94509496806E+03  0.16551537706E+04  0.12699999809E+01 0. -1.
</event>
<event>
 5   0  0.5147582E-08  0.3747919E+04  0.7818609E-02  0.8057425E-01
       -2   -1    0    0    0  501  0.00000000000E+00  0.00000000000E+00  0.13464068152E+04  0.13464068152E+04  0.25500000920E-02 0.  1.
        2   -1    0    0  501    0  0.00000000000E+00  0.00000000000E+00 -0.26082195358E+04  0.26082195358E+04  0.25500000920E-02 0. -1.
    10030    2    1    2    0    0  0.00000000000E+00  0.00000000000E+00 -0.12618127206E+04  0.39546263510E+04  0.37479191873E+04 0.  0.
        1    1    3    3  502    0  0.14990463513E+04  0.10335107929E+04 -0.16324634399E+03  0.18280957008E+04  0.50400001928E-02 0. -1.
       -1    1    3    3    0  502 -0.14990463513E+04 -0.10335107929E+04 -0.10985663766E+04  0.21265306502E+04  0.50400001928E-02 0.  1.
</event>
<event>
 5   0  0.5207474E-08  0.3800266E+04  0.7818609E-02  0.8046098E-01
       -2   -1    0    0    0  501  0.00000000000E+00  0.00000000000E+00  0.18458258164E+04  0.18458258164E+04  0.25500000920E-02 0. -1.
        2   -1    0    0  501    0  0.00000000000E+00  0.00000000000E+00 -0.19560379588E+04  0.19560379588E+04  0.25500000920E-02 0.  1.
    10030    2    1    2    0    0  0.00000000000E+00  0.00000000000E+00 -0.11021214240E+03  0.38018637753E+04  0.38002659709E+04 0.  0.
        4    1    3    3  502    0 -0.26569113729E+03  0.18296632274E+04  0.38353516454E+03  0.18882161268E+04  0.12699999809E+01 0. -1.
       -4    1    3    3    0  502  0.26569113729E+03 -0.18296632274E+04 -0.49374730694E+03  0.19136476484E+04  0.12699999809E+01 0.  1.
</event>
<event>
 5   0  0.1628250E-08  0.3804071E+04  0.7818609E-02  0.8045282E-01
       -1   -1    0    0    0  501  0.00000000000E+00  0.00000000000E+00  0.18854749033E+04  0.18854749034E+04  0.50400001928E-02 0.  1.
        1   -1    0    0  501    0  0.00000000000E+00  0.00000000000E+00 -0.19187411088E+04  0.19187411088E+04  0.50400001928E-02 0. -1.
    10030    2    1    2    0    0  0.00000000000E+00  0.00000000000E+00 -0.33266205419E+02  0.38042160121E+04  0.38040705601E+04 0.  0.
        4    1    3    3  502    0  0.15518026765E+04  0.18183996475E+02  0.10830972595E+04  0.18924913450E+04  0.12699999809E+01 0.  1.
       -4    1    3    3    0  502 -0.15518026765E+04 -0.18183996475E+02 -0.11163634649E+04  0.19117246672E+04  0.12699999809E+01 0. -1.
</event>
<event>
 5   0  0.1666051E-08  0.3800967E+04  0.7818609E-02  0.8045947E-01
       -1   -1    0    0    0  501  0.00000000000E+00  0.00000000000E+00  0.17054833993E+04  0.17054833993E+04  0.50400001928E-02 0. -1.
        1   -1    0    0  501    0  0.00000000000E+00  0.00000000000E+00 -0.21177797683E+04  0.21177797683E+04  0.50400001928E-02 0.  1.
    10030    2    1    2    0    0  0.00000000000E+00  0.00000000000E+00 -0.41229636899E+03  0.38232631676E+04  0.38009673707E+04 0.  0.
        2    1    3    3  502    0  0.16007258869E+04  0.42214066966E+03  0.73276822896E+03  0.18103799014E+04  0.25500000920E-02 0. -1.
       -2    1    3    3    0  502 -0.16007258869E+04 -0.42214066966E+03 -0.11450645979E+04  0.20128832662E+04  0.25500000920E-02 0.  1.
</event>
<event>
 5   0  0.1666051E-08  0.3801952E+04  0.7818609E-02  0.8045736E-01
       -1   -1    0    0    0  501  0.00000000000E+00  0.00000000000E+00  0.16093782637E+04  0.16093782638E+04  0.50400001928E-02 0.  1.
        1   -1    0    0  501    0  0.00000000000E+00  0.00000000000E+00 -0.22454077052E+04  0.22454077052E+04  0.50400001928E-02 0. -1.
    10030    2    1    2    0    0  0.00000000000E+00  0.00000000000E+00 -0.63602944142E+03  0.38547859689E+04  0.38019523164E+04 0.  0.
        2    1    3    3  502    0  0.16927684278E+04 -0.58930528838E+03 -0.96003192110E+03  0.20333241165E+04  0.25500000920E-02 0. -1.
       -2    1    3    3    0  502 -0.16927684278E+04  0.58930528838E+03  0.32400247968E+03  0.18214618525E+04  0.25500000920E-02 0.  1.
</event>
<event>
 5   0  0.5140842E-08  0.3685415E+04  0.7818609E-02  0.8071202E-01
        2   -1    0    0  501    0  0.00000000000E+00  0.00000000000E+00  0.98608888711E+03  0.98608888711E+03  0.25500000920E-02 0. -1.
       -2   -1    0    0    0  501  0.00000000000E+00  0.00000000000E+00 -0.34434743218E+04  0.34434743218E+04  0.25500000920E-02 0.  1.
    10030    2    1    2    0    0  0.00000000000E+00  0.00000000000E+00 -0.24573854347E+04  0.44295632089E+04  0.36854154511E+04 0.  0.
        2    1    3    3  502    0  0.29138334142E+03 -0.56111952044E+03  0.85163501047E+03  0.10606797627E+04  0.25500000920E-02 0. -1.
       -2    1    3    3    0  502 -0.29138334142E+03  0.56111952044E+03 -0.33090204452E+04  0.33688834463E+04  0.25500000920E-02 0.  1.
</event>
<event>
 5   0  0.1628250E-08  0.3831358E+04  0.7818609E-02  0.8039459E-01
       -1   -1    0    0    0  501  0.00000000000E+00  0.00000000000E+00  0.21005426059E+04  0.21005426059E+04  0.50400001928E-02 0.  1.
        1   -1    0    0  501    0  0.00000000000E+00  0.00000000000E+00 -0.17470847924E+04  0.17470847924E+04  0.50400001928E-02 0. -1.
    10030    2    1    2    0    0  0.00000000000E+00  0.00000000000E+00  0.35345781356E+03  0.38476273983E+04  0.38313580060E+04 0.  0.
        1    1    3    3  502    0 -0.11085739517E+04 -0.14168499783E+04 -0.48441765122E+03  0.18630782399E+04  0.50400001928E-02 0. -1.
       -1    1    3    3    0  502  0.11085739517E+04  0.14168499783E+04  0.83787546478E+03  0.19845491583E+04  0.50400001928E-02 0.  1.
</event>
<event>
 5   0  0.1628250E-08  0.3798343E+04  0.7818609E-02  0.8046511E-01
        1   -1    0    0  501    0  0.00000000000E+00  0.00000000000E+00  0.28022168383E+04  0.28022168383E+04  0.50400001928E-02 0. -1.
       -1   -1    0    0    0  501  0.00000000000E+00  0.00000000000E+00 -0.12871421717E+04  0.12871421717E+04  0.50400001928E-02 0.  1.
    10030    2    1    2    0    0  0.00000000000E+00  0.00000000000E+00  0.15150746666E+04  0.40893590100E+04  0.37983425158E+04 0.  0.
        4    1    3    3  502    0  0.96676314872E+03  0.94681388367E+03  0.21922123486E+04  0.25762150746E+04  0.12699999809E+01 0. -1.
       -4    1    3    3    0  502 -0.96676314872E+03 -0.94681388367E+03 -0.67713768205E+03  0.15131439355E+04  0.12699999809E+01 0.  1.
</event>
<event>
 5   0  0.1628473E-08  0.3801624E+04  0.7818609E-02  0.8045806E-01
        1   -1    0    0  501    0  0.00000000000E+00  0.00000000000E+00  0.19576452156E+04  0.19576452156E+04  0.50400001928E-02 0.  1.
       -1   -1    0    0    0  501  0.00000000000E+00  0.00000000000E+00 -0.18456289789E+04  0.18456289789E+04  0.50400001928E-02 0. -1.
    10030    2    1    2    0    0  0.00000000000E+00  0.00000000000E+00  0.11201623675E+03  0.38032741945E+04  0.38016242531E+04 0.  0.
        3    1    3    3  502    0  0.13035164615E+04 -0.75856812815E+03 -0.11014321871E+04  0.18675474943E+04  0.10100000352E+00 0. -1.
       -3    1    3    3    0  502 -0.13035164615E+04  0.75856812815E+03  0.12134484238E+04  0.19357267002E+04  0.10100000352E+00 0.  1.
</event>
<event>
 5   0  0.1628250E-08  0.3803394E+04  0.7818609E-02  0.8045427E-01
       -1   -1    0    0    0  501  0.00000000000E+00  0.00000000000E+00  0.17085444375E+04  0.17085444375E+04  0.50400001928E-02 0. -1.
        1   -1    0    0  501    0  0.00000000000E+00  0.00000000000E+00 -0.21166857092E+04  0.21166857092E+04  0.50400001928E-02 0.  1.
    10030    2    1    2    0    0  0.00000000000E+00  0.00000000000E+00 -0.40814127173E+03  0.38252301467E+04  0.38033940602E+04 0.  0.
        4    1    3    3  502    0 -0.15755593952E+04 -0.10307086798E+04 -0.47338062276E+03  0.19413496896E+04  0.12699999809E+01 0.  1.
       -4    1    3    3    0  502  0.15755593952E+04  0.10307086798E+04  0.65239351031E+02  0.18838804570E+04  0.12699999809E+01 0. -1.
</event>
<event>
 5   0  0.5207474E-08  0.3797058E+04  0.7818609E-02  0.8046787E-01
       -2   -1    0    0    0  501  0.00000000000E+00  0.00000000000E+00  0.22492798043E+04  0.22492798043E+04  0.25500000920E-02 0. -1.
        2   -1    0    0  501    0  0.00000000000E+00  0.00000000000E+00 -0.16024739287E+04  0.16024739287E+04  0.25500000920E-02 0.  1.
    10030    2    1    2    0    0  0.00000000000E+00  0.00000000000E+00  0.64680587555E+03  0.38517537330E+04  0.37970579373E+04 0.  0.
        4    1    3    3  502    0  0.14020498064E+03  0.43214745775E+03 -0.15465173290E+04  0.16118704426E+04  0.12699999809E+01 0.  1.
       -4    1    3    3    0  502 -0.14020498064E+03 -0.43214745775E+03  0.21933232046E+04  0.22398832904E+04  0.12699999809E+01 0. -1.
</event>
<event>
 5   0  0.5140842E-08  0.3792946E+04  0.7818609E-02  0.8047670E-01
        2   -1    0    0  501    0  0.00000000000E+00  0.00000000000E+00  0.17370489242E+04  0.17370489242E+04  0.25500000920E-02 0. -1.
       -2   -1    0    0    0  501  0.00000000000E+00  0.00000000000E+00 -0.20705283026E+04  0.20705283026E+04  0.25500000920E-02 0.  1.
    10030    2    1    2    0    0  0.00000000000E+00  0.00000000000E+00 -0.33347937841E+03  0.38075772267E+04  0.37929455363E+04 0.  0.
        2    1    3    3  502    0 -0.12310716080E+04 -0.18301545948E+03 -0.16031953828E+04  0.20295978415E+04  0.25500000920E-02 0.  1.
       -2    1    3    3    0  502  0.12310716080E+04  0.18301545948E+03  0.12697160044E+04  0.17779793853E+04  0.25500000920E-02 0. -1.
</event>
<event>
 5   0  0.5159761E-08  0.3801476E+04  0.7818609E-02  0.8045838E-01
        2   -1    0    0  501    0  0.00000000000E+00  0.00000000000E+00  0.27532451896E+04  0.27532451896E+04  0.25500000920E-02 0.  1.
       -2   -1    0    0    0  501  0.00000000000E+00  0.00000000000E+00 -0.13121984295E+04  0.13121984295E+04  0.25500000920E-02 0. -1.
    10030    2    1    2    0    0  0.00000000000E+00  0.00000000000E+00  0.14410467601E+04  0.40654436191E+04  0.38014755103E+04 0.  0.
        5    1    3    3  502    0  0.14722597059E+04 -0.97246365231E+03  0.14763883856E+04  0.23006475071E+04  0.46999998093E+01 0.  1.
       -5    1    3    3    0  502 -0.14722597059E+04  0.97246365231E+03 -0.35341625561E+02  0.17647961120E+04  0.46999998093E+01 0. -1.
</event>
<event>
 5   0  0.5086209E-08  0.3797375E+04  0.7818609E-02  0.8046718E-01
       -2   -1    0    0    0  501  0.00000000000E+00  0.00000000000E+00  0.14207183485E+04  0.14207183485E+04  0.25500000920E-02 0. -1.
        2   -1    0    0  501    0  0.00000000000E+00  0.00000000000E+00 -0.25374588752E+04  0.25374588752E+04  0.25500000920E-02 0.  1.
    10030    2    1    2    0    0  0.00000000000E+00  0.00000000000E+00 -0.11167405267E+04  0.39581772237E+04  0.37973750843E+04 0.  0.
        3    1    3    3  502    0  0.13719952600E+04 -0.10139125028E+03  0.80561500898E+03  0.15942605596E+04  0.10100000352E+00 0. -1.
       -3    1    3    3    0  502 -0.13719952600E+04  0.10139125028E+03 -0.19223555357E+04  0.23639166641E+04  0.10100000352E+00 0.  1.
</event>
<event>
 5   0  0.5147582E-08  0.3808218E+04  0.7818609E-02  0.8044394E-01
       -2   -1    0    0    0  501  0.00000000000E+00  0.00000000000E+00  0.21210300667E+04  0.21210300667E+04  0.25500000920E-02 0. -1.
        2   -1    0    0  501    0  0.00000000000E+00  0.00000000000E+00 -0.17093725715E+04  0.17093725715E+04  0.25500000920E-02 0.  1.
    10030    2    1    2    0    0  0.00000000000E+00  0.00000000000E+00  0.41165749513E+03  0.38304026382E+04  0.38082177561E+04 0.  0.
        1    1    3    3  502    0  0.78253777213E+03 -0.66710828508E+03  0.18177349373E+04  0.20884346126E+04  0.50400001928E-02 0. -1.
       -1    1    3    3    0  502 -0.78253777213E+03  0.66710828508E+03 -0.14060774422E+04  0.17419680256E+04  0.50400001928E-02 0.  1.
</event>
<event>
 5   0  0.1628473E-08  0.3800522E+04  0.7818609E-02  0.8046043E-01
       -1   -1    0    0    0  501  0.00000000000E+00  0.00000000000E+00  0.12383620188E+04  0.12383620188E+04  0.50400001928E-02 0. -1.
        1   -1    0    0  501    0  0.00000000000E+00  0.00000000000E+00 -0.29159416200E+04  0.29159416200E+04  0.50400001928E-02 0.  1.
    10030    2    1    2    0    0  0.00000000000E+00  0.00000000000E+00 -0.16775796012E+04  0.41543036389E+04  0.38005217281E+04 0.  0.
        3    1    3    3  502    0  0.57900622331E+03 -0.15961689581E+04  0.93856698568E+02  0.17005330457E+04  0.10100000352E+00 0. -1.
       -3    1    3    3    0  502 -0.57900622331E+03  0.15961689581E+04 -0.17714362998E+04  0.24537705932E+04  0.10100000352E+00 0.  1.
</event>
<event>
 5   0  0.1628473E-08  0.3799643E+04  0.7818609E-02  0.8046231E-01
       -1   -1    0    0    0  501  0.00000000000E+00  0.00000000000E+00  0.12931912435E+04  0.12931912435E+04  0.50400001928E-02 0. -1.
        1   -1    0    0  501    0  0.00000000000E+00  0.00000000000E+00 -0.27910193825E+04  0.27910193825E+04  0.50400001928E-02 0.  1.
    10030    2    1    2    0    0  0.00000000000E+00  0.00000000000E+00 -0.14978281390E+04  0.40842106260E+04  0.37996430495E+04 0.  0.
        3    1    3    3  502    0  0.13722257697E+04  0.38011670952E+03  0.60298781095E+03  0.15463138705E+04  0.10100000352E+00 0. -1.
       -3    1    3    3    0  502 -0.13722257697E+04 -0.38011670952E+03 -0.21008159499E+04  0.25378967555E+04  0.10100000352E+00 0.  1.
</event>
<event>
 5   0  0.5159761E-08  0.3799193E+04  0.7818609E-02  0.8046328E-01
        2   -1    0    0  501    0  0.00000000000E+00  0.00000000000E+00  0.16909949917E+04  0.16909949917E+04  0.25500000920E-02 0. -1.
       -2   -1    0    0    0  501  0.00000000000E+00  0.00000000000E+00 -0.21339315358E+04  0.21339315358E+04  0.25500000920E-02 0.  1.
    10030    2    1    2    0    0  0.00000000000E+00  0.00000000000E+00 -0.44293654411E+03  0.38249265275E+04  0.37991933564E+04 0.  0.
        5    1    3    3  502    0  0.17771317553E+04 -0.51190156017E+02 -0.89504984429E+03  0.19904657801E+04  0.46999998093E+01 0.  1.
       -5    1    3    3    0  502 -0.17771317553E+04  0.51190156017E+02  0.45211330018E+03  0.18344607475E+04  0.46999998093E+01 0. -1.
</event>
<event>
 5   0  0.1628250E-08  0.3788642E+04  0.7818609E-02  0.8048597E-01
        1   -1    0    0  501    0  0.00000000000E+00  0.00000000000E+00  0.17398897641E+04  0.17398897641E+04  0.50400001928E-02 0.  1.
       -1   -1    0    0    0  501  0.00000000000E+00  0.00000000000E+00 -0.20624592067E+04  0.20624592067E+04  0.50400001928E-02 0. -1.
    10030    2    1    2    0    0  0.00000000000E+00  0.00000000000E+00 -0.32256944260E+03  0.38023489707E+04  0.37886417949E+04 0.  0.
        4    1    3    3  502    0  0.87036331022E+03 -0.55227677295E+03  0.14337759311E+04  0.17658587031E+04  0.12699999809E+01 0.  1.
       -4    1    3    3    0  502 -0.87036331022E+03  0.55227677295E+03 -0.17563453737E+04  0.20364902677E+04  0.12699999809E+01 0. -1.
</event>
<event>
 5   0  0.5147582E-08  0.3801390E+04  0.7818609E-02  0.8045857E-01
        2   -1    0    0  501    0  0.00000000000E+00  0.00000000000E+00  0.18970217518E+04  0.18970217519E+04  0.25500000920E-02 0. -1.
       -2   -1    0    0    0  501  0.00000000000E+00  0.00000000000E+00 -0.19043751374E+04  0.19043751374E+04  0.25500000920E-02 0.  1.
    10030    2    1    2    0    0  0.00000000000E+00  0.00000000000E+00 -0.73533855964E+01  0.38013968893E+04  0.38013897771E+04 0.  0.
        1    1    3    3  502    0  0.69169127463E+02  0.17665133849E+04  0.69438417537E+03  0.18993481224E+04  0.50400001928E-02 0.  1.
       -1    1    3    3    0  502 -0.69169127463E+02 -0.17665133849E+04 -0.70173756096E+03  0.19020487669E+04  0.50400001928E-02 0. -1.
</event>
<event>
 5   0  0.5086209E-08  0.3798558E+04  0.7818609E-02  0.8046464E-01
       -2   -1    0    0    0  501  0.00000000000E+00  0.00000000000E+00  0.17922189379E+04  0.17922189379E+04  0.25500000920E-02 0.  1.
        2   -1    0    0  501    0  0.00000000000E+00  0.00000000000E+00 -0.20127348813E+04  0.20127348813E+04  0.25500000920E-02 0. -1.
    10030    2    1    2    0    0  0.00000000000E+00  0.00000000000E+00 -0.22051594337E+03  0.38049538192E+04  0.37985584483E+04 0.  0.
        3    1    3    3  502    0  0.16467890102E+04  0.64103102535E+03  0.58692156513E+03  0.18620718980E+04  0.10100000352E+00 0.  1.
       -3    1    3    3    0  502 -0.16467890102E+04 -0.64103102535E+03 -0.80743750850E+03  0.19428819212E+04  0.10100000352E+00 0. -1.
</event>
<event>
 5   0  0.1628473E-08  0.3801701E+04  0.7818609E-02  0.8045790E-01
        1   -1    0    0  501    0  0.00000000000E+00  0.00000000000E+00  0.15184796750E+04  0.15184796750E+04  0.50400001928E-02 0.  1.
       -1   -1    0    0    0  501  0.00000000000E+00  0.00000000000E+00 -0.23795069171E+04  0.23795069172E+04  0.50400001928E-02 0. -1.
    10030    2    1    2    0    0  0.00000000000E+00  0.00000000000E+00 -0.86102724212E+03  0.38979865922E+04  0.38017011404E+04 0.  0.
        3    1    3    3  502    0 -0.12162772412E+03 -0.15850311263E+04  0.63805017237E+03  0.17129579701E+04  0.10100000352E+00 0.  1.
       -3    1    3    3    0  502  0.12162772412E+03  0.15850311263E+04 -0.14990774145E+04  0.21850286221E+04  0.10100000352E+00 0. -1.
</event>
<event>
 5   0  0.5086209E-08  0.3799566E+04  0.7818609E-02  0.8046248E-01
       -2   -1    0    0    0  501  0.00000000000E+00  0.00000000000E+00  0.24586581749E+04  0.24586581749E+04  0.25500000920E-02 0.  1.
        2   -1    0    0  501    0  0.00000000000E+00  0.00000000000E+00 -0.14679448294E+04  0.14679448294E+04  0.25500000920E-02 0. -1.
    10030    2    1    2    0    0  0.00000000000E+00  0.00000000000E+00  0.99071334550E+03  0.39266030044E+04  0.37995655305E+04 0.  0.
        3    1    3    3  502    0 -0.15064892921E+04 -0.11568585584E+04  0.53322657286E+03  0.19728563809E+04  0.10100000352E+00 0. -1.
       -3    1    3    3    0  502  0.15064892921E+04  0.11568585584E+04  0.45748677264E+03  0.19537466235E+04  0.10100000352E+00 0.  1.
</event>
<event>
 5   0  0.5147582E-08  0.3796786E+04  0.7818609E-02  0.8046845E-01
       -2   -1    0    0    0  501  0.00000000000E+00  0.00000000000E+00  0.29503873256E+04  0.29503873256E+04  0.25500000920E-02 0.  1.
        2   -1    0    0  501    0  0.00000000000E+00  0.00000000000E+00 -0.12214993747E+04  0.12214993747E+04  0.25500000920E-02 0. -1.
    10030    2    1    2    0    0  0.00000000000E+00  0.00000000000E+00  0.17288879509E+04  0.41718867003E+04  0.37967861532E+04 0.  0.
        1    1    3    3  502    0 -0.11591420095E+04  0.21373485155E+03 -0.77073147476E+03  0.14083038703E+04  0.50400001928E-02 0. -1.
       -1    1    3    3    0  502  0.11591420095E+04 -0.21373485155E+03  0.24996194256E+04  0.27635828299E+04  0.50400001928E-02 0.  1.
</event>
<event>
 5   0  0.1666051E-08  0.3796018E+04  0.7818609E-02  0.8047010E-01
       -1   -1    0    0    0  501  0.00000000000E+00  0.00000000000E+00  0.21491104743E+04  0.21491104743E+04  0.50400001928E-02 0. -1.
        1   -1    0    0  501    0  0.00000000000E+00  0.00000000000E+00 -0.16762463166E+04  0.16762463166E+04  0.50400001928E-02 0.  1.
    10030    2    1    2    0    0  0.00000000000E+00  0.00000000000E+00  0.47286415766E+03  0.38253567909E+04  0.37960181857E+04 0.  0.
        2    1    3    3  502    0  0.77617663582E+03 -0.13288841740E+03 -0.15038571834E+04  0.16975558694E+04  0.25500000920E-02 0.  1.
       -2    1    3    3    0  502 -0.77617663582E+03  0.13288841740E+03  0.19767213411E+04  0.21278009216E+04  0.25500000920E-02 0. -1.
</event>
<event>
 5   0  0.5207474E-08  0.3804464E+04  0.7818609E-02  0.8045198E-01
       -2   -1    0    0    0  501  0.00000000000E+00  0.00000000000E+00  0.16891761935E+04  0.16891761935E+04  0.25500000920E-02 0.  1.
        2   -1    0    0  501    0  0.00000000000E+00  0.00000000000E+00 -0.21421604513E+04  0.21421604513E+04  0.25500000920E-02 0. -1.
    10030    2    1    2    0    0  0.00000000000E+00  0.00000000000E+00 -0.45298425783E+03  0.38313366448E+04  0.38044639239E+04 0.  0.
        4    1    3    3  502    0 -0.18243308029E+04 -0.38426771492E+03 -0.60683730994E+03  0.19606370619E+04  0.12699999809E+01 0. -1.
       -4    1    3    3    0  502  0.18243308029E+04  0.38426771492E+03  0.15385305211E+03  0.18706995829E+04  0.12699999809E+01 0.  1.
</event>
<event>
 5   0  0.5140842E-08  0.3799134E+04  0.7818609E-02  0.8046341E-01
       -2   -1    0    0    0  501  0.00000000000E+00  0.00000000000E+00  0.13787238539E+04  0.13787238539E+04  0.25500000920E-02 0.  1.
        2   -1    0    0  501    0  0.00000000000E+00  0.00000000000E+00 -0.26171694932E+04  0.26171694932E+04  0.25500000920E-02 0. -1.
    10030    2    1    2    0    0  0.00000000000E+00  0.00000000000E+00 -0.12384456393E+04  0.39958933471E+04  0.37991335907E+04 0.  0.
        2    1    3    3  502    0 -0.45827098886E+03 -0.85757841157E+03  0.10971310426E+04  0.14659978022E+04  0.25500000920E-02 0.  1.
       -2    1    3    3    0  502  0.45827098886E+03  0.85757841157E+03 -0.23355766819E+04  0.25298955449E+04  0.25500000920E-02 0. -1.
</event>
<event>
 5   0  0.1628473E-08  0.3797097E+04  0.7818609E-02  0.8046778E-01
        1   -1    0    0  501    0  0.00000000000E+00  0.00000000000E+00  0.10741968755E+04  0.10741968755E+04  0.50400001928E-02 0. -1.
       -1   -1    0    0    0  501  0.00000000000E+00  0.00000000000E+00 -0.33555182709E+04  0.33555182709E+04  0.50400001928E-02 0.  1.
    10030    2    1    2    0    0  0.00000000000E+00  0.00000000000E+00 -0.22813213954E+04  0.44297151464E+04  0.37970974400E+04 0.  0.
        3    1    3    3  502    0  0.11141301217E+04 -0.15308378280E+04 -0.13045546621E+04  0.22992636343E+04  0.10100000352E+00 0. -1.
       -3    1    3    3    0  502 -0.11141301217E+04  0.15308378280E+04 -0.97676673331E+03  0.21304515120E+04  0.10100000352E+00 0.  1.
</event>
<event>
 5   0  0.1628250E-08  0.3803589E+04  0.7818609E-02  0.8045385E-01
        1   -1    0    0  501    0  0.00000000000E+00  0.00000000000E+00  0.14579224628E+04  0.14579224628E+04  0.50400001928E-02 0.  1.
       -1   -1    0    0    0  501  0.00000000000E+00  0.00000000000E+00 -0.24808055143E+04  0.24808055143E+04  0.50400001928E-02 0. -1.
    10030    2    1    2    0    0  0.00000000000E+00  0.00000000000E+00 -0.10228830515E+04  0.39387279771E+04  0.38035888764E+04 0.  0.
        4    1    3    3  502    0 -0.14304679814E+04 -0.36080625888E+03  0.73136657850E+03  0.16466081767E+04  0.12699999809E+01 0.  1.
       -4    1    3    3    0  502  0.14304679814E+04  0.36080625888E+03 -0.17542496300E+04  0.22921198005E+04  0.12699999809E+01 0. -1.
</event>
<event>
 5   0  0.1628250E-08  0.3798048E+04  0.7818609E-02  0.8046574E-01
        1   -1    0    0  501    0  0.00000000000E+00  0.00000000000E+00  0.17083260218E+04  0.17083260218E+04  0.50400001928E-02 0.  1.
       -1   -1    0    0    0  501  0.00000000000E+00  0.00000000000E+00 -0.21110088876E+04  0.21110088876E+04  0.50400001928E-02 0. -1.
    10030    2    1    2    0    0  0.00000000000E+00  0.00000000000E+00 -0.40268286580E+03  0.38193349093E+04  0.37980476115E+04 0.  0.
        5    1    3    3  502    0  0.17142577848E+03  0.10715161798E+04  0.13658334313E+04  0.17444359470E+04  0.46999998093E+01 0.  1.
       -5    1    3    3    0  502 -0.17142577848E+03 -0.10715161798E+04 -0.17685162971E+04  0.20748989624E+04  0.46999998093E+01 0. -1.
</event>
<event>
 5   0  0.1628250E-08  0.3780950E+04  0.7818609E-02  0.8050255E-01
       -1   -1    0    0    0  501  0.00000000000E+00  0.00000000000E+00  0.19938222416E+04  0.19938222416E+04  0.50400001928E-02 0.  1.
        1   -1    0    0  501    0  0.00000000000E+00  0.00000000000E+00 -0.17924847512E+04  0.17924847512E+04  0.50400001928E-02 0. -1.
    10030    2    1    2    0    0  0.00000000000E+00  0.00000000000E+00  0.20133749044E+03  0.37863069928E+04  0.37809501265E+04 0.  0.
        4    1    3    3  502    0 -0.75537538940E+03  0.12102476520E+04  0.13428305225E+04  0.19592056511E+04  0.12699999809E+01 0.  1.
       -4    1    3    3    0  502  0.75537538940E+03 -0.12102476520E+04 -0.11414930321E+04  0.18271013418E+04  0.12699999809E+01 0. -1.
</event>
<event>
 5   0  0.1628250E-08  0.3797079E+04  0.7818609E-02  0.8046782E-01
       -1   -1    0    0    0  501  0.00000000000E+00  0.00000000000E+00  0.31267611520E+04  0.31267611520E+04  0.50400001928E-02 0. -1.
        1   -1    0    0  501    0  0.00000000000E+00  0.00000000000E+00 -0.11527752986E+04  0.11527752986E+04  0.50400001928E-02 0.  1.
    10030    2    1    2    0    0  0.00000000000E+00  0.00000000000E+00  0.19739858534E+04  0.42795364505E+04  0.37970794148E+04 0.  0.
        1    1    3    3  502    0  0.10799142012E+02 -0.13098090711E+04 -0.56194048195E+03  0.14253047146E+04  0.50400001928E-02 0.  1.
       -1    1    3    3    0  502 -0.10799142012E+02  0.13098090711E+04  0.25359263353E+04  0.28542317360E+04  0.50400001928E-02 0. -1.
</event>
<event>
 5   0  0.5159761E-08  0.3801494E+04  0.7818609E-02  0.8045834E-01
       -2   -1    0    0    0  501  0.00000000000E+00  0.00000000000E+00  0.21869521987E+04  0.21869521987E+04  0.25500000920E-02 0. -1.
        2   -1    0    0  501    0  0.00000000000E+00  0.00000000000E+00 -0.16519970457E+04  0.16519970457E+04  0.25500000920E-02 0.  1.
    10030    2    1    2    0    0  0.00000000000E+00  0.00000000000E+00  0.53495515306E+03  0.38389492444E+04  0.38014936914E+04 0.  0.
        5    1    3    3  502    0  0.12617589337E+04  0.84419683978E+03  0.14224740432E+04  0.20804226505E+04  0.46999998093E+01 0. -1.
       -5    1    3    3    0  502 -0.12617589337E+04 -0.84419683978E+03 -0.88751889014E+03  0.17585265939E+04  0.46999998093E+01 0.  1.
</event>
<event>
 5   0  0.1628250E-08  0.3798735E+04  0.7818609E-02  0.8046426E-01
       -1   -1    0    0    0  501  0.00000000000E+00  0.00000000000E+00  0.14612486775E+04  0.14612486775E+04  0.50400001928E-02 0. -1.
        1   -1    0    0  501    0  0.00000000000E+00  0.00000000000E+00 -0.24688447727E+04  0.24688447727E+04  0.50400001928E-02 0.  1.
    10030    2    1    2    0    0  0.00000000000E+00  0.00000000000E+00 -0.10075960952E+04  0.39300934502E+04  0.37987346098E+04 0.  0.
        4    1    3    3  502    0  0.15428121653E+04  0.21681400273E+03 -0.16277900690E+04  0.22532154382E+04  0.12699999809E+01 0. -1.
       -4    1    3    3    0  502 -0.15428121653E+04 -0.21681400273E+03  0.62019397375E+03  0.16768780120E+04  0.12699999809E+01 0.  1.
</event>
<event>
 5   0  0.5159761E-08  0.3725537E+04  0.7818609E-02  0.8062326E-01
       -2   -1    0    0    0  501  0.00000000000E+00  0.00000000000E+00  0.12933575594E+04  0.12933575594E+04  0.25500000920E-02 0.  1.
        2   -1    0    0  501    0  0.00000000000E+00  0.00000000000E+00 -0.26828677670E+04  0.26828677670E+04  0.25500000920E-02 0. -1.
    10030    2    1    2    0    0  0.00000000000E+00  0.00000000000E+00 -0.13895102076E+04  0.39762253265E+04  0.37255374418E+04 0.  0.
        5    1    3    3  502    0  0.36206103790E+03 -0.27022399820E+03 -0.26235020534E+04  0.26621221457E+04  0.46999998093E+01 0. -1.
       -5    1    3    3    0  502 -0.36206103790E+03  0.27022399820E+03  0.12339918458E+04  0.13141031808E+04  0.46999998093E+01 0.  1.
</event>
<event>
 5   0  0.5086209E-08  0.3799946E+04  0.7818609E-02  0.8046167E-01
        2   -1    0    0  501    0  0.00000000000E+00  0.00000000000E+00  0.30164370607E+04  0.30164370607E+04  0.25500000920E-02 0.  1.
       -2   -1    0    0    0  501  0.00000000000E+00  0.00000000000E+00 -0.11967419013E+04  0.11967419013E+04  0.25500000920E-02 0. -1.
    10030    2    1    2    0    0  0.00000000000E+00  0.00000000000E+00  0.18196951594E+04  0.42131789620E+04  0.37999455908E+04 0.  0.
        3    1    3    3  502    0  0.85100809036E+03  0.35816477774E+03  0.27509688751E+04  0.29017798917E+04  0.10100000352E+00 0.  1.
       -3    1    3    3    0  502 -0.85100809036E+03 -0.35816477774E+03 -0.93127371569E+03  0.13113990703E+04  0.10100000352E+00 0. -1.
</event>
<event>
 5   0  0.5086209E-08  0.3801193E+04  0.7818609E-02  0.8045899E-01
        2   -1    0    0  501    0  0.00000000000E+00  0.00000000000E+00  0.17167513219E+04  0.17167513219E+04  0.25500000920E-02 0.  1.
       -2   -1    0    0    0  501  0.00000000000E+00  0.00000000000E+00 -0.21041291649E+04  0.21041291649E+04  0.25500000920E-02 0. -1.
    10030    2    1    2    0    0  0.00000000000E+00  0.00000000000E+00 -0.38737784306E+03  0.38208804868E+04  0.38011927208E+04 0.  0.
        3    1    3    3  502    0  0.10388455057E+04 -0.15898298018E+04 -0.11909044595E+03  0.19028771184E+04  0.10100000352E+00 0.  1.
       -3    1    3    3    0  502 -0.10388455057E+04  0.15898298018E+04 -0.26828739710E+03  0.19180033683E+04  0.10100000352E+00 0. -1.
</event>
<event>
 5   0  0.1628250E-08  0.3800703E+04  0.7818609E-02  0.8046004E-01
       -1   -1    0    0    0  501  0.00000000000E+00  0.00000000000E+00  0.15097582578E+04  0.15097582578E+04  0.50400001928E-02 0. -1.
        1   -1    0    0  501    0  0.00000000000E+00  0.00000000000E+00 -0.23919955553E+04  0.23919955553E+04  0.50400001928E-02 0.  1.
    10030    2    1    2    0    0  0.00000000000E+00  0.00000000000E+00 -0.88223729747E+03  0.39017538131E+04  0.38007025889E+04 0.  0.
        5    1    3    3  502    0 -0.17208990190E+04 -0.70878624015E+02  0.38322264660E+03  0.17644826153E+04  0.46999998093E+01 0. -1.
       -5    1    3    3    0  502  0.17208990190E+04  0.70878624015E+02 -0.12654599441E+04  0.21372711978E+04  0.46999998093E+01 0.  1.
</event>
<event>
 5   0  0.5159761E-08  0.3823385E+04  0.7818609E-02  0.8041155E-01
        2   -1    0    0  501    0  0.00000000000E+00  0.00000000000E+00  0.30308239285E+04  0.30308239285E+04  0.25500000920E-02 0.  1.
       -2   -1    0    0    0  501  0.00000000000E+00  0.00000000000E+00 -0.12057999563E+04  0.12057999563E+04  0.25500000920E-02 0. -1.
    10030    2    1    2    0    0  0.00000000000E+00  0.00000000000E+00  0.18250239723E+04  0.42366238848E+04  0.38233845532E+04 0.  0.
        5    1    3    3  502    0 -0.39291611027E+03  0.14859364348E+03 -0.11540186383E+04  0.12281059596E+04  0.46999998093E+01 0. -1.
       -5    1    3    3    0  502  0.39291611027E+03 -0.14859364348E+03  0.29790426106E+04  0.30085179252E+04  0.46999998093E+01 0.  1.
</event>
<event>
 5   0  0.5086209E-08  0.3806507E+04  0.7818609E-02  0.8044760E-01
        2   -1    0    0  501    0  0.00000000000E+00  0.00000000000E+00  0.23440951167E+04  0.23440951167E+04  0.25500000920E-02 0.  1.
       -2   -1    0    0    0  501  0.00000000000E+00  0.00000000000E+00 -0.15453190197E+04  0.15453190197E+04  0.25500000920E-02 0. -1.
    10030    2    1    2    0    0  0.00000000000E+00  0.00000000000E+00  0.79877609697E+03  0.38894141364E+04  0.38065074637E+04 0.  0.
        3    1    3    3  502    0  0.95128674768E+03 -0.16271940086E+04  0.66908372626E+03  0.20000949629E+04  0.10100000352E+00 0. -1.
       -3    1    3    3    0  502 -0.95128674768E+03  0.16271940086E+04  0.12969237071E+03  0.18893191734E+04  0.10100000352E+00 0.  1.
</event>
<event>
 5   0  0.1628473E-08  0.3800758E+04  0.7818609E-02  0.8045992E-01
       -1   -1    0    0    0  501  0.00000000000E+00  0.00000000000E+00  0.24803853281E+04  0.24803853281E+04  0.50400001928E-02 0. -1.
        1   -1    0    0  501    0  0.00000000000E+00  0.00000000000E+00 -0.14559998208E+04  0.14559998208E+04  0.50400001928E-02 0.  1.
    10030    2    1    2    0    0  0.00000000000E+00  0.00000000000E+00  0.10243855073E+04  0.39363851490E+04  0.38007581314E+04 0.  0.
        3    1    3    3  502    0  0.11475436990E+04  0.40983435196E+02  0.20804609135E+04  0.23763109658E+04  0.10100000352E+00 0. -1.
       -3    1    3    3    0  502 -0.11475436990E+04 -0.40983435196E+02 -0.10560754063E+04  0.15600741832E+04  0.10100000352E+00 0.  1.
</event>
<event>
 5   0  0.1628473E-08  0.3801154E+04  0.7818609E-02  0.8045907E-01
        1   -1    0    0  501    0  0.00000000000E+00  0.00000000000E+00  0.24427830457E+04  0.24427830457E+04  0.50400001928E-02 0.  1.
       -1   -1    0    0    0  501  0.00000000000E+00  0.00000000000E+00 -0.14787203288E+04  0.14787203288E+04  0.50400001928E-02 0. -1.
    10030    2    1    2    0    0  0.00000000000E+00  0.00000000000E+00  0.96406271694E+03  0.39215033745E+04  0.38011540082E+04 0.  0.
        3    1    3    3  502    0 -0.10326569048E+04 -0.14484585622E+04  0.11723819334E+04  0.21304675302E+04  0.10100000352E+00 0. -1.
       -3    1    3    3    0  502  0.10326569048E+04  0.14484585622E+04 -0.20831921646E+03  0.17910358443E+04  0.10100000352E+00 0.  1.
</event>
<event>
 5   0  0.1628250E-08  0.3803780E+04  0.7818609E-02  0.8045344E-01
       -1   -1    0    0    0  501  0.00000000000E+00  0.00000000000E+00  0.26980022895E+04  0.26980022895E+04  0.50400001928E-02 0.  1.
        1   -1    0    0  501    0  0.00000000000E+00  0.00000000000E+00 -0.13406904567E+04  0.13406904567E+04  0.50400001928E-02 0. -1.
    10030    2    1    2    0    0  0.00000000000E+00  0.00000000000E+00  0.13573118328E+04  0.40386927462E+04  0.38037801838E+04 0.  0.
        4    1    3    3  502    0  0.11645491022E+04 -0.12682779212E+04 -0.17899247040E+03  0.17311104570E+04  0.12699999809E+01 0. -1.
       -4    1    3    3    0  502 -0.11645491022E+04  0.12682779212E+04  0.15363043032E+04  0.23075822892E+04  0.12699999809E+01 0.  1.
</event>
<event>
 5   0  0.5147582E-08  0.3797761E+04  0.7818609E-02  0.8046636E-01
        2   -1    0    0  501    0  0.00000000000E+00  0.00000000000E+00  0.28332719455E+04  0.28332719455E+04  0.25500000920E-02 0. -1.
       -2   -1    0    0    0  501  0.00000000000E+00  0.00000000000E+00 -0.12726439265E+04  0.12726439265E+04  0.25500000920E-02 0.  1.
    10030    2    1    2    0    0  0.00000000000E+00  0.00000000000E+00  0.15606280190E+04  0.41059158721E+04  0.37977605684E+04 0.  0.
        1    1    3    3  502    0  0.44627405798E+03 -0.10874493761E+04 -0.83201522568E+03  0.14401236114E+04  0.50400001928E-02 0.  1.
       -1    1    3    3    0  502 -0.44627405798E+03  0.10874493761E+04  0.23926432447E+04  0.26657922606E+04  0.50400001928E-02 0. -1.
</event>
<event>
 5   0  0.5159761E-08  0.3816608E+04  0.7818609E-02  0.8042600E-01
        2   -1    0    0  501    0  0.00000000000E+00  0.00000000000E+00  0.13304314226E+04  0.13304314226E+04  0.25500000920E-02 0. -1.
       -2   -1    0    0    0  501  0.00000000000E+00  0.00000000000E+00 -0.27371752045E+04  0.27371752045E+04  0.25500000920E-02 0.  1.
    10030    2    1    2    0    0  0.00000000000E+00  0.00000000000E+00 -0.14067437820E+04  0.40676066271E+04  0.38166078662E+04 0.  0.
        5    1    3    3  502    0  0.45391880576E+03 -0.80578662223E+03  0.10756152371E+04  0.14185572217E+04  0.46999998093E+01 0. -1.
       -5    1    3    3    0  502 -0.45391880576E+03  0.80578662223E+03 -0.24823590191E+04  0.26490494054E+04  0.46999998093E+01 0.  1.
</event>
<event>
 5   0  0.5140842E-08  0.3798475E+04  0.7818609E-02  0.8046482E-01
        2   -1    0    0  501    0  0.00000000000E+00  0.00000000000E+00  0.20857726965E+04  0.20857726965E+04  0.25500000920E-02 0. -1.
       -2   -1    0    0    0  501  0.00000000000E+00  0.00000000000E+00 -0.17293843380E+04  0.17293843380E+04  0.25500000920E-02 0.  1.
    10030    2    1    2    0    0  0.00000000000E+00  0.00000000000E+00  0.35638835853E+03  0.38151570346E+04  0.37984747645E+04 0.  0.
        2    1    3    3  502    0  0.27234906643E+03 -0.15034724908E+04  0.13111994055E+04  0.20134168535E+04  0.25500000920E-02 0. -1.
       -2    1    3    3    0  502 -0.27234906643E+03  0.15034724908E+04 -0.95481104700E+03  0.18017401811E+04  0.25500000920E-02 0.  1.
</event>
<event>
 5   0  0.5086209E-08  0.3804948E+04  0.7818609E-02  0.8045094E-01
       -2   -1    0    0    0  501  0.00000000000E+00  0.00000000000E+00  0.16388296218E+04  0.16388296218E+04  0.25500000920E-02 0.  1.
        2   -1    0    0  501    0  0.00000000000E+00  0.00000000000E+00 -0.22085319117E+04  0.22085319117E+04  0.25500000920E-02 0. -1.
    10030    2    1    2    0    0  0.00000000000E+00  0.00000000000E+00 -0.56970228993E+03  0.38473615335E+04  0.38049481035E+04 0.  0.
        3    1    3    3  502    0  0.16745344929E+04  0.65930651077E+03  0.33900000446E+03  0.18313033217E+04  0.10100000352E+00 0. -1.
       -3    1    3    3    0  502 -0.16745344929E+04 -0.65930651077E+03 -0.90870229439E+03  0.20160582117E+04  0.10100000352E+00 0.  1.
</event>
<event>
 5   0  0.1628250E-08  0.3799417E+04  0.7818609E-02  0.8046280E-01
       -1   -1    0    0    0  501  0.00000000000E+00  0.00000000000E+00  0.20798105069E+04  0.20798105069E+04  0.50400001928E-02 0. -1.
        1   -1    0    0  501    0  0.00000000000E+00  0.00000000000E+00 -0.17352027160E+04  0.17352027160E+04  0.50400001928E-02 0.  1.
    10030    2    1    2    0    0  0.00000000000E+00  0.00000000000E+00  0.34460779090E+03  0.38150132230E+04  0.37994172398E+04 0.  0.
        4    1    3    3  502    0  0.12964417767E+04  0.60255299938E+03  0.14284626544E+04  0.20209746572E+04  0.12699999809E+01 0. -1.
       -4    1    3    3    0  502 -0.12964417767E+04 -0.60255299938E+03 -0.10838548635E+04  0.17940385657E+04  0.12699999809E+01 0.  1.
</event>
<event>
 5   0  0.1628250E-08  0.3806518E+04  0.7818609E-02  0.8044758E-01
        1   -1    0    0  501    0  0.00000000000E+00  0.00000000000E+00  0.19360279262E+04  0.19360279263E+04  0.50400001928E-02 0.  1.
       -1   -1    0    0    0  501  0.00000000000E+00  0.00000000000E+00 -0.18710448204E+04  0.18710448204E+04  0.50400001928E-02 0. -1.
    10030    2    1    2    0    0  0.00000000000E+00  0.00000000000E+00  0.64983105892E+02  0.38070727466E+04  0.38065181063E+04 0.  0.
        1    1    3    3  502    0 -0.18763763148E+04  0.22521553326E+03  0.25810126469E+03  0.19073873162E+04  0.50400001928E-02 0. -1.
       -1    1    3    3    0  502  0.18763763148E+04 -0.22521553326E+03 -0.19311815879E+03  0.18996854304E+04  0.50400001928E-02 0.  1.
</event>
<event>
 5   0  0.5086209E-08  0.3795740E+04  0.7818609E-02  0.8047070E-01
       -2   -1    0    0    0  501  0.00000000000E+00  0.00000000000E+00  0.12646318247E+04  0.12646318247E+04  0.25500000920E-02 0. -1.
        2   -1    0    0  501    0  0.00000000000E+00  0.00000000000E+00 -0.28481894037E+04  0.28481894037E+04  0.25500000920E-02 0.  1.
    10030    2    1    2    0    0  0.00000000000E+00  0.00000000000E+00 -0.15835575790E+04  0.41128212284E+04  0.37957402244E+04 0.  0.
        3    1    3    3  502    0 -0.80902325047E+03 -0.13909882189E+04  0.29853203971E+03  0.16366087602E+04  0.10100000352E+00 0. -1.
       -3    1    3    3    0  502  0.80902325047E+03  0.13909882189E+04 -0.18820896187E+04  0.24762124682E+04  0.10100000352E+00 0.  1.
</event>
<event>
 5   0  0.5159761E-08  0.3797501E+04  0.7818609E-02  0.8046691E-01
        2   -1    0    0  501    0  0.00000000000E+00  0.00000000000E+00  0.28817877010E+04  0.28817877010E+04  0.25500000920E-02 0.  1.
       -2   -1    0    0    0  501  0.00000000000E+00  0.00000000000E+00 -0.12510477586E+04  0.12510477586E+04  0.25500000920E-02 0. -1.
    10030    2    1    2    0    0  0.00000000000E+00  0.00000000000E+00  0.16307399424E+04  0.41328354597E+04  0.37975013070E+04 0.  0.
        5    1    3    3  502    0  0.89470476937E+03  0.15730504686E+04  0.18995253164E+03  0.18196396499E+04  0.46999998093E+01 0. -1.
       -5    1    3    3    0  502 -0.89470476937E+03 -0.15730504686E+04  0.14407874108E+04  0.23131958097E+04  0.46999998093E+01 0.  1.
</event>
<event>
 5   0  0.1628473E-08  0.3802062E+04  0.7818609E-02  0.8045712E-01
       -1   -1    0    0    0  501  0.00000000000E+00  0.00000000000E+00  0.15238097426E+04  0.15238097426E+04  0.50400001928E-02 0. -1.
        1   -1    0    0  501    0  0.00000000000E+00  0.00000000000E+00 -0.23716344283E+04  0.23716344283E+04  0.50400001928E-02 0.  1.
    10030    2    1    2    0    0  0.00000000000E+00  0.00000000000E+00 -0.84782468570E+03  0.38954441708E+04  0.38020624128E+04 0.  0.
        3    1    3    3  502    0  0.13760001993E+04  0.10603917203E+04  0.36713386491E+03  0.17755546834E+04  0.10100000352E+00 0. -1.
       -3    1    3    3    0  502 -0.13760001993E+04 -0.10603917203E+04 -0.12149585506E+04  0.21198894874E+04  0.10100000352E+00 0.  1.
</event>
<event>
 5   0  0.1628250E-08  0.3779884E+04  0.7818609E-02  0.8050486E-01
       -1   -1    0    0    0  501  0.00000000000E+00  0.00000000000E+00  0.22953199317E+04  0.22953199317E+04  0.50400001928E-02 0.  1.
        1   -1    0    0  501    0  0.00000000000E+00  0.00000000000E+00 -0.15561578539E+04  0.15561578539E+04  0.50400001928E-02 0. -1.
    10030    2    1    2    0    0  0.00000000000E+00  0.00000000000E+00  0.73916207779E+03  0.38514777856E+04  0.37798836696E+04 0.  0.
        4    1    3    3  502    0  0.32146936013E+03 -0.86808141743E+03  0.20485069475E+04  0.22479524514E+04  0.12699999809E+01 0.  1.
       -4    1    3    3    0  502 -0.32146936013E+03  0.86808141743E+03 -0.13093448697E+04  0.16035253342E+04  0.12699999809E+01 0. -1.
</event>
<event>
 5   0  0.1666051E-08  0.3800692E+04  0.7818609E-02  0.8046006E-01
       -1   -1    0    0    0  501  0.00000000000E+00  0.00000000000E+00  0.21479554661E+04  0.21479554661E+04  0.50400001928E-02 0.  1.
        1   -1    0    0  501    0  0.00000000000E+00  0.00000000000E+00 -0.16812801448E+04  0.16812801448E+04  0.50400001928E-02 0. -1.
    10030    2    1    2    0    0  0.00000000000E+00  0.00000000000E+00  0.46667532123E+03  0.38292356109E+04  0.38006919776E+04 0.  0.
        2    1    3    3  502    0 -0.82420052390E+03 -0.56402843386E+03 -0.13955542356E+04  0.17161020372E+04  0.25500000920E-02 0. -1.
       -2    1    3    3    0  502  0.82420052390E+03  0.56402843386E+03  0.18622295568E+04  0.21131335736E+04  0.25500000920E-02 0.  1.
</event>
<event>
 5   0  0.5207474E-08  0.3797629E+04  0.7818609E-02  0.8046664E-01
       -2   -1    0    0    0  501  0.00000000000E+00  0.00000000000E+00  0.12175443655E+04  0.12175443655E+04  0.25500000920E-02 0.  1.
        2   -1    0    0  501    0  0.00000000000E+00  0.00000000000E+00 -0.29612852629E+04  0.29612852629E+04  0.25500000920E-02 0. -1.
    10030    2    1    2    0    0  0.00000000000E+00  0.00000000000E+00 -0.17437408974E+04  0.41788296283E+04  0.37976288320E+04 0.  0.
        4    1    3    3  502    0 -0.63554853348E+03  0.44734711562E+03  0.10345028075E+04  0.12939238973E+04  0.12699999809E+01 0.  1.
       -4    1    3    3    0  502  0.63554853348E+03 -0.44734711562E+03 -0.27782437049E+04  0.28849057311E+04  0.12699999809E+01 0. -1.
</event>
<event>
 5   0  0.1628250E-08  0.3801497E+04  0.7818609E-02  0.8045834E-01
       -1   -1    0    0    0  501  0.00000000000E+00  0.00000000000E+00  0.27382854376E+04  0.27382854376E+04  0.50400001928E-02 0. -1.
        1   -1    0    0  501    0  0.00000000000E+00  0.00000000000E+00 -0.13193818805E+04  0.13193818805E+04  0.50400001928E-02 0.  1.
    10030    2    1    2    0    0  0.00000000000E+00  0.00000000000E+00  0.14189035571E+04  0.40576673182E+04  0.38014966474E+04 0.  0.
        5    1    3    3  502    0  0.56749079741E+03 -0.14157390572E+03  0.26398387592E+04  0.27038601555E+04  0.46999998093E+01 0. -1.
       -5    1    3    3    0  502 -0.56749079741E+03  0.14157390572E+03 -0.12209352021E+04  0.13538071627E+04  0.46999998093E+01 0.  1.
</event>
<event>
 5   0  0.5159761E-08  0.3807208E+04  0.7818609E-02  0.8044610E-01
       -2   -1    0    0    0  501  0.00000000000E+00  0.00000000000E+00  0.17677367283E+04  0.17677367283E+04  0.25500000920E-02 0. -1.
        2   -1    0    0  501    0  0.00000000000E+00  0.00000000000E+00 -0.20499142468E+04  0.20499142468E+04  0.25500000920E-02 0.  1.
    10030    2    1    2    0    0  0.00000000000E+00  0.00000000000E+00 -0.28217751854E+03  0.38176509751E+04  0.38072082706E+04 0.  0.
        5    1    3    3  502    0  0.13138493254E+04  0.46692371567E+03  0.11584090653E+04  0.18127745196E+04  0.46999998093E+01 0. -1.
       -5    1    3    3    0  502 -0.13138493254E+04 -0.46692371567E+03 -0.14405865839E+04  0.20048764555E+04  0.46999998093E+01 0.  1.
</event>
<event>
 5   0  0.1666051E-08  0.3831012E+04  0.7818609E-02  0.8039532E-01
        1   -1    0    0  501    0  0.00000000000E+00  0.00000000000E+00  0.19538640785E+04  0.19538640785E+04  0.50400001928E-02 0.  1.
       -1   -1    0    0    0  501  0.00000000000E+00  0.00000000000E+00 -0.18779011262E+04  0.18779011262E+04  0.50400001928E-02 0. -1.
    10030    2    1    2    0    0  0.00000000000E+00  0.00000000000E+00  0.75962952345E+02  0.38317652047E+04  0.38310121657E+04 0.  0.
        2    1    3    3  502    0 -0.78301912756E+03 -0.17442942673E+04  0.15411678168E+03  0.19181849305E+04  0.25500000920E-02 0. -1.
       -2    1    3    3    0  502  0.78301912756E+03  0.17442942673E+04 -0.78153829337E+02  0.19135802743E+04  0.25500000920E-02 0.  1.
</event>
<event>
 5   0  0.5147582E-08  0.3795317E+04  0.7818609E-02  0.8047161E-01
       -2   -1    0    0    0  501  0.00000000000E+00  0.00000000000E+00  0.13161507924E+04  0.13161507924E+04  0.25500000920E-02 0. -1.
        2   -1    0    0  501    0  0.00000000000E+00  0.00000000000E+00 -0.27360898929E+04  0.27360898929E+04  0.25500000920E-02 0.  1.
    10030    2    1    2    0    0  0.00000000000E+00  0.00000000000E+00 -0.14199391004E+04  0.40522406853E+04  0.37953165247E+04 0.  0.
        1    1    3    3  502    0  0.17284553844E+04  0.58959065266E+03 -0.12605646074E+04  0.22190534656E+04  0.50400001928E-02 0.  1.
       -1    1    3    3    0  502 -0.17284553844E+04 -0.58959065266E+03 -0.15937449307E+03  0.18331872198E+04  0.50400001928E-02 0. -1.
</event>
<event>
 5   0  0.1628250E-08  0.3811284E+04  0.7818609E-02  0.8043738E-01
        1   -1    0    0  501    0  0.00000000000E+00  0.00000000000E+00  0.30536044062E+04  0.30536044062E+04  0.50400001928E-02 0.  1.
       -1   -1    0    0    0  501  0.00000000000E+00  0.00000000000E+00 -0.11892407479E+04  0.11892407480E+04  0.50400001928E-02 0. -1.
    10030    2    1    2    0    0  0.00000000000E+00  0.00000000000E+00  0.18643636583E+04  0.42428451542E+04  0.38112836620E+04 0.  0.
        5    1    3    3  502    0  0.65654416780E+03  0.46797152674E+03  0.28543709413E+04  0.29660585218E+04  0.46999998093E+01 0.  1.
       -5    1    3    3    0  502 -0.65654416780E+03 -0.46797152674E+03 -0.99000728304E+03  0.12767866324E+04  0.46999998093E+01 0. -1.
</event>
<event>
 5   0  0.1666051E-08  0.3797585E+04  0.7818609E-02  0.8046673E-01
        1   -1    0    0  501    0  0.00000000000E+00  0.00000000000E+00  0.10320678875E+04  0.10320678875E+04  0.50400001928E-02 0. -1.
       -1   -1    0    0    0  501  0.00000000000E+00  0.00000000000E+00 -0.34933878024E+04  0.34933878024E+04  0.50400001928E-02 0.  1.
    10030    2    1    2    0    0  0.00000000000E+00  0.00000000000E+00 -0.24613199149E+04  0.45254556899E+04  0.37975852167E+04 0.  0.
        2    1    3    3  502    0  0.30572343717E+03  0.92453452456E+03  0.71185994685E+03  0.12062236489E+04  0.25500000920E-02 0. -1.
       -2    1    3    3    0  502 -0.30572343717E+03 -0.92453452456E+03 -0.31731798618E+04  0.33192320411E+04  0.25500000920E-02 0.  1.
</event>
<event>
 5   0  0.5140842E-08  0.3795430E+04  0.7818609E-02  0.8047136E-01
       -2   -1    0    0    0  501  0.00000000000E+00  0.00000000000E+00  0.28978996372E+04  0.28978996372E+04  0.25500000920E-02 0.  1.
        2   -1    0    0  501    0  0.00000000000E+00  0.00000000000E+00 -0.12427353749E+04  0.12427353749E+04  0.25500000920E-02 0. -1.
    10030    2    1    2    0    0  0.00000000000E+00  0.00000000000E+00  0.16551642622E+04  0.41406350121E+04  0.37954300900E+04 0.  0.
        2    1    3    3  502    0 -0.18125908382E+04  0.51425566135E+03  0.58029906217E+03  0.19714693590E+04  0.25500000920E-02 0. -1.
       -2    1    3    3    0  502  0.18125908382E+04 -0.51425566135E+03  0.10748652001E+04  0.21691656531E+04  0.25500000920E-02 0.  1.
</event>
<event>
 5   0  0.5140842E-08  0.3804234E+04  0.7818609E-02  0.8045247E-01
        2   -1    0    0  501    0  0.00000000000E+00  0.00000000000E+00  0.20580759191E+04  0.20580759191E+04  0.25500000920E-02 0.  1.
       -2   -1    0    0    0  501  0.00000000000E+00  0.00000000000E+00 -0.17579768435E+04  0.17579768435E+04  0.25500000920E-02 0. -1.
    10030    2    1    2    0    0  0.00000000000E+00  0.00000000000E+00  0.30009907558E+03  0.38160527626E+04  0.38042343818E+04 0.  0.
        2    1    3    3  502    0 -0.18123604291E+04  0.16714318552E+03 -0.40435420566E+03  0.18644273901E+04  0.25500000920E-02 0. -1.
       -2    1    3    3    0  502  0.18123604291E+04 -0.16714318552E+03  0.70445328124E+03  0.19516253725E+04  0.25500000920E-02 0.  1.
</event>
<event>
 5   0  0.5207474E-08  0.3772565E+04  0.7818609E-02  0.8052068E-01
       -2   -1    0    0    0  501  0.00000000000E+00  0.00000000000E+00  0.31108986103E+04  0.31108986103E+04  0.25500000920E-02 0. -1.
        2   -1    0    0  501    0  0.00000000000E+00  0.00000000000E+00 -0.11437408550E+04  0.11437408550E+04  0.25500000920E-02 0.  1.
    10030    2    1    2    0    0  0.00000000000E+00  0.00000000000E+00  0.19671577553E+04  0.42546394654E+04  0.37725650883E+04 0.  0.
        4    1    3    3  502    0 -0.74331084240E+03 -0.17266719652E+04  0.11588509891E+04  0.22083578315E+04  0.12699999809E+01 0.  1.
       -4    1    3    3    0  502  0.74331084240E+03  0.17266719652E+04  0.80830676623E+03  0.20462816339E+04  0.12699999809E+01 0. -1.
</event>
<event>
 5   0  0.5140842E-08  0.3801541E+04  0.7818609E-02  0.8045824E-01
       -2   -1    0    0    0  501  0.00000000000E+00  0.00000000000E+00  0.17127006616E+04  0.17127006616E+04  0.25500000920E-02 0. -1.
        2   -1    0    0  501    0  0.00000000000E+00  0.00000000000E+00 -0.21094920879E+04  0.21094920879E+04  0.25500000920E-02 0.  1.
    10030    2    1    2    0    0  0.00000000000E+00  0.00000000000E+00 -0.39679142624E+03  0.38221927495E+04  0.38015410005E+04 0.  0.
        2    1    3    3  502    0  0.16372838469E+04  0.67505266379E+03 -0.89246024539E+03  0.19831489565E+04  0.25500000920E-02 0.  1.
       -2    1    3    3    0  502 -0.16372838469E+04 -0.67505266379E+03  0.49566881915E+03  0.18390437930E+04  0.25500000920E-02 0. -1.
</event>
<event>
 5   0  0.5140842E-08  0.3801881E+04  0.7818609E-02  0.8045751E-01
       -2   -1    0    0    0  501  0.00000000000E+00  0.00000000000E+00  0.15698193308E+04  0.15698193308E+04  0.25500000920E-02 0. -1.
        2   -1    0    0  501    0  0.00000000000E+00  0.00000000000E+00 -0.23019043142E+04  0.23019043142E+04  0.25500000920E-02 0.  1.
    10030    2    1    2    0    0  0.00000000000E+00  0.00000000000E+00 -0.73208498349E+03  0.38717236450E+04  0.38018805295E+04 0.  0.
        2    1    3    3  502    0  0.13530175404E+04  0.95609694219E+03  0.58317297765E+03  0.17563793865E+04  0.25500000920E-02 0. -1.
       -2    1    3    3    0  502 -0.13530175404E+04 -0.95609694219E+03 -0.13152579611E+04  0.21153442585E+04  0.25500000920E-02 0.  1.
</event>
<event>
 5   0  0.5086209E-08  0.3821280E+04  0.7818609E-02  0.8041604E-01
       -2   -1    0    0    0  501  0.00000000000E+00  0.00000000000E+00  0.14835078206E+04  0.14835078206E+04  0.25500000920E-02 0.  1.
        2   -1    0    0  501    0  0.00000000000E+00  0.00000000000E+00 -0.24607526353E+04  0.24607526353E+04  0.25500000920E-02 0. -1.
    10030    2    1    2    0    0  0.00000000000E+00  0.00000000000E+00 -0.97724481464E+03  0.39442604559E+04  0.38212802980E+04 0.  0.
        3    1    3    3  502    0 -0.20058686713E+03 -0.14714042520E+04  0.75226597203E+03  0.16646830530E+04  0.10100000352E+00 0.  1.
       -3    1    3    3    0  502  0.20058686713E+03  0.14714042520E+04 -0.17295107867E+04  0.22795774028E+04  0.10100000352E+00 0. -1.
</event>
<event>
 5   0  0.1628250E-08  0.3790045E+04  0.7818609E-02  0.8048295E-01
       -1   -1    0    0    0  501  0.00000000000E+00  0.00000000000E+00  0.18330570263E+04  0.18330570263E+04  0.50400001928E-02 0.  1.
        1   -1    0    0  501    0  0.00000000000E+00  0.00000000000E+00 -0.19590825117E+04  0.19590825117E+04  0.50400001928E-02 0. -1.
    10030    2    1    2    0    0  0.00000000000E+00  0.00000000000E+00 -0.12602548546E+03  0.37921395380E+04  0.37900448352E+04 0.  0.
        4    1    3    3  502    0 -0.66394327471E+03 -0.52357762337E+03  0.16338473713E+04  0.18396774297E+04  0.12699999809E+01 0.  1.
       -4    1    3    3    0  502  0.66394327471E+03  0.52357762337E+03 -0.17598728567E+04  0.19524621083E+04  0.12699999809E+01 0. -1.
</event>
<event>
 5   0  0.1628250E-08  0.3785834E+04  0.7818609E-02  0.8049202E-01
       -1   -1    0    0    0  501  0.00000000000E+00  0.00000000000E+00  0.15292953468E+04  0.15292953468E+04  0.50400001928E-02 0. -1.
        1   -1    0    0  501    0  0.00000000000E+00  0.00000000000E+00 -0.23429977109E+04  0.23429977109E+04  0.50400001928E-02 0.  1.
    10030    2    1    2    0    0  0.00000000000E+00  0.00000000000E+00 -0.81370236402E+03  0.38722930577E+04  0.37858343846E+04 0.  0.
        1    1    3    3  502    0 -0.63818044825E+03  0.17414950001E+04 -0.79371687365E+03  0.20174403574E+04  0.50400001928E-02 0.  1.
       -1    1    3    3    0  502  0.63818044825E+03 -0.17414950001E+04 -0.19985490368E+02  0.18548527003E+04  0.50400001928E-02 0. -1.
</event>
<event>
 5   0  0.1628473E-08  0.3820981E+04  0.7818609E-02  0.8041667E-01
       -1   -1    0    0    0  501  0.00000000000E+00  0.00000000000E+00  0.30861408565E+04  0.30861408565E+04  0.50400001928E-02 0. -1.
        1   -1    0    0  501    0  0.00000000000E+00  0.00000000000E+00 -0.11826985099E+04  0.11826985099E+04  0.50400001928E-02 0.  1.
    10030    2    1    2    0    0  0.00000000000E+00  0.00000000000E+00  0.19034423466E+04  0.42688393664E+04  0.38209811265E+04 0.  0.
        3    1    3    3  502    0  0.14384853458E+04  0.60459335597E+03  0.21832908107E+04  0.26835670273E+04  0.10100000352E+00 0. -1.
       -3    1    3    3    0  502 -0.14384853458E+04 -0.60459335597E+03 -0.27984846405E+03  0.15852723391E+04  0.10100000352E+00 0.  1.
</event>
<event>
 5   0  0.1666051E-08  0.3797727E+04  0.7818609E-02  0.8046643E-01
       -1   -1    0    0    0  501  0.00000000000E+00  0.00000000000E+00  0.13766928778E+04  0.13766928778E+04  0.50400001928E-02 0. -1.
        1   -1    0    0  501    0  0.00000000000E+00  0.00000000000E+00 -0.26190905837E+04  0.26190905837E+04  0.50400001928E-02 0.  1.
    10030    2    1    2    0    0  0.00000000000E+00  0.00000000000E+00 -0.12423977059E+04  0.39957834615E+04  0.37977274009E+04 0.  0.
        2    1    3    3  502    0 -0.35045923543E+02 -0.16644481423E+04 -0.15821001089E+04  0.22966620539E+04  0.25500000920E-02 0.  1.
       -2    1    3    3    0  502  0.35045923543E+02  0.16644481423E+04  0.33970240305E+03  0.16991214076E+04  0.25500000920E-02 0. -1.
</event>
<event>
 5   0  0.1628473E-08  0.3797731E+04  0.7818609E-02  0.8046642E-01
        1   -1    0    0  501    0  0.00000000000E+00  0.00000000000E+00  0.16635204216E+04  0.16635204216E+04  0.50400001928E-02 0. -1.
       -1   -1    0    0    0  501  0.00000000000E+00  0.00000000000E+00 -0.21675060026E+04  0.21675060026E+04  0.50400001928E-02 0.  1.
    10030    2    1    2    0    0  0.00000000000E+00  0.00000000000E+00 -0.50398558098E+03  0.38310264242E+04  0.37977311644E+04 0.  0.
        3    1    3    3  502    0  0.13225886142E+04 -0.94303574724E+03 -0.12440440798E+04  0.20460211987E+04  0.10100000352E+00 0.  1.
       -3    1    3    3    0  502 -0.13225886142E+04  0.94303574724E+03  0.74005849878E+03  0.17850052254E+04  0.10100000352E+00 0. -1.
</event>
<event>
 5   0  0.5207474E-08  0.3793564E+04  0.7818609E-02  0.8047538E-01
        2   -1    0    0  501    0  0.00000000000E+00  0.00000000000E+00  0.21059627002E+04  0.21059627002E+04  0.25500000920E-02 0. -1.
       -2   -1    0    0    0  501  0.00000000000E+00  0.00000000000E+00 -0.17083784583E+04  0.17083784583E+04  0.25500000920E-02 0.  1.
    10030    2    1    2    0    0  0.00000000000E+00  0.00000000000E+00  0.39758424194E+03  0.38143411585E+04  0.37935636602E+04 0.  0.
        4    1    3    3  502    0  0.86026592725E+03  0.57541403033E+02 -0.14999616259E+04  0.17301025896E+04  0.12699999809E+01 0.  1.
       -4    1    3    3    0  502 -0.86026592725E+03 -0.57541403033E+02  0.18975458678E+04  0.20842385689E+04  0.12699999809E+01 0. -1.
</event>
<event>
 5   0  0.5207474E-08  0.3800717E+04  0.7818609E-02  0.8046001E-01
        2   -1    0    0  501    0  0.00000000000E+00  0.00000000000E+00  0.26838153218E+04  0.26838153218E+04  0.25500000920E-02 0.  1.
       -2   -1    0    0    0  501  0.00000000000E+00  0.00000000000E+00 -0.13456079904E+04  0.13456079904E+04  0.25500000920E-02 0. -1.
    10030    2    1    2    0    0  0.00000000000E+00  0.00000000000E+00  0.13382073314E+04  0.40294233122E+04  0.38007174806E+04 0.  0.
        4    1    3    3  502    0 -0.15052770541E+04  0.11547375821E+04  0.78564492759E+03  0.20534160460E+04  0.12699999809E+01 0.  1.
       -4    1    3    3    0  502  0.15052770541E+04 -0.11547375821E+04  0.55256240380E+03  0.19760072662E+04  0.12699999809E+01 0. -1.
</event>
<event>
 5   0  0.5140842E-08  0.3799685E+04  0.7818609E-02  0.8046223E-01
       -2   -1    0    0    0  501  0.00000000000E+00  0.00000000000E+00  0.17129535338E+04  0.17129535339E+04  0.25500000920E-02 0. -1.
        2   -1    0    0  501    0  0.00000000000E+00  0.00000000000E+00 -0.21071211785E+04  0.21071211785E+04  0.25500000920E-02 0.  1.
    10030    2    1    2    0    0  0.00000000000E+00  0.00000000000E+00 -0.39416764461E+03  0.38200747123E+04  0.37996845495E+04 0.  0.
        2    1    3    3  502    0  0.33119853800E+03 -0.56256034246E+03  0.15966524912E+04  0.17249538510E+04  0.25500000920E-02 0. -1.
       -2    1    3    3    0  502 -0.33119853800E+03  0.56256034246E+03 -0.19908201358E+04  0.20951208613E+04  0.25500000920E-02 0.  1.
</event>
<event>
 5   0  0.1628250E-08  0.3807904E+04  0.7818609E-02  0.8044461E-01
        1   -1    0    0  501    0  0.00000000000E+00  0.00000000000E+00  0.17201552510E+04  0.17201552510E+04  0.50400001928E-02 0. -1.
       -1   -1    0    0    0  501  0.00000000000E+00  0.00000000000E+00 -0.21073868713E+04  0.21073868713E+04  0.50400001928E-02 0.  1.
    10030    2    1    2    0    0  0.00000000000E+00  0.00000000000E+00 -0.38723162035E+03  0.38275421223E+04  0.38079036714E+04 0.  0.
        4    1    3    3  502    0  0.10277994427E+04 -0.60644048683E+03  0.12975746515E+04  0.17629076401E+04  0.12699999809E+01 0. -1.
       -4    1    3    3    0  502 -0.10277994427E+04  0.60644048683E+03 -0.16848062718E+04  0.20646344822E+04  0.12699999809E+01 0.  1.
</event>
<event>
 5   0  0.1628473E-08  0.3784753E+04  0.7818609E-02  0.8049435E-01
        1   -1    0    0  501    0  0.00000000000E+00  0.00000000000E+00  0.14816180312E+04  0.14816180312E+04  0.50400001928E-02 0. -1.
       -1   -1    0    0    0  501  0.00000000000E+00  0.00000000000E+00 -0.24170115632E+04  0.24170115632E+04  0.50400001928E-02 0.  1.
    10030    2    1    2    0    0  0.00000000000E+00  0.00000000000E+00 -0.93539353207E+03  0.38986295944E+04  0.37847525222E+04 0.  0.
        3    1    3    3  502    0  0.69803290894E+03 -0.43209218710E+03 -0.22240304719E+04  0.23707098410E+04  0.10100000352E+00 0.  1.
       -3    1    3    3    0  502 -0.69803290894E+03  0.43209218710E+03  0.12886369398E+04  0.15279197534E+04  0.10100000352E+00 0. -1.
</event>
<event>
 5   0  0.1628250E-08  0.3803432E+04  0.7818609E-02  0.8045419E-01
        1   -1    0    0  501    0  0.00000000000E+00  0.00000000000E+00  0.24173290426E+04  0.24173290426E+04  0.50400001928E-02 0. -1.
       -1   -1    0    0    0  501  0.00000000000E+00  0.00000000000E+00 -0.14960827194E+04  0.14960827195E+04  0.50400001928E-02 0.  1.
    10030    2    1    2    0    0  0.00000000000E+00  0.00000000000E+00  0.92124632319E+03  0.39134117621E+04  0.38034322436E+04 0.  0.
        4    1    3    3  502    0 -0.63737842538E+03  0.87508090065E+02 -0.13807089997E+04  0.15232425538E+04  0.12699999809E+01 0.  1.
       -4    1    3    3    0  502  0.63737842538E+03 -0.87508090065E+02  0.23019553229E+04  0.23901692083E+04  0.12699999809E+01 0. -1.
</event>
<event>
 5   0  0.1628250E-08  0.3802510E+04  0.7818609E-02  0.8045616E-01
       -1   -1    0    0    0  501  0.00000000000E+00  0.00000000000E+00  0.11653615401E+04  0.11653615401E+04  0.50400001928E-02 0.  1.
        1   -1    0    0  501    0  0.00000000000E+00  0.00000000000E+00 -0.31018452112E+04  0.31018452112E+04  0.50400001928E-02 0. -1.
    10030    2    1    2    0    0  0.00000000000E+00  0.00000000000E+00 -0.19364836711E+04  0.42672067513E+04  0.38025102827E+04 0.  0.
        4    1    3    3  502    0 -0.33215267704E+03 -0.82787341075E+03 -0.28524383510E+04  0.29886629024E+04  0.12699999809E+01 0. -1.
       -4    1    3    3    0  502  0.33215267704E+03  0.82787341075E+03  0.91595467987E+03  0.12785438489E+04  0.12699999809E+01 0.  1.
</event>
<event>
 5   0  0.5147582E-08  0.3799623E+04  0.7818609E-02  0.8046236E-01
       -2   -1    0    0    0  501  0.00000000000E+00  0.00000000000E+00  0.14313909550E+04  0.14313909550E+04  0.25500000920E-02 0. -1.
        2   -1    0    0  501    0  0.00000000000E+00  0.00000000000E+00 -0.25215218140E+04  0.25215218140E+04  0.25500000920E-02 0.  1.
    10030    2    1    2    0    0  0.00000000000E+00  0.00000000000E+00 -0.10901308590E+04  0.39529127691E+04  0.37996228853E+04 0.  0.
        1    1    3    3  502    0 -0.14521193566E+04 -0.11946208987E+04 -0.26299265339E+03  0.18986665987E+04  0.50400001928E-02 0. -1.
       -1    1    3    3    0  502  0.14521193566E+04  0.11946208987E+04 -0.82713820559E+03  0.20542461704E+04  0.50400001928E-02 0.  1.
</event>
<event>
 5   0  0.5140842E-08  0.3804819E+04  0.7818609E-02  0.8045122E-01
        2   -1    0    0  501    0  0.00000000000E+00  0.00000000000E+00  0.22499962092E+04  0.22499962092E+04  0.25500000920E-02 0.  1.
       -2   -1    0    0    0  501  0.00000000000E+00  0.00000000000E+00 -0.16085187822E+04  0.16085187822E+04  0.25500000920E-02 0. -1.
    10030    2    1    2    0    0  0.00000000000E+00  0.00000000000E+00  0.64147742708E+03  0.38585149914E+04  0.38048186093E+04 0.  0.
        2    1    3    3  502    0  0.45667168628E+03 -0.79483759802E+03 -0.13697739248E+04  0.16482100720E+04  0.25500000920E-02 0. -1.
       -2    1    3    3    0  502 -0.45667168628E+03  0.79483759802E+03  0.20112513519E+04  0.22103049194E+04  0.25500000920E-02 0.  1.
</event>
<event>
 5   0  0.5086209E-08  0.3788080E+04  0.7818609E-02  0.8048718E-01
        2   -1    0    0  501    0  0.00000000000E+00  0.00000000000E+00  0.28088869764E+04  0.28088869764E+04  0.25500000920E-02 0.  1.
       -2   -1    0    0    0  501  0.00000000000E+00  0.00000000000E+00 -0.12771564878E+04  0.12771564878E+04  0.25500000920E-02 0. -1.
    10030    2    1    2    0    0  0.00000000000E+00  0.00000000000E+00  0.15317304886E+04  0.40860434641E+04  0.37880803715E+04 0.  0.
        3    1    3    3  502    0 -0.77643184010E+03  0.13589853718E+04  0.19163948152E+04  0.24743194501E+04  0.10100000352E+00 0.  1.
       -3    1    3    3    0  502  0.77643184010E+03 -0.13589853718E+04 -0.38466432657E+03  0.16117240141E+04  0.10100000352E+00 0. -1.
</event>
<event>
 5   0  0.5159761E-08  0.3791346E+04  0.7818609E-02  0.8048015E-01
       -2   -1    0    0    0  501  0.00000000000E+00  0.00000000000E+00  0.13263869673E+04  0.13263869673E+04  0.25500000920E-02 0.  1.
        2   -1    0    0  501    0  0.00000000000E+00  0.00000000000E+00 -0.27092967830E+04  0.27092967830E+04  0.25500000920E-02 0. -1.
    10030    2    1    2    0    0  0.00000000000E+00  0.00000000000E+00 -0.13829098157E+04  0.40356837503E+04  0.37913459053E+04 0.  0.
        5    1    3    3  502    0 -0.54614901252E+03 -0.10996999390E+04  0.84589992847E+03  0.14910357067E+04  0.46999998093E+01 0.  1.
       -5    1    3    3    0  502  0.54614901252E+03  0.10996999390E+04 -0.22288097442E+04  0.25446480435E+04  0.46999998093E+01 0. -1.
</event>
<event>
 5   0  0.1628250E-08  0.3815110E+04  0.7818609E-02  0.8042920E-01
        1   -1    0    0  501    0  0.00000000000E+00  0.00000000000E+00  0.23879321577E+04  0.23879321577E+04  0.50400001928E-02 0.  1.
       -1   -1    0    0    0  501  0.00000000000E+00  0.00000000000E+00 -0.15238143805E+04  0.15238143805E+04  0.50400001928E-02 0. -1.
    10030    2    1    2    0    0  0.00000000000E+00  0.00000000000E+00  0.86411777726E+03  0.39117465382E+04  0.38151096244E+04 0.  0.
        5    1    3    3  502    0 -0.13545624408E+04 -0.13332758851E+04  0.26584381200E+03  0.19191558077E+04  0.46999998093E+01 0.  1.
       -5    1    3    3    0  502  0.13545624408E+04  0.13332758851E+04  0.59827396525E+03  0.19925907305E+04  0.46999998093E+01 0. -1.
</event>
<event>
 5   0  0.1666051E-08  0.3794534E+04  0.7818609E-02  0.8047329E-01
        1   -1    0    0  501    0  0.00000000000E+00  0.00000000000E+00  0.13475525654E+04  0.13475525654E+04  0.50400001928E-02 0.  1.
       -1   -1    0    0    0  501  0.00000000000E+00  0.00000000000E+00 -0.26712287653E+04  0.26712287653E+04  0.50400001928E-02 0. -1.
    10030    2    1    2    0    0  0.00000000000E+00  0.00000000000E+00 -0.13236761999E+04  0.40187813307E+04  0.37945335289E+04 0.  0.
        2    1    3    3  502    0 -0.10056078262E+04  0.90803024430E+03 -0.20684278238E+04  0.24726826903E+04  0.25500000920E-02 0. -1.
       -2    1    3    3    0  502  0.10056078262E+04 -0.90803024430E+03  0.74475162390E+03  0.15460986404E+04  0.25500000920E-02 0.  1.
</event>
<event>
 5   0  0.1628250E-08  0.3699405E+04  0.7818609E-02  0.8068094E-01
       -1   -1    0    0    0  501  0.00000000000E+00  0.00000000000E+00  0.17426378813E+04  0.17426378813E+04  0.50400001928E-02 0.  1.
        1   -1    0    0  501    0  0.00000000000E+00  0.00000000000E+00 -0.19633451410E+04  0.19633451411E+04  0.50400001928E-02 0. -1.
    10030    2    1    2    0    0  0.00000000000E+00  0.00000000000E+00 -0.22070725972E+03  0.37059830224E+04  0.36994051505E+04 0.  0.
        5    1    3    3  502    0 -0.26283053361E+02 -0.14347703056E+03  0.17368613508E+04  0.17429818986E+04  0.46999998093E+01 0.  1.
       -5    1    3    3    0  502  0.26283053361E+02  0.14347703056E+03 -0.19575686105E+04  0.19630011238E+04  0.46999998093E+01 0. -1.
</event>
<event>
 5   0  0.5140842E-08  0.3686403E+04  0.7818609E-02  0.8070982E-01
       -2   -1    0    0    0  501  0.00000000000E+00  0.00000000000E+00  0.15688133808E+04  0.15688133808E+04  0.25500000920E-02 0.  1.
        2   -1    0    0  501    0  0.00000000000E+00  0.00000000000E+00 -0.21655805281E+04  0.21655805281E+04  0.25500000920E-02 0. -1.
    10030    2    1    2    0    0  0.00000000000E+00  0.00000000000E+00 -0.59676714725E+03  0.37343939089E+04  0.36864029675E+04 0.  0.
        2    1    3    3  502    0  0.16218830832E+04  0.76127108483E+03  0.14009462371E+03  0.17971268469E+04  0.25500000920E-02 0. -1.
       -2    1    3    3    0  502 -0.16218830832E+04 -0.76127108483E+03 -0.73686177097E+03  0.19372670620E+04  0.25500000920E-02 0.  1.
</event>
<event>
 5   0  0.5147582E-08  0.3799141E+04  0.7818609E-02  0.8046339E-01
        2   -1    0    0  501    0  0.00000000000E+00  0.00000000000E+00  0.24162807760E+04  0.24162807760E+04  0.25500000920E-02 0. -1.
       -2   -1    0    0    0  501  0.00000000000E+00  0.00000000000E+00 -0.14933566524E+04  0.14933566524E+04  0.25500000920E-02 0.  1.
    10030    2    1    2    0    0  0.00000000000E+00  0.00000000000E+00  0.92292412363E+03  0.39096374284E+04  0.37991414666E+04 0.  0.
        1    1    3    3  502    0  0.77135670316E+03 -0.14752210265E+04  0.14030044543E+04  0.21770828508E+04  0.50400001928E-02 0. -1.
       -1    1    3    3    0  502 -0.77135670316E+03  0.14752210265E+04 -0.48008033066E+03  0.17325545776E+04  0.50400001928E-02 0.  1.
</event>
<event>
 5   0  0.5147582E-08  0.3798692E+04  0.7818609E-02  0.8046436E-01
       -2   -1    0    0    0  501  0.00000000000E+00  0.00000000000E+00  0.15109180734E+04  0.15109180734E+04  0.25500000920E-02 0. -1.
        2   -1    0    0  501    0  0.00000000000E+00  0.00000000000E+00 -0.23876316425E+04  0.23876316425E+04  0.25500000920E-02 0.  1.
    10030    2    1    2    0    0  0.00000000000E+00  0.00000000000E+00 -0.87671356914E+03  0.38985497159E+04  0.37986923020E+04 0.  0.
        1    1    3    3  502    0 -0.98563331732E+03  0.82583911494E+03 -0.18729700885E+04  0.22718935346E+04  0.50400001928E-02 0.  1.
       -1    1    3    3    0  502  0.98563331732E+03 -0.82583911494E+03  0.99625651936E+03  0.16266561814E+04  0.50400001928E-02 0. -1.
</event>
<event>
 5   0  0.5086209E-08  0.3830359E+04  0.7818609E-02  0.8039671E-01
       -2   -1    0    0    0  501  0.00000000000E+00  0.00000000000E+00  0.31893045088E+04  0.31893045088E+04  0.25500000920E-02 0.  1.
        2   -1    0    0  501    0  0.00000000000E+00  0.00000000000E+00 -0.11500663368E+04  0.11500663368E+04  0.25500000920E-02 0. -1.
    10030    2    1    2    0    0  0.00000000000E+00  0.00000000000E+00  0.20392381720E+04  0.43393708457E+04  0.38303586012E+04 0.  0.
        3    1    3    3  502    0 -0.17824788929E+04  0.36550502603E+03  0.16965965937E+04  0.24878233337E+04  0.10100000352E+00 0. -1.
       -3    1    3    3    0  502  0.17824788929E+04 -0.36550502603E+03  0.34264157830E+03  0.18515475120E+04  0.10100000352E+00 0.  1.
</event>
<event>
 5   0  0.1628250E-08  0.3776976E+04  0.7818609E-02  0.8051114E-01
       -1   -1    0    0    0  501  0.00000000000E+00  0.00000000000E+00  0.15842250670E+04  0.15842250670E+04  0.50400001928E-02 0. -1.
        1   -1    0    0  501    0  0.00000000000E+00  0.00000000000E+00 -0.22511868606E+04  0.22511868606E+04  0.50400001928E-02 0.  1.
    10030    2    1    2    0    0  0.00000000000E+00  0.00000000000E+00 -0.66696179365E+03  0.38354119276E+04  0.37769758565E+04 0.  0.
        4    1    3    3  502    0 -0.35278130911E+02  0.86211288425E+03  0.13723609321E+04  0.16210673374E+04  0.12699999809E+01 0. -1.
       -4    1    3    3    0  502  0.35278130911E+02 -0.86211288425E+03 -0.20393227257E+04  0.22143445902E+04  0.12699999809E+01 0.  1.
</event>
<event>
 5   0  0.5086209E-08  0.3802141E+04  0.7818609E-02  0.8045696E-01
        2   -1    0    0  501    0  0.00000000000E+00  0.00000000000E+00  0.13628016821E+04  0.13628016821E+04  0.25500000920E-02 0. -1.
       -2   -1    0    0    0  501  0.00000000000E+00  0.00000000000E+00 -0.26519409570E+04  0.26519409570E+04  0.25500000920E-02 0.  1.
    10030    2    1    2    0    0  0.00000000000E+00  0.00000000000E+00 -0.12891392749E+04  0.40147426392E+04  0.38021412900E+04 0.  0.
        3    1    3    3  502    0 -0.61136518766E+03  0.62964215688E+03 -0.24252379361E+04  0.25791463113E+04  0.10100000352E+00 0.  1.
       -3    1    3    3    0  502  0.61136518766E+03 -0.62964215688E+03  0.11360986612E+04  0.14355963279E+04  0.10100000352E+00 0. -1.
</event>
<event>
 5   0  0.1666051E-08  0.3803439E+04  0.7818609E-02  0.8045417E-01
        1   -1    0    0  501    0  0.00000000000E+00  0.00000000000E+00  0.16936459693E+04  0.16936459693E+04  0.50400001928E-02 0.  1.
       -1   -1    0    0    0  501  0.00000000000E+00  0.00000000000E+00 -0.21353558607E+04  0.21353558607E+04  0.50400001928E-02 0. -1.
    10030    2    1    2    0    0  0.00000000000E+00  0.00000000000E+00 -0.44170989139E+03  0.38290018300E+04  0.38034388895E+04 0.  0.
        2    1    3    3  502    0 -0.13144380291E+03 -0.12083358204E+03  0.16851895391E+04  0.16946214948E+04  0.25500000920E-02 0.  1.
       -2    1    3    3    0  502  0.13144380291E+03  0.12083358204E+03 -0.21268994305E+04  0.21343803352E+04  0.25500000920E-02 0. -1.
</event>
<event>
 5   0  0.5159761E-08  0.3792246E+04  0.7818609E-02  0.8047821E-01
        2   -1    0    0  501    0  0.00000000000E+00  0.00000000000E+00  0.24420099611E+04  0.24420099611E+04  0.25500000920E-02 0.  1.
       -2   -1    0    0    0  501  0.00000000000E+00  0.00000000000E+00 -0.14722635043E+04  0.14722635043E+04  0.25500000920E-02 0. -1.
    10030    2    1    2    0    0  0.00000000000E+00  0.00000000000E+00  0.96974645681E+03  0.39142734653E+04  0.37922458479E+04 0.  0.
        5    1    3    3  502    0 -0.12254133594E+04  0.13157697533E+04  0.11062171587E+04  0.21110723430E+04  0.46999998093E+01 0.  1.
       -5    1    3    3    0  502  0.12254133594E+04 -0.13157697533E+04 -0.13647070187E+03  0.18032011223E+04  0.46999998093E+01 0. -1.
</event>
<event>
 5   0  0.5086209E-08  0.3772420E+04  0.7818609E-02  0.8052099E-01
       -2   -1    0    0    0  501  0.00000000000E+00  0.00000000000E+00  0.21906643471E+04  0.21906643471E+04  0.25500000920E-02 0.  1.
        2   -1    0    0  501    0  0.00000000000E+00  0.00000000000E+00 -0.16240683682E+04  0.16240683682E+04  0.25500000920E-02 0. -1.
    10030    2    1    2    0    0  0.00000000000E+00  0.00000000000E+00  0.56659597896E+03  0.38147327153E+04  0.37724202690E+04 0.  0.
        3    1    3    3  502    0  0.51705585824E+03 -0.40529959667E+03 -0.15046324868E+04  0.16418079833E+04  0.10100000352E+00 0. -1.
       -3    1    3    3    0  502 -0.51705585824E+03  0.40529959667E+03  0.20712284657E+04  0.21729247320E+04  0.10100000352E+00 0.  1.
</event>
<event>
 5   0  0.1666051E-08  0.3802240E+04  0.7818609E-02  0.8045674E-01
        1   -1    0    0  501    0  0.00000000000E+00  0.00000000000E+00  0.11690075036E+04  0.11690075036E+04  0.50400001928E-02 0. -1.
       -1   -1    0    0    0  501  0.00000000000E+00  0.00000000000E+00 -0.30917314203E+04  0.30917314203E+04  0.50400001928E-02 0.  1.
    10030    2    1    2    0    0  0.00000000000E+00  0.00000000000E+00 -0.19227239167E+04  0.42607389238E+04  0.38022399868E+04 0.  0.
        2    1    3    3  502    0  0.15003357130E+04 -0.75595167119E+03 -0.19584869367E+04  0.25803374318E+04  0.25500000920E-02 0.  1.
       -2    1    3    3    0  502 -0.15003357130E+04  0.75595167119E+03  0.35763020002E+02  0.16804014920E+04  0.25500000920E-02 0. -1.
</event>
<event>
 5   0  0.1666051E-08  0.3802710E+04  0.7818609E-02  0.8045574E-01
       -1   -1    0    0    0  501  0.00000000000E+00  0.00000000000E+00  0.11679268805E+04  0.11679268805E+04  0.50400001928E-02 0. -1.
        1   -1    0    0  501    0  0.00000000000E+00  0.00000000000E+00 -0.30953575585E+04  0.30953575585E+04  0.50400001928E-02 0.  1.
    10030    2    1    2    0    0  0.00000000000E+00  0.00000000000E+00 -0.19274306780E+04  0.42632844391E+04  0.38027102427E+04 0.  0.
        2    1    3    3  502    0  0.16142335312E+03 -0.86082850172E+03 -0.28557376721E+04  0.29870254201E+04  0.25500000920E-02 0.  1.
       -2    1    3    3    0  502 -0.16142335312E+03  0.86082850172E+03  0.92830699408E+03  0.12762590190E+04  0.25500000920E-02 0. -1.
</event>
<event>
 5   0  0.1628250E-08  0.3800357E+04  0.7818609E-02  0.8046078E-01
       -3   -1    0    0    0  501  0.00000000000E+00  0.00000000000E+00  0.18359911636E+04  0.18359911663E+04  0.10100000352E+00 0. -1.
        3   -1    0    0  501    0  0.00000000000E+00  0.00000000000E+00 -0.19666099041E+04  0.19666099066E+04  0.10100000352E+00 0.  1.
    10030    2    1    2    0    0  0.00000000000E+00  0.00000000000E+00 -0.13061874049E+03  0.38026010730E+04  0.38003570444E+04 0.  0.
        3    1    3    3  502    0 -0.91127972455E+03 -0.10797037015E+04  0.12060657866E+04  0.18576290026E+04  0.10100000352E+00 0. -1.
       -3    1    3    3    0  502  0.91127972455E+03  0.10797037015E+04 -0.13366845271E+04  0.19449720704E+04  0.10100000352E+00 0.  1.
</event>
<event>
 5   0  0.5140842E-08  0.3788581E+04  0.7818609E-02  0.8048610E-01
        2   -1    0    0  501    0  0.00000000000E+00  0.00000000000E+00  0.26361904444E+04  0.26361904444E+04  0.25500000920E-02 0.  1.
       -2   -1    0    0    0  501  0.00000000000E+00  0.00000000000E+00 -0.13611826752E+04  0.13611826752E+04  0.25500000920E-02 0. -1.
    10030    2    1    2    0    0  0.00000000000E+00  0.00000000000E+00  0.12750077692E+04  0.39973731197E+04  0.37885811389E+04 0.  0.
        2    1    3    3  502    0  0.12385455827E+04  0.73147411506E+03 -0.66301911548E+03  0.15838699091E+04  0.25500000920E-02 0. -1.
       -2    1    3    3    0  502 -0.12385455827E+04 -0.73147411506E+03  0.19380268847E+04  0.24135032106E+04  0.25500000920E-02 0.  1.
</event>
<event>
 5   0  0.5140842E-08  0.3799794E+04  0.7818609E-02  0.8046199E-01
        2   -1    0    0  501    0  0.00000000000E+00  0.00000000000E+00  0.16661553091E+04  0.16661553091E+04  0.25500000920E-02 0. -1.
       -2   -1    0    0    0  501  0.00000000000E+00  0.00000000000E+00 -0.21664293603E+04  0.21664293603E+04  0.25500000920E-02 0.  1.
    10030    2    1    2    0    0  0.00000000000E+00  0.00000000000E+00 -0.50027405119E+03  0.38325846693E+04  0.37997935630E+04 0.  0.
        2    1    3    3  502    0 -0.67278957536E+03 -0.12960599113E+03 -0.20374801671E+04  0.21495973942E+04  0.25500000920E-02 0.  1.
       -2    1    3    3    0  502  0.67278957536E+03  0.12960599113E+03  0.15372061159E+04  0.16829872752E+04  0.25500000920E-02 0. -1.
</event>
<event>
 5   0  0.1628473E-08  0.3809588E+04  0.7818609E-02  0.8044100E-01
       -1   -1    0    0    0  501  0.00000000000E+00  0.00000000000E+00  0.14483157142E+04  0.14483157142E+04  0.50400001928E-02 0.  1.
        1   -1    0    0  501    0  0.00000000000E+00  0.00000000000E+00 -0.25051444196E+04  0.25051444196E+04  0.50400001928E-02 0. -1.
    10030    2    1    2    0    0  0.00000000000E+00  0.00000000000E+00 -0.10568287055E+04  0.39534601338E+04  0.38095879196E+04 0.  0.
        3    1    3    3  502    0  0.78964116260E+03  0.71932226700E+03 -0.21650873044E+04  0.24142412339E+04  0.10100000352E+00 0.  1.
       -3    1    3    3    0  502 -0.78964116260E+03 -0.71932226700E+03  0.11082585990E+04  0.15392188999E+04  0.10100000352E+00 0. -1.
</event>
<event>
 5   0  0.5207474E-08  0.3804180E+04  0.7818609E-02  0.8045258E-01
       -2   -1    0    0    0  501  0.00000000000E+00  0.00000000000E+00  0.17268429475E+04  0.17268429475E+04  0.25500000920E-02 0.  1.
        2   -1    0    0  501    0  0.00000000000E+00  0.00000000000E+00 -0.20951218118E+04  0.20951218118E+04  0.25500000920E-02 0. -1.
    10030    2    1    2    0    0  0.00000000000E+00  0.00000000000E+00 -0.36827886431E+03  0.38219647593E+04  0.38041799773E+04 0.  0.
        4    1    3    3  502    0  0.70578530724E+03  0.15341797785E+04 -0.10635051892E+04  0.19957167618E+04  0.12699999809E+01 0. -1.
       -4    1    3    3    0  502 -0.70578530724E+03 -0.15341797785E+04  0.69522632492E+03  0.18262479975E+04  0.12699999809E+01 0.  1.
</event>
<event>
 5   0  0.1628250E-08  0.3799378E+04  0.7818609E-02  0.8046288E-01
        1   -1    0    0  501    0  0.00000000000E+00  0.00000000000E+00  0.13210050376E+04  0.13210050376E+04  0.50400001928E-02 0. -1.
       -1   -1    0    0    0  501  0.00000000000E+00  0.00000000000E+00 -0.27318735329E+04  0.27318735329E+04  0.50400001928E-02 0.  1.
    10030    2    1    2    0    0  0.00000000000E+00  0.00000000000E+00 -0.14108684954E+04  0.40528785705E+04  0.37993782118E+04 0.  0.
        1    1    3    3  502    0  0.89753895076E+03  0.67233436753E+03  0.93023950417E+03  0.14570364460E+04  0.50400001928E-02 0. -1.
       -1    1    3    3    0  502 -0.89753895076E+03 -0.67233436753E+03 -0.23411079995E+04  0.25958421245E+04  0.50400001928E-02 0.  1.
</event>
<event>
 5   0  0.5140842E-08  0.3793706E+04  0.7818609E-02  0.8047507E-01
        2   -1    0    0  501    0  0.00000000000E+00  0.00000000000E+00  0.24628321779E+04  0.24628321779E+04  0.25500000920E-02 0. -1.
       -2   -1    0    0    0  501  0.00000000000E+00  0.00000000000E+00 -0.14609402379E+04  0.14609402379E+04  0.25500000920E-02 0.  1.
    10030    2    1    2    0    0  0.00000000000E+00  0.00000000000E+00  0.10018919400E+04  0.39237724158E+04  0.37937056437E+04 0.  0.
        2    1    3    3  502    0  0.17830051012E+04 -0.95398382420E+02  0.11630842869E+04  0.21309559124E+04  0.25500000920E-02 0. -1.
       -2    1    3    3    0  502 -0.17830051012E+04  0.95398382420E+02 -0.16119234687E+03  0.17928165034E+04  0.25500000920E-02 0.  1.
</event>
<event>
 5   0  0.1628250E-08  0.3796296E+04  0.7818609E-02  0.8046950E-01
        1   -1    0    0  501    0  0.00000000000E+00  0.00000000000E+00  0.19851677198E+04  0.19851677198E+04  0.50400001928E-02 0.  1.
       -1   -1    0    0    0  501  0.00000000000E+00  0.00000000000E+00 -0.18149428343E+04  0.18149428343E+04  0.50400001928E-02 0. -1.
    10030    2    1    2    0    0  0.00000000000E+00  0.00000000000E+00  0.17022488545E+03  0.38001105541E+04  0.37962960517E+04 0.  0.
        5    1    3    3  502    0  0.12099722572E+04  0.69320989426E+03 -0.12039590604E+04  0.18423116810E+04  0.46999998093E+01 0. -1.
       -5    1    3    3    0  502 -0.12099722572E+04 -0.69320989426E+03  0.13741839458E+04  0.19577988731E+04  0.46999998093E+01 0.  1.
</event>
<event>
 5   0  0.5147582E-08  0.3782560E+04  0.7818609E-02  0.8049908E-01
       -2   -1    0    0    0  501  0.00000000000E+00  0.00000000000E+00  0.17149809760E+04  0.17149809760E+04  0.25500000920E-02 0. -1.
        2   -1    0    0  501    0  0.00000000000E+00  0.00000000000E+00 -0.20857024650E+04  0.20857024650E+04  0.25500000920E-02 0.  1.
    10030    2    1    2    0    0  0.00000000000E+00  0.00000000000E+00 -0.37072148898E+03  0.38006834410E+04  0.37825600056E+04 0.  0.
        1    1    3    3  502    0 -0.16425626714E+04 -0.93604662437E+03 -0.13272045306E+03  0.18952071473E+04  0.50400001928E-02 0. -1.
       -1    1    3    3    0  502  0.16425626714E+04  0.93604662437E+03 -0.23800103592E+03  0.19054762936E+04  0.50400001928E-02 0.  1.
</event>
<event>
 5   0  0.5159761E-08  0.3802181E+04  0.7818609E-02  0.8045687E-01
        2   -1    0    0  501    0  0.00000000000E+00  0.00000000000E+00  0.20581466475E+04  0.20581466475E+04  0.25500000920E-02 0. -1.
       -2   -1    0    0    0  501  0.00000000000E+00  0.00000000000E+00 -0.17560193481E+04  0.17560193481E+04  0.25500000920E-02 0.  1.
    10030    2    1    2    0    0  0.00000000000E+00  0.00000000000E+00  0.30212729943E+03  0.38141659955E+04  0.38021811288E+04 0.  0.
        5    1    3    3  502    0  0.47368222947E+02  0.13321505159E+04 -0.12086624933E+04  0.17993765193E+04  0.46999998093E+01 0.  1.
       -5    1    3    3    0  502 -0.47368222947E+02 -0.13321505159E+04  0.15107897928E+04  0.20147894762E+04  0.46999998093E+01 0. -1.
</event>
<event>
 5   0  0.1628473E-08  0.3799449E+04  0.7818609E-02  0.8046273E-01
        1   -1    0    0  501    0  0.00000000000E+00  0.00000000000E+00  0.27648427728E+04  0.27648427728E+04  0.50400001928E-02 0.  1.
       -1   -1    0    0    0  501  0.00000000000E+00  0.00000000000E+00 -0.13053016272E+04  0.13053016272E+04  0.50400001928E-02 0. -1.
    10030    2    1    2    0    0  0.00000000000E+00  0.00000000000E+00  0.14595411456E+04  0.40701444000E+04  0.37994493129E+04 0.  0.
        3    1    3    3  502    0 -0.17718491903E+04  0.36349133999E+03  0.10754521715E+03  0.18119441193E+04  0.10100000352E+00 0. -1.
       -3    1    3    3    0  502  0.17718491903E+04 -0.36349133999E+03  0.13519959284E+04  0.22582002808E+04  0.10100000352E+00 0.  1.
</event>
<event>
 5   0  0.1628250E-08  0.3803964E+04  0.7818609E-02  0.8045305E-01
        1   -1    0    0  501    0  0.00000000000E+00  0.00000000000E+00  0.19147546584E+04  0.19147546584E+04  0.50400001928E-02 0.  1.
       -1   -1    0    0    0  501  0.00000000000E+00  0.00000000000E+00 -0.18892949575E+04  0.18892949575E+04  0.50400001928E-02 0. -1.
    10030    2    1    2    0    0  0.00000000000E+00  0.00000000000E+00  0.25459700856E+02  0.38040496159E+04  0.38039644167E+04 0.  0.
        4    1    3    3  502    0 -0.13212453361E+04 -0.45288197122E+03 -0.12783232284E+04  0.18933840623E+04  0.12699999809E+01 0. -1.
       -4    1    3    3    0  502  0.13212453361E+04  0.45288197122E+03  0.13037829293E+04  0.19106655536E+04  0.12699999809E+01 0.  1.
</event>
<event>
 5   0  0.1628250E-08  0.3806432E+04  0.7818609E-02  0.8044776E-01
       -1   -1    0    0    0  501  0.00000000000E+00  0.00000000000E+00  0.35912088188E+04  0.35912088188E+04  0.50400001928E-02 0.  1.
        1   -1    0    0  501    0  0.00000000000E+00  0.00000000000E+00 -0.10086384345E+04  0.10086384345E+04  0.50400001928E-02 0. -1.
    10030    2    1    2    0    0  0.00000000000E+00  0.00000000000E+00  0.25825703843E+04  0.45998472533E+04  0.38064320517E+04 0.  0.
        4    1    3    3  502    0 -0.41840457218E+03 -0.12198322480E+04  0.29827466774E+04  0.32495895824E+04  0.12699999809E+01 0.  1.
       -4    1    3    3    0  502  0.41840457218E+03  0.12198322480E+04 -0.40017629315E+03  0.13502576709E+04  0.12699999809E+01 0. -1.
</event>
<event>
 5   0  0.5140842E-08  0.3796384E+04  0.7818609E-02  0.8046931E-01
       -2   -1    0    0    0  501  0.00000000000E+00  0.00000000000E+00  0.16643355878E+04  0.16643355878E+04  0.25500000920E-02 0.  1.
        2   -1    0    0  501    0  0.00000000000E+00  0.00000000000E+00 -0.21649077530E+04  0.21649077530E+04  0.25500000920E-02 0. -1.
    10030    2    1    2    0    0  0.00000000000E+00  0.00000000000E+00 -0.50057216521E+03  0.38292433408E+04  0.37963840783E+04 0.  0.
        2    1    3    3  502    0 -0.13677105566E+04 -0.30924544622E+03  0.10401891257E+04  0.17459262098E+04  0.25500000920E-02 0.  1.
       -2    1    3    3    0  502  0.13677105566E+04  0.30924544622E+03 -0.15407612909E+04  0.20833171310E+04  0.25500000920E-02 0. -1.
</event>
<event>
 5   0  0.5140842E-08  0.3800880E+04  0.7818609E-02  0.8045966E-01
       -2   -1    0    0    0  501  0.00000000000E+00  0.00000000000E+00  0.20940954920E+04  0.20940954920E+04  0.25500000920E-02 0.  1.
        2   -1    0    0  501    0  0.00000000000E+00  0.00000000000E+00 -0.17246934677E+04  0.17246934677E+04  0.25500000920E-02 0. -1.
    10030    2    1    2    0    0  0.00000000000E+00  0.00000000000E+00  0.36940202424E+03  0.38187889597E+04  0.38008803274E+04 0.  0.
        2    1    3    3  502    0  0.89938431059E+03 -0.82266814272E+03  0.16496512356E+04  0.20511031691E+04  0.25500000920E-02 0.  1.
       -2    1    3    3    0  502 -0.89938431059E+03  0.82266814272E+03 -0.12802492113E+04  0.17676857906E+04  0.25500000920E-02 0. -1.
</event>
<event>
 5   0  0.5207474E-08  0.3794518E+04  0.7818609E-02  0.8047332E-01
        2   -1    0    0  501    0  0.00000000000E+00  0.00000000000E+00  0.27560570849E+04  0.27560570849E+04  0.25500000920E-02 0. -1.
       -2   -1    0    0    0  501  0.00000000000E+00  0.00000000000E+00 -0.13060660016E+04  0.13060660016E+04  0.25500000920E-02 0.  1.
    10030    2    1    2    0    0  0.00000000000E+00  0.00000000000E+00  0.14499910833E+04  0.40621230865E+04  0.37945183921E+04 0.  0.
        4    1    3    3  502    0 -0.13169155820E+04  0.49758399467E+03 -0.63660596041E+03  0.15450324410E+04  0.12699999809E+01 0.  1.
       -4    1    3    3    0  502  0.13169155820E+04 -0.49758399467E+03  0.20865970437E+04  0.25170906455E+04  0.12699999809E+01 0. -1.
</event>
<event>
 5   0  0.5159761E-08  0.3794038E+04  0.7818609E-02  0.8047435E-01
       -2   -1    0    0    0  501  0.00000000000E+00  0.00000000000E+00  0.22375187121E+04  0.22375187121E+04  0.25500000920E-02 0. -1.
        2   -1    0    0  501    0  0.00000000000E+00  0.00000000000E+00 -0.16083357269E+04  0.16083357269E+04  0.25500000920E-02 0.  1.
    10030    2    1    2    0    0  0.00000000000E+00  0.00000000000E+00  0.62918298520E+03  0.38458544390E+04  0.37940381044E+04 0.  0.
        5    1    3    3  502    0  0.23777593782E+03 -0.29028014309E+03  0.21995196816E+04  0.22313020589E+04  0.46999998093E+01 0. -1.
       -5    1    3    3    0  502 -0.23777593782E+03  0.29028014309E+03 -0.15703366964E+04  0.16145523801E+04  0.46999998093E+01 0.  1.
</event>
<event>
 5   0  0.5140842E-08  0.3805073E+04  0.7818609E-02  0.8045067E-01
        2   -1    0    0  501    0  0.00000000000E+00  0.00000000000E+00  0.21468471275E+04  0.21468471275E+04  0.25500000920E-02 0.  1.
       -2   -1    0    0    0  501  0.00000000000E+00  0.00000000000E+00 -0.16860279805E+04  0.16860279805E+04  0.25500000920E-02 0. -1.
    10030    2    1    2    0    0  0.00000000000E+00  0.00000000000E+00  0.46081914699E+03  0.38328751079E+04  0.38050725758E+04 0.  0.
        2    1    3    3  502    0 -0.69304089404E+03  0.22863290173E+03 -0.15394330728E+04  0.17036528022E+04  0.25500000920E-02 0. -1.
       -2    1    3    3    0  502  0.69304089404E+03 -0.22863290173E+03  0.20002522198E+04  0.21292223058E+04  0.25500000920E-02 0.  1.
</event>
<event>
 5   0  0.5147582E-08  0.3800847E+04  0.7818609E-02  0.8045973E-01
        2   -1    0    0  501    0  0.00000000000E+00  0.00000000000E+00  0.33226476475E+04  0.33226476475E+04  0.25500000920E-02 0. -1.
       -2   -1    0    0    0  501  0.00000000000E+00  0.00000000000E+00 -0.10869672314E+04  0.10869672314E+04  0.25500000920E-02 0.  1.
    10030    2    1    2    0    0  0.00000000000E+00  0.00000000000E+00  0.22356804161E+04  0.44096148789E+04  0.38008468079E+04 0.  0.
        1    1    3    3  502    0  0.98035838981E+03 -0.15575659786E+04  0.56814316132E+03  0.19261103296E+04  0.50400001928E-02 0.  1.
       -1    1    3    3    0  502 -0.98035838981E+03  0.15575659786E+04  0.16675372548E+04  0.24835045493E+04  0.50400001928E-02 0. -1.
</event>
<event>
 5   0  0.5207474E-08  0.3804468E+04  0.7818609E-02  0.8045197E-01
       -2   -1    0    0    0  501  0.00000000000E+00  0.00000000000E+00  0.15601776008E+04  0.15601776008E+04  0.25500000920E-02 0. -1.
        2   -1    0    0  501    0  0.00000000000E+00  0.00000000000E+00 -0.23192831705E+04  0.23192831705E+04  0.25500000920E-02 0.  1.
    10030    2    1    2    0    0  0.00000000000E+00  0.00000000000E+00 -0.75910556976E+03  0.38794607713E+04  0.38044677171E+04 0.  0.
        4    1    3    3  502    0 -0.18917180830E+02 -0.16989524178E+04 -0.12518057694E+04  0.21104067084E+04  0.12699999809E+01 0.  1.
       -4    1    3    3    0  502  0.18917180830E+02  0.16989524178E+04  0.49270019968E+03  0.17690540629E+04  0.12699999809E+01 0. -1.
</event>
<event>
 5   0  0.5207474E-08  0.3799971E+04  0.7818609E-02  0.8046161E-01
        2   -1    0    0  501    0  0.00000000000E+00  0.00000000000E+00  0.24168188673E+04  0.24168188673E+04  0.25500000920E-02 0. -1.
       -2   -1    0    0    0  501  0.00000000000E+00  0.00000000000E+00 -0.14936763731E+04  0.14936763731E+04  0.25500000920E-02 0.  1.
    10030    2    1    2    0    0  0.00000000000E+00  0.00000000000E+00  0.92314249425E+03  0.39104952404E+04  0.37999711789E+04 0.  0.
        4    1    3    3  502    0 -0.65459957845E+03 -0.10077303171E+04 -0.10529414829E+04  0.15977197437E+04  0.12699999809E+01 0.  1.
       -4    1    3    3    0  502  0.65459957845E+03  0.10077303171E+04  0.19760839772E+04  0.23127754966E+04  0.12699999809E+01 0. -1.
</event>
<event>
 5   0  0.5159761E-08  0.3787741E+04  0.7818609E-02  0.8048791E-01
        2   -1    0    0  501    0  0.00000000000E+00  0.00000000000E+00  0.20159651591E+04  0.20159651591E+04  0.25500000920E-02 0.  1.
       -2   -1    0    0    0  501  0.00000000000E+00  0.00000000000E+00 -0.17791701996E+04  0.17791701996E+04  0.25500000920E-02 0. -1.
    10030    2    1    2    0    0  0.00000000000E+00  0.00000000000E+00  0.23679495954E+03  0.37951353586E+04  0.37877408224E+04 0.  0.
        5    1    3    3  502    0 -0.29257021420E+03  0.10857193143E+04  0.16452948602E+04  0.19928374311E+04  0.46999998093E+01 0.  1.
       -5    1    3    3    0  502  0.29257021420E+03 -0.10857193143E+04 -0.14084999007E+04  0.18022979276E+04  0.46999998093E+01 0. -1.
</event>
<event>
 5   0  0.1628250E-08  0.3809740E+04  0.7818609E-02  0.8044068E-01
        1   -1    0    0  501    0  0.00000000000E+00  0.00000000000E+00  0.15035872279E+04  0.15035872279E+04  0.50400001928E-02 0. -1.
       -1   -1    0    0    0  501  0.00000000000E+00  0.00000000000E+00 -0.24132487932E+04  0.24132487932E+04  0.50400001928E-02 0.  1.
    10030    2    1    2    0    0  0.00000000000E+00  0.00000000000E+00 -0.90966156529E+03  0.39168360212E+04  0.38097401819E+04 0.  0.
        4    1    3    3  502    0  0.36465085584E+03 -0.74829784965E+03  0.13066953980E+04  0.15493141691E+04  0.12699999809E+01 0. -1.
       -4    1    3    3    0  502 -0.36465085584E+03  0.74829784965E+03 -0.22163569633E+04  0.23675218521E+04  0.12699999809E+01 0.  1.
</event>
<event>
 5   0  0.5159761E-08  0.3792117E+04  0.7818609E-02  0.8047849E-01
        2   -1    0    0  501    0  0.00000000000E+00  0.00000000000E+00  0.23755007568E+04  0.23755007568E+04  0.25500000920E-02 0. -1.
       -2   -1    0    0    0  501  0.00000000000E+00  0.00000000000E+00 -0.15133809514E+04  0.15133809514E+04  0.25500000920E-02 0.  1.
    10030    2    1    2    0    0  0.00000000000E+00  0.00000000000E+00  0.86211980537E+03  0.38888817082E+04  0.37921168734E+04 0.  0.
        5    1    3    3  502    0  0.25674823272E+03  0.18765127278E+04  0.52160694708E+03  0.19645140798E+04  0.46999998093E+01 0. -1.
       -5    1    3    3    0  502 -0.25674823272E+03 -0.18765127278E+04  0.34051285829E+03  0.19243676284E+04  0.46999998093E+01 0.  1.
</event>
<event>
 5   0  0.5086209E-08  0.3797044E+04  0.7818609E-02  0.8046789E-01
        2   -1    0    0  501    0  0.00000000000E+00  0.00000000000E+00  0.18091392152E+04  0.18091392152E+04  0.25500000920E-02 0.  1.
       -2   -1    0    0    0  501  0.00000000000E+00  0.00000000000E+00 -0.19923212235E+04  0.19923212235E+04  0.25500000920E-02 0. -1.
    10030    2    1    2    0    0  0.00000000000E+00  0.00000000000E+00 -0.18318200829E+03  0.38014604386E+04  0.37970443529E+04 0.  0.
        3    1    3    3  502    0  0.21396400995E+03 -0.28459105571E+03 -0.19585959953E+04  0.19906960967E+04  0.10100000352E+00 0. -1.
       -3    1    3    3    0  502 -0.21396400995E+03  0.28459105571E+03  0.17754139870E+04  0.18107643419E+04  0.10100000352E+00 0.  1.
</event>
<event>
 5   0  0.5159761E-08  0.3793122E+04  0.7818609E-02  0.8047633E-01
        2   -1    0    0  501    0  0.00000000000E+00  0.00000000000E+00  0.17512631814E+04  0.17512631814E+04  0.25500000920E-02 0.  1.
       -2   -1    0    0    0  501  0.00000000000E+00  0.00000000000E+00 -0.20539135430E+04  0.20539135430E+04  0.25500000920E-02 0. -1.
    10030    2    1    2    0    0  0.00000000000E+00  0.00000000000E+00 -0.30265036157E+03  0.38051767244E+04  0.37931217569E+04 0.  0.
        5    1    3    3  502    0 -0.10359549717E+04 -0.12311365669E+04 -0.11585185666E+04  0.19826969786E+04  0.46999998093E+01 0. -1.
       -5    1    3    3    0  502  0.10359549717E+04  0.12311365669E+04  0.85586820500E+03  0.18224797459E+04  0.46999998093E+01 0.  1.
</event>
<event>
 5   0  0.1628250E-08  0.3796002E+04  0.7818609E-02  0.8047013E-01
        1   -1    0    0  501    0  0.00000000000E+00  0.00000000000E+00  0.23798479132E+04  0.23798479132E+04  0.50400001928E-02 0.  1.
       -1   -1    0    0    0  501  0.00000000000E+00  0.00000000000E+00 -0.15137134472E+04  0.15137134472E+04  0.50400001928E-02 0. -1.
    10030    2    1    2    0    0  0.00000000000E+00  0.00000000000E+00  0.86613446593E+03  0.38935613604E+04  0.37960019961E+04 0.  0.
        1    1    3    3  502    0  0.15891645670E+04  0.60944808647E+02  0.14956699894E+04  0.21831598677E+04  0.50400001928E-02 0.  1.
       -1    1    3    3    0  502 -0.15891645670E+04 -0.60944808647E+02 -0.62953552346E+03  0.17104014927E+04  0.50400001928E-02 0. -1.
</event>
<event>
 5   0  0.1628250E-08  0.3800740E+04  0.7818609E-02  0.8045996E-01
       -1   -1    0    0    0  501  0.00000000000E+00  0.00000000000E+00  0.18558297599E+04  0.18558297599E+04  0.50400001928E-02 0. -1.
        1   -1    0    0  501    0  0.00000000000E+00  0.00000000000E+00 -0.19459795401E+04  0.19459795401E+04  0.50400001928E-02 0.  1.
    10030    2    1    2    0    0  0.00000000000E+00  0.00000000000E+00 -0.90149780167E+02  0.38018093000E+04  0.38007403188E+04 0.  0.
        5    1    3    3  502    0  0.14777922289E+04  0.93646022673E+03  0.69712910013E+03  0.18833052595E+04  0.46999998093E+01 0.  1.
       -5    1    3    3    0  502 -0.14777922289E+04 -0.93646022673E+03 -0.78727888030E+03  0.19185040405E+04  0.46999998093E+01 0. -1.
</event>
<event>
 5   0  0.1628250E-08  0.3806586E+04  0.7818609E-02  0.8044743E-01
       -1   -1    0    0    0  501  0.00000000000E+00  0.00000000000E+00  0.16391700343E+04  0.16391700343E+04  0.50400001928E-02 0.  1.
        1   -1    0    0  501    0  0.00000000000E+00  0.00000000000E+00 -0.22099749665E+04  0.22099749665E+04  0.50400001928E-02 0. -1.
    10030    2    1    2    0    0  0.00000000000E+00  0.00000000000E+00 -0.57080493222E+03  0.38491450008E+04  0.38065862615E+04 0.  0.
        5    1    3    3  502    0  0.83678205721E+03 -0.10448141498E+04  0.10827442090E+04  0.17216846201E+04  0.46999998093E+01 0.  1.
       -5    1    3    3    0  502 -0.83678205721E+03  0.10448141498E+04 -0.16535491412E+04  0.21274603807E+04  0.46999998093E+01 0. -1.
</event>
<event>
 5   0  0.5147582E-08  0.3798498E+04  0.7818609E-02  0.8046477E-01
       -2   -1    0    0    0  501  0.00000000000E+00  0.00000000000E+00  0.17160563762E+04  0.17160563762E+04  0.25500000920E-02 0. -1.
        2   -1    0    0  501    0  0.00000000000E+00  0.00000000000E+00 -0.21019974369E+04  0.21019974369E+04  0.25500000920E-02 0.  1.
    10030    2    1    2    0    0  0.00000000000E+00  0.00000000000E+00 -0.38594106065E+03  0.38180538131E+04  0.37984976527E+04 0.  0.
        1    1    3    3  502    0 -0.18148060224E+04 -0.49495267793E+03 -0.45632526374E+03  0.19356476432E+04  0.50400001928E-02 0.  1.
       -1    1    3    3    0  502  0.18148060224E+04  0.49495267793E+03  0.70384203088E+02  0.18824061699E+04  0.50400001928E-02 0. -1.
</event>
<event>
 5   0  0.5147582E-08  0.3801585E+04  0.7818609E-02  0.8045815E-01
       -2   -1    0    0    0  501  0.00000000000E+00  0.00000000000E+00  0.33989974674E+04  0.33989974674E+04  0.25500000920E-02 0. -1.
        2   -1    0    0  501    0  0.00000000000E+00  0.00000000000E+00 -0.10629639504E+04  0.10629639504E+04  0.25500000920E-02 0.  1.
    10030    2    1    2    0    0  0.00000000000E+00  0.00000000000E+00  0.23360335170E+04  0.44619614177E+04  0.38015848144E+04 0.  0.
        1    1    3    3  502    0  0.11064376627E+04 -0.15272157716E+04  0.88922778549E+03  0.20850223905E+04  0.50400001928E-02 0.  1.
       -1    1    3    3    0  502 -0.11064376627E+04  0.15272157716E+04  0.14468057315E+04  0.23769390272E+04  0.50400001928E-02 0. -1.
</event>
<event>
 5   0  0.1628250E-08  0.3802906E+04  0.7818609E-02  0.8045531E-01
        1   -1    0    0  501    0  0.00000000000E+00  0.00000000000E+00  0.22088768435E+04  0.22088768435E+04  0.50400001928E-02 0.  1.
       -1   -1    0    0    0  501  0.00000000000E+00  0.00000000000E+00 -0.16368156482E+04  0.16368156482E+04  0.50400001928E-02 0. -1.
    10030    2    1    2    0    0  0.00000000000E+00  0.00000000000E+00  0.57206119530E+03  0.38456924916E+04  0.38029063529E+04 0.  0.
        1    1    3    3  502    0  0.12212034165E+04 -0.14049258563E+04  0.67816878967E+03  0.19811782740E+04  0.50400001928E-02 0.  1.
       -1    1    3    3    0  502 -0.12212034165E+04  0.14049258563E+04 -0.10610759437E+03  0.18645142176E+04  0.50400001928E-02 0. -1.
</event>
<event>
 5   0  0.5140842E-08  0.3798245E+04  0.7818609E-02  0.8046532E-01
       -2   -1    0    0    0  501  0.00000000000E+00  0.00000000000E+00  0.16439211179E+04  0.16439211179E+04  0.25500000920E-02 0. -1.
        2   -1    0    0  501    0  0.00000000000E+00  0.00000000000E+00 -0.21939412129E+04  0.21939412129E+04  0.25500000920E-02 0.  1.
    10030    2    1    2    0    0  0.00000000000E+00  0.00000000000E+00 -0.55002009499E+03  0.38378623309E+04  0.37982450113E+04 0.  0.
        2    1    3    3  502    0 -0.10615218308E+04  0.15637860885E+04 -0.46244629133E+03  0.19457934371E+04  0.25500000920E-02 0. -1.
       -2    1    3    3    0  502  0.10615218308E+04 -0.15637860885E+04 -0.87573803660E+02  0.18920688938E+04  0.25500000920E-02 0.  1.
</event>
<event>
 5   0  0.5159761E-08  0.3803830E+04  0.7818609E-02  0.8045334E-01
       -2   -1    0    0    0  501  0.00000000000E+00  0.00000000000E+00  0.12825211775E+04  0.12825211775E+04  0.25500000920E-02 0. -1.
        2   -1    0    0  501    0  0.00000000000E+00  0.00000000000E+00 -0.28204448490E+04  0.28204448490E+04  0.25500000920E-02 0.  1.
    10030    2    1    2    0    0  0.00000000000E+00  0.00000000000E+00 -0.15379236715E+04  0.41029660265E+04  0.38038297799E+04 0.  0.
        5    1    3    3  502    0 -0.22080499722E+03 -0.18396101723E+04 -0.12320716231E+04  0.22250714612E+04  0.46999998093E+01 0.  1.
       -5    1    3    3    0  502  0.22080499722E+03  0.18396101723E+04 -0.30585204841E+03  0.18778945653E+04  0.46999998093E+01 0. -1.
</event>
<event>
 5   0  0.5159761E-08  0.3800088E+04  0.7818609E-02  0.8046136E-01
       -2   -1    0    0    0  501  0.00000000000E+00  0.00000000000E+00  0.12652412232E+04  0.12652412232E+04  0.25500000920E-02 0. -1.
        2   -1    0    0  501    0  0.00000000000E+00  0.00000000000E+00 -0.28533427271E+04  0.28533427271E+04  0.25500000920E-02 0.  1.
    10030    2    1    2    0    0  0.00000000000E+00  0.00000000000E+00 -0.15881015039E+04  0.41185839503E+04  0.38000878107E+04 0.  0.
        5    1    3    3  502    0 -0.65113318063E+03  0.17777015942E+04 -0.61946813152E+03  0.19919739539E+04  0.46999998093E+01 0. -1.
       -5    1    3    3    0  502  0.65113318063E+03 -0.17777015942E+04 -0.96863337237E+03  0.21266099964E+04  0.46999998093E+01 0.  1.
</event>
<event>
 5   0  0.1628250E-08  0.3789405E+04  0.7818609E-02  0.8048432E-01
        1   -1    0    0  501    0  0.00000000000E+00  0.00000000000E+00  0.25008637448E+04  0.25008637448E+04  0.50400001928E-02 0.  1.
       -1   -1    0    0    0  501  0.00000000000E+00  0.00000000000E+00 -0.14354630772E+04  0.14354630772E+04  0.50400001928E-02 0. -1.
    10030    2    1    2    0    0  0.00000000000E+00  0.00000000000E+00  0.10654006676E+04  0.39363268220E+04  0.37894050018E+04 0.  0.
        1    1    3    3  502    0 -0.24802966718E+03 -0.14748108096E+04 -0.67572293756E+03  0.16410932722E+04  0.50400001928E-02 0. -1.
       -1    1    3    3    0  502  0.24802966718E+03  0.14748108096E+04  0.17411236051E+04  0.22952335498E+04  0.50400001928E-02 0.  1.
</event>
<event>
 5   0  0.1628250E-08  0.3791444E+04  0.7818609E-02  0.8047993E-01
        1   -1    0    0  501    0  0.00000000000E+00  0.00000000000E+00  0.19034144911E+04  0.19034144911E+04  0.50400001928E-02 0.  1.
       -1   -1    0    0    0  501  0.00000000000E+00  0.00000000000E+00 -0.18880605215E+04  0.18880605215E+04  0.50400001928E-02 0. -1.
    10030    2    1    2    0    0  0.00000000000E+00  0.00000000000E+00  0.15353969559E+02  0.37914750126E+04  0.37914439237E+04 0.  0.
        4    1    3    3  502    0 -0.95366991813E+03  0.10973136569E+04 -0.12089580647E+04  0.18908106170E+04  0.12699999809E+01 0. -1.
       -4    1    3    3    0  502  0.95366991813E+03 -0.10973136569E+04  0.12243120343E+04  0.19006643956E+04  0.12699999809E+01 0.  1.
</event>
<event>
 5   0  0.5086209E-08  0.3793882E+04  0.7818609E-02  0.8047469E-01
        2   -1    0    0  501    0  0.00000000000E+00  0.00000000000E+00  0.14205937037E+04  0.14205937037E+04  0.25500000920E-02 0. -1.
       -2   -1    0    0    0  501  0.00000000000E+00  0.00000000000E+00 -0.25330146804E+04  0.25330146804E+04  0.25500000920E-02 0.  1.
    10030    2    1    2    0    0  0.00000000000E+00  0.00000000000E+00 -0.11124209767E+04  0.39536083841E+04  0.37938817622E+04 0.  0.
        3    1    3    3  502    0 -0.92979648321E+02  0.42147355032E+03 -0.24811660253E+04  0.25184261006E+04  0.10100000352E+00 0.  1.
       -3    1    3    3    0  502  0.92979648321E+02 -0.42147355032E+03  0.13687450486E+04  0.14351822835E+04  0.10100000352E+00 0. -1.
</event>
<event>
 5   0  0.5147582E-08  0.3810541E+04  0.7818609E-02  0.8043897E-01
       -2   -1    0    0    0  501  0.00000000000E+00  0.00000000000E+00  0.35297280861E+04  0.35297280861E+04  0.25500000920E-02 0.  1.
        2   -1    0    0  501    0  0.00000000000E+00  0.00000000000E+00 -0.10284237805E+04  0.10284237805E+04  0.25500000920E-02 0. -1.
    10030    2    1    2    0    0  0.00000000000E+00  0.00000000000E+00  0.25013043056E+04  0.45581518666E+04  0.38105413277E+04 0.  0.
        1    1    3    3  502    0 -0.14587680997E+04 -0.15331060707E+03 -0.20386818460E+03  0.14809020047E+04  0.50400001928E-02 0. -1.
       -1    1    3    3    0  502  0.14587680997E+04  0.15331060707E+03  0.27051724902E+04  0.30772498619E+04  0.50400001928E-02 0.  1.
</event>
<event>
 5   0  0.5159761E-08  0.3804350E+04  0.7818609E-02  0.8045222E-01
       -2   -1    0    0    0  501  0.00000000000E+00  0.00000000000E+00  0.14065056224E+04  0.14065056224E+04  0.25500000920E-02 0. -1.
        2   -1    0    0  501    0  0.00000000000E+00  0.00000000000E+00 -0.25725241470E+04  0.25725241470E+04  0.25500000920E-02 0.  1.
    10030    2    1    2    0    0  0.00000000000E+00  0.00000000000E+00 -0.11660185246E+04  0.39790297695E+04  0.38043499716E+04 0.  0.
        5    1    3    3  502    0  0.13041631223E+04  0.34314659358E+03 -0.19861186890E+04  0.24006833550E+04  0.46999998093E+01 0.  1.
       -5    1    3    3    0  502 -0.13041631223E+04 -0.34314659358E+03  0.82010016436E+03  0.15783464144E+04  0.46999998093E+01 0. -1.
</event>
<event>
 5   0  0.1666051E-08  0.3800236E+04  0.7818609E-02  0.8046104E-01
        1   -1    0    0  501    0  0.00000000000E+00  0.00000000000E+00  0.12780432341E+04  0.12780432341E+04  0.50400001928E-02 0. -1.
       -1   -1    0    0    0  501  0.00000000000E+00  0.00000000000E+00 -0.28249809185E+04  0.28249809185E+04  0.50400001928E-02 0.  1.
    10030    2    1    2    0    0  0.00000000000E+00  0.00000000000E+00 -0.15469376845E+04  0.41030241526E+04  0.38002356502E+04 0.  0.
        2    1    3    3  502    0 -0.90391599391E+03  0.33139584002E+02 -0.25776221875E+04  0.27317207942E+04  0.25500000920E-02 0.  1.
       -2    1    3    3    0  502  0.90391599391E+03 -0.33139584002E+02  0.10306845030E+04  0.13713033584E+04  0.25500000920E-02 0. -1.
</event>
<event>
 5   0  0.5086209E-08  0.3800991E+04  0.7818609E-02  0.8045942E-01
        2   -1    0    0  501    0  0.00000000000E+00  0.00000000000E+00  0.17385455397E+04  0.17385455397E+04  0.25500000920E-02 0.  1.
       -2   -1    0    0    0  501  0.00000000000E+00  0.00000000000E+00 -0.20775310943E+04  0.20775310943E+04  0.25500000920E-02 0. -1.
    10030    2    1    2    0    0  0.00000000000E+00  0.00000000000E+00 -0.33898555464E+03  0.38160766340E+04  0.38009906170E+04 0.  0.
        3    1    3    3  502    0 -0.27654276176E+03  0.17872856373E+04 -0.75577675263E+03  0.19601184552E+04  0.10100000352E+00 0. -1.
       -3    1    3    3    0  502  0.27654276176E+03 -0.17872856373E+04  0.41679119799E+03  0.18559581788E+04  0.10100000352E+00 0.  1.
</event>
<event>
 5   0  0.5207474E-08  0.3797458E+04  0.7818609E-02  0.8046701E-01
        2   -1    0    0  501    0  0.00000000000E+00  0.00000000000E+00  0.15394172975E+04  0.15394172975E+04  0.25500000920E-02 0. -1.
       -2   -1    0    0    0  501  0.00000000000E+00  0.00000000000E+00 -0.23419068508E+04  0.23419068508E+04  0.25500000920E-02 0.  1.
    10030    2    1    2    0    0  0.00000000000E+00  0.00000000000E+00 -0.80248955337E+03  0.38813241483E+04  0.37974580525E+04 0.  0.
        4    1    3    3  502    0 -0.13191358093E+04  0.25081316959E+03  0.97084221451E+03  0.16569739732E+04  0.12699999809E+01 0. -1.
       -4    1    3    3    0  502  0.13191358093E+04 -0.25081316959E+03 -0.17733317679E+04  0.22243501751E+04  0.12699999809E+01 0.  1.
</event>
<event>
 5   0  0.5086209E-08  0.3799291E+04  0.7818609E-02  0.8046307E-01
        2   -1    0    0  501    0  0.00000000000E+00  0.00000000000E+00  0.23508009405E+04  0.23508009405E+04  0.25500000920E-02 0.  1.
       -2   -1    0    0    0  501  0.00000000000E+00  0.00000000000E+00 -0.15350738481E+04  0.15350738481E+04  0.25500000920E-02 0. -1.
    10030    2    1    2    0    0  0.00000000000E+00  0.00000000000E+00  0.81572709243E+03  0.38858747887E+04  0.37992910107E+04 0.  0.
        3    1    3    3  502    0  0.46724514615E+03 -0.16818648292E+04 -0.35865946341E+03  0.17820280445E+04  0.10100000352E+00 0. -1.
       -3    1    3    3    0  502 -0.46724514615E+03  0.16818648292E+04  0.11743865558E+04  0.21038467442E+04  0.10100000352E+00 0.  1.
</event>
<event>
 5   0  0.5207474E-08  0.3802368E+04  0.7818609E-02  0.8045647E-01
       -2   -1    0    0    0  501  0.00000000000E+00  0.00000000000E+00  0.18869458958E+04  0.18869458958E+04  0.25500000920E-02 0. -1.
        2   -1    0    0  501    0  0.00000000000E+00  0.00000000000E+00 -0.19155299177E+04  0.19155299177E+04  0.25500000920E-02 0.  1.
    10030    2    1    2    0    0  0.00000000000E+00  0.00000000000E+00 -0.28584021959E+02  0.38024758135E+04  0.38023683759E+04 0.  0.
        4    1    3    3  502    0  0.69153392959E+03  0.37414904310E+03 -0.17453212848E+04  0.19142504231E+04  0.12699999809E+01 0.  1.
       -4    1    3    3    0  502 -0.69153392959E+03 -0.37414904310E+03  0.17167372629E+04  0.18882253904E+04  0.12699999809E+01 0. -1.
</event>
<event>
 5   0  0.5147582E-08  0.3816312E+04  0.7818609E-02  0.8042663E-01
        2   -1    0    0  501    0  0.00000000000E+00  0.00000000000E+00  0.19578994693E+04  0.19578994693E+04  0.25500000920E-02 0. -1.
       -2   -1    0    0    0  501  0.00000000000E+00  0.00000000000E+00 -0.18596762463E+04  0.18596762463E+04  0.25500000920E-02 0.  1.
    10030    2    1    2    0    0  0.00000000000E+00  0.00000000000E+00  0.98223223017E+02  0.38175757156E+04  0.38163119033E+04 0.  0.
        1    1    3    3  502    0  0.71242258173E+03  0.45554907897E+03 -0.16620068831E+04  0.18647621237E+04  0.50400001928E-02 0.  1.
       -1    1    3    3    0  502 -0.71242258173E+03 -0.45554907897E+03  0.17602301061E+04  0.19528135920E+04  0.50400001928E-02 0. -1.
</event>
<event>
 5   0  0.1628250E-08  0.3796884E+04  0.7818609E-02  0.8046824E-01
       -1   -1    0    0    0  501  0.00000000000E+00  0.00000000000E+00  0.14857821852E+04  0.14857821852E+04  0.50400001928E-02 0. -1.
        1   -1    0    0  501    0  0.00000000000E+00  0.00000000000E+00 -0.24257135040E+04  0.24257135040E+04  0.50400001928E-02 0.  1.
    10030    2    1    2    0    0  0.00000000000E+00  0.00000000000E+00 -0.93993131884E+03  0.39114956892E+04  0.37968839385E+04 0.  0.
        4    1    3    3  502    0 -0.93757533471E+03 -0.50189805317E+03 -0.20900555287E+04  0.23450549865E+04  0.12699999809E+01 0.  1.
       -4    1    3    3    0  502  0.93757533471E+03  0.50189805317E+03  0.11501242098E+04  0.15664407027E+04  0.12699999809E+01 0. -1.
</event>
<event>
 5   0  0.5086209E-08  0.3793519E+04  0.7818609E-02  0.8047547E-01
        2   -1    0    0  501    0  0.00000000000E+00  0.00000000000E+00  0.17845913402E+04  0.17845913402E+04  0.25500000920E-02 0. -1.
       -2   -1    0    0    0  501  0.00000000000E+00  0.00000000000E+00 -0.20159781581E+04  0.20159781581E+04  0.25500000920E-02 0.  1.
    10030    2    1    2    0    0  0.00000000000E+00  0.00000000000E+00 -0.23138681787E+03  0.38005694983E+04  0.37935192963E+04 0.  0.
        3    1    3    3  502    0  0.11687896599E+04 -0.53561149123E+03  0.12814406238E+04  0.18152242344E+04  0.10100000352E+00 0. -1.
       -3    1    3    3    0  502 -0.11687896599E+04  0.53561149123E+03 -0.15128274416E+04  0.19853452639E+04  0.10100000352E+00 0.  1.
</event>
<event>
 5   0  0.5159761E-08  0.3797697E+04  0.7818609E-02  0.8046649E-01
        2   -1    0    0  501    0  0.00000000000E+00  0.00000000000E+00  0.17368746440E+04  0.17368746440E+04  0.25500000920E-02 0.  1.
       -2   -1    0    0    0  501  0.00000000000E+00  0.00000000000E+00 -0.20759275876E+04  0.20759275877E+04  0.25500000920E-02 0. -1.
    10030    2    1    2    0    0  0.00000000000E+00  0.00000000000E+00 -0.33905294361E+03  0.38128022317E+04  0.37976971916E+04 0.  0.
        5    1    3    3  502    0 -0.58806414316E+03 -0.75309686232E+03 -0.18169765070E+04  0.20529003964E+04  0.46999998093E+01 0. -1.
       -5    1    3    3    0  502  0.58806414316E+03  0.75309686232E+03  0.14779235634E+04  0.17599018353E+04  0.46999998093E+01 0.  1.
</event>
<event>
 5   0  0.1628473E-08  0.3800174E+04  0.7818609E-02  0.8046118E-01
        1   -1    0    0  501    0  0.00000000000E+00  0.00000000000E+00  0.32643657630E+04  0.32643657630E+04  0.50400001928E-02 0.  1.
       -1   -1    0    0    0  501  0.00000000000E+00  0.00000000000E+00 -0.11059823420E+04  0.11059823420E+04  0.50400001928E-02 0. -1.
    10030    2    1    2    0    0  0.00000000000E+00  0.00000000000E+00  0.21583834210E+04  0.43703481050E+04  0.38001741495E+04 0.  0.
        3    1    3    3  502    0  0.11082608903E+04 -0.14295539837E+04  0.41012591337E+03  0.18547425881E+04  0.10100000352E+00 0.  1.
       -3    1    3    3    0  502 -0.11082608903E+04  0.14295539837E+04  0.17482575077E+04  0.25156055169E+04  0.10100000352E+00 0. -1.
</event>
<event>
 5   0  0.1628250E-08  0.3804722E+04  0.7818609E-02  0.8045142E-01
        1   -1    0    0  501    0  0.00000000000E+00  0.00000000000E+00  0.25539158490E+04  0.25539158490E+04  0.50400001928E-02 0. -1.
       -1   -1    0    0    0  501  0.00000000000E+00  0.00000000000E+00 -0.14170304132E+04  0.14170304132E+04  0.50400001928E-02 0.  1.
    10030    2    1    2    0    0  0.00000000000E+00  0.00000000000E+00  0.11368854358E+04  0.39709462622E+04  0.38047215040E+04 0.  0.
        4    1    3    3  502    0  0.18903825541E+04 -0.19881319183E+03  0.48826231530E+03  0.19625174107E+04  0.12699999809E+01 0.  1.
       -4    1    3    3    0  502 -0.18903825541E+04  0.19881319183E+03  0.64862312055E+03  0.20084288515E+04  0.12699999809E+01 0. -1.
</event>
<event>
 5   0  0.5207474E-08  0.3790584E+04  0.7818609E-02  0.8048179E-01
       -2   -1    0    0    0  501  0.00000000000E+00  0.00000000000E+00  0.18248955882E+04  0.18248955882E+04  0.25500000920E-02 0.  1.
        2   -1    0    0  501    0  0.00000000000E+00  0.00000000000E+00 -0.19684040578E+04  0.19684040578E+04  0.25500000920E-02 0. -1.
    10030    2    1    2    0    0  0.00000000000E+00  0.00000000000E+00 -0.14350846953E+03  0.37932996460E+04  0.37905840610E+04 0.  0.
        4    1    3    3  502    0  0.12638395884E+04  0.10477391275E+04 -0.10195771553E+04  0.19325079490E+04  0.12699999809E+01 0.  1.
       -4    1    3    3    0  502 -0.12638395884E+04 -0.10477391275E+04  0.87606868576E+03  0.18607916970E+04  0.12699999809E+01 0. -1.
</event>
<event>
 5   0  0.1628473E-08  0.3794035E+04  0.7818609E-02  0.8047436E-01
       -1   -1    0    0    0  501  0.00000000000E+00  0.00000000000E+00  0.16706494477E+04  0.16706494477E+04  0.50400001928E-02 0. -1.
        1   -1    0    0  501    0  0.00000000000E+00  0.00000000000E+00 -0.21540582372E+04  0.21540582372E+04  0.50400001928E-02 0.  1.
    10030    2    1    2    0    0  0.00000000000E+00  0.00000000000E+00 -0.48340878949E+03  0.38247076849E+04  0.37940354265E+04 0.  0.
        3    1    3    3  502    0 -0.11882688456E+04  0.71602115581E+03  0.10625896397E+04  0.17475027604E+04  0.10100000352E+00 0. -1.
       -3    1    3    3    0  502  0.11882688456E+04 -0.71602115581E+03 -0.15459984292E+04  0.20772049245E+04  0.10100000352E+00 0.  1.
</event>
<event>
 5   0  0.5159761E-08  0.3812332E+04  0.7818609E-02  0.8043514E-01
       -2   -1    0    0    0  501  0.00000000000E+00  0.00000000000E+00  0.17295496389E+04  0.17295496389E+04  0.25500000920E-02 0.  1.
        2   -1    0    0  501    0  0.00000000000E+00  0.00000000000E+00 -0.21008179461E+04  0.21008179461E+04  0.25500000920E-02 0. -1.
    10030    2    1    2    0    0  0.00000000000E+00  0.00000000000E+00 -0.37126830727E+03  0.38303675850E+04  0.38123320527E+04 0.  0.
        5    1    3    3  502    0  0.13104468344E+04  0.21695407673E+03 -0.15592547619E+04  0.20483255307E+04  0.46999998093E+01 0. -1.
       -5    1    3    3    0  502 -0.13104468344E+04 -0.21695407673E+03  0.11879864546E+04  0.17820420543E+04  0.46999998093E+01 0.  1.
</event>
<event>
 5   0  0.5140842E-08  0.3797981E+04  0.7818609E-02  0.8046588E-01
        2   -1    0    0  501    0  0.00000000000E+00  0.00000000000E+00  0.20207662580E+04  0.20207662580E+04  0.25500000920E-02 0.  1.
       -2   -1    0    0    0  501  0.00000000000E+00  0.00000000000E+00 -0.17845534178E+04  0.17845534178E+04  0.25500000920E-02 0. -1.
    10030    2    1    2    0    0  0.00000000000E+00  0.00000000000E+00  0.23621284018E+03  0.38053196758E+04  0.37979812175E+04 0.  0.
        2    1    3    3  502    0  0.99317159123E+02  0.13950721833E+04 -0.11689280577E+04  0.18227679772E+04  0.25500000920E-02 0. -1.
       -2    1    3    3    0  502 -0.99317159123E+02 -0.13950721833E+04  0.14051408978E+04  0.19825516986E+04  0.25500000920E-02 0.  1.
</event>
<event>
 5   0  0.5159761E-08  0.3803180E+04  0.7818609E-02  0.8045473E-01
        2   -1    0    0  501    0  0.00000000000E+00  0.00000000000E+00  0.26813238579E+04  0.26813238579E+04  0.25500000920E-02 0. -1.
       -2   -1    0    0    0  501  0.00000000000E+00  0.00000000000E+00 -0.13486041706E+04  0.13486041707E+04  0.25500000920E-02 0.  1.
    10030    2    1    2    0    0  0.00000000000E+00  0.00000000000E+00  0.13327196873E+04  0.40299280286E+04  0.38031800050E+04 0.  0.
        5    1    3    3  502    0  0.86496641151E+03  0.16848227761E+04  0.48520571654E+03  0.19550553336E+04  0.46999998093E+01 0.  1.
       -5    1    3    3    0  502 -0.86496641151E+03 -0.16848227761E+04  0.84751397075E+03  0.20748726950E+04  0.46999998093E+01 0. -1.
</event>
<event>
 5   0  0.1628250E-08  0.3794613E+04  0.7818609E-02  0.8047312E-01
       -1   -1    0    0    0  501  0.00000000000E+00  0.00000000000E+00  0.18755844342E+04  0.18755844342E+04  0.50400001928E-02 0. -1.
        1   -1    0    0  501    0  0.00000000000E+00  0.00000000000E+00 -0.19192803885E+04  0.19192803885E+04  0.50400001928E-02 0.  1.
    10030    2    1    2    0    0  0.00000000000E+00  0.00000000000E+00 -0.43695954346E+02  0.37948648227E+04  0.37946132459E+04 0.  0.
        5    1    3    3  502    0 -0.31080522021E+03 -0.89205265645E+03 -0.16673726680E+04  0.19163797982E+04  0.46999998093E+01 0.  1.
       -5    1    3    3    0  502  0.31080522021E+03  0.89205265645E+03  0.16236767137E+04  0.18784850245E+04  0.46999998093E+01 0. -1.
</event>
<event>
 5   0  0.1628250E-08  0.3789113E+04  0.7818609E-02  0.8048495E-01
        1   -1    0    0  501    0  0.00000000000E+00  0.00000000000E+00  0.16465695296E+04  0.16465695296E+04  0.50400001928E-02 0. -1.
       -1   -1    0    0    0  501  0.00000000000E+00  0.00000000000E+00 -0.21798929001E+04  0.21798929001E+04  0.50400001928E-02 0.  1.
    10030    2    1    2    0    0  0.00000000000E+00  0.00000000000E+00 -0.53332337050E+03  0.38264624297E+04  0.37891134726E+04 0.  0.
        4    1    3    3  502    0 -0.16299618425E+04  0.22511684452E+02  0.70828768707E+03  0.17773450550E+04  0.12699999809E+01 0. -1.
       -4    1    3    3    0  502  0.16299618425E+04 -0.22511684452E+02 -0.12416110576E+04  0.20491173747E+04  0.12699999809E+01 0.  1.
</event>
<event>
 5   0  0.5086209E-08  0.3797462E+04  0.7818609E-02  0.8046700E-01
        2   -1    0    0  501    0  0.00000000000E+00  0.00000000000E+00  0.12147716882E+04  0.12147716882E+04  0.25500000920E-02 0.  1.
       -2   -1    0    0    0  501  0.00000000000E+00  0.00000000000E+00 -0.29677836083E+04  0.29677836083E+04  0.25500000920E-02 0. -1.
    10030    2    1    2    0    0  0.00000000000E+00  0.00000000000E+00 -0.17530119201E+04  0.41825552965E+04  0.37974620493E+04 0.  0.
        3    1    3    3  502    0  0.14447863362E+04 -0.70886909796E+03  0.23328306127E+03  0.16261377409E+04  0.10100000352E+00 0. -1.
       -3    1    3    3    0  502 -0.14447863362E+04  0.70886909796E+03 -0.19862949813E+04  0.25564175556E+04  0.10100000352E+00 0.  1.
</event>
<event>
 5   0  0.1666051E-08  0.3828095E+04  0.7818609E-02  0.8040153E-01
        1   -1    0    0  501    0  0.00000000000E+00  0.00000000000E+00  0.99861743560E+03  0.99861743562E+03  0.50400001928E-02 0. -1.
       -1   -1    0    0    0  501  0.00000000000E+00  0.00000000000E+00 -0.36686499989E+04  0.36686499989E+04  0.50400001928E-02 0.  1.
    10030    2    1    2    0    0  0.00000000000E+00  0.00000000000E+00 -0.26700325633E+04  0.46672674346E+04  0.38280950114E+04 0.  0.
        2    1    3    3  502    0 -0.76710491836E+03 -0.11054382159E+04 -0.29947309024E+04  0.32831169310E+04  0.25500000920E-02 0.  1.
       -2    1    3    3    0  502  0.76710491836E+03  0.11054382159E+04  0.32469833908E+03  0.13841505035E+04  0.25500000920E-02 0. -1.
</event>
<event>
 5   0  0.5207474E-08  0.3805922E+04  0.7818609E-02  0.8044885E-01
        2   -1    0    0  501    0  0.00000000000E+00  0.00000000000E+00  0.18830386831E+04  0.18830386831E+04  0.25500000920E-02 0.  1.
       -2   -1    0    0    0  501  0.00000000000E+00  0.00000000000E+00 -0.19230936896E+04  0.19230936896E+04  0.25500000920E-02 0. -1.
    10030    2    1    2    0    0  0.00000000000E+00  0.00000000000E+00 -0.40055006440E+02  0.38061323727E+04  0.38059216013E+04 0.  0.
        4    1    3    3  502    0 -0.17096790220E+04 -0.71354178889E+03 -0.45492392752E+03  0.19076429528E+04  0.12699999809E+01 0. -1.
       -4    1    3    3    0  502  0.17096790220E+04  0.71354178889E+03  0.41486892108E+03  0.18984894199E+04  0.12699999809E+01 0.  1.
</event>
<event>
 5   0  0.1628250E-08  0.3820791E+04  0.7818609E-02  0.8041708E-01
       -1   -1    0    0    0  501  0.00000000000E+00  0.00000000000E+00  0.25638918820E+04  0.25638918821E+04  0.50400001928E-02 0.  1.
        1   -1    0    0  501    0  0.00000000000E+00  0.00000000000E+00 -0.14234652193E+04  0.14234652194E+04  0.50400001928E-02 0. -1.
    10030    2    1    2    0    0  0.00000000000E+00  0.00000000000E+00  0.11404266627E+04  0.39873571014E+04  0.38207909759E+04 0.  0.
        4    1    3    3  502    0 -0.17213796020E+04 -0.64475854266E+03  0.11132316458E+04  0.21489875808E+04  0.12699999809E+01 0. -1.
       -4    1    3    3    0  502  0.17213796020E+04  0.64475854266E+03  0.27195016878E+02  0.18383695206E+04  0.12699999809E+01 0.  1.
</event>
<event>
 5   0  0.1628250E-08  0.3794989E+04  0.7818609E-02  0.8047231E-01
        1   -1    0    0  501    0  0.00000000000E+00  0.00000000000E+00  0.25412826757E+04  0.25412826757E+04  0.50400001928E-02 0. -1.
       -1   -1    0    0    0  501  0.00000000000E+00  0.00000000000E+00 -0.14167982131E+04  0.14167982131E+04  0.50400001928E-02 0.  1.
    10030    2    1    2    0    0  0.00000000000E+00  0.00000000000E+00  0.11244844626E+04  0.39580808887E+04  0.37949886713E+04 0.  0.
        1    1    3    3  502    0 -0.49952009874E+03 -0.76322663554E+02 -0.13453312828E+04  0.14371018539E+04  0.50400001928E-02 0.  1.
       -1    1    3    3    0  502  0.49952009874E+03  0.76322663554E+02  0.24698157454E+04  0.25209790349E+04  0.50400001928E-02 0. -1.
</event>
<event>
 5   0  0.1628250E-08  0.3797341E+04  0.7818609E-02  0.8046726E-01
       -1   -1    0    0    0  501  0.00000000000E+00  0.00000000000E+00  0.19139006456E+04  0.19139006456E+04  0.50400001928E-02 0. -1.
        1   -1    0    0  501    0  0.00000000000E+00  0.00000000000E+00 -0.18835613147E+04  0.18835613147E+04  0.50400001928E-02 0.  1.
    10030    2    1    2    0    0  0.00000000000E+00  0.00000000000E+00  0.30339330909E+02  0.37974619604E+04  0.37973407624E+04 0.  0.
        5    1    3    3  502    0 -0.20301855802E+03 -0.96922375086E+03  0.16351954162E+04  0.19116739663E+04  0.46999998093E+01 0. -1.
       -5    1    3    3    0  502  0.20301855802E+03  0.96922375086E+03 -0.16048560853E+04  0.18857879941E+04  0.46999998093E+01 0.  1.
</event>
<event>
 5   0  0.1628473E-08  0.3802756E+04  0.7818609E-02  0.8045564E-01
        1   -1    0    0  501    0  0.00000000000E+00  0.00000000000E+00  0.22889422728E+04  0.22889422728E+04  0.50400001928E-02 0.  1.
       -1   -1    0    0    0  501  0.00000000000E+00  0.00000000000E+00 -0.15794363424E+04  0.15794363424E+04  0.50400001928E-02 0. -1.
    10030    2    1    2    0    0  0.00000000000E+00  0.00000000000E+00  0.70950593035E+03  0.38683786152E+04  0.38027561643E+04 0.  0.
        3    1    3    3  502    0  0.14253197582E+04  0.12190397021E+04  0.67262633743E+03  0.19924910058E+04  0.10100000352E+00 0.  1.
       -3    1    3    3    0  502 -0.14253197582E+04 -0.12190397021E+04  0.36879592916E+02  0.18758876094E+04  0.10100000352E+00 0. -1.
</event>
<event>
 5   0  0.5140842E-08  0.3795619E+04  0.7818609E-02  0.8047096E-01
        2   -1    0    0  501    0  0.00000000000E+00  0.00000000000E+00  0.22920855289E+04  0.22920855289E+04  0.25500000920E-02 0. -1.
       -2   -1    0    0    0  501  0.00000000000E+00  0.00000000000E+00 -0.15713553831E+04  0.15713553831E+04  0.25500000920E-02 0.  1.
    10030    2    1    2    0    0  0.00000000000E+00  0.00000000000E+00  0.72073014577E+03  0.38634409120E+04  0.37956190191E+04 0.  0.
        2    1    3    3  502    0  0.40115078083E+03  0.11348993193E+04 -0.11330816088E+04  0.16531159506E+04  0.25500000920E-02 0.  1.
       -2    1    3    3    0  502 -0.40115078083E+03 -0.11348993193E+04  0.18538117546E+04  0.22103249615E+04  0.25500000920E-02 0. -1.
</event>
<event>
 5   0  0.1628250E-08  0.3820523E+04  0.7818609E-02  0.8041765E-01
        1   -1    0    0  501    0  0.00000000000E+00  0.00000000000E+00  0.11514941510E+04  0.11514941510E+04  0.50400001928E-02 0.  1.
       -1   -1    0    0    0  501  0.00000000000E+00  0.00000000000E+00 -0.31690128680E+04  0.31690128680E+04  0.50400001928E-02 0. -1.
    10030    2    1    2    0    0  0.00000000000E+00  0.00000000000E+00 -0.20175187170E+04  0.43205070190E+04  0.38205234102E+04 0.  0.
        4    1    3    3  502    0  0.73523583804E+03 -0.13281270113E+04  0.30256226488E+03  0.15479142846E+04  0.12699999809E+01 0.  1.
       -4    1    3    3    0  502 -0.73523583804E+03  0.13281270113E+04 -0.23200809818E+04  0.27725927344E+04  0.12699999809E+01 0. -1.
</event>
<event>
 5   0  0.5086209E-08  0.3783993E+04  0.7818609E-02  0.8049599E-01
       -2   -1    0    0    0  501  0.00000000000E+00  0.00000000000E+00  0.16623922775E+04  0.16623922775E+04  0.25500000920E-02 0.  1.
        2   -1    0    0  501    0  0.00000000000E+00  0.00000000000E+00 -0.21533129204E+04  0.21533129204E+04  0.25500000920E-02 0. -1.
    10030    2    1    2    0    0  0.00000000000E+00  0.00000000000E+00 -0.49092064290E+03  0.38157051980E+04  0.37839930074E+04 0.  0.
        3    1    3    3  502    0  0.16300743339E+03  0.17039132364E+04 -0.10582920483E+04  0.20124298274E+04  0.10100000352E+00 0. -1.
       -3    1    3    3    0  502 -0.16300743339E+03 -0.17039132364E+04  0.56737140538E+03  0.18032753706E+04  0.10100000352E+00 0.  1.
</event>
<event>
 5   0  0.5207474E-08  0.3801072E+04  0.7818609E-02  0.8045925E-01
        2   -1    0    0  501    0  0.00000000000E+00  0.00000000000E+00  0.23954551206E+04  0.23954551206E+04  0.25500000920E-02 0.  1.
       -2   -1    0    0    0  501  0.00000000000E+00  0.00000000000E+00 -0.15078709247E+04  0.15078709247E+04  0.25500000920E-02 0. -1.
    10030    2    1    2    0    0  0.00000000000E+00  0.00000000000E+00  0.88758419585E+03  0.39033260453E+04  0.38010720213E+04 0.  0.
        4    1    3    3  502    0  0.11560066048E+04 -0.63277688046E+03  0.18500388144E+04  0.22714319445E+04  0.12699999809E+01 0.  1.
       -4    1    3    3    0  502 -0.11560066048E+04  0.63277688046E+03 -0.96245461853E+03  0.16318941008E+04  0.12699999809E+01 0. -1.
</event>
<event>
 5   0  0.1628473E-08  0.3794407E+04  0.7818609E-02  0.8047356E-01
       -1   -1    0    0    0  501  0.00000000000E+00  0.00000000000E+00  0.14950636134E+04  0.14950636134E+04  0.50400001928E-02 0. -1.
        1   -1    0    0  501    0  0.00000000000E+00  0.00000000000E+00 -0.24075107672E+04  0.24075107672E+04  0.50400001928E-02 0.  1.
    10030    2    1    2    0    0  0.00000000000E+00  0.00000000000E+00 -0.91244715381E+03  0.39025743807E+04  0.37944073303E+04 0.  0.
        3    1    3    3  502    0 -0.78235040019E+03 -0.34077151656E+03 -0.21989843598E+04  0.23587559433E+04  0.10100000352E+00 0.  1.
       -3    1    3    3    0  502  0.78235040019E+03  0.34077151656E+03  0.12865372059E+04  0.15438184374E+04  0.10100000352E+00 0. -1.
</event>
<event>
 5   0  0.5159761E-08  0.3791410E+04  0.7818609E-02  0.8048001E-01
        2   -1    0    0  501    0  0.00000000000E+00  0.00000000000E+00  0.14914336075E+04  0.14914336075E+04  0.25500000920E-02 0. -1.
       -2   -1    0    0    0  501  0.00000000000E+00  0.00000000000E+00 -0.24095588099E+04  0.24095588099E+04  0.25500000920E-02 0.  1.
    10030    2    1    2    0    0  0.00000000000E+00  0.00000000000E+00 -0.91812520245E+03  0.39009924174E+04  0.37914097580E+04 0.  0.
        5    1    3    3  502    0 -0.12852686578E+04  0.81388315379E+03 -0.16228393559E+04  0.22243990145E+04  0.46999998093E+01 0.  1.
       -5    1    3    3    0  502  0.12852686578E+04 -0.81388315379E+03  0.70471415341E+03  0.16765934029E+04  0.46999998093E+01 0. -1.
</event>
<event>
 5   0  0.5147582E-08  0.3800208E+04  0.7818609E-02  0.8046110E-01
       -2   -1    0    0    0  501  0.00000000000E+00  0.00000000000E+00  0.16540036125E+04  0.16540036125E+04  0.25500000920E-02 0. -1.
        2   -1    0    0  501    0  0.00000000000E+00  0.00000000000E+00 -0.21828214689E+04  0.21828214689E+04  0.25500000920E-02 0.  1.
    10030    2    1    2    0    0  0.00000000000E+00  0.00000000000E+00 -0.52881785639E+03  0.38368250814E+04  0.38002076760E+04 0.  0.
        1    1    3    3  502    0  0.74843532329E+03 -0.17205205539E+04  0.38562833559E+02  0.18766548702E+04  0.50400001928E-02 0. -1.
       -1    1    3    3    0  502 -0.74843532329E+03  0.17205205539E+04 -0.56738068995E+03  0.19601702112E+04  0.50400001928E-02 0.  1.
</event>
<event>
 5   0  0.5086209E-08  0.3796244E+04  0.7818609E-02  0.8046961E-01
       -2   -1    0    0    0  501  0.00000000000E+00  0.00000000000E+00  0.22953027619E+04  0.22953027619E+04  0.25500000920E-02 0. -1.
        2   -1    0    0  501    0  0.00000000000E+00  0.00000000000E+00 -0.15696693377E+04  0.15696693377E+04  0.25500000920E-02 0.  1.
    10030    2    1    2    0    0  0.00000000000E+00  0.00000000000E+00  0.72563342420E+03  0.38649720997E+04  0.37962435993E+04 0.  0.
        3    1    3    3  502    0 -0.16982040139E+04 -0.28196907038E+03  0.11769583678E+04  0.20853379676E+04  0.10100000352E+00 0. -1.
       -3    1    3    3    0  502  0.16982040139E+04  0.28196907038E+03 -0.45132494356E+03  0.17796341321E+04  0.10100000352E+00 0.  1.
</event>
<event>
 5   0  0.1628250E-08  0.3805014E+04  0.7818609E-02  0.8045080E-01
        1   -1    0    0  501    0  0.00000000000E+00  0.00000000000E+00  0.33766261619E+04  0.33766261619E+04  0.50400001928E-02 0. -1.
       -1   -1    0    0    0  501  0.00000000000E+00  0.00000000000E+00 -0.10719377044E+04  0.10719377044E+04  0.50400001928E-02 0.  1.
    10030    2    1    2    0    0  0.00000000000E+00  0.00000000000E+00  0.23046884575E+04  0.44485638663E+04  0.38050140061E+04 0.  0.
        1    1    3    3  502    0  0.14055314565E+04  0.47017372875E+03 -0.24228423737E+03  0.15017601880E+04  0.50400001928E-02 0.  1.
       -1    1    3    3    0  502 -0.14055314565E+04 -0.47017372875E+03  0.25469726949E+04  0.29468036784E+04  0.50400001928E-02 0. -1.
</event>
<event>
 5   0  0.1666051E-08  0.3799577E+04  0.7818609E-02  0.8046246E-01
        1   -1    0    0  501    0  0.00000000000E+00  0.00000000000E+00  0.13948276808E+04  0.13948276809E+04  0.50400001928E-02 0. -1.
       -1   -1    0    0    0  501  0.00000000000E+00  0.00000000000E+00 -0.25875568002E+04  0.25875568002E+04  0.50400001928E-02 0.  1.
    10030    2    1    2    0    0  0.00000000000E+00  0.00000000000E+00 -0.11927291193E+04  0.39823844810E+04  0.37995767400E+04 0.  0.
        2    1    3    3  502    0  0.75024986698E+03  0.17125520898E+04 -0.94944994170E+03  0.20969417528E+04  0.25500000920E-02 0.  1.
       -2    1    3    3    0  502 -0.75024986698E+03 -0.17125520898E+04 -0.24327917763E+03  0.18854427282E+04  0.25500000920E-02 0. -1.
</event>
<event>
 5   0  0.5147582E-08  0.3795490E+04  0.7818609E-02  0.8047123E-01
       -2   -1    0    0    0  501  0.00000000000E+00  0.00000000000E+00  0.27618082871E+04  0.27618082871E+04  0.25500000920E-02 0.  1.
        2   -1    0    0  501    0  0.00000000000E+00  0.00000000000E+00 -0.13040138197E+04  0.13040138197E+04  0.25500000920E-02 0. -1.
    10030    2    1    2    0    0  0.00000000000E+00  0.00000000000E+00  0.14577944674E+04  0.40658221068E+04  0.37954900468E+04 0.  0.
        1    1    3    3  502    0  0.15934593403E+04  0.98236327776E+03  0.39477493863E+03  0.19131120016E+04  0.50400001928E-02 0. -1.
       -1    1    3    3    0  502 -0.15934593403E+04 -0.98236327776E+03  0.10630195288E+04  0.21527101052E+04  0.50400001928E-02 0.  1.
</event>
<event>
 5   0  0.5086209E-08  0.3802885E+04  0.7818609E-02  0.8045536E-01
       -2   -1    0    0    0  501  0.00000000000E+00  0.00000000000E+00  0.20201801629E+04  0.20201801629E+04  0.25500000920E-02 0.  1.
        2   -1    0    0  501    0  0.00000000000E+00  0.00000000000E+00 -0.17896841030E+04  0.17896841030E+04  0.25500000920E-02 0. -1.
    10030    2    1    2    0    0  0.00000000000E+00  0.00000000000E+00  0.23049605986E+03  0.38098642659E+04  0.38028853902E+04 0.  0.
        3    1    3    3  502    0  0.89685076550E+03  0.42459767425E+03  0.17402171840E+04  0.20032424562E+04  0.10100000352E+00 0.  1.
       -3    1    3    3    0  502 -0.89685076550E+03 -0.42459767425E+03 -0.15097211241E+04  0.18066218097E+04  0.10100000352E+00 0. -1.
</event>
<event>
 5   0  0.1628250E-08  0.3800753E+04  0.7818609E-02  0.8045993E-01
        1   -1    0    0  501    0  0.00000000000E+00  0.00000000000E+00  0.12651269733E+04  0.12651269734E+04  0.50400001928E-02 0.  1.
       -1   -1    0    0    0  501  0.00000000000E+00  0.00000000000E+00 -0.28545995169E+04  0.28545995169E+04  0.50400001928E-02 0. -1.
    10030    2    1    2    0    0  0.00000000000E+00  0.00000000000E+00 -0.15894725436E+04  0.41197264903E+04  0.38007530027E+04 0.  0.
        5    1    3    3  502    0  0.14698926807E+04  0.15085774126E+03  0.50057131069E+03  0.15601077777E+04  0.46999998093E+01 0.  1.
       -5    1    3    3    0  502 -0.14698926807E+04 -0.15085774126E+03 -0.20900438543E+04  0.25596187126E+04  0.46999998093E+01 0. -1.
</event>
<event>
 5   0  0.5086209E-08  0.3829412E+04  0.7818609E-02  0.8039873E-01
       -2   -1    0    0    0  501  0.00000000000E+00  0.00000000000E+00  0.21322284102E+04  0.21322284102E+04  0.25500000920E-02 0. -1.
        2   -1    0    0  501    0  0.00000000000E+00  0.00000000000E+00 -0.17193741304E+04  0.17193741304E+04  0.25500000920E-02 0.  1.
    10030    2    1    2    0    0  0.00000000000E+00  0.00000000000E+00  0.41285427980E+03  0.38516025406E+04  0.38294116355E+04 0.  0.
        3    1    3    3  502    0  0.32156451859E+03  0.22280698078E+03  0.20916021780E+04  0.21278736738E+04  0.10100000352E+00 0. -1.
       -3    1    3    3    0  502 -0.32156451859E+03 -0.22280698078E+03 -0.16787478982E+04  0.17237288668E+04  0.10100000352E+00 0.  1.
</event>
<event>
 5   0  0.1628250E-08  0.3813144E+04  0.7818609E-02  0.8043340E-01
       -1   -1    0    0    0  501  0.00000000000E+00  0.00000000000E+00  0.19098709224E+04  0.19098709224E+04  0.50400001928E-02 0. -1.
        1   -1    0    0  501    0  0.00000000000E+00  0.00000000000E+00 -0.19032783796E+04  0.19032783796E+04  0.50400001928E-02 0.  1.
    10030    2    1    2    0    0  0.00000000000E+00  0.00000000000E+00  0.65925427221E+01  0.38131493020E+04  0.38131436031E+04 0.  0.
        4    1    3    3  502    0 -0.12760912454E+04 -0.62376549191E+03 -0.12685240780E+04  0.19043758045E+04  0.12699999809E+01 0.  1.
       -4    1    3    3    0  502  0.12760912454E+04  0.62376549191E+03  0.12751166207E+04  0.19087734975E+04  0.12699999809E+01 0. -1.
</event>
<event>
 5   0  0.1628250E-08  0.3788797E+04  0.7818609E-02  0.8048563E-01
        1   -1    0    0  501    0  0.00000000000E+00  0.00000000000E+00  0.26245801889E+04  0.26245801889E+04  0.50400001928E-02 0. -1.
       -1   -1    0    0    0  501  0.00000000000E+00  0.00000000000E+00 -0.13673599614E+04  0.13673599615E+04  0.50400001928E-02 0.  1.
    10030    2    1    2    0    0  0.00000000000E+00  0.00000000000E+00  0.12572202274E+04  0.39919401503E+04  0.37887970998E+04 0.  0.
        4    1    3    3  502    0 -0.95923068952E+03 -0.51470058680E+03 -0.10049050494E+04  0.14815113840E+04  0.12699999809E+01 0.  1.
       -4    1    3    3    0  502  0.95923068952E+03  0.51470058680E+03  0.22621252768E+04  0.25104287663E+04  0.12699999809E+01 0. -1.
</event>
<event>
 5   0  0.5086209E-08  0.3802572E+04  0.7818609E-02  0.8045603E-01
        2   -1    0    0  501    0  0.00000000000E+00  0.00000000000E+00  0.21674507118E+04  0.21674507118E+04  0.25500000920E-02 0.  1.
       -2   -1    0    0    0  501  0.00000000000E+00  0.00000000000E+00 -0.16678062162E+04  0.16678062162E+04  0.25500000920E-02 0. -1.
    10030    2    1    2    0    0  0.00000000000E+00  0.00000000000E+00  0.49964449560E+03  0.38352569280E+04  0.38025716406E+04 0.  0.
        3    1    3    3  502    0  0.84177860175E+03 -0.10901846218E+04  0.15717344259E+04  0.20898427787E+04  0.10100000352E+00 0.  1.
       -3    1    3    3    0  502 -0.84177860175E+03  0.10901846218E+04 -0.10720899303E+04  0.17454141493E+04  0.10100000352E+00 0. -1.
</event>
<event>
 5   0  0.1628250E-08  0.3809371E+04  0.7818609E-02  0.8044147E-01
        1   -1    0    0  501    0  0.00000000000E+00  0.00000000000E+00  0.26999560413E+04  0.26999560413E+04  0.50400001928E-02 0.  1.
       -1   -1    0    0    0  501  0.00000000000E+00  0.00000000000E+00 -0.13436617869E+04  0.13436617869E+04  0.50400001928E-02 0. -1.
    10030    2    1    2    0    0  0.00000000000E+00  0.00000000000E+00  0.13562942544E+04  0.40436178282E+04  0.38093714752E+04 0.  0.
        5    1    3    3  502    0  0.96055644504E+02 -0.25255067789E+03  0.26795023924E+04  0.26930955595E+04  0.46999998093E+01 0.  1.
       -5    1    3    3    0  502 -0.96055644504E+02  0.25255067789E+03 -0.13232081380E+04  0.13505222687E+04  0.46999998093E+01 0. -1.
</event>
<event>
 5   0  0.1628250E-08  0.3806037E+04  0.7818609E-02  0.8044861E-01
        1   -1    0    0  501    0  0.00000000000E+00  0.00000000000E+00  0.20790194684E+04  0.20790194685E+04  0.50400001928E-02 0.  1.
       -1   -1    0    0    0  501  0.00000000000E+00  0.00000000000E+00 -0.17419167584E+04  0.17419167584E+04  0.50400001928E-02 0. -1.
    10030    2    1    2    0    0  0.00000000000E+00  0.00000000000E+00  0.33710271009E+03  0.38209362268E+04  0.38060367066E+04 0.  0.
        1    1    3    3  502    0  0.11952715021E+04 -0.33685982097E+03  0.16161846497E+04  0.20381857925E+04  0.50400001928E-02 0.  1.
       -1    1    3    3    0  502 -0.11952715021E+04  0.33685982097E+03 -0.12790819396E+04  0.17827504343E+04  0.50400001928E-02 0. -1.
</event>
<event>
 5   0  0.1628250E-08  0.3793632E+04  0.7818609E-02  0.8047523E-01
       -1   -1    0    0    0  501  0.00000000000E+00  0.00000000000E+00  0.18827854275E+04  0.18827854275E+04  0.50400001928E-02 0.  1.
        1   -1    0    0  501    0  0.00000000000E+00  0.00000000000E+00 -0.19109506987E+04  0.19109506987E+04  0.50400001928E-02 0. -1.
    10030    2    1    2    0    0  0.00000000000E+00  0.00000000000E+00 -0.28165271131E+02  0.37937361262E+04  0.37936315731E+04 0.  0.
        4    1    3    3  502    0 -0.97160434867E+02 -0.14571710197E+04  0.11963725448E+04  0.18878814607E+04  0.12699999809E+01 0.  1.
       -4    1    3    3    0  502  0.97160434867E+02  0.14571710197E+04 -0.12245378159E+04  0.19058546655E+04  0.12699999809E+01 0. -1.
</event>
<event>
 5   0  0.5140842E-08  0.3801301E+04  0.7818609E-02  0.8045876E-01
       -2   -1    0    0    0  501  0.00000000000E+00  0.00000000000E+00  0.14110095570E+04  0.14110095570E+04  0.25500000920E-02 0.  1.
        2   -1    0    0  501    0  0.00000000000E+00  0.00000000000E+00 -0.25602038358E+04  0.25602038358E+04  0.25500000920E-02 0. -1.
    10030    2    1    2    0    0  0.00000000000E+00  0.00000000000E+00 -0.11491942789E+04  0.39712133928E+04  0.38013008722E+04 0.  0.
        2    1    3    3  502    0 -0.86181452127E+03 -0.28619140520E+03 -0.23189128009E+04  0.24903787598E+04  0.25500000920E-02 0. -1.
       -2    1    3    3    0  502  0.86181452127E+03  0.28619140520E+03  0.11697185220E+04  0.14808346330E+04  0.25500000920E-02 0.  1.
</event>
<event>
 5   0  0.5140842E-08  0.3816685E+04  0.7818609E-02  0.8042584E-01
       -2   -1    0    0    0  501  0.00000000000E+00  0.00000000000E+00  0.25004926936E+04  0.25004926936E+04  0.25500000920E-02 0. -1.
        2   -1    0    0  501    0  0.00000000000E+00  0.00000000000E+00 -0.14564213534E+04  0.14564213535E+04  0.25500000920E-02 0.  1.
    10030    2    1    2    0    0  0.00000000000E+00  0.00000000000E+00  0.10440713401E+04  0.39569140470E+04  0.38166849244E+04 0.  0.
        2    1    3    3  502    0 -0.12370883148E+04 -0.70631291095E+03  0.18385358200E+04  0.23258287530E+04  0.25500000920E-02 0. -1.
       -2    1    3    3    0  502  0.12370883148E+04  0.70631291095E+03 -0.79446447988E+03  0.16310852941E+04  0.25500000920E-02 0.  1.
</event>
<event>
 5   0  0.5140842E-08  0.3789656E+04  0.7818609E-02  0.8048378E-01
       -2   -1    0    0    0  501  0.00000000000E+00  0.00000000000E+00  0.19028954115E+04  0.19028954115E+04  0.25500000920E-02 0. -1.
        2   -1    0    0  501    0  0.00000000000E+00  0.00000000000E+00 -0.18867949009E+04  0.18867949009E+04  0.25500000920E-02 0.  1.
    10030    2    1    2    0    0  0.00000000000E+00  0.00000000000E+00  0.16100510643E+02  0.37896903124E+04  0.37896561107E+04 0.  0.
        2    1    3    3  502    0 -0.17622524424E+04 -0.69005476476E+03  0.10113229848E+03  0.18952406155E+04  0.25500000920E-02 0. -1.
       -2    1    3    3    0  502  0.17622524424E+04  0.69005476476E+03 -0.85031787839E+02  0.18944496969E+04  0.25500000920E-02 0.  1.
</event>
<event>
 5   0  0.1666051E-08  0.3829553E+04  0.7818609E-02  0.8039843E-01
        1   -1    0    0  501    0  0.00000000000E+00  0.00000000000E+00  0.31366776131E+04  0.31366776131E+04  0.50400001928E-02 0.  1.
       -1   -1    0    0    0  501  0.00000000000E+00  0.00000000000E+00 -0.11688701390E+04  0.11688701391E+04  0.50400001928E-02 0. -1.
    10030    2    1    2    0    0  0.00000000000E+00  0.00000000000E+00  0.19678074740E+04  0.43055477521E+04  0.38295528709E+04 0.  0.
        2    1    3    3  502    0  0.16110447440E+03  0.13332251334E+04 -0.55063555511E+03  0.14514280632E+04  0.25500000920E-02 0. -1.
       -2    1    3    3    0  502 -0.16110447440E+03 -0.13332251334E+04  0.25184430291E+04  0.28541196890E+04  0.25500000920E-02 0.  1.
</event>
<event>
 5   0  0.1628250E-08  0.3794616E+04  0.7818609E-02  0.8047311E-01
        1   -1    0    0  501    0  0.00000000000E+00  0.00000000000E+00  0.26662343821E+04  0.26662343821E+04  0.50400001928E-02 0.  1.
       -1   -1    0    0    0  501  0.00000000000E+00  0.00000000000E+00 -0.13501353449E+04  0.13501353449E+04  0.50400001928E-02 0. -1.
    10030    2    1    2    0    0  0.00000000000E+00  0.00000000000E+00  0.13160990372E+04  0.40163697270E+04  0.37946158050E+04 0.  0.
        4    1    3    3  502    0 -0.10895728652E+04  0.13878013886E+04 -0.80293456574E+02  0.17662418789E+04  0.12699999809E+01 0.  1.
       -4    1    3    3    0  502  0.10895728652E+04 -0.13878013886E+04  0.13963924938E+04  0.22501278480E+04  0.12699999809E+01 0. -1.
</event>
<event>
 5   0  0.1628473E-08  0.3802828E+04  0.7818609E-02  0.8045548E-01
       -1   -1    0    0    0  501  0.00000000000E+00  0.00000000000E+00  0.12263375774E+04  0.12263375774E+04  0.50400001928E-02 0. -1.
        1   -1    0    0  501    0  0.00000000000E+00  0.00000000000E+00 -0.29481072566E+04  0.29481072566E+04  0.50400001928E-02 0.  1.
    10030    2    1    2    0    0  0.00000000000E+00  0.00000000000E+00 -0.17217696792E+04  0.41744448340E+04  0.38028277431E+04 0.  0.
        3    1    3    3  502    0 -0.21658925610E+03  0.12628989871E+04 -0.24029976084E+04  0.27232741826E+04  0.10100000352E+00 0.  1.
       -3    1    3    3    0  502  0.21658925610E+03 -0.12628989871E+04  0.68122792922E+03  0.14511706514E+04  0.10100000352E+00 0. -1.
</event>
<event>
 5   0  0.5159761E-08  0.3786382E+04  0.7818609E-02  0.8049084E-01
        2   -1    0    0  501    0  0.00000000000E+00  0.00000000000E+00  0.10992894661E+04  0.10992894661E+04  0.25500000920E-02 0.  1.
       -2   -1    0    0    0  501  0.00000000000E+00  0.00000000000E+00 -0.32604446638E+04  0.32604446638E+04  0.25500000920E-02 0. -1.
    10030    2    1    2    0    0  0.00000000000E+00  0.00000000000E+00 -0.21611551977E+04  0.43597341299E+04  0.37863821644E+04 0.  0.
        5    1    3    3  502    0  0.11752089791E+04  0.49207404337E+03  0.53178602762E+03  0.13806054751E+04  0.46999998093E+01 0.  1.
       -5    1    3    3    0  502 -0.11752089791E+04 -0.49207404337E+03 -0.26929412254E+04  0.29791286548E+04  0.46999998093E+01 0. -1.
</event>
<event>
 5   0  0.1628250E-08  0.3809360E+04  0.7818609E-02  0.8044149E-01
       -1   -1    0    0    0  501  0.00000000000E+00  0.00000000000E+00  0.17638384554E+04  0.17638384554E+04  0.50400001928E-02 0. -1.
        1   -1    0    0  501    0  0.00000000000E+00  0.00000000000E+00 -0.20567677360E+04  0.20567677360E+04  0.50400001928E-02 0.  1.
    10030    2    1    2    0    0  0.00000000000E+00  0.00000000000E+00 -0.29292928064E+03  0.38206061914E+04  0.38093600652E+04 0.  0.
        4    1    3    3  502    0  0.10503036781E+04 -0.51304049034E+03  0.13617888074E+04  0.17946639601E+04  0.12699999809E+01 0. -1.
       -4    1    3    3    0  502 -0.10503036781E+04  0.51304049034E+03 -0.16547180880E+04  0.20259422313E+04  0.12699999809E+01 0.  1.
</event>
<event>
 5   0  0.5159761E-08  0.3804633E+04  0.7818609E-02  0.8045161E-01
       -2   -1    0    0    0  501  0.00000000000E+00  0.00000000000E+00  0.13405570203E+04  0.13405570203E+04  0.25500000920E-02 0.  1.
        2   -1    0    0  501    0  0.00000000000E+00  0.00000000000E+00 -0.26994806024E+04  0.26994806024E+04  0.25500000920E-02 0. -1.
    10030    2    1    2    0    0  0.00000000000E+00  0.00000000000E+00 -0.13589235821E+04  0.40400376227E+04  0.38046327932E+04 0.  0.
        5    1    3    3  502    0  0.36775800235E+03  0.70923806115E+03  0.11537758092E+04  0.14033835126E+04  0.46999998093E+01 0.  1.
       -5    1    3    3    0  502 -0.36775800235E+03 -0.70923806115E+03 -0.25126993912E+04  0.26366541101E+04  0.46999998093E+01 0. -1.
</event>
<event>
 5   0  0.1628250E-08  0.3801590E+04  0.7818609E-02  0.8045814E-01
       -1   -1    0    0    0  501  0.00000000000E+00  0.00000000000E+00  0.18603735981E+04  0.18603735981E+04  0.50400001928E-02 0.  1.
        1   -1    0    0  501    0  0.00000000000E+00  0.00000000000E+00 -0.19420942176E+04  0.19420942176E+04  0.50400001928E-02 0. -1.
    10030    2    1    2    0    0  0.00000000000E+00  0.00000000000E+00 -0.81720619459E+02  0.38024678157E+04  0.38015895662E+04 0.  0.
        4    1    3    3  502    0 -0.18749619260E+04 -0.11822821245E+02 -0.35301763905E+03  0.19079426274E+04  0.12699999809E+01 0. -1.
       -4    1    3    3    0  502  0.18749619260E+04  0.11822821245E+02  0.27129701959E+03  0.18945251883E+04  0.12699999809E+01 0.  1.
</event>
<event>
 5   0  0.1628250E-08  0.3778633E+04  0.7818609E-02  0.8050756E-01
        3   -1    0    0  501    0  0.00000000000E+00  0.00000000000E+00  0.13605570862E+04  0.13605570900E+04  0.10100000352E+00 0.  1.
       -3   -1    0    0    0  501  0.00000000000E+00  0.00000000000E+00 -0.26235702975E+04  0.26235702994E+04  0.10100000352E+00 0. -1.
    10030    2    1    2    0    0  0.00000000000E+00  0.00000000000E+00 -0.12630132112E+04  0.39841273894E+04  0.37786331766E+04 0.  0.
        3    1    3    3  502    0 -0.16331233889E+04  0.20106879309E+03 -0.16104356938E+04  0.23023952304E+04  0.10100000352E+00 0. -1.
       -3    1    3    3    0  502  0.16331233889E+04 -0.20106879309E+03  0.34742248260E+03  0.16817321590E+04  0.10100000352E+00 0.  1.
</event>
<event>
 5   0  0.1628473E-08  0.3791931E+04  0.7818609E-02  0.8047889E-01
        1   -1    0    0  501    0  0.00000000000E+00  0.00000000000E+00  0.18929032284E+04  0.18929032284E+04  0.50400001928E-02 0.  1.
       -1   -1    0    0    0  501  0.00000000000E+00  0.00000000000E+00 -0.18990328372E+04  0.18990328372E+04  0.50400001928E-02 0. -1.
    10030    2    1    2    0    0  0.00000000000E+00  0.00000000000E+00 -0.61296088097E+01  0.37919360656E+04  0.37919311114E+04 0.  0.
        3    1    3    3  502    0 -0.14288704581E+04 -0.13457216697E+03 -0.12419792222E+04  0.18979707197E+04  0.10100000352E+00 0. -1.
       -3    1    3    3    0  502  0.14288704581E+04  0.13457216697E+03  0.12358496134E+04  0.18939653459E+04  0.10100000352E+00 0.  1.
</event>
<event>
 5   0  0.1628473E-08  0.3806060E+04  0.7818609E-02  0.8044856E-01
        1   -1    0    0  501    0  0.00000000000E+00  0.00000000000E+00  0.17946439642E+04  0.17946439642E+04  0.50400001928E-02 0. -1.
       -1   -1    0    0    0  501  0.00000000000E+00  0.00000000000E+00 -0.20179615683E+04  0.20179615683E+04  0.50400001928E-02 0.  1.
    10030    2    1    2    0    0  0.00000000000E+00  0.00000000000E+00 -0.22331760405E+03  0.38126055325E+04  0.38060596677E+04 0.  0.
        3    1    3    3  502    0 -0.16878625024E+04 -0.69866574915E+02 -0.98938570608E+03  0.19577142925E+04  0.10100000352E+00 0.  1.
       -3    1    3    3    0  502  0.16878625024E+04  0.69866574915E+02  0.76606810202E+03  0.18548912401E+04  0.10100000352E+00 0. -1.
</event>
<event>
 5   0  0.5207474E-08  0.3876438E+04  0.7818609E-02  0.8029948E-01
       -2   -1    0    0    0  501  0.00000000000E+00  0.00000000000E+00  0.15790636831E+04  0.15790636831E+04  0.25500000920E-02 0.  1.
        2   -1    0    0  501    0  0.00000000000E+00  0.00000000000E+00 -0.23790634423E+04  0.23790634423E+04  0.25500000920E-02 0. -1.
    10030    2    1    2    0    0  0.00000000000E+00  0.00000000000E+00 -0.79999975920E+03  0.39581271253E+04  0.38764378913E+04 0.  0.
        4    1    3    3  502    0  0.17747416261E+04  0.52119072833E+03  0.19129187784E+03  0.18595541966E+04  0.12699999809E+01 0.  1.
       -4    1    3    3    0  502 -0.17747416261E+04 -0.52119072833E+03 -0.99129163704E+03  0.20985729287E+04  0.12699999809E+01 0. -1.
</event>
<event>
 5   0  0.5140842E-08  0.3766352E+04  0.7818609E-02  0.8053414E-01
        2   -1    0    0  501    0  0.00000000000E+00  0.00000000000E+00  0.13345497447E+04  0.13345497447E+04  0.25500000920E-02 0.  1.
       -2   -1    0    0    0  501  0.00000000000E+00  0.00000000000E+00 -0.26573391966E+04  0.26573391966E+04  0.25500000920E-02 0. -1.
    10030    2    1    2    0    0  0.00000000000E+00  0.00000000000E+00 -0.13227894519E+04  0.39918889413E+04  0.37663517342E+04 0.  0.
        2    1    3    3  502    0 -0.61466685029E+03 -0.51048703050E+03 -0.24687778408E+04  0.25948557518E+04  0.25500000920E-02 0. -1.
       -2    1    3    3    0  502  0.61466685029E+03  0.51048703050E+03  0.11459883889E+04  0.13970331895E+04  0.25500000920E-02 0.  1.
</event>
<event>
 5   0  0.1628473E-08  0.3785547E+04  0.7818609E-02  0.8049264E-01
       -1   -1    0    0    0  501  0.00000000000E+00  0.00000000000E+00  0.16336494746E+04  0.16336494746E+04  0.50400001928E-02 0. -1.
        1   -1    0    0  501    0  0.00000000000E+00  0.00000000000E+00 -0.21929990529E+04  0.21929990529E+04  0.50400001928E-02 0.  1.
    10030    2    1    2    0    0  0.00000000000E+00  0.00000000000E+00 -0.55934957835E+03  0.38266485275E+04  0.37855471206E+04 0.  0.
        3    1    3    3  502    0 -0.17834958185E+04  0.47852478429E+03  0.14046806464E+03  0.18519110646E+04  0.10100000352E+00 0. -1.
       -3    1    3    3    0  502  0.17834958185E+04 -0.47852478429E+03 -0.69981764299E+03  0.19747374629E+04  0.10100000352E+00 0.  1.
</event>
<event>
 5   0  0.5086209E-08  0.3874114E+04  0.7818609E-02  0.8030435E-01
        2   -1    0    0  501    0  0.00000000000E+00  0.00000000000E+00  0.20761616753E+04  0.20761616753E+04  0.25500000920E-02 0. -1.
       -2   -1    0    0    0  501  0.00000000000E+00  0.00000000000E+00 -0.18072721669E+04  0.18072721669E+04  0.25500000920E-02 0.  1.
    10030    2    1    2    0    0  0.00000000000E+00  0.00000000000E+00  0.26888950833E+03  0.38834338422E+04  0.38741136843E+04 0.  0.
        3    1    3    3  502    0 -0.82892761913E+03  0.57980927513E+03 -0.15214644414E+04  0.18270615343E+04  0.10100000352E+00 0.  1.
       -3    1    3    3    0  502  0.82892761913E+03 -0.57980927513E+03  0.17903539497E+04  0.20563723079E+04  0.10100000352E+00 0. -1.
</event>
<event>
 5   0  0.1628250E-08  0.3796653E+04  0.7818609E-02  0.8046874E-01
       -1   -1    0    0    0  501  0.00000000000E+00  0.00000000000E+00  0.22816286207E+04  0.22816286207E+04  0.50400001928E-02 0. -1.
        1   -1    0    0  501    0  0.00000000000E+00  0.00000000000E+00 -0.15794171934E+04  0.15794171934E+04  0.50400001928E-02 0.  1.
    10030    2    1    2    0    0  0.00000000000E+00  0.00000000000E+00  0.70221142737E+03  0.38610458141E+04  0.37966529852E+04 0.  0.
        1    1    3    3  502    0 -0.89673903340E+03  0.96525544726E+03 -0.10387426946E+04  0.16777500881E+04  0.50400001928E-02 0.  1.
       -1    1    3    3    0  502  0.89673903340E+03 -0.96525544726E+03  0.17409541219E+04  0.21832957260E+04  0.50400001928E-02 0. -1.
</event>
<event>
 5   0  0.1628250E-08  0.3792473E+04  0.7818609E-02  0.8047772E-01
       -1   -1    0    0    0  501  0.00000000000E+00  0.00000000000E+00  0.27328588234E+04  0.27328588234E+04  0.50400001928E-02 0.  1.
        1   -1    0    0  501    0  0.00000000000E+00  0.00000000000E+00 -0.13157333389E+04  0.13157333389E+04  0.50400001928E-02 0. -1.
    10030    2    1    2    0    0  0.00000000000E+00  0.00000000000E+00  0.14171254845E+04  0.40485921624E+04  0.37924733168E+04 0.  0.
        4    1    3    3  502    0  0.80301495652E+03 -0.78827830875E+03  0.23379056468E+04  0.25946136781E+04  0.12699999809E+01 0.  1.
       -4    1    3    3    0  502 -0.80301495652E+03  0.78827830875E+03 -0.92078016231E+03  0.14539784842E+04  0.12699999809E+01 0. -1.
</event>
<event>
 5   0  0.1628250E-08  0.3794182E+04  0.7818609E-02  0.8047404E-01
       -1   -1    0    0    0  501  0.00000000000E+00  0.00000000000E+00  0.19646884741E+04  0.19646884741E+04  0.50400001928E-02 0. -1.
        1   -1    0    0  501    0  0.00000000000E+00  0.00000000000E+00 -0.18318196233E+04  0.18318196233E+04  0.50400001928E-02 0.  1.
    10030    2    1    2    0    0  0.00000000000E+00  0.00000000000E+00  0.13286885086E+03  0.37965080974E+04  0.37941823365E+04 0.  0.
        5    1    3    3  502    0  0.15311137132E+04  0.84778527219E+03  0.79892395729E+03  0.19238894589E+04  0.46999998093E+01 0. -1.
       -5    1    3    3    0  502 -0.15311137132E+04 -0.84778527219E+03 -0.66605510642E+03  0.18726186385E+04  0.46999998093E+01 0.  1.
</event>
<event>
 5   0  0.5086209E-08  0.3798933E+04  0.7818609E-02  0.8046384E-01
       -2   -1    0    0    0  501  0.00000000000E+00  0.00000000000E+00  0.16358740872E+04  0.16358740872E+04  0.25500000920E-02 0.  1.
        2   -1    0    0  501    0  0.00000000000E+00  0.00000000000E+00 -0.22055320451E+04  0.22055320451E+04  0.25500000920E-02 0. -1.
    10030    2    1    2    0    0  0.00000000000E+00  0.00000000000E+00 -0.56965795790E+03  0.38414061324E+04  0.37989328613E+04 0.  0.
        3    1    3    3  502    0  0.10923748278E+03  0.10537852491E+03  0.16297322724E+04  0.16367848823E+04  0.10100000352E+00 0.  1.
       -3    1    3    3    0  502 -0.10923748278E+03 -0.10537852491E+03 -0.21993902303E+04  0.22046212501E+04  0.10100000352E+00 0. -1.
</event>
<event>
 5   0  0.1628250E-08  0.3786015E+04  0.7818609E-02  0.8049163E-01
       -1   -1    0    0    0  501  0.00000000000E+00  0.00000000000E+00  0.16259122511E+04  0.16259122511E+04  0.50400001928E-02 0. -1.
        1   -1    0    0  501    0  0.00000000000E+00  0.00000000000E+00 -0.22039792893E+04  0.22039792893E+04  0.50400001928E-02 0.  1.
    10030    2    1    2    0    0  0.00000000000E+00  0.00000000000E+00 -0.57806703822E+03  0.38298915403E+04  0.37860147530E+04 0.  0.
        1    1    3    3  502    0  0.22789773708E+03  0.13780661227E+04 -0.15815235979E+04  0.21100285562E+04  0.50400001928E-02 0.  1.
       -1    1    3    3    0  502 -0.22789773708E+03 -0.13780661227E+04  0.10034565597E+04  0.17198629842E+04  0.50400001928E-02 0. -1.
</event>
<event>
 5   0  0.5147582E-08  0.3795826E+04  0.7818609E-02  0.8047051E-01
       -2   -1    0    0    0  501  0.00000000000E+00  0.00000000000E+00  0.17154234502E+04  0.17154234502E+04  0.25500000920E-02 0. -1.
        2   -1    0    0  501    0  0.00000000000E+00  0.00000000000E+00 -0.20998160838E+04  0.20998160838E+04  0.25500000920E-02 0.  1.
    10030    2    1    2    0    0  0.00000000000E+00  0.00000000000E+00 -0.38439263360E+03  0.38152395339E+04  0.37958259977E+04 0.  0.
        1    1    3    3  502    0 -0.18473804381E+04 -0.32687999746E+02  0.24383197058E+03  0.18636890884E+04  0.50400001928E-02 0. -1.
       -1    1    3    3    0  502  0.18473804381E+04  0.32687999746E+02 -0.62822460417E+03  0.19515504456E+04  0.50400001928E-02 0.  1.
</event>
<event>
 5   0  0.1628250E-08  0.3800160E+04  0.7818609E-02  0.8046121E-01
       -1   -1    0    0    0  501  0.00000000000E+00  0.00000000000E+00  0.19978289486E+04  0.19978289486E+04  0.50400001928E-02 0. -1.
        1   -1    0    0  501    0  0.00000000000E+00  0.00000000000E+00 -0.18071134197E+04  0.18071134197E+04  0.50400001928E-02 0.  1.
    10030    2    1    2    0    0  0.00000000000E+00  0.00000000000E+00  0.19071552885E+03  0.38049423683E+04  0.38001597352E+04 0.  0.
        4    1    3    3  502    0  0.58239268289E+03 -0.44569791872E+03 -0.16596956580E+04  0.18145024558E+04  0.12699999809E+01 0.  1.
       -4    1    3    3    0  502 -0.58239268289E+03  0.44569791872E+03  0.18504111869E+04  0.19904399125E+04  0.12699999809E+01 0. -1.
</event>
<event>
 5   0  0.1628250E-08  0.3794753E+04  0.7818609E-02  0.8047282E-01
        1   -1    0    0  501    0  0.00000000000E+00  0.00000000000E+00  0.13399876516E+04  0.13399876516E+04  0.50400001928E-02 0.  1.
       -1   -1    0    0    0  501  0.00000000000E+00  0.00000000000E+00 -0.26866201071E+04  0.26866201071E+04  0.50400001928E-02 0. -1.
    10030    2    1    2    0    0  0.00000000000E+00  0.00000000000E+00 -0.13466324555E+04  0.40266077587E+04  0.37947530977E+04 0.  0.
        5    1    3    3  502    0 -0.84724577250E+03 -0.12497857501E+04 -0.18925301666E+04  0.24210498429E+04  0.46999998093E+01 0. -1.
       -5    1    3    3    0  502  0.84724577250E+03  0.12497857501E+04  0.54589771107E+03  0.16055579158E+04  0.46999998093E+01 0.  1.
</event>
<event>
 5   0  0.1666051E-08  0.3806335E+04  0.7818609E-02  0.8044797E-01
        1   -1    0    0  501    0  0.00000000000E+00  0.00000000000E+00  0.20702587478E+04  0.20702587478E+04  0.50400001928E-02 0. -1.
       -1   -1    0    0    0  501  0.00000000000E+00  0.00000000000E+00 -0.17495626463E+04  0.17495626463E+04  0.50400001928E-02 0.  1.
    10030    2    1    2    0    0  0.00000000000E+00  0.00000000000E+00  0.32069610150E+03  0.38198213940E+04  0.38063354414E+04 0.  0.
        2    1    3    3  502    0 -0.18669426240E+04 -0.27520725096E+03 -0.87170463077E+02  0.18891300860E+04  0.25500000920E-02 0.  1.
       -2    1    3    3    0  502  0.18669426240E+04  0.27520725096E+03  0.40786656457E+03  0.19306913080E+04  0.25500000920E-02 0. -1.
</event>
<event>
 5   0  0.1628250E-08  0.3797942E+04  0.7818609E-02  0.8046597E-01
       -1   -1    0    0    0  501  0.00000000000E+00  0.00000000000E+00  0.23295514850E+04  0.23295514850E+04  0.50400001928E-02 0. -1.
        1   -1    0    0  501    0  0.00000000000E+00  0.00000000000E+00 -0.15479764798E+04  0.15479764798E+04  0.50400001928E-02 0.  1.
    10030    2    1    2    0    0  0.00000000000E+00  0.00000000000E+00  0.78157500526E+03  0.38775279648E+04  0.37979420255E+04 0.  0.
        4    1    3    3  502    0  0.69170676627E+03  0.17459472227E+04  0.67828984838E+03  0.19967144729E+04  0.12699999809E+01 0. -1.
       -4    1    3    3    0  502 -0.69170676627E+03 -0.17459472227E+04  0.10328515688E+03  0.18808134919E+04  0.12699999809E+01 0.  1.
</event>
<event>
 5   0  0.1628250E-08  0.3787495E+04  0.7818609E-02  0.8048844E-01
       -1   -1    0    0    0  501  0.00000000000E+00  0.00000000000E+00  0.14391432077E+04  0.14391432077E+04  0.50400001928E-02 0. -1.
        1   -1    0    0  501    0  0.00000000000E+00  0.00000000000E+00 -0.24919550089E+04  0.24919550089E+04  0.50400001928E-02 0.  1.
    10030    2    1    2    0    0  0.00000000000E+00  0.00000000000E+00 -0.10528118013E+04  0.39310982166E+04  0.37874952805E+04 0.  0.
        5    1    3    3  502    0  0.13061340241E+01  0.54885551622E+03 -0.24075861197E+04  0.24693596533E+04  0.46999998093E+01 0.  1.
       -5    1    3    3    0  502 -0.13061340241E+01 -0.54885551622E+03  0.13547743184E+04  0.14617385633E+04  0.46999998093E+01 0. -1.
</event>
<event>
 5   0  0.5140842E-08  0.3781850E+04  0.7818609E-02  0.8050061E-01
        2   -1    0    0  501    0  0.00000000000E+00  0.00000000000E+00  0.19905567514E+04  0.19905567514E+04  0.25500000920E-02 0.  1.
       -2   -1    0    0    0  501  0.00000000000E+00  0.00000000000E+00 -0.17962800753E+04  0.17962800753E+04  0.25500000920E-02 0. -1.
    10030    2    1    2    0    0  0.00000000000E+00  0.00000000000E+00  0.19427667609E+03  0.37868368266E+04  0.37818500400E+04 0.  0.
        2    1    3    3  502    0 -0.11666501063E+04  0.13025293044E+04  0.81776945086E+03  0.19303890629E+04  0.25500000920E-02 0.  1.
       -2    1    3    3    0  502  0.11666501063E+04 -0.13025293044E+04 -0.62349277477E+03  0.18564477638E+04  0.25500000920E-02 0. -1.
</event>
<event>
 5   0  0.1628250E-08  0.3800149E+04  0.7818609E-02  0.8046123E-01
       -1   -1    0    0    0  501  0.00000000000E+00  0.00000000000E+00  0.17129759000E+04  0.17129759000E+04  0.50400001928E-02 0. -1.
        1   -1    0    0  501    0  0.00000000000E+00  0.00000000000E+00 -0.21076093127E+04  0.21076093127E+04  0.50400001928E-02 0.  1.
    10030    2    1    2    0    0  0.00000000000E+00  0.00000000000E+00 -0.39463341267E+03  0.38205852128E+04  0.38001494494E+04 0.  0.
        1    1    3    3  502    0  0.12307165892E+04  0.13571004819E+04 -0.70391023691E+03  0.19626193372E+04  0.50400001928E-02 0.  1.
       -1    1    3    3    0  502 -0.12307165892E+04 -0.13571004819E+04  0.30927682424E+03  0.18579658756E+04  0.50400001928E-02 0. -1.
</event>
<event>
 5   0  0.1628250E-08  0.3800906E+04  0.7818609E-02  0.8045961E-01
       -1   -1    0    0    0  501  0.00000000000E+00  0.00000000000E+00  0.13483845594E+04  0.13483845594E+04  0.50400001928E-02 0.  1.
        1   -1    0    0  501    0  0.00000000000E+00  0.00000000000E+00 -0.26785543661E+04  0.26785543661E+04  0.50400001928E-02 0. -1.
    10030    2    1    2    0    0  0.00000000000E+00  0.00000000000E+00 -0.13301698067E+04  0.40269389256E+04  0.38009058651E+04 0.  0.
        1    1    3    3  502    0 -0.13291126293E+04  0.62112496773E+03  0.61480563873E+03  0.15906987711E+04  0.50400001928E-02 0.  1.
       -1    1    3    3    0  502  0.13291126293E+04 -0.62112496773E+03 -0.19449754455E+04  0.24362401545E+04  0.50400001928E-02 0. -1.
</event>
<event>
 5   0  0.1628250E-08  0.3778518E+04  0.7818609E-02  0.8050781E-01
       -1   -1    0    0    0  501  0.00000000000E+00  0.00000000000E+00  0.15697417294E+04  0.15697417294E+04  0.50400001928E-02 0. -1.
        1   -1    0    0  501    0  0.00000000000E+00  0.00000000000E+00 -0.22738134027E+04  0.22738134027E+04  0.50400001928E-02 0.  1.
    10030    2    1    2    0    0  0.00000000000E+00  0.00000000000E+00 -0.70407167328E+03  0.38435551321E+04  0.37785181133E+04 0.  0.
        1    1    3    3  502    0 -0.14034398274E+04  0.12066423035E+04 -0.73759927041E+03  0.19924060032E+04  0.50400001928E-02 0.  1.
       -1    1    3    3    0  502  0.14034398274E+04 -0.12066423035E+04  0.33527597125E+02  0.18511491289E+04  0.50400001928E-02 0. -1.
</event>
<event>
 5   0  0.5207474E-08  0.3805937E+04  0.7818609E-02  0.8044882E-01
        2   -1    0    0  501    0  0.00000000000E+00  0.00000000000E+00  0.15296363401E+04  0.15296363401E+04  0.25500000920E-02 0. -1.
       -2   -1    0    0    0  501  0.00000000000E+00  0.00000000000E+00 -0.23674184842E+04  0.23674184842E+04  0.25500000920E-02 0.  1.
    10030    2    1    2    0    0  0.00000000000E+00  0.00000000000E+00 -0.83778214409E+03  0.38970548243E+04  0.38059371228E+04 0.  0.
        4    1    3    3  502    0  0.18521265184E+04  0.34525131745E+03 -0.14468010873E+03  0.18895780108E+04  0.12699999809E+01 0.  1.
       -4    1    3    3    0  502 -0.18521265184E+04 -0.34525131745E+03 -0.69310203537E+03  0.20074768134E+04  0.12699999809E+01 0. -1.
</event>
<event>
 5   0  0.1628473E-08  0.3799380E+04  0.7818609E-02  0.8046288E-01
       -1   -1    0    0    0  501  0.00000000000E+00  0.00000000000E+00  0.17010972862E+04  0.17010972862E+04  0.50400001928E-02 0. -1.
        1   -1    0    0  501    0  0.00000000000E+00  0.00000000000E+00 -0.21214671225E+04  0.21214671225E+04  0.50400001928E-02 0.  1.
    10030    2    1    2    0    0  0.00000000000E+00  0.00000000000E+00 -0.42036983628E+03  0.38225644086E+04  0.37993799308E+04 0.  0.
        3    1    3    3  502    0  0.89633920007E+03  0.40345167002E+03  0.14253500578E+04  0.17314213840E+04  0.10100000352E+00 0. -1.
       -3    1    3    3    0  502 -0.89633920007E+03 -0.40345167002E+03 -0.18457198941E+04  0.20911430246E+04  0.10100000352E+00 0.  1.
</event>
<event>
 5   0  0.5207474E-08  0.3804539E+04  0.7818609E-02  0.8045181E-01
        2   -1    0    0  501    0  0.00000000000E+00  0.00000000000E+00  0.25751950819E+04  0.25751950819E+04  0.25500000920E-02 0. -1.
       -2   -1    0    0    0  501  0.00000000000E+00  0.00000000000E+00 -0.14051868097E+04  0.14051868097E+04  0.25500000920E-02 0.  1.
    10030    2    1    2    0    0  0.00000000000E+00  0.00000000000E+00  0.11700082722E+04  0.39803818917E+04  0.38045394789E+04 0.  0.
        4    1    3    3  502    0  0.12899670204E+04  0.13397446389E+04  0.16691170982E+03  0.18672953015E+04  0.12699999809E+01 0. -1.
       -4    1    3    3    0  502 -0.12899670204E+04 -0.13397446389E+04  0.10030965624E+04  0.21130865902E+04  0.12699999809E+01 0.  1.
</event>
<event>
 5   0  0.5086209E-08  0.3800918E+04  0.7818609E-02  0.8045958E-01
        2   -1    0    0  501    0  0.00000000000E+00  0.00000000000E+00  0.22659939192E+04  0.22659939192E+04  0.25500000920E-02 0. -1.
       -2   -1    0    0    0  501  0.00000000000E+00  0.00000000000E+00 -0.15938901089E+04  0.15938901089E+04  0.25500000920E-02 0.  1.
    10030    2    1    2    0    0  0.00000000000E+00  0.00000000000E+00  0.67210381026E+03  0.38598840281E+04  0.38009184651E+04 0.  0.
        3    1    3    3  502    0 -0.11315698497E+04 -0.48617186971E+03 -0.11337901015E+04  0.16740052020E+04  0.10100000352E+00 0.  1.
       -3    1    3    3    0  502  0.11315698497E+04  0.48617186971E+03  0.18058939118E+04  0.21858788261E+04  0.10100000352E+00 0. -1.
</event>
<event>
 5   0  0.5147582E-08  0.3815428E+04  0.7818609E-02  0.8042852E-01
       -2   -1    0    0    0  501  0.00000000000E+00  0.00000000000E+00  0.12491942355E+04  0.12491942355E+04  0.25500000920E-02 0.  1.
        2   -1    0    0  501    0  0.00000000000E+00  0.00000000000E+00 -0.29133755121E+04  0.29133755121E+04  0.25500000920E-02 0. -1.
    10030    2    1    2    0    0  0.00000000000E+00  0.00000000000E+00 -0.16641812765E+04  0.41625697476E+04  0.38154275753E+04 0.  0.
        1    1    3    3  502    0 -0.16007439723E+04  0.32256328380E+03 -0.19082141818E+04  0.25115154191E+04  0.50400001928E-02 0. -1.
       -1    1    3    3    0  502  0.16007439723E+04 -0.32256328380E+03  0.24403290526E+03  0.16510543285E+04  0.50400001928E-02 0.  1.
</event>
<event>
 5   0  0.5207474E-08  0.3800319E+04  0.7818609E-02  0.8046086E-01
       -2   -1    0    0    0  501  0.00000000000E+00  0.00000000000E+00  0.12577583585E+04  0.12577583585E+04  0.25500000920E-02 0. -1.
        2   -1    0    0  501    0  0.00000000000E+00  0.00000000000E+00 -0.28706675683E+04  0.28706675683E+04  0.25500000920E-02 0.  1.
    10030    2    1    2    0    0  0.00000000000E+00  0.00000000000E+00 -0.16129092098E+04  0.41284259268E+04  0.38003190016E+04 0.  0.
        4    1    3    3  502    0  0.17147871724E+04  0.75349395526E+03 -0.45890100393E+03  0.19284293951E+04  0.12699999809E+01 0. -1.
       -4    1    3    3    0  502 -0.17147871724E+04 -0.75349395526E+03 -0.11540082059E+04  0.21999965317E+04  0.12699999809E+01 0.  1.
</event>
<event>
 5   0  0.1628473E-08  0.3804700E+04  0.7818609E-02  0.8045147E-01
       -1   -1    0    0    0  501  0.00000000000E+00  0.00000000000E+00  0.24987572279E+04  0.24987572279E+04  0.50400001928E-02 0.  1.
        1   -1    0    0  501    0  0.00000000000E+00  0.00000000000E+00 -0.14482944596E+04  0.14482944597E+04  0.50400001928E-02 0. -1.
    10030    2    1    2    0    0  0.00000000000E+00  0.00000000000E+00  0.10504627683E+04  0.39470516876E+04  0.38047003820E+04 0.  0.
        3    1    3    3  502    0  0.27173817198E+03 -0.62821953981E+03  0.23665867031E+04  0.24635815509E+04  0.10100000352E+00 0.  1.
       -3    1    3    3    0  502 -0.27173817198E+03  0.62821953981E+03 -0.13161239349E+04  0.14834701367E+04  0.10100000352E+00 0. -1.
</event>
<event>
 5   0  0.5086209E-08  0.3801242E+04  0.7818609E-02  0.8045888E-01
       -2   -1    0    0    0  501  0.00000000000E+00  0.00000000000E+00  0.14766432570E+04  0.14766432570E+04  0.25500000920E-02 0. -1.
        2   -1    0    0  501    0  0.00000000000E+00  0.00000000000E+00 -0.24463326858E+04  0.24463326858E+04  0.25500000920E-02 0.  1.
    10030    2    1    2    0    0  0.00000000000E+00  0.00000000000E+00 -0.96968942882E+03  0.39229759428E+04  0.38012422521E+04 0.  0.
        3    1    3    3  502    0  0.14552432300E+04 -0.12026361408E+04 -0.25804778208E+03  0.19054278295E+04  0.10100000352E+00 0. -1.
       -3    1    3    3    0  502 -0.14552432300E+04  0.12026361408E+04 -0.71164164674E+03  0.20175481132E+04  0.10100000352E+00 0.  1.
</event>
<event>
 5   0  0.1628473E-08  0.3792043E+04  0.7818609E-02  0.8047865E-01
        1   -1    0    0  501    0  0.00000000000E+00  0.00000000000E+00  0.13529805274E+04  0.13529805274E+04  0.50400001928E-02 0. -1.
       -1   -1    0    0    0  501  0.00000000000E+00  0.00000000000E+00 -0.26570207807E+04  0.26570207807E+04  0.50400001928E-02 0.  1.
    10030    2    1    2    0    0  0.00000000000E+00  0.00000000000E+00 -0.13040402533E+04  0.40100013081E+04  0.37920429203E+04 0.  0.
        3    1    3    3  502    0  0.13613373041E+04 -0.12897816575E+04 -0.94758733120E+03  0.21011182118E+04  0.10100000352E+00 0. -1.
       -3    1    3    3    0  502 -0.13613373041E+04  0.12897816575E+04 -0.35645292206E+03  0.19088830963E+04  0.10100000352E+00 0.  1.
</event>
<event>
 5   0  0.5207474E-08  0.3791541E+04  0.7818609E-02  0.8047973E-01
       -2   -1    0    0    0  501  0.00000000000E+00  0.00000000000E+00  0.19611294482E+04  0.19611294482E+04  0.25500000920E-02 0. -1.
        2   -1    0    0  501    0  0.00000000000E+00  0.00000000000E+00 -0.18325894036E+04  0.18325894036E+04  0.25500000920E-02 0.  1.
    10030    2    1    2    0    0  0.00000000000E+00  0.00000000000E+00  0.12854004459E+03  0.37937188518E+04  0.37915406081E+04 0.  0.
        4    1    3    3  502    0  0.23293880145E+03 -0.16797612253E+04  0.91215591781E+03  0.19255877779E+04  0.12699999809E+01 0. -1.
       -4    1    3    3    0  502 -0.23293880145E+03  0.16797612253E+04 -0.78361587322E+03  0.18681310738E+04  0.12699999809E+01 0.  1.
</event>
<event>
 5   0  0.5140842E-08  0.3754791E+04  0.7818609E-02  0.8055927E-01
        2   -1    0    0  501    0  0.00000000000E+00  0.00000000000E+00  0.23030124215E+04  0.23030124215E+04  0.25500000920E-02 0. -1.
       -2   -1    0    0    0  501  0.00000000000E+00  0.00000000000E+00 -0.15304363998E+04  0.15304363998E+04  0.25500000920E-02 0.  1.
    10030    2    1    2    0    0  0.00000000000E+00  0.00000000000E+00  0.77257602171E+03  0.38334488213E+04  0.37547910935E+04 0.  0.
        2    1    3    3  502    0 -0.11329640451E+04  0.14110476920E+04 -0.12413619592E+03  0.18138558133E+04  0.25500000920E-02 0. -1.
       -2    1    3    3    0  502  0.11329640451E+04 -0.14110476920E+04  0.89671221762E+03  0.20195930079E+04  0.25500000920E-02 0.  1.
</event>
<event>
 5   0  0.5147582E-08  0.3803864E+04  0.7818609E-02  0.8045326E-01
       -2   -1    0    0    0  501  0.00000000000E+00  0.00000000000E+00  0.12799056926E+04  0.12799056926E+04  0.25500000920E-02 0. -1.
        2   -1    0    0  501    0  0.00000000000E+00  0.00000000000E+00 -0.28262588223E+04  0.28262588223E+04  0.25500000920E-02 0.  1.
    10030    2    1    2    0    0  0.00000000000E+00  0.00000000000E+00 -0.15463531297E+04  0.41061645150E+04  0.38038636966E+04 0.  0.
        1    1    3    3  502    0 -0.13806341700E+04  0.11727692006E+04 -0.14763537283E+03  0.18175077751E+04  0.50400001928E-02 0. -1.
       -1    1    3    3    0  502  0.13806341700E+04 -0.11727692006E+04 -0.13987177569E+04  0.22886567398E+04  0.50400001928E-02 0.  1.
</event>
<event>
 5   0  0.5086209E-08  0.3797785E+04  0.7818609E-02  0.8046630E-01
        2   -1    0    0  501    0  0.00000000000E+00  0.00000000000E+00  0.12052274064E+04  0.12052274064E+04  0.25500000920E-02 0. -1.
       -2   -1    0    0    0  501  0.00000000000E+00  0.00000000000E+00 -0.29917939717E+04  0.29917939717E+04  0.25500000920E-02 0.  1.
    10030    2    1    2    0    0  0.00000000000E+00  0.00000000000E+00 -0.17865665653E+04  0.41970213781E+04  0.37977846642E+04 0.  0.
        3    1    3    3  502    0  0.13856526472E+03 -0.16901752393E+04 -0.18374362234E+04  0.25004128774E+04  0.10100000352E+00 0.  1.
       -3    1    3    3    0  502 -0.13856526472E+03  0.16901752393E+04  0.50869658138E+02  0.16966085007E+04  0.10100000352E+00 0. -1.
</event>
<event>
 5   0  0.5140842E-08  0.3795086E+04  0.7818609E-02  0.8047210E-01
       -2   -1    0    0    0  501  0.00000000000E+00  0.00000000000E+00  0.16336566619E+04  0.16336566619E+04  0.25500000920E-02 0. -1.
        2   -1    0    0  501    0  0.00000000000E+00  0.00000000000E+00 -0.22040549686E+04  0.22040549686E+04  0.25500000920E-02 0.  1.
    10030    2    1    2    0    0  0.00000000000E+00  0.00000000000E+00 -0.57039830668E+03  0.38377116305E+04  0.37950858133E+04 0.  0.
        2    1    3    3  502    0  0.11094640199E+04  0.55590145011E+03  0.11664495202E+04  0.17030975653E+04  0.25500000920E-02 0. -1.
       -2    1    3    3    0  502 -0.11094640199E+04 -0.55590145011E+03 -0.17368478268E+04  0.21346140652E+04  0.25500000920E-02 0.  1.
</event>
<event>
 5   0  0.1666051E-08  0.3802731E+04  0.7818609E-02  0.8045569E-01
       -1   -1    0    0    0  501  0.00000000000E+00  0.00000000000E+00  0.14799679031E+04  0.14799679031E+04  0.50400001928E-02 0. -1.
        1   -1    0    0  501    0  0.00000000000E+00  0.00000000000E+00 -0.24427488142E+04  0.24427488142E+04  0.50400001928E-02 0.  1.
    10030    2    1    2    0    0  0.00000000000E+00  0.00000000000E+00 -0.96278091113E+03  0.39227167174E+04  0.38027305140E+04 0.  0.
        2    1    3    3  502    0  0.88156164892E+03 -0.19094795835E+03  0.12452135280E+04  0.15375853778E+04  0.25500000920E-02 0. -1.
       -2    1    3    3    0  502 -0.88156164892E+03  0.19094795835E+03 -0.22079944391E+04  0.23851313396E+04  0.25500000920E-02 0.  1.
</event>
<event>
 5   0  0.1666051E-08  0.3804188E+04  0.7818609E-02  0.8045257E-01
        1   -1    0    0  501    0  0.00000000000E+00  0.00000000000E+00  0.17428447371E+04  0.17428447371E+04  0.50400001928E-02 0. -1.
       -1   -1    0    0    0  501  0.00000000000E+00  0.00000000000E+00 -0.20758948186E+04  0.20758948186E+04  0.50400001928E-02 0.  1.
    10030    2    1    2    0    0  0.00000000000E+00  0.00000000000E+00 -0.33305008149E+03  0.38187395556E+04  0.38041884071E+04 0.  0.
        2    1    3    3  502    0 -0.66546787118E+03 -0.32709198341E+03  0.15917815205E+04  0.17560196645E+04  0.25500000920E-02 0. -1.
       -2    1    3    3    0  502  0.66546787118E+03  0.32709198341E+03 -0.19248316020E+04  0.20627198911E+04  0.25500000920E-02 0.  1.
</event>
<event>
 5   0  0.1628250E-08  0.3801272E+04  0.7818609E-02  0.8045882E-01
       -1   -1    0    0    0  501  0.00000000000E+00  0.00000000000E+00  0.14960956818E+04  0.14960956818E+04  0.50400001928E-02 0. -1.
        1   -1    0    0  501    0  0.00000000000E+00  0.00000000000E+00 -0.24145624776E+04  0.24145624776E+04  0.50400001928E-02 0.  1.
    10030    2    1    2    0    0  0.00000000000E+00  0.00000000000E+00 -0.91846679578E+03  0.39106581594E+04  0.38012716273E+04 0.  0.
        4    1    3    3  502    0  0.13089072717E+03 -0.53605524667E+03 -0.23303417060E+04  0.23947821800E+04  0.12699999809E+01 0.  1.
       -4    1    3    3    0  502 -0.13089072717E+03  0.53605524667E+03  0.14118749102E+04  0.15158759794E+04  0.12699999809E+01 0. -1.
</event>
<event>
 5   0  0.1628250E-08  0.3812073E+04  0.7818609E-02  0.8043569E-01
        1   -1    0    0  501    0  0.00000000000E+00  0.00000000000E+00  0.21656951807E+04  0.21656951807E+04  0.50400001928E-02 0. -1.
       -1   -1    0    0    0  501  0.00000000000E+00  0.00000000000E+00 -0.16775102906E+04  0.16775102906E+04  0.50400001928E-02 0.  1.
    10030    2    1    2    0    0  0.00000000000E+00  0.00000000000E+00  0.48818489017E+03  0.38432054713E+04  0.38120734263E+04 0.  0.
        5    1    3    3  502    0 -0.83757368195E+02  0.62661225959E+03  0.20569139948E+04  0.21518772020E+04  0.46999998093E+01 0. -1.
       -5    1    3    3    0  502  0.83757368195E+02 -0.62661225959E+03 -0.15687291047E+04  0.16913282693E+04  0.46999998093E+01 0.  1.
</event>
<event>
 5   0  0.1628250E-08  0.3804052E+04  0.7818609E-02  0.8045286E-01
        1   -1    0    0  501    0  0.00000000000E+00  0.00000000000E+00  0.21796199824E+04  0.21796199824E+04  0.50400001928E-02 0.  1.
       -1   -1    0    0    0  501  0.00000000000E+00  0.00000000000E+00 -0.16597864462E+04  0.16597864462E+04  0.50400001928E-02 0. -1.
    10030    2    1    2    0    0  0.00000000000E+00  0.00000000000E+00  0.51983353615E+03  0.38394064286E+04  0.38040524206E+04 0.  0.
        5    1    3    3  502    0  0.34825288300E+03 -0.12857409630E+04 -0.11103725581E+04  0.17341739250E+04  0.46999998093E+01 0. -1.
       -5    1    3    3    0  502 -0.34825288300E+03  0.12857409630E+04  0.16302060942E+04  0.21052325036E+04  0.46999998093E+01 0.  1.
</event>
<event>
 5   0  0.5086209E-08  0.3787359E+04  0.7818609E-02  0.8048873E-01
       -2   -1    0    0    0  501  0.00000000000E+00  0.00000000000E+00  0.15907165007E+04  0.15907165007E+04  0.25500000920E-02 0. -1.
        2   -1    0    0  501    0  0.00000000000E+00  0.00000000000E+00 -0.22543437334E+04  0.22543437334E+04  0.25500000920E-02 0.  1.
    10030    2    1    2    0    0  0.00000000000E+00  0.00000000000E+00 -0.66362723267E+03  0.38450602341E+04  0.37873588555E+04 0.  0.
        3    1    3    3  502    0 -0.69766006622E+03  0.10913470145E+04 -0.17342551628E+04  0.21645805261E+04  0.10100000352E+00 0.  1.
       -3    1    3    3    0  502  0.69766006622E+03 -0.10913470145E+04  0.10706279301E+04  0.16804797080E+04  0.10100000352E+00 0. -1.
</event>
<event>
 5   0  0.5086209E-08  0.3797810E+04  0.7818609E-02  0.8046625E-01
        2   -1    0    0  501    0  0.00000000000E+00  0.00000000000E+00  0.18446761550E+04  0.18446761550E+04  0.25500000920E-02 0.  1.
       -2   -1    0    0    0  501  0.00000000000E+00  0.00000000000E+00 -0.19547283449E+04  0.19547283449E+04  0.25500000920E-02 0. -1.
    10030    2    1    2    0    0  0.00000000000E+00  0.00000000000E+00 -0.11005218989E+03  0.37994044999E+04  0.37978102993E+04 0.  0.
        3    1    3    3  502    0  0.62566253455E+02  0.27433129797E+03 -0.19337570361E+04  0.19541208975E+04  0.10100000352E+00 0. -1.
       -3    1    3    3    0  502 -0.62566253455E+02 -0.27433129797E+03  0.18237048462E+04  0.18452836024E+04  0.10100000352E+00 0.  1.
</event>
<event>
 5   0  0.1628250E-08  0.3803950E+04  0.7818609E-02  0.8045308E-01
        3   -1    0    0  501    0  0.00000000000E+00  0.00000000000E+00  0.22305094964E+04  0.22305094987E+04  0.10100000352E+00 0. -1.
       -3   -1    0    0    0  501  0.00000000000E+00  0.00000000000E+00 -0.16218305505E+04  0.16218305537E+04  0.10100000352E+00 0.  1.
    10030    2    1    2    0    0  0.00000000000E+00  0.00000000000E+00  0.60867894584E+03  0.38523400523E+04  0.38039497657E+04 0.  0.
        3    1    3    3  502    0 -0.52729919361E+03  0.18010348433E+04 -0.90113792585E+01  0.18766598418E+04  0.10100000352E+00 0. -1.
       -3    1    3    3    0  502  0.52729919361E+03 -0.18010348433E+04  0.61769032510E+03  0.19756802106E+04  0.10100000352E+00 0.  1.
</event>
<event>
 5   0  0.5147582E-08  0.3800838E+04  0.7818609E-02  0.8045975E-01
        2   -1    0    0  501    0  0.00000000000E+00  0.00000000000E+00  0.22938638592E+04  0.22938638592E+04  0.25500000920E-02 0. -1.
       -2   -1    0    0    0  501  0.00000000000E+00  0.00000000000E+00 -0.15744580979E+04  0.15744580979E+04  0.25500000920E-02 0.  1.
    10030    2    1    2    0    0  0.00000000000E+00  0.00000000000E+00  0.71940576130E+03  0.38683219571E+04  0.38008380806E+04 0.  0.
        1    1    3    3  502    0 -0.78142248756E+02 -0.18180784646E+04 -0.19781603809E+03  0.18304771780E+04  0.50400001928E-02 0.  1.
       -1    1    3    3    0  502  0.78142248756E+02  0.18180784646E+04  0.91722179940E+03  0.20378447791E+04  0.50400001928E-02 0. -1.
</event>
<event>
 5   0  0.1666051E-08  0.3800074E+04  0.7818609E-02  0.8046139E-01
       -1   -1    0    0    0  501  0.00000000000E+00  0.00000000000E+00  0.24098664927E+04  0.24098664927E+04  0.50400001928E-02 0. -1.
        1   -1    0    0  501    0  0.00000000000E+00  0.00000000000E+00 -0.14980666825E+04  0.14980666825E+04  0.50400001928E-02 0.  1.
    10030    2    1    2    0    0  0.00000000000E+00  0.00000000000E+00  0.91179981022E+03  0.39079331752E+04  0.38000740529E+04 0.  0.
        2    1    3    3  502    0 -0.76351932671E+03 -0.94699313061E+03 -0.10451112082E+04  0.16037503513E+04  0.25500000920E-02 0.  1.
       -2    1    3    3    0  502  0.76351932671E+03  0.94699313061E+03  0.19569110184E+04  0.23041828239E+04  0.25500000920E-02 0. -1.
</event>
<event>
 5   0  0.5086209E-08  0.3796874E+04  0.7818609E-02  0.8046826E-01
       -2   -1    0    0    0  501  0.00000000000E+00  0.00000000000E+00  0.13373471559E+04  0.13373471559E+04  0.25500000920E-02 0.  1.
        2   -1    0    0  501    0  0.00000000000E+00  0.00000000000E+00 -0.26949339414E+04  0.26949339414E+04  0.25500000920E-02 0. -1.
    10030    2    1    2    0    0  0.00000000000E+00  0.00000000000E+00 -0.13575867855E+04  0.40322810974E+04  0.37968735781E+04 0.  0.
        3    1    3    3  502    0 -0.49419618765E+03  0.11076285390E+04  0.87223308962E+03  0.14939415736E+04  0.10100000352E+00 0.  1.
       -3    1    3    3    0  502  0.49419618765E+03 -0.11076285390E+04 -0.22298198751E+04  0.25383395238E+04  0.10100000352E+00 0. -1.
</event>
<event>
 5   0  0.5207474E-08  0.3783867E+04  0.7818609E-02  0.8049626E-01
       -2   -1    0    0    0  501  0.00000000000E+00  0.00000000000E+00  0.30898628201E+04  0.30898628201E+04  0.25500000920E-02 0.  1.
        2   -1    0    0  501    0  0.00000000000E+00  0.00000000000E+00 -0.11584372483E+04  0.11584372483E+04  0.25500000920E-02 0. -1.
    10030    2    1    2    0    0  0.00000000000E+00  0.00000000000E+00  0.19314255719E+04  0.42483000684E+04  0.37838669019E+04 0.  0.
        4    1    3    3  502    0  0.60198937280E+02 -0.13066108638E+04  0.25004437022E+04  0.28218923052E+04  0.12699999809E+01 0.  1.
       -4    1    3    3    0  502 -0.60198937280E+02  0.13066108638E+04 -0.56901813027E+03  0.14264077632E+04  0.12699999809E+01 0. -1.
</event>
<event>
 5   0  0.5159761E-08  0.3791156E+04  0.7818609E-02  0.8048055E-01
        2   -1    0    0  501    0  0.00000000000E+00  0.00000000000E+00  0.18566932973E+04  0.18566932973E+04  0.25500000920E-02 0.  1.
       -2   -1    0    0    0  501  0.00000000000E+00  0.00000000000E+00 -0.19352773042E+04  0.19352773042E+04  0.25500000920E-02 0. -1.
    10030    2    1    2    0    0  0.00000000000E+00  0.00000000000E+00 -0.78584006930E+02  0.37919706016E+04  0.37911562348E+04 0.  0.
        5    1    3    3  502    0  0.13486583310E+04  0.12670988688E+04 -0.45020317200E+03  0.19045009380E+04  0.46999998093E+01 0. -1.
       -5    1    3    3    0  502 -0.13486583310E+04 -0.12670988688E+04  0.37161916507E+03  0.18874696635E+04  0.46999998093E+01 0.  1.
</event>
<event>
 5   0  0.1628250E-08  0.3794525E+04  0.7818609E-02  0.8047331E-01
       -1   -1    0    0    0  501  0.00000000000E+00  0.00000000000E+00  0.22878044771E+04  0.22878044771E+04  0.50400001928E-02 0.  1.
        1   -1    0    0  501    0  0.00000000000E+00  0.00000000000E+00 -0.15733882873E+04  0.15733882874E+04  0.50400001928E-02 0. -1.
    10030    2    1    2    0    0  0.00000000000E+00  0.00000000000E+00  0.71441618980E+03  0.38611927645E+04  0.37945248810E+04 0.  0.
        1    1    3    3  502    0  0.13665216536E+03  0.18866441994E+04  0.50642909655E+03  0.19582059594E+04  0.50400001928E-02 0.  1.
       -1    1    3    3    0  502 -0.13665216536E+03 -0.18866441994E+04  0.20798709325E+03  0.19029868051E+04  0.50400001928E-02 0. -1.
</event>
<event>
 5   0  0.1628473E-08  0.3823756E+04  0.7818609E-02  0.8041076E-01
       -1   -1    0    0    0  501  0.00000000000E+00  0.00000000000E+00  0.17799001015E+04  0.17799001015E+04  0.50400001928E-02 0. -1.
        1   -1    0    0  501    0  0.00000000000E+00  0.00000000000E+00 -0.20536421797E+04  0.20536421797E+04  0.50400001928E-02 0.  1.
    10030    2    1    2    0    0  0.00000000000E+00  0.00000000000E+00 -0.27374207813E+03  0.38335422812E+04  0.38237562287E+04 0.  0.
        3    1    3    3  502    0  0.10996362466E+04  0.91186281635E+03 -0.14107859327E+04  0.20077376892E+04  0.10100000352E+00 0.  1.
       -3    1    3    3    0  502 -0.10996362466E+04 -0.91186281635E+03  0.11370438545E+04  0.18258045920E+04  0.10100000352E+00 0. -1.
</event>
<event>
 5   0  0.1628250E-08  0.3797989E+04  0.7818609E-02  0.8046587E-01
        1   -1    0    0  501    0  0.00000000000E+00  0.00000000000E+00  0.21352540710E+04  0.21352540710E+04  0.50400001928E-02 0.  1.
       -1   -1    0    0    0  501  0.00000000000E+00  0.00000000000E+00 -0.16888759358E+04  0.16888759358E+04  0.50400001928E-02 0. -1.
    10030    2    1    2    0    0  0.00000000000E+00  0.00000000000E+00  0.44637813519E+03  0.38241300067E+04  0.37979885293E+04 0.  0.
        4    1    3    3  502    0  0.10169139208E+04  0.10668840048E+04  0.14288540575E+04  0.20527983176E+04  0.12699999809E+01 0.  1.
       -4    1    3    3    0  502 -0.10169139208E+04 -0.10668840048E+04 -0.98247592232E+03  0.17713316891E+04  0.12699999809E+01 0. -1.
</event>
<event>
 5   0  0.1628250E-08  0.3811935E+04  0.7818609E-02  0.8043599E-01
       -1   -1    0    0    0  501  0.00000000000E+00  0.00000000000E+00  0.24148932789E+04  0.24148932789E+04  0.50400001928E-02 0. -1.
        1   -1    0    0  501    0  0.00000000000E+00  0.00000000000E+00 -0.15042949422E+04  0.15042949423E+04  0.50400001928E-02 0.  1.
    10030    2    1    2    0    0  0.00000000000E+00  0.00000000000E+00  0.91059833665E+03  0.39191882211E+04  0.38119348082E+04 0.  0.
        5    1    3    3  502    0 -0.71344266298E+02  0.68380134767E+03 -0.13723601871E+04  0.15349491394E+04  0.46999998093E+01 0.  1.
       -5    1    3    3    0  502  0.71344266298E+02 -0.68380134767E+03  0.22829585238E+04  0.23842390817E+04  0.46999998093E+01 0. -1.
</event>
<event>
 5   0  0.5086209E-08  0.3799949E+04  0.7818609E-02  0.8046166E-01
        2   -1    0    0  501    0  0.00000000000E+00  0.00000000000E+00  0.25556153620E+04  0.25556153620E+04  0.25500000920E-02 0.  1.
       -2   -1    0    0    0  501  0.00000000000E+00  0.00000000000E+00 -0.14125379152E+04  0.14125379152E+04  0.25500000920E-02 0. -1.
    10030    2    1    2    0    0  0.00000000000E+00  0.00000000000E+00  0.11430774468E+04  0.39681532772E+04  0.37999492604E+04 0.  0.
        3    1    3    3  502    0 -0.15372690502E+04 -0.84251763818E+03  0.13366873607E+04  0.22044875173E+04  0.10100000352E+00 0.  1.
       -3    1    3    3    0  502  0.15372690502E+04  0.84251763818E+03 -0.19360991393E+03  0.17636657598E+04  0.10100000352E+00 0. -1.
</event>
<event>
 5   0  0.1666051E-08  0.3807149E+04  0.7818609E-02  0.8044623E-01
        1   -1    0    0  501    0  0.00000000000E+00  0.00000000000E+00  0.20751833994E+04  0.20751833994E+04  0.50400001928E-02 0.  1.
       -1   -1    0    0    0  501  0.00000000000E+00  0.00000000000E+00 -0.17461565270E+04  0.17461565270E+04  0.50400001928E-02 0. -1.
    10030    2    1    2    0    0  0.00000000000E+00  0.00000000000E+00  0.32902687240E+03  0.38213399265E+04  0.38071485591E+04 0.  0.
        2    1    3    3  502    0  0.48900560721E+03 -0.89632258924E+03 -0.14480473975E+04  0.17718244646E+04  0.25500000920E-02 0. -1.
       -2    1    3    3    0  502 -0.48900560721E+03  0.89632258924E+03  0.17770742699E+04  0.20495154619E+04  0.25500000920E-02 0.  1.
</event>
<event>
 5   0  0.1628250E-08  0.3783705E+04  0.7818609E-02  0.8049661E-01
        1   -1    0    0  501    0  0.00000000000E+00  0.00000000000E+00  0.16945878622E+04  0.16945878622E+04  0.50400001928E-02 0.  1.
       -1   -1    0    0    0  501  0.00000000000E+00  0.00000000000E+00 -0.21120800181E+04  0.21120800181E+04  0.50400001928E-02 0. -1.
    10030    2    1    2    0    0  0.00000000000E+00  0.00000000000E+00 -0.41749215595E+03  0.38066678803E+04  0.37837046199E+04 0.  0.
        4    1    3    3  502    0 -0.85139151830E+03  0.15163513112E+04 -0.95819301737E+03  0.19855287174E+04  0.12699999809E+01 0. -1.
       -4    1    3    3    0  502  0.85139151830E+03 -0.15163513112E+04  0.54070086142E+03  0.18211391629E+04  0.12699999809E+01 0.  1.
</event>
<event>
 5   0  0.1628473E-08  0.3807280E+04  0.7818609E-02  0.8044594E-01
        1   -1    0    0  501    0  0.00000000000E+00  0.00000000000E+00  0.26410624928E+04  0.26410624929E+04  0.50400001928E-02 0. -1.
       -1   -1    0    0    0  501  0.00000000000E+00  0.00000000000E+00 -0.13721162758E+04  0.13721162758E+04  0.50400001928E-02 0.  1.
    10030    2    1    2    0    0  0.00000000000E+00  0.00000000000E+00  0.12689462171E+04  0.40131787686E+04  0.38072797805E+04 0.  0.
        3    1    3    3  502    0  0.14267250952E+04 -0.64415892343E+01  0.19628898887E+04  0.24266278489E+04  0.10100000352E+00 0. -1.
       -3    1    3    3    0  502 -0.14267250952E+04  0.64415892343E+01 -0.69394367162E+03  0.15865509198E+04  0.10100000352E+00 0.  1.
</event>
<event>
 5   0  0.1628250E-08  0.3799898E+04  0.7818609E-02  0.8046177E-01
        1   -1    0    0  501    0  0.00000000000E+00  0.00000000000E+00  0.24202520262E+04  0.24202520262E+04  0.50400001928E-02 0.  1.
       -1   -1    0    0    0  501  0.00000000000E+00  0.00000000000E+00 -0.14915004081E+04  0.14915004081E+04  0.50400001928E-02 0. -1.
    10030    2    1    2    0    0  0.00000000000E+00  0.00000000000E+00  0.92875161808E+03  0.39117524343E+04  0.37998983591E+04 0.  0.
        4    1    3    3  502    0 -0.13621444366E+04 -0.89790032275E+03 -0.53801311861E+03  0.17178830532E+04  0.12699999809E+01 0. -1.
       -4    1    3    3    0  502  0.13621444366E+04  0.89790032275E+03  0.14667647367E+04  0.21938693811E+04  0.12699999809E+01 0.  1.
</event>
<event>
 5   0  0.5140842E-08  0.3799169E+04  0.7818609E-02  0.8046333E-01
       -2   -1    0    0    0  501  0.00000000000E+00  0.00000000000E+00  0.17644931366E+04  0.17644931366E+04  0.25500000920E-02 0.  1.
        2   -1    0    0  501    0  0.00000000000E+00  0.00000000000E+00 -0.20450184207E+04  0.20450184207E+04  0.25500000920E-02 0. -1.
    10030    2    1    2    0    0  0.00000000000E+00  0.00000000000E+00 -0.28052528404E+03  0.38095115573E+04  0.37991688394E+04 0.  0.
        2    1    3    3  502    0  0.42027388896E+03 -0.90827397183E+03 -0.17592258937E+04  0.20239731951E+04  0.25500000920E-02 0. -1.
       -2    1    3    3    0  502 -0.42027388896E+03  0.90827397183E+03  0.14787006097E+04  0.17855383621E+04  0.25500000920E-02 0.  1.
</event>
<event>
 5   0  0.5159761E-08  0.3801347E+04  0.7818609E-02  0.8045866E-01
        2   -1    0    0  501    0  0.00000000000E+00  0.00000000000E+00  0.19298649406E+04  0.19298649406E+04  0.25500000920E-02 0.  1.
       -2   -1    0    0    0  501  0.00000000000E+00  0.00000000000E+00 -0.18719232674E+04  0.18719232674E+04  0.25500000920E-02 0. -1.
    10030    2    1    2    0    0  0.00000000000E+00  0.00000000000E+00  0.57941673210E+02  0.38017882080E+04  0.38013466484E+04 0.  0.
        5    1    3    3  502    0  0.73383871264E+03 -0.61205933173E+03 -0.16142054376E+04  0.18758510512E+04  0.46999998093E+01 0. -1.
       -5    1    3    3    0  502 -0.73383871264E+03  0.61205933173E+03  0.16721471108E+04  0.19259371568E+04  0.46999998093E+01 0.  1.
</event>
<event>
 5   0  0.5086209E-08  0.3787563E+04  0.7818609E-02  0.8048829E-01
       -2   -1    0    0    0  501  0.00000000000E+00  0.00000000000E+00  0.19129620417E+04  0.19129620417E+04  0.25500000920E-02 0.  1.
        2   -1    0    0  501    0  0.00000000000E+00  0.00000000000E+00 -0.18747936094E+04  0.18747936094E+04  0.25500000920E-02 0. -1.
    10030    2    1    2    0    0  0.00000000000E+00  0.00000000000E+00  0.38168432242E+02  0.37877556511E+04  0.37875633385E+04 0.  0.
        3    1    3    3  502    0  0.96220553983E+03 -0.37992257491E+03 -0.15672587055E+04  0.18778925752E+04  0.10100000352E+00 0. -1.
       -3    1    3    3    0  502 -0.96220553983E+03  0.37992257491E+03  0.16054271377E+04  0.19098630759E+04  0.10100000352E+00 0.  1.
</event>
<event>
 5   0  0.5159761E-08  0.3798388E+04  0.7818609E-02  0.8046501E-01
        2   -1    0    0  501    0  0.00000000000E+00  0.00000000000E+00  0.12972205401E+04  0.12972205401E+04  0.25500000920E-02 0. -1.
       -2   -1    0    0    0  501  0.00000000000E+00  0.00000000000E+00 -0.27805121385E+04  0.27805121385E+04  0.25500000920E-02 0.  1.
    10030    2    1    2    0    0  0.00000000000E+00  0.00000000000E+00 -0.14832915984E+04  0.40777326785E+04  0.37983877937E+04 0.  0.
        5    1    3    3  502    0 -0.18861047011E+04 -0.16080691020E+03 -0.90679552736E+03  0.20989402145E+04  0.46999998093E+01 0.  1.
       -5    1    3    3    0  502  0.18861047011E+04  0.16080691020E+03 -0.57649607103E+03  0.19787924640E+04  0.46999998093E+01 0. -1.
</event>
<event>
 5   0  0.1628250E-08  0.3818100E+04  0.7818609E-02  0.8042282E-01
        1   -1    0    0  501    0  0.00000000000E+00  0.00000000000E+00  0.28339264750E+04  0.28339264750E+04  0.50400001928E-02 0.  1.
       -1   -1    0    0    0  501  0.00000000000E+00  0.00000000000E+00 -0.12860152978E+04  0.12860152979E+04  0.50400001928E-02 0. -1.
    10030    2    1    2    0    0  0.00000000000E+00  0.00000000000E+00  0.15479111771E+04  0.41199417729E+04  0.38181004700E+04 0.  0.
        4    1    3    3  502    0  0.12418865485E+04  0.11031358809E+04 -0.24132037691E+03  0.16785196181E+04  0.12699999809E+01 0. -1.
       -4    1    3    3    0  502 -0.12418865485E+04 -0.11031358809E+04  0.17892315541E+04  0.24414221548E+04  0.12699999809E+01 0.  1.
</event>
<event>
 5   0  0.1628250E-08  0.3795591E+04  0.7818609E-02  0.8047102E-01
       -1   -1    0    0    0  501  0.00000000000E+00  0.00000000000E+00  0.19696352042E+04  0.19696352042E+04  0.50400001928E-02 0.  1.
        1   -1    0    0  501    0  0.00000000000E+00  0.00000000000E+00 -0.18285758659E+04  0.18285758659E+04  0.50400001928E-02 0. -1.
    10030    2    1    2    0    0  0.00000000000E+00  0.00000000000E+00  0.14105933824E+03  0.37982110701E+04  0.37955908099E+04 0.  0.
        5    1    3    3  502    0 -0.69579602157E+03 -0.99870228754E+03  0.15275798069E+04  0.19532179907E+04  0.46999998093E+01 0.  1.
       -5    1    3    3    0  502  0.69579602157E+03  0.99870228754E+03 -0.13865204687E+04  0.18449930794E+04  0.46999998093E+01 0. -1.
</event>
<event>
 5   0  0.1628473E-08  0.3787066E+04  0.7818609E-02  0.8048936E-01
       -1   -1    0    0    0  501  0.00000000000E+00  0.00000000000E+00  0.15101831909E+04  0.15101831909E+04  0.50400001928E-02 0. -1.
        1   -1    0    0  501    0  0.00000000000E+00  0.00000000000E+00 -0.23741941916E+04  0.23741941916E+04  0.50400001928E-02 0.  1.
    10030    2    1    2    0    0  0.00000000000E+00  0.00000000000E+00 -0.86401100070E+03  0.38843773824E+04  0.37870664953E+04 0.  0.
        3    1    3    3  502    0  0.62138439007E+03 -0.14763342168E+04  0.60378802964E+03  0.17117947526E+04  0.10100000352E+00 0. -1.
       -3    1    3    3    0  502 -0.62138439007E+03  0.14763342168E+04 -0.14677990303E+04  0.21725826299E+04  0.10100000352E+00 0.  1.
</event>
<event>
 5   0  0.1628250E-08  0.3799153E+04  0.7818609E-02  0.8046337E-01
       -1   -1    0    0    0  501  0.00000000000E+00  0.00000000000E+00  0.17033152428E+04  0.17033152428E+04  0.50400001928E-02 0.  1.
        1   -1    0    0  501    0  0.00000000000E+00  0.00000000000E+00 -0.21184516621E+04  0.21184516621E+04  0.50400001928E-02 0. -1.
    10030    2    1    2    0    0  0.00000000000E+00  0.00000000000E+00 -0.41513641930E+03  0.38217669048E+04  0.37991530672E+04 0.  0.
        5    1    3    3  502    0 -0.12995788864E+03 -0.17532263367E+04  0.51621241787E+03  0.18322633519E+04  0.46999998093E+01 0.  1.
       -5    1    3    3    0  502  0.12995788864E+03  0.17532263367E+04 -0.93134883717E+03  0.19895035529E+04  0.46999998093E+01 0. -1.
</event>
<event>
 5   0  0.5140842E-08  0.3797610E+04  0.7818609E-02  0.8046668E-01
        2   -1    0    0  501    0  0.00000000000E+00  0.00000000000E+00  0.15669557569E+04  0.15669557569E+04  0.25500000920E-02 0.  1.
       -2   -1    0    0    0  501  0.00000000000E+00  0.00000000000E+00 -0.23009332185E+04  0.23009332185E+04  0.25500000920E-02 0. -1.
    10030    2    1    2    0    0  0.00000000000E+00  0.00000000000E+00 -0.73397746160E+03  0.38678889753E+04  0.37976100657E+04 0.  0.
        2    1    3    3  502    0  0.11972664534E+03 -0.14533457966E+04  0.87162191289E+03  0.16989035385E+04  0.25500000920E-02 0.  1.
       -2    1    3    3    0  502 -0.11972664534E+03  0.14533457966E+04 -0.16055993745E+04  0.21689854369E+04  0.25500000920E-02 0. -1.
</event>
<event>
 5   0  0.5086209E-08  0.3791725E+04  0.7818609E-02  0.8047933E-01
       -2   -1    0    0    0  501  0.00000000000E+00  0.00000000000E+00  0.18114182727E+04  0.18114182727E+04  0.25500000920E-02 0.  1.
        2   -1    0    0  501    0  0.00000000000E+00  0.00000000000E+00 -0.19842435227E+04  0.19842435227E+04  0.25500000920E-02 0. -1.
    10030    2    1    2    0    0  0.00000000000E+00  0.00000000000E+00 -0.17282525002E+03  0.37956617954E+04  0.37917251875E+04 0.  0.
        3    1    3    3  502    0  0.99270944886E+03  0.69860824470E+03 -0.15442107351E+04  0.19642078133E+04  0.10100000352E+00 0. -1.
       -3    1    3    3    0  502 -0.99270944886E+03 -0.69860824470E+03  0.13713854851E+04  0.18314539820E+04  0.10100000352E+00 0.  1.
</event>
<event>
 5   0  0.5086209E-08  0.3804716E+04  0.7818609E-02  0.8045144E-01
       -2   -1    0    0    0  501  0.00000000000E+00  0.00000000000E+00  0.14103424839E+04  0.14103424839E+04  0.25500000920E-02 0.  1.
        2   -1    0    0  501    0  0.00000000000E+00  0.00000000000E+00 -0.25660196281E+04  0.25660196281E+04  0.25500000920E-02 0. -1.
    10030    2    1    2    0    0  0.00000000000E+00  0.00000000000E+00 -0.11556771442E+04  0.39763621119E+04  0.38047162816E+04 0.  0.
        3    1    3    3  502    0 -0.74639653030E+03  0.43538398058E+03 -0.23490830572E+04  0.25029698782E+04  0.10100000352E+00 0. -1.
       -3    1    3    3    0  502  0.74639653030E+03 -0.43538398058E+03  0.11934059131E+04  0.14733922338E+04  0.10100000352E+00 0.  1.
</event>
<event>
 5   0  0.1666051E-08  0.3800280E+04  0.7818609E-02  0.8046095E-01
        1   -1    0    0  501    0  0.00000000000E+00  0.00000000000E+00  0.13709282073E+04  0.13709282074E+04  0.50400001928E-02 0. -1.
       -1   -1    0    0    0  501  0.00000000000E+00  0.00000000000E+00 -0.26336399158E+04  0.26336399158E+04  0.50400001928E-02 0.  1.
    10030    2    1    2    0    0  0.00000000000E+00  0.00000000000E+00 -0.12627117085E+04  0.40045681232E+04  0.38002795943E+04 0.  0.
        2    1    3    3  502    0 -0.12419797414E+04  0.11234229900E+04  0.31464395509E+03  0.17039934598E+04  0.25500000920E-02 0.  1.
       -2    1    3    3    0  502  0.12419797414E+04 -0.11234229900E+04 -0.15773556636E+04  0.23005746634E+04  0.25500000920E-02 0. -1.
</event>
<event>
 5   0  0.5207474E-08  0.3808397E+04  0.7818609E-02  0.8044355E-01
       -2   -1    0    0    0  501  0.00000000000E+00  0.00000000000E+00  0.20608677037E+04  0.20608677037E+04  0.25500000920E-02 0.  1.
        2   -1    0    0  501    0  0.00000000000E+00  0.00000000000E+00 -0.17594396072E+04  0.17594396072E+04  0.25500000920E-02 0. -1.
    10030    2    1    2    0    0  0.00000000000E+00  0.00000000000E+00  0.30142809652E+03  0.38203073110E+04  0.38083971763E+04 0.  0.
        4    1    3    3  502    0  0.58745598471E+03 -0.67015124454E+03  0.18387611057E+04  0.20433431531E+04  0.12699999809E+01 0.  1.
       -4    1    3    3    0  502 -0.58745598471E+03  0.67015124454E+03 -0.15373330091E+04  0.17769641579E+04  0.12699999809E+01 0. -1.
</event>
<event>
 5   0  0.5086209E-08  0.3796908E+04  0.7818609E-02  0.8046819E-01
        2   -1    0    0  501    0  0.00000000000E+00  0.00000000000E+00  0.28875957829E+04  0.28875957829E+04  0.25500000920E-02 0.  1.
       -2   -1    0    0    0  501  0.00000000000E+00  0.00000000000E+00 -0.12481410081E+04  0.12481410081E+04  0.25500000920E-02 0. -1.
    10030    2    1    2    0    0  0.00000000000E+00  0.00000000000E+00  0.16394547748E+04  0.41357367910E+04  0.37969075372E+04 0.  0.
        3    1    3    3  502    0 -0.59889000668E+03  0.10783105628E+04  0.23916697712E+04  0.26910048708E+04  0.10100000352E+00 0.  1.
       -3    1    3    3    0  502  0.59889000668E+03 -0.10783105628E+04 -0.75221499647E+03  0.14447319202E+04  0.10100000352E+00 0. -1.
</event>
<event>
 5   0  0.5086209E-08  0.3798267E+04  0.7818609E-02  0.8046527E-01
       -2   -1    0    0    0  501  0.00000000000E+00  0.00000000000E+00  0.14538128107E+04  0.14538128107E+04  0.25500000920E-02 0.  1.
        2   -1    0    0  501    0  0.00000000000E+00  0.00000000000E+00 -0.24808613243E+04  0.24808613243E+04  0.25500000920E-02 0. -1.
    10030    2    1    2    0    0  0.00000000000E+00  0.00000000000E+00 -0.10270485136E+04  0.39346741351E+04  0.37982669601E+04 0.  0.
        3    1    3    3  502    0 -0.13988234941E+04  0.36929045563E+02 -0.18436289062E+04  0.23145277004E+04  0.10100000352E+00 0. -1.
       -3    1    3    3    0  502  0.13988234941E+04 -0.36929045563E+02  0.81658039259E+03  0.16201464347E+04  0.10100000352E+00 0.  1.
</event>
<event>
 5   0  0.5086209E-08  0.3799881E+04  0.7818609E-02  0.8046180E-01
       -2   -1    0    0    0  501  0.00000000000E+00  0.00000000000E+00  0.14542552497E+04  0.14542552497E+04  0.25500000920E-02 0. -1.
        2   -1    0    0  501    0  0.00000000000E+00  0.00000000000E+00 -0.24822148290E+04  0.24822148290E+04  0.25500000920E-02 0.  1.
    10030    2    1    2    0    0  0.00000000000E+00  0.00000000000E+00 -0.10279595793E+04  0.39364700787E+04  0.37998810223E+04 0.  0.
        3    1    3    3  502    0  0.18824279499E+04 -0.25550401213E+03 -0.54602132187E+03  0.19766022819E+04  0.10100000352E+00 0. -1.
       -3    1    3    3    0  502 -0.18824279499E+04  0.25550401213E+03 -0.48193825741E+03  0.19598677968E+04  0.10100000352E+00 0.  1.
</event>
<event>
 5   0  0.5159761E-08  0.3797590E+04  0.7818609E-02  0.8046672E-01
        2   -1    0    0  501    0  0.00000000000E+00  0.00000000000E+00  0.26181609956E+04  0.26181609956E+04  0.25500000920E-02 0.  1.
       -2   -1    0    0    0  501  0.00000000000E+00  0.00000000000E+00 -0.13770819329E+04  0.13770819329E+04  0.25500000920E-02 0. -1.
    10030    2    1    2    0    0  0.00000000000E+00  0.00000000000E+00  0.12410790628E+04  0.39952429285E+04  0.37975898696E+04 0.  0.
        5    1    3    3  502    0  0.37185414757E+03  0.16084104752E+04 -0.36644670699E+03  0.16910248498E+04  0.46999998093E+01 0. -1.
       -5    1    3    3    0  502 -0.37185414757E+03 -0.16084104752E+04  0.16075257698E+04  0.23042180787E+04  0.46999998093E+01 0.  1.
</event>
<event>
 5   0  0.1628473E-08  0.3798625E+04  0.7818609E-02  0.8046450E-01
        1   -1    0    0  501    0  0.00000000000E+00  0.00000000000E+00  0.26066213316E+04  0.26066213316E+04  0.50400001928E-02 0.  1.
       -1   -1    0    0    0  501  0.00000000000E+00  0.00000000000E+00 -0.13839326045E+04  0.13839326045E+04  0.50400001928E-02 0. -1.
    10030    2    1    2    0    0  0.00000000000E+00  0.00000000000E+00  0.12226887272E+04  0.39905539361E+04  0.37986251452E+04 0.  0.
        3    1    3    3  502    0  0.95513753154E+03  0.65930322715E+03 -0.96808895982E+03  0.15113453258E+04  0.10100000352E+00 0. -1.
       -3    1    3    3    0  502 -0.95513753154E+03 -0.65930322715E+03  0.21907776870E+04  0.24792086103E+04  0.10100000352E+00 0.  1.
</event>
<event>
 5   0  0.1666051E-08  0.3798211E+04  0.7818609E-02  0.8046539E-01
        1   -1    0    0  501    0  0.00000000000E+00  0.00000000000E+00  0.25655361718E+04  0.25655361718E+04  0.50400001928E-02 0. -1.
       -1   -1    0    0    0  501  0.00000000000E+00  0.00000000000E+00 -0.14057886084E+04  0.14057886084E+04  0.50400001928E-02 0.  1.
    10030    2    1    2    0    0  0.00000000000E+00  0.00000000000E+00  0.11597475634E+04  0.39713247802E+04  0.37982109076E+04 0.  0.
        2    1    3    3  502    0  0.64149651298E+03  0.16746739704E+04  0.12332978360E+04  0.21764820779E+04  0.25500000920E-02 0. -1.
       -2    1    3    3    0  502 -0.64149651298E+03 -0.16746739704E+04 -0.73550272557E+02  0.17948427023E+04  0.25500000920E-02 0.  1.
</event>
<event>
 5   0  0.1628250E-08  0.3799142E+04  0.7818609E-02  0.8046339E-01
        1   -1    0    0  501    0  0.00000000000E+00  0.00000000000E+00  0.18967136119E+04  0.18967136119E+04  0.50400001928E-02 0. -1.
       -1   -1    0    0    0  501  0.00000000000E+00  0.00000000000E+00 -0.19024329004E+04  0.19024329004E+04  0.50400001928E-02 0.  1.
    10030    2    1    2    0    0  0.00000000000E+00  0.00000000000E+00 -0.57192885867E+01  0.37991465123E+04  0.37991422074E+04 0.  0.
        4    1    3    3  502    0 -0.18986968277E+04  0.78954219670E+01 -0.59927946820E+02  0.18996591676E+04  0.12699999809E+01 0. -1.
       -4    1    3    3    0  502  0.18986968277E+04 -0.78954219670E+01  0.54208658233E+02  0.18994873447E+04  0.12699999809E+01 0.  1.
</event>
<event>
 5   0  0.5086209E-08  0.3806874E+04  0.7818609E-02  0.8044681E-01
       -2   -1    0    0    0  501  0.00000000000E+00  0.00000000000E+00  0.18061495804E+04  0.18061495804E+04  0.25500000920E-02 0. -1.
        2   -1    0    0  501    0  0.00000000000E+00  0.00000000000E+00 -0.20059643837E+04  0.20059643837E+04  0.25500000920E-02 0.  1.
    10030    2    1    2    0    0  0.00000000000E+00  0.00000000000E+00 -0.19981480333E+03  0.38121139641E+04  0.38068736411E+04 0.  0.
        3    1    3    3  502    0  0.18403709548E+04  0.40651994774E+03  0.16663187336E+03  0.18920861267E+04  0.10100000352E+00 0.  1.
       -3    1    3    3    0  502 -0.18403709548E+04 -0.40651994774E+03 -0.36644667669E+03  0.19200278374E+04  0.10100000352E+00 0. -1.
</event>
<event>
 5   0  0.5086209E-08  0.3807261E+04  0.7818609E-02  0.8044599E-01
       -2   -1    0    0    0  501  0.00000000000E+00  0.00000000000E+00  0.16000574024E+04  0.16000574024E+04  0.25500000920E-02 0.  1.
        2   -1    0    0  501    0  0.00000000000E+00  0.00000000000E+00 -0.22647992031E+04  0.22647992031E+04  0.25500000920E-02 0. -1.
    10030    2    1    2    0    0  0.00000000000E+00  0.00000000000E+00 -0.66474180072E+03  0.38648566055E+04  0.38072608158E+04 0.  0.
        3    1    3    3  502    0  0.15087733118E+04  0.10353281284E+04  0.20045760818E+03  0.18407836654E+04  0.10100000352E+00 0. -1.
       -3    1    3    3    0  502 -0.15087733118E+04 -0.10353281284E+04 -0.86519940890E+03  0.20240729402E+04  0.10100000352E+00 0.  1.
</event>
<event>
 5   0  0.5147582E-08  0.3806620E+04  0.7818609E-02  0.8044736E-01
        2   -1    0    0  501    0  0.00000000000E+00  0.00000000000E+00  0.16640132083E+04  0.16640132083E+04  0.25500000920E-02 0.  1.
       -2   -1    0    0    0  501  0.00000000000E+00  0.00000000000E+00 -0.21770193178E+04  0.21770193178E+04  0.25500000920E-02 0. -1.
    10030    2    1    2    0    0  0.00000000000E+00  0.00000000000E+00 -0.51300610945E+03  0.38410325261E+04  0.38066199703E+04 0.  0.
        1    1    3    3  502    0 -0.98718254846E+03 -0.13464499078E+04 -0.11786201374E+04  0.20436736937E+04  0.50400001928E-02 0. -1.
       -1    1    3    3    0  502  0.98718254846E+03  0.13464499078E+04  0.66561402792E+03  0.17973588324E+04  0.50400001928E-02 0.  1.
</event>
<event>
 5   0  0.1628250E-08  0.3794207E+04  0.7818609E-02  0.8047399E-01
        1   -1    0    0  501    0  0.00000000000E+00  0.00000000000E+00  0.14584904980E+04  0.14584904980E+04  0.50400001928E-02 0.  1.
       -1   -1    0    0    0  501  0.00000000000E+00  0.00000000000E+00 -0.24676211580E+04  0.24676211580E+04  0.50400001928E-02 0. -1.
    10030    2    1    2    0    0  0.00000000000E+00  0.00000000000E+00 -0.10091306601E+04  0.39261116560E+04  0.37942071697E+04 0.  0.
        1    1    3    3  502    0 -0.14805470092E+04  0.11431554458E+04 -0.17705258827E+03  0.18788750460E+04  0.50400001928E-02 0. -1.
       -1    1    3    3    0  502  0.14805470092E+04 -0.11431554458E+04 -0.83207807180E+03  0.20472366100E+04  0.50400001928E-02 0.  1.
</event>
<event>
 5   0  0.5140842E-08  0.3800443E+04  0.7818609E-02  0.8046060E-01
        2   -1    0    0  501    0  0.00000000000E+00  0.00000000000E+00  0.29000713455E+04  0.29000713455E+04  0.25500000920E-02 0.  1.
       -2   -1    0    0    0  501  0.00000000000E+00  0.00000000000E+00 -0.12450874499E+04  0.12450874499E+04  0.25500000920E-02 0. -1.
    10030    2    1    2    0    0  0.00000000000E+00  0.00000000000E+00  0.16549838956E+04  0.41451587954E+04  0.38004433615E+04 0.  0.
        2    1    3    3  502    0  0.13130312394E+04  0.45811346745E+03 -0.58492697384E+03  0.15086611778E+04  0.25500000920E-02 0. -1.
       -2    1    3    3    0  502 -0.13130312394E+04 -0.45811346745E+03  0.22399108695E+04  0.26364976176E+04  0.25500000920E-02 0.  1.
</event>
<event>
 5   0  0.5086209E-08  0.3818154E+04  0.7818609E-02  0.8042270E-01
        2   -1    0    0  501    0  0.00000000000E+00  0.00000000000E+00  0.20380973316E+04  0.20380973316E+04  0.25500000920E-02 0.  1.
       -2   -1    0    0    0  501  0.00000000000E+00  0.00000000000E+00 -0.17882238271E+04  0.17882238271E+04  0.25500000920E-02 0. -1.
    10030    2    1    2    0    0  0.00000000000E+00  0.00000000000E+00  0.24987350453E+03  0.38263211587E+04  0.38181535906E+04 0.  0.
        3    1    3    3  502    0 -0.21087301447E+03  0.31941505833E+03  0.19992533141E+04  0.20355606677E+04  0.10100000352E+00 0.  1.
       -3    1    3    3    0  502  0.21087301447E+03 -0.31941505833E+03 -0.17493798096E+04  0.17907604910E+04  0.10100000352E+00 0. -1.
</event>
<event>
 5   0  0.1628250E-08  0.3804963E+04  0.7818609E-02  0.8045091E-01
        1   -1    0    0  501    0  0.00000000000E+00  0.00000000000E+00  0.20012093491E+04  0.20012093491E+04  0.50400001928E-02 0.  1.
       -1   -1    0    0    0  501  0.00000000000E+00  0.00000000000E+00 -0.18086247234E+04  0.18086247234E+04  0.50400001928E-02 0. -1.
    10030    2    1    2    0    0  0.00000000000E+00  0.00000000000E+00  0.19258462573E+03  0.38098340725E+04  0.38049634455E+04 0.  0.
        1    1    3    3  502    0 -0.17467369199E+04  0.11185078424E+03 -0.65020629516E+03  0.18671820188E+04  0.50400001928E-02 0. -1.
       -1    1    3    3    0  502  0.17467369199E+04 -0.11185078424E+03  0.84279092089E+03  0.19426520537E+04  0.50400001928E-02 0.  1.
</event>
<event>
 5   0  0.5207474E-08  0.3754322E+04  0.7818609E-02  0.8056029E-01
       -2   -1    0    0    0  501  0.00000000000E+00  0.00000000000E+00  0.19280959555E+04  0.19280959555E+04  0.25500000920E-02 0. -1.
        2   -1    0    0  501    0  0.00000000000E+00  0.00000000000E+00 -0.18275720517E+04  0.18275720518E+04  0.25500000920E-02 0.  1.
    10030    2    1    2    0    0  0.00000000000E+00  0.00000000000E+00  0.10052390374E+03  0.37556680072E+04  0.37543224589E+04 0.  0.
        4    1    3    3  502    0 -0.77753717793E+03  0.17041787325E+04 -0.72025278106E+02  0.18745608736E+04  0.12699999809E+01 0.  1.
       -4    1    3    3    0  502  0.77753717793E+03 -0.17041787325E+04  0.17254918184E+03  0.18811071336E+04  0.12699999809E+01 0. -1.
</event>
<event>
 5   0  0.5159761E-08  0.3812793E+04  0.7818609E-02  0.8043415E-01
       -2   -1    0    0    0  501  0.00000000000E+00  0.00000000000E+00  0.14733685882E+04  0.14733685882E+04  0.25500000920E-02 0.  1.
        2   -1    0    0  501    0  0.00000000000E+00  0.00000000000E+00 -0.24666928665E+04  0.24666928665E+04  0.25500000920E-02 0. -1.
    10030    2    1    2    0    0  0.00000000000E+00  0.00000000000E+00 -0.99332427828E+03  0.39400614547E+04  0.38127930897E+04 0.  0.
        5    1    3    3  502    0  0.15344929820E+04 -0.11291932805E+04 -0.42673114047E+03  0.19524005052E+04  0.46999998093E+01 0.  1.
       -5    1    3    3    0  502 -0.15344929820E+04  0.11291932805E+04 -0.56659313781E+03  0.19876609495E+04  0.46999998093E+01 0. -1.
</event>
<event>
 5   0  0.5207474E-08  0.3797360E+04  0.7818609E-02  0.8046722E-01
        2   -1    0    0  501    0  0.00000000000E+00  0.00000000000E+00  0.19913180078E+04  0.19913180078E+04  0.25500000920E-02 0. -1.
       -2   -1    0    0    0  501  0.00000000000E+00  0.00000000000E+00 -0.18103514722E+04  0.18103514722E+04  0.25500000920E-02 0.  1.
    10030    2    1    2    0    0  0.00000000000E+00  0.00000000000E+00  0.18096653556E+03  0.38016694801E+04  0.37973598656E+04 0.  0.
        4    1    3    3  502    0  0.80493928138E+03  0.63792904065E+03 -0.15082332996E+04  0.18247328590E+04  0.12699999809E+01 0.  1.
       -4    1    3    3    0  502 -0.80493928138E+03 -0.63792904065E+03  0.16891998352E+04  0.19769366211E+04  0.12699999809E+01 0. -1.
</event>
<event>
 5   0  0.5086209E-08  0.3817915E+04  0.7818609E-02  0.8042321E-01
        2   -1    0    0  501    0  0.00000000000E+00  0.00000000000E+00  0.13113933287E+04  0.13113933288E+04  0.25500000920E-02 0.  1.
       -2   -1    0    0    0  501  0.00000000000E+00  0.00000000000E+00 -0.27788137868E+04  0.27788137868E+04  0.25500000920E-02 0. -1.
    10030    2    1    2    0    0  0.00000000000E+00  0.00000000000E+00 -0.14674204581E+04  0.40902071156E+04  0.38179145417E+04 0.  0.
        3    1    3    3  502    0 -0.99510875995E+03 -0.28962028731E+03  0.98374475416E+03  0.14289419535E+04  0.10100000352E+00 0.  1.
       -3    1    3    3    0  502  0.99510875995E+03  0.28962028731E+03 -0.24511652122E+04  0.26612651621E+04  0.10100000352E+00 0. -1.
</event>
<event>
 5   0  0.5086209E-08  0.3821765E+04  0.7818609E-02  0.8041500E-01
       -2   -1    0    0    0  501  0.00000000000E+00  0.00000000000E+00  0.10354878187E+04  0.10354878187E+04  0.25500000920E-02 0.  1.
        2   -1    0    0  501    0  0.00000000000E+00  0.00000000000E+00 -0.35263300255E+04  0.35263300255E+04  0.25500000920E-02 0. -1.
    10030    2    1    2    0    0  0.00000000000E+00  0.00000000000E+00 -0.24908422067E+04  0.45618178442E+04  0.38217649254E+04 0.  0.
        3    1    3    3  502    0  0.17978684813E+04  0.43910998744E+03 -0.18132773782E+04  0.25909696095E+04  0.10100000352E+00 0. -1.
       -3    1    3    3    0  502 -0.17978684813E+04 -0.43910998744E+03 -0.67756482857E+03  0.19708482347E+04  0.10100000352E+00 0.  1.
</event>
<event>
 5   0  0.5207474E-08  0.3795180E+04  0.7818609E-02  0.8047190E-01
        2   -1    0    0  501    0  0.00000000000E+00  0.00000000000E+00  0.23906698284E+04  0.23906698284E+04  0.25500000920E-02 0. -1.
       -2   -1    0    0    0  501  0.00000000000E+00  0.00000000000E+00 -0.15062088339E+04  0.15062088339E+04  0.25500000920E-02 0.  1.
    10030    2    1    2    0    0  0.00000000000E+00  0.00000000000E+00  0.88446099444E+03  0.38968786623E+04  0.37951801087E+04 0.  0.
        4    1    3    3  502    0  0.52114198749E+03 -0.96243811332E+03 -0.11494602604E+04  0.15871788167E+04  0.12699999809E+01 0.  1.
       -4    1    3    3    0  502 -0.52114198749E+03  0.96243811332E+03  0.20339212548E+04  0.23096998456E+04  0.12699999809E+01 0. -1.
</event>
<event>
 5   0  0.5086209E-08  0.3796303E+04  0.7818609E-02  0.8046949E-01
       -2   -1    0    0    0  501  0.00000000000E+00  0.00000000000E+00  0.21571860084E+04  0.21571860084E+04  0.25500000920E-02 0. -1.
        2   -1    0    0  501    0  0.00000000000E+00  0.00000000000E+00 -0.16702215734E+04  0.16702215734E+04  0.25500000920E-02 0.  1.
    10030    2    1    2    0    0  0.00000000000E+00  0.00000000000E+00  0.48696443506E+03  0.38274075818E+04  0.37963027324E+04 0.  0.
        3    1    3    3  502    0  0.18622938808E+03  0.14750480763E+04  0.14332061986E+04  0.20650734201E+04  0.10100000352E+00 0. -1.
       -3    1    3    3    0  502 -0.18622938808E+03 -0.14750480763E+04 -0.94624176357E+03  0.17623341617E+04  0.10100000352E+00 0.  1.
</event>
<event>
 5   0  0.1628250E-08  0.3800386E+04  0.7818609E-02  0.8046072E-01
        1   -1    0    0  501    0  0.00000000000E+00  0.00000000000E+00  0.16108115287E+04  0.16108115287E+04  0.50400001928E-02 0. -1.
       -1   -1    0    0    0  501  0.00000000000E+00  0.00000000000E+00 -0.22415617119E+04  0.22415617119E+04  0.50400001928E-02 0.  1.
    10030    2    1    2    0    0  0.00000000000E+00  0.00000000000E+00 -0.63075018328E+03  0.38523732406E+04  0.38003860056E+04 0.  0.
        5    1    3    3  502    0 -0.69336932538E+03 -0.17299337899E+04  0.60205691934E+02  0.18646926701E+04  0.46999998093E+01 0. -1.
       -5    1    3    3    0  502  0.69336932538E+03  0.17299337899E+04 -0.69095587522E+03  0.19876805705E+04  0.46999998093E+01 0.  1.
</event>
<event>
 5   0  0.5147582E-08  0.3801282E+04  0.7818609E-02  0.8045880E-01
        2   -1    0    0  501    0  0.00000000000E+00  0.00000000000E+00  0.16919219866E+04  0.16919219866E+04  0.25500000920E-02 0.  1.
       -2   -1    0    0    0  501  0.00000000000E+00  0.00000000000E+00 -0.21351082902E+04  0.21351082902E+04  0.25500000920E-02 0. -1.
    10030    2    1    2    0    0  0.00000000000E+00  0.00000000000E+00 -0.44318630354E+03  0.38270302768E+04  0.38012822363E+04 0.  0.
        1    1    3    3  502    0 -0.11512234153E+04 -0.69837159810E+03  0.11289095246E+04  0.17571212126E+04  0.50400001928E-02 0.  1.
       -1    1    3    3    0  502  0.11512234153E+04  0.69837159810E+03 -0.15720958281E+04  0.20699090642E+04  0.50400001928E-02 0. -1.
</event>
<event>
 5   0  0.1628473E-08  0.3785773E+04  0.7818609E-02  0.8049215E-01
       -1   -1    0    0    0  501  0.00000000000E+00  0.00000000000E+00  0.20806306058E+04  0.20806306058E+04  0.50400001928E-02 0.  1.
        1   -1    0    0  501    0  0.00000000000E+00  0.00000000000E+00 -0.17220835594E+04  0.17220835594E+04  0.50400001928E-02 0. -1.
    10030    2    1    2    0    0  0.00000000000E+00  0.00000000000E+00  0.35854704636E+03  0.38027141652E+04  0.37857732417E+04 0.  0.
        3    1    3    3  502    0 -0.14558104920E+04 -0.11750896980E+04  0.46831064931E+03  0.19286095668E+04  0.10100000352E+00 0. -1.
       -3    1    3    3    0  502  0.14558104920E+04  0.11750896980E+04 -0.10976360295E+03  0.18741045983E+04  0.10100000352E+00 0.  1.
</event>
<event>
 5   0  0.5207474E-08  0.3800194E+04  0.7818609E-02  0.8046113E-01
       -2   -1    0    0    0  501  0.00000000000E+00  0.00000000000E+00  0.16665217644E+04  0.16665217644E+04  0.25500000920E-02 0. -1.
        2   -1    0    0  501    0  0.00000000000E+00  0.00000000000E+00 -0.21664090640E+04  0.21664090640E+04  0.25500000920E-02 0.  1.
    10030    2    1    2    0    0  0.00000000000E+00  0.00000000000E+00 -0.49988729963E+03  0.38329308284E+04  0.38001936033E+04 0.  0.
        4    1    3    3  502    0  0.44986215388E+03 -0.87329663585E+03  0.13905187369E+04  0.17025178244E+04  0.12699999809E+01 0. -1.
       -4    1    3    3    0  502 -0.44986215388E+03  0.87329663585E+03 -0.18904060365E+04  0.21304130040E+04  0.12699999809E+01 0.  1.
</event>
<event>
 5   0  0.5207474E-08  0.3797999E+04  0.7818609E-02  0.8046584E-01
        2   -1    0    0  501    0  0.00000000000E+00  0.00000000000E+00  0.18347003126E+04  0.18347003126E+04  0.25500000920E-02 0.  1.
       -2   -1    0    0    0  501  0.00000000000E+00  0.00000000000E+00 -0.19655521366E+04  0.19655521366E+04  0.25500000920E-02 0. -1.
    10030    2    1    2    0    0  0.00000000000E+00  0.00000000000E+00 -0.13085182404E+03  0.38002524493E+04  0.37979990098E+04 0.  0.
        4    1    3    3  502    0 -0.16822731674E+04 -0.51664278218E+03 -0.77945615859E+03  0.19247120019E+04  0.12699999809E+01 0. -1.
       -4    1    3    3    0  502  0.16822731674E+04  0.51664278218E+03  0.64860433455E+03  0.18755404474E+04  0.12699999809E+01 0.  1.
</event>
<event>
 5   0  0.5207474E-08  0.3803774E+04  0.7818609E-02  0.8045346E-01
       -2   -1    0    0    0  501  0.00000000000E+00  0.00000000000E+00  0.14369198063E+04  0.14369198063E+04  0.25500000920E-02 0. -1.
        2   -1    0    0  501    0  0.00000000000E+00  0.00000000000E+00 -0.25173106792E+04  0.25173106792E+04  0.25500000920E-02 0.  1.
    10030    2    1    2    0    0  0.00000000000E+00  0.00000000000E+00 -0.10803908730E+04  0.39542304855E+04  0.38037736912E+04 0.  0.
        4    1    3    3  502    0  0.13805597860E+04  0.31246949418E+03  0.78032106605E+03  0.16163183741E+04  0.12699999809E+01 0. -1.
       -4    1    3    3    0  502 -0.13805597860E+04 -0.31246949418E+03 -0.18607119390E+04  0.23379121114E+04  0.12699999809E+01 0.  1.
</event>
<event>
 5   0  0.5147582E-08  0.3805721E+04  0.7818609E-02  0.8044928E-01
        2   -1    0    0  501    0  0.00000000000E+00  0.00000000000E+00  0.18399901042E+04  0.18399901042E+04  0.25500000920E-02 0. -1.
       -2   -1    0    0    0  501  0.00000000000E+00  0.00000000000E+00 -0.19678791080E+04  0.19678791080E+04  0.25500000920E-02 0.  1.
    10030    2    1    2    0    0  0.00000000000E+00  0.00000000000E+00 -0.12788900386E+03  0.38078692122E+04  0.38057210013E+04 0.  0.
        1    1    3    3  502    0  0.15096821299E+04  0.89541599590E+03  0.67129553263E+03  0.18792412381E+04  0.50400001928E-02 0. -1.
       -1    1    3    3    0  502 -0.15096821299E+04 -0.89541599590E+03 -0.79918453649E+03  0.19286279741E+04  0.50400001928E-02 0.  1.
</event>
<event>
 5   0  0.1628250E-08  0.3799021E+04  0.7818609E-02  0.8046365E-01
        1   -1    0    0  501    0  0.00000000000E+00  0.00000000000E+00  0.17634663102E+04  0.17634663102E+04  0.50400001928E-02 0.  1.
       -1   -1    0    0    0  501  0.00000000000E+00  0.00000000000E+00 -0.20460495522E+04  0.20460495522E+04  0.50400001928E-02 0. -1.
    10030    2    1    2    0    0  0.00000000000E+00  0.00000000000E+00 -0.28258324201E+03  0.38095158624E+04  0.37990206392E+04 0.  0.
        4    1    3    3  502    0  0.12891944348E+04 -0.72352823131E+03 -0.13373240691E+04  0.19934775321E+04  0.12699999809E+01 0.  1.
       -4    1    3    3    0  502 -0.12891944348E+04  0.72352823131E+03  0.10547408271E+04  0.18160383304E+04  0.12699999809E+01 0. -1.
</event>
<event>
 5   0  0.1628250E-08  0.3853524E+04  0.7818609E-02  0.8034765E-01
       -1   -1    0    0    0  501  0.00000000000E+00  0.00000000000E+00  0.14619047964E+04  0.14619047964E+04  0.50400001928E-02 0.  1.
        1   -1    0    0  501    0  0.00000000000E+00  0.00000000000E+00 -0.25394347033E+04  0.25394347033E+04  0.50400001928E-02 0. -1.
    10030    2    1    2    0    0  0.00000000000E+00  0.00000000000E+00 -0.10775299070E+04  0.40013394997E+04  0.38535239835E+04 0.  0.
        5    1    3    3  502    0  0.10774114309E+04  0.12146717116E+04 -0.16159321506E+04  0.22907425792E+04  0.46999998093E+01 0. -1.
       -5    1    3    3    0  502 -0.10774114309E+04 -0.12146717116E+04  0.53840224366E+03  0.17105969205E+04  0.46999998093E+01 0.  1.
</event>
<event>
 5   0  0.5207474E-08  0.3797404E+04  0.7818609E-02  0.8046712E-01
        2   -1    0    0  501    0  0.00000000000E+00  0.00000000000E+00  0.32388748677E+04  0.32388748677E+04  0.25500000920E-02 0.  1.
       -2   -1    0    0    0  501  0.00000000000E+00  0.00000000000E+00 -0.11130619665E+04  0.11130619665E+04  0.25500000920E-02 0. -1.
    10030    2    1    2    0    0  0.00000000000E+00  0.00000000000E+00  0.21258129012E+04  0.43519368342E+04  0.37974035496E+04 0.  0.
        4    1    3    3  502    0 -0.55614939885E+03 -0.10879446130E+04  0.27284550263E+04  0.29895474704E+04  0.12699999809E+01 0.  1.
       -4    1    3    3    0  502  0.55614939885E+03  0.10879446130E+04 -0.60264212512E+03  0.13623893638E+04  0.12699999809E+01 0. -1.
</event>
<event>
 5   0  0.5147582E-08  0.3800613E+04  0.7818609E-02  0.8046023E-01
       -2   -1    0    0    0  501  0.00000000000E+00  0.00000000000E+00  0.16799041397E+04  0.16799041397E+04  0.25500000920E-02 0.  1.
        2   -1    0    0  501    0  0.00000000000E+00  0.00000000000E+00 -0.21496257979E+04  0.21496257979E+04  0.25500000920E-02 0. -1.
    10030    2    1    2    0    0  0.00000000000E+00  0.00000000000E+00 -0.46972165825E+03  0.38295299376E+04  0.38006132540E+04 0.  0.
        1    1    3    3  502    0 -0.34876492877E+01 -0.13587087815E+04  0.11038043441E+04  0.17505672643E+04  0.50400001928E-02 0.  1.
       -1    1    3    3    0  502  0.34876492877E+01  0.13587087815E+04 -0.15735260024E+04  0.20789626733E+04  0.50400001928E-02 0. -1.
</event>
<event>
 5   0  0.5140842E-08  0.3780260E+04  0.7818609E-02  0.8050404E-01
       -2   -1    0    0    0  501  0.00000000000E+00  0.00000000000E+00  0.20093864577E+04  0.20093864577E+04  0.25500000920E-02 0. -1.
        2   -1    0    0  501    0  0.00000000000E+00  0.00000000000E+00 -0.17779517390E+04  0.17779517390E+04  0.25500000920E-02 0.  1.
    10030    2    1    2    0    0  0.00000000000E+00  0.00000000000E+00  0.23143471877E+03  0.37873381967E+04  0.37802603862E+04 0.  0.
        2    1    3    3  502    0  0.72715369763E+03 -0.16859766782E+04  0.56524696645E+03  0.19211387229E+04  0.25500000920E-02 0. -1.
       -2    1    3    3    0  502 -0.72715369763E+03  0.16859766782E+04 -0.33381224768E+03  0.18661994738E+04  0.25500000920E-02 0.  1.
</event>
<event>
 5   0  0.5159761E-08  0.3796511E+04  0.7818609E-02  0.8046904E-01
        2   -1    0    0  501    0  0.00000000000E+00  0.00000000000E+00  0.28698509645E+04  0.28698509645E+04  0.25500000920E-02 0. -1.
       -2   -1    0    0    0  501  0.00000000000E+00  0.00000000000E+00 -0.12555961841E+04  0.12555961841E+04  0.25500000920E-02 0.  1.
    10030    2    1    2    0    0  0.00000000000E+00  0.00000000000E+00  0.16142547804E+04  0.41254471485E+04  0.37965109876E+04 0.  0.
        5    1    3    3  502    0  0.32057255666E+03 -0.89191730484E+03 -0.98008228613E+03  0.13634025892E+04  0.46999998093E+01 0.  1.
       -5    1    3    3    0  502 -0.32057255666E+03  0.89191730484E+03  0.25943370665E+04  0.27620445593E+04  0.46999998093E+01 0. -1.
</event>
<event>
 5   0  0.5140842E-08  0.3797650E+04  0.7818609E-02  0.8046659E-01
        2   -1    0    0  501    0  0.00000000000E+00  0.00000000000E+00  0.23297589437E+04  0.23297589437E+04  0.25500000920E-02 0.  1.
       -2   -1    0    0    0  501  0.00000000000E+00  0.00000000000E+00 -0.15476009652E+04  0.15476009652E+04  0.25500000920E-02 0. -1.
    10030    2    1    2    0    0  0.00000000000E+00  0.00000000000E+00  0.78215797853E+03  0.38773599089E+04  0.37976504262E+04 0.  0.
        2    1    3    3  502    0  0.73894045187E+03  0.16459856627E+04 -0.21314943007E+03  0.18167923582E+04  0.25500000920E-02 0. -1.
       -2    1    3    3    0  502 -0.73894045187E+03 -0.16459856627E+04  0.99530740860E+03  0.20605675507E+04  0.25500000920E-02 0.  1.
</event>
<event>
 5   0  0.1628473E-08  0.3794102E+04  0.7818609E-02  0.8047422E-01
       -1   -1    0    0    0  501  0.00000000000E+00  0.00000000000E+00  0.14696759371E+04  0.14696759371E+04  0.50400001928E-02 0. -1.
        1   -1    0    0  501    0  0.00000000000E+00  0.00000000000E+00 -0.24487041780E+04  0.24487041780E+04  0.50400001928E-02 0.  1.
    10030    2    1    2    0    0  0.00000000000E+00  0.00000000000E+00 -0.97902824091E+03  0.39183801150E+04  0.37941015313E+04 0.  0.
        3    1    3    3  502    0  0.22526525833E+03 -0.30595699755E+03  0.14299805568E+04  0.14795940403E+04  0.10100000352E+00 0. -1.
       -3    1    3    3    0  502 -0.22526525833E+03  0.30595699755E+03 -0.24090087977E+04  0.24387860748E+04  0.10100000352E+00 0.  1.
</event>
<event>
 5   0  0.5147582E-08  0.3801592E+04  0.7818609E-02  0.8045813E-01
       -2   -1    0    0    0  501  0.00000000000E+00  0.00000000000E+00  0.12970044114E+04  0.12970044114E+04  0.25500000920E-02 0.  1.
        2   -1    0    0  501    0  0.00000000000E+00  0.00000000000E+00 -0.27856686668E+04  0.27856686668E+04  0.25500000920E-02 0. -1.
    10030    2    1    2    0    0  0.00000000000E+00  0.00000000000E+00 -0.14886642554E+04  0.40826730783E+04  0.38015915350E+04 0.  0.
        1    1    3    3  502    0  0.15442160909E+04  0.23082959679E+02 -0.19343640182E+04  0.24752576257E+04  0.50400001928E-02 0. -1.
       -1    1    3    3    0  502 -0.15442160909E+04 -0.23082959679E+02  0.44569976287E+03  0.16074154526E+04  0.50400001928E-02 0.  1.
</event>
<event>
 5   0  0.1628250E-08  0.3793474E+04  0.7818609E-02  0.8047557E-01
        1   -1    0    0  501    0  0.00000000000E+00  0.00000000000E+00  0.10242220627E+04  0.10242220628E+04  0.50400001928E-02 0.  1.
       -1   -1    0    0    0  501  0.00000000000E+00  0.00000000000E+00 -0.35125301945E+04  0.35125301945E+04  0.50400001928E-02 0. -1.
    10030    2    1    2    0    0  0.00000000000E+00  0.00000000000E+00 -0.24883081318E+04  0.45367522573E+04  0.37934738282E+04 0.  0.
        4    1    3    3  502    0  0.38793032341E+03 -0.14808133420E+04 -0.25835550855E+04  0.30030079224E+04  0.12699999809E+01 0. -1.
       -4    1    3    3    0  502 -0.38793032341E+03  0.14808133420E+04  0.95246953688E+02  0.15337443349E+04  0.12699999809E+01 0.  1.
</event>
<event>
 5   0  0.1628250E-08  0.3801144E+04  0.7818609E-02  0.8045909E-01
       -1   -1    0    0    0  501  0.00000000000E+00  0.00000000000E+00  0.12379781311E+04  0.12379781311E+04  0.50400001928E-02 0. -1.
        1   -1    0    0  501    0  0.00000000000E+00  0.00000000000E+00 -0.29178008147E+04  0.29178008147E+04  0.50400001928E-02 0.  1.
    10030    2    1    2    0    0  0.00000000000E+00  0.00000000000E+00 -0.16798226836E+04  0.41557789457E+04  0.38011438275E+04 0.  0.
        4    1    3    3  502    0  0.17778125816E+03 -0.11194718399E+04  0.82798423152E+03  0.14037032723E+04  0.12699999809E+01 0.  1.
       -4    1    3    3    0  502 -0.17778125816E+03  0.11194718399E+04 -0.25078069151E+04  0.27520756735E+04  0.12699999809E+01 0. -1.
</event>
<event>
 5   0  0.5086209E-08  0.3798916E+04  0.7818609E-02  0.8046388E-01
       -2   -1    0    0    0  501  0.00000000000E+00  0.00000000000E+00  0.16755769931E+04  0.16755769931E+04  0.25500000920E-02 0. -1.
        2   -1    0    0  501    0  0.00000000000E+00  0.00000000000E+00 -0.21532523752E+04  0.21532523752E+04  0.25500000920E-02 0.  1.
    10030    2    1    2    0    0  0.00000000000E+00  0.00000000000E+00 -0.47767538206E+03  0.38288293683E+04  0.37989157086E+04 0.  0.
        3    1    3    3  502    0 -0.39464173172E+03 -0.16155069708E+03 -0.21043852917E+04  0.21471558374E+04  0.10100000352E+00 0.  1.
       -3    1    3    3    0  502  0.39464173172E+03  0.16155069708E+03  0.16267099096E+04  0.16816735309E+04  0.10100000352E+00 0. -1.
</event>
<event>
 5   0  0.5159761E-08  0.3799460E+04  0.7818609E-02  0.8046271E-01
        2   -1    0    0  501    0  0.00000000000E+00  0.00000000000E+00  0.23120975272E+04  0.23120975272E+04  0.25500000920E-02 0.  1.
       -2   -1    0    0    0  501  0.00000000000E+00  0.00000000000E+00 -0.15609093541E+04  0.15609093541E+04  0.25500000920E-02 0. -1.
    10030    2    1    2    0    0  0.00000000000E+00  0.00000000000E+00  0.75118817316E+03  0.38730068813E+04  0.37994603079E+04 0.  0.
        5    1    3    3  502    0  0.21880890600E+03 -0.12185591921E+04 -0.10931961294E+04  0.16516245667E+04  0.46999998093E+01 0. -1.
       -5    1    3    3    0  502 -0.21880890600E+03  0.12185591921E+04  0.18443843026E+04  0.22213823146E+04  0.46999998093E+01 0.  1.
</event>
<event>
 5   0  0.5159761E-08  0.3795859E+04  0.7818609E-02  0.8047044E-01
       -2   -1    0    0    0  501  0.00000000000E+00  0.00000000000E+00  0.20540776888E+04  0.20540776888E+04  0.25500000920E-02 0. -1.
        2   -1    0    0  501    0  0.00000000000E+00  0.00000000000E+00 -0.17536519382E+04  0.17536519382E+04  0.25500000920E-02 0.  1.
    10030    2    1    2    0    0  0.00000000000E+00  0.00000000000E+00  0.30042575057E+03  0.38077296270E+04  0.37958594917E+04 0.  0.
        5    1    3    3  502    0  0.10633055285E+04  0.13613303344E+04 -0.63855147936E+03  0.18416321587E+04  0.46999998093E+01 0.  1.
       -5    1    3    3    0  502 -0.10633055285E+04 -0.13613303344E+04  0.93897722993E+03  0.19660974682E+04  0.46999998093E+01 0. -1.
</event>
<event>
 5   0  0.5147582E-08  0.3794924E+04  0.7818609E-02  0.8047245E-01
       -2   -1    0    0    0  501  0.00000000000E+00  0.00000000000E+00  0.16405289553E+04  0.16405289553E+04  0.25500000920E-02 0. -1.
        2   -1    0    0  501    0  0.00000000000E+00  0.00000000000E+00 -0.21946345683E+04  0.21946345683E+04  0.25500000920E-02 0.  1.
    10030    2    1    2    0    0  0.00000000000E+00  0.00000000000E+00 -0.55410561297E+03  0.38351635236E+04  0.37949237440E+04 0.  0.
        1    1    3    3  502    0  0.70391129678E+03  0.48539816147E+03  0.14347972202E+04  0.16702531401E+04  0.50400001928E-02 0. -1.
       -1    1    3    3    0  502 -0.70391129678E+03 -0.48539816147E+03 -0.19889028332E+04  0.21649103835E+04  0.50400001928E-02 0.  1.
</event>
<event>
 5   0  0.1628250E-08  0.3802096E+04  0.7818609E-02  0.8045705E-01
        1   -1    0    0  501    0  0.00000000000E+00  0.00000000000E+00  0.33051936388E+04  0.33051936388E+04  0.50400001928E-02 0.  1.
       -1   -1    0    0    0  501  0.00000000000E+00  0.00000000000E+00 -0.10934255778E+04  0.10934255779E+04  0.50400001928E-02 0. -1.
    10030    2    1    2    0    0  0.00000000000E+00  0.00000000000E+00  0.22117680609E+04  0.43986192166E+04  0.38020958770E+04 0.  0.
        1    1    3    3  502    0  0.21416049974E+03  0.14749773223E+04  0.24710967639E+04  0.28857827426E+04  0.50400001928E-02 0.  1.
       -1    1    3    3    0  502 -0.21416049974E+03 -0.14749773223E+04 -0.25932870299E+03  0.15128364740E+04  0.50400001928E-02 0. -1.
</event>
<event>
 5   0  0.1628250E-08  0.3804012E+04  0.7818609E-02  0.8045294E-01
       -3   -1    0    0    0  501  0.00000000000E+00  0.00000000000E+00  0.20871645851E+04  0.20871645876E+04  0.10100000352E+00 0.  1.
        3   -1    0    0  501    0  0.00000000000E+00  0.00000000000E+00 -0.17332732408E+04  0.17332732437E+04  0.10100000352E+00 0. -1.
    10030    2    1    2    0    0  0.00000000000E+00  0.00000000000E+00  0.35389134433E+03  0.38204378313E+04  0.38040118479E+04 0.  0.
        5    1    3    3  502    0  0.51784496128E+03 -0.93650294906E+03  0.17561231099E+04  0.20564998528E+04  0.46999998093E+01 0.  1.
       -5    1    3    3    0  502 -0.51784496128E+03  0.93650294906E+03 -0.14022317656E+04  0.17639379785E+04  0.46999998093E+01 0. -1.
</event>
<event>
 5   0  0.5159761E-08  0.3784208E+04  0.7818609E-02  0.8049552E-01
        2   -1    0    0  501    0  0.00000000000E+00  0.00000000000E+00  0.26081516981E+04  0.26081516981E+04  0.25500000920E-02 0.  1.
       -2   -1    0    0    0  501  0.00000000000E+00  0.00000000000E+00 -0.13726419422E+04  0.13726419422E+04  0.25500000920E-02 0. -1.
    10030    2    1    2    0    0  0.00000000000E+00  0.00000000000E+00  0.12355097559E+04  0.39807936403E+04  0.37842084575E+04 0.  0.
        5    1    3    3  502    0  0.34020474472E+03  0.16527721332E+04  0.15181648995E+04  0.22698550052E+04  0.46999998093E+01 0.  1.
       -5    1    3    3    0  502 -0.34020474472E+03 -0.16527721332E+04 -0.28265514360E+03  0.17109386351E+04  0.46999998093E+01 0. -1.
</event>
<event>
 5   0  0.5140842E-08  0.3800356E+04  0.7818609E-02  0.8046079E-01
       -2   -1    0    0    0  501  0.00000000000E+00  0.00000000000E+00  0.18596959960E+04  0.18596959960E+04  0.25500000920E-02 0. -1.
        2   -1    0    0  501    0  0.00000000000E+00  0.00000000000E+00 -0.19415411373E+04  0.19415411373E+04  0.25500000920E-02 0.  1.
    10030    2    1    2    0    0  0.00000000000E+00  0.00000000000E+00 -0.81845141252E+02  0.38012371333E+04  0.38003559197E+04 0.  0.
        2    1    3    3  502    0 -0.87418428476E+03  0.15963422981E+03  0.16390486866E+04  0.18644467941E+04  0.25500000920E-02 0. -1.
       -2    1    3    3    0  502  0.87418428476E+03 -0.15963422981E+03 -0.17208938279E+04  0.19367903392E+04  0.25500000920E-02 0.  1.
</event>
<event>
 5   0  0.5086209E-08  0.3796610E+04  0.7818609E-02  0.8046883E-01
       -2   -1    0    0    0  501  0.00000000000E+00  0.00000000000E+00  0.16042376551E+04  0.16042376551E+04  0.25500000920E-02 0. -1.
        2   -1    0    0  501    0  0.00000000000E+00  0.00000000000E+00 -0.22462766064E+04  0.22462766064E+04  0.25500000920E-02 0.  1.
    10030    2    1    2    0    0  0.00000000000E+00  0.00000000000E+00 -0.64203895136E+03  0.38505142615E+04  0.37966098118E+04 0.  0.
        3    1    3    3  502    0  0.29694159326E+03 -0.11594743762E+03 -0.22189369787E+04  0.22417179671E+04  0.10100000352E+00 0.  1.
       -3    1    3    3    0  502 -0.29694159326E+03  0.11594743762E+03  0.15768980274E+04  0.16087962944E+04  0.10100000352E+00 0. -1.
</event>
<event>
 5   0  0.1628250E-08  0.3794892E+04  0.7818609E-02  0.8047252E-01
        1   -1    0    0  501    0  0.00000000000E+00  0.00000000000E+00  0.28172942735E+04  0.28172942735E+04  0.50400001928E-02 0. -1.
       -1   -1    0    0    0  501  0.00000000000E+00  0.00000000000E+00 -0.12779290729E+04  0.12779290729E+04  0.50400001928E-02 0.  1.
    10030    2    1    2    0    0  0.00000000000E+00  0.00000000000E+00  0.15393652006E+04  0.40952233464E+04  0.37948924933E+04 0.  0.
        1    1    3    3  502    0  0.18954190290E+04 -0.75116929484E+02  0.81849998205E+03  0.20659617782E+04  0.50400001928E-02 0.  1.
       -1    1    3    3    0  502 -0.18954190290E+04  0.75116929484E+02  0.72086521859E+03  0.20292615681E+04  0.50400001928E-02 0. -1.
</event>
<event>
 5   0  0.5086209E-08  0.3789728E+04  0.7818609E-02  0.8048363E-01
       -2   -1    0    0    0  501  0.00000000000E+00  0.00000000000E+00  0.15401111629E+04  0.15401111629E+04  0.25500000920E-02 0. -1.
        2   -1    0    0  501    0  0.00000000000E+00  0.00000000000E+00 -0.23313308708E+04  0.23313308708E+04  0.25500000920E-02 0.  1.
    10030    2    1    2    0    0  0.00000000000E+00  0.00000000000E+00 -0.79121970793E+03  0.38714420336E+04  0.37897275355E+04 0.  0.
        3    1    3    3  502    0 -0.10755165384E+04 -0.29994742794E+03  0.11683494815E+04  0.16160893556E+04  0.10100000352E+00 0. -1.
       -3    1    3    3    0  502  0.10755165384E+04  0.29994742794E+03 -0.19595691895E+04  0.22553526781E+04  0.10100000352E+00 0.  1.
</event>
<event>
 5   0  0.5159761E-08  0.3803851E+04  0.7818609E-02  0.8045329E-01
        2   -1    0    0  501    0  0.00000000000E+00  0.00000000000E+00  0.17391042962E+04  0.17391042962E+04  0.25500000920E-02 0.  1.
       -2   -1    0    0    0  501  0.00000000000E+00  0.00000000000E+00 -0.20799904757E+04  0.20799904757E+04  0.25500000920E-02 0. -1.
    10030    2    1    2    0    0  0.00000000000E+00  0.00000000000E+00 -0.34088617957E+03  0.38190947719E+04  0.38038508763E+04 0.  0.
        5    1    3    3  502    0  0.18593644611E+04  0.17192915444E+03 -0.53314202755E+03  0.19419213024E+04  0.46999998093E+01 0.  1.
       -5    1    3    3    0  502 -0.18593644611E+04 -0.17192915444E+03  0.19225584798E+03  0.18771734694E+04  0.46999998093E+01 0. -1.
</event>
<event>
 5   0  0.1628250E-08  0.3792768E+04  0.7818609E-02  0.8047709E-01
       -1   -1    0    0    0  501  0.00000000000E+00  0.00000000000E+00  0.34378044182E+04  0.34378044182E+04  0.50400001928E-02 0.  1.
        1   -1    0    0  501    0  0.00000000000E+00  0.00000000000E+00 -0.10460959025E+04  0.10460959025E+04  0.50400001928E-02 0. -1.
    10030    2    1    2    0    0  0.00000000000E+00  0.00000000000E+00  0.23917085157E+04  0.44839003207E+04  0.37927684429E+04 0.  0.
        1    1    3    3  502    0  0.16491604073E+04  0.92466939519E+03  0.10223870621E+04  0.21494229096E+04  0.50400001928E-02 0. -1.
       -1    1    3    3    0  502 -0.16491604073E+04 -0.92466939519E+03  0.13693214536E+04  0.23344774111E+04  0.50400001928E-02 0.  1.
</event>
<event>
 5   0  0.1666051E-08  0.3800996E+04  0.7818609E-02  0.8045941E-01
       -1   -1    0    0    0  501  0.00000000000E+00  0.00000000000E+00  0.18420755659E+04  0.18420755659E+04  0.50400001928E-02 0. -1.
        1   -1    0    0  501    0  0.00000000000E+00  0.00000000000E+00 -0.19607731285E+04  0.19607731285E+04  0.50400001928E-02 0.  1.
    10030    2    1    2    0    0  0.00000000000E+00  0.00000000000E+00 -0.11869756263E+03  0.38028486944E+04  0.38009958013E+04 0.  0.
        2    1    3    3  502    0 -0.39223137020E+03 -0.15068135904E+04 -0.11496321030E+04  0.19354551444E+04  0.25500000920E-02 0.  1.
       -2    1    3    3    0  502  0.39223137020E+03  0.15068135904E+04  0.10309345404E+04  0.18673935500E+04  0.25500000920E-02 0. -1.
</event>
<event>
 5   0  0.5207474E-08  0.3804393E+04  0.7818609E-02  0.8045213E-01
        2   -1    0    0  501    0  0.00000000000E+00  0.00000000000E+00  0.23518795154E+04  0.23518795154E+04  0.25500000920E-02 0.  1.
       -2   -1    0    0    0  501  0.00000000000E+00  0.00000000000E+00 -0.15384936506E+04  0.15384936506E+04  0.25500000920E-02 0. -1.
    10030    2    1    2    0    0  0.00000000000E+00  0.00000000000E+00  0.81338586485E+03  0.38903731661E+04  0.38043930930E+04 0.  0.
        4    1    3    3  502    0  0.40053789275E+03  0.10551594200E+04  0.19724932422E+04  0.22725587360E+04  0.12699999809E+01 0.  1.
       -4    1    3    3    0  502 -0.40053789275E+03 -0.10551594200E+04 -0.11591073773E+04  0.16178144301E+04  0.12699999809E+01 0. -1.
</event>
<event>
 5   0  0.5207474E-08  0.3804199E+04  0.7818609E-02  0.8045254E-01
        2   -1    0    0  501    0  0.00000000000E+00  0.00000000000E+00  0.22639538273E+04  0.22639538273E+04  0.25500000920E-02 0.  1.
       -2   -1    0    0    0  501  0.00000000000E+00  0.00000000000E+00 -0.15980813158E+04  0.15980813159E+04  0.25500000920E-02 0. -1.
    10030    2    1    2    0    0  0.00000000000E+00  0.00000000000E+00  0.66587251141E+03  0.38620351431E+04  0.38041988966E+04 0.  0.
        4    1    3    3  502    0 -0.12990363525E+04 -0.10055799698E+04 -0.64043890818E+03  0.17631931627E+04  0.12699999809E+01 0. -1.
       -4    1    3    3    0  502  0.12990363525E+04  0.10055799698E+04  0.13063114196E+04  0.20988419804E+04  0.12699999809E+01 0.  1.
</event>
<event>
 5   0  0.5140842E-08  0.3800592E+04  0.7818609E-02  0.8046028E-01
        2   -1    0    0  501    0  0.00000000000E+00  0.00000000000E+00  0.12168930843E+04  0.12168930843E+04  0.25500000920E-02 0. -1.
       -2   -1    0    0    0  501  0.00000000000E+00  0.00000000000E+00 -0.29674955503E+04  0.29674955503E+04  0.25500000920E-02 0.  1.
    10030    2    1    2    0    0  0.00000000000E+00  0.00000000000E+00 -0.17506024661E+04  0.41843886346E+04  0.38005919606E+04 0.  0.
        2    1    3    3  502    0  0.84489642045E+03  0.37136157699E+03 -0.27041819380E+04  0.28573343059E+04  0.25500000920E-02 0.  1.
       -2    1    3    3    0  502 -0.84489642045E+03 -0.37136157699E+03  0.95357947187E+03  0.13270543287E+04  0.25500000920E-02 0. -1.
</event>
<event>
 5   0  0.5147582E-08  0.3809441E+04  0.7818609E-02  0.8044132E-01
       -2   -1    0    0    0  501  0.00000000000E+00  0.00000000000E+00  0.14006161692E+04  0.14006161692E+04  0.25500000920E-02 0.  1.
        2   -1    0    0  501    0  0.00000000000E+00  0.00000000000E+00 -0.25902597958E+04  0.25902597958E+04  0.25500000920E-02 0. -1.
    10030    2    1    2    0    0  0.00000000000E+00  0.00000000000E+00 -0.11896436265E+04  0.39908759650E+04  0.38094407739E+04 0.  0.
        1    1    3    3  502    0 -0.16293284309E+03 -0.18243074726E+04 -0.11425166513E+04  0.21587008048E+04  0.50400001928E-02 0. -1.
       -1    1    3    3    0  502  0.16293284309E+03  0.18243074726E+04 -0.47126975184E+02  0.18321751602E+04  0.50400001928E-02 0.  1.
</event>
<event>
 5   0  0.5207474E-08  0.3785491E+04  0.7818609E-02  0.8049276E-01
        2   -1    0    0  501    0  0.00000000000E+00  0.00000000000E+00  0.21603764518E+04  0.21603764518E+04  0.25500000920E-02 0. -1.
       -2   -1    0    0    0  501  0.00000000000E+00  0.00000000000E+00 -0.16582692046E+04  0.16582692046E+04  0.25500000920E-02 0.  1.
    10030    2    1    2    0    0  0.00000000000E+00  0.00000000000E+00  0.50210724719E+03  0.38186456564E+04  0.37854911123E+04 0.  0.
        4    1    3    3  502    0  0.16852825609E+04 -0.71228054922E+03 -0.23792186324E+03  0.18450282699E+04  0.12699999809E+01 0.  1.
       -4    1    3    3    0  502 -0.16852825609E+04  0.71228054922E+03  0.74002911044E+03  0.19736173865E+04  0.12699999809E+01 0. -1.
</event>
<event>
 5   0  0.5086209E-08  0.3794621E+04  0.7818609E-02  0.8047310E-01
        2   -1    0    0  501    0  0.00000000000E+00  0.00000000000E+00  0.22977962573E+04  0.22977962573E+04  0.25500000920E-02 0.  1.
       -2   -1    0    0    0  501  0.00000000000E+00  0.00000000000E+00 -0.15666262760E+04  0.15666262760E+04  0.25500000920E-02 0. -1.
    10030    2    1    2    0    0  0.00000000000E+00  0.00000000000E+00  0.73116998128E+03  0.38644225333E+04  0.37946214534E+04 0.  0.
        3    1    3    3  502    0  0.81903570834E+02  0.99863410694E+03 -0.12752033992E+04  0.16217650859E+04  0.10100000352E+00 0. -1.
       -3    1    3    3    0  502 -0.81903570834E+02 -0.99863410694E+03  0.20063733804E+04  0.22426574474E+04  0.10100000352E+00 0.  1.
</event>
<event>
 5   0  0.1628473E-08  0.3796806E+04  0.7818609E-02  0.8046841E-01
        1   -1    0    0  501    0  0.00000000000E+00  0.00000000000E+00  0.19017455533E+04  0.19017455533E+04  0.50400001928E-02 0. -1.
       -1   -1    0    0    0  501  0.00000000000E+00  0.00000000000E+00 -0.18950666981E+04  0.18950666981E+04  0.50400001928E-02 0.  1.
    10030    2    1    2    0    0  0.00000000000E+00  0.00000000000E+00  0.66788551882E+01  0.37968122514E+04  0.37968063771E+04 0.  0.
        3    1    3    3  502    0 -0.99612383958E+03  0.11635779014E+04  0.11248394551E+04  0.19003789218E+04  0.10100000352E+00 0. -1.
       -3    1    3    3    0  502  0.99612383958E+03 -0.11635779014E+04 -0.11181605999E+04  0.18964333296E+04  0.10100000352E+00 0.  1.
</event>
<event>
 5   0  0.1628473E-08  0.3804650E+04  0.7818609E-02  0.8045158E-01
       -1   -1    0    0    0  501  0.00000000000E+00  0.00000000000E+00  0.18064701926E+04  0.18064701926E+04  0.50400001928E-02 0. -1.
        1   -1    0    0  501    0  0.00000000000E+00  0.00000000000E+00 -0.20032657305E+04  0.20032657305E+04  0.50400001928E-02 0.  1.
    10030    2    1    2    0    0  0.00000000000E+00  0.00000000000E+00 -0.19679553793E+03  0.38097359231E+04  0.38046496974E+04 0.  0.
        3    1    3    3  502    0  0.78678118337E+03  0.15273143585E+04 -0.91626751386E+03  0.19471158023E+04  0.10100000352E+00 0.  1.
       -3    1    3    3    0  502 -0.78678118337E+03 -0.15273143585E+04  0.71947197594E+03  0.18626201209E+04  0.10100000352E+00 0. -1.
</event>
<event>
 5   0  0.1628250E-08  0.3801237E+04  0.7818609E-02  0.8045889E-01
       -1   -1    0    0    0  501  0.00000000000E+00  0.00000000000E+00  0.11179211100E+04  0.11179211100E+04  0.50400001928E-02 0.  1.
        1   -1    0    0  501    0  0.00000000000E+00  0.00000000000E+00 -0.32313113973E+04  0.32313113973E+04  0.50400001928E-02 0. -1.
    10030    2    1    2    0    0  0.00000000000E+00  0.00000000000E+00 -0.21133902874E+04  0.43492325073E+04  0.38012372849E+04 0.  0.
        4    1    3    3  502    0  0.76610780821E+03  0.14084484352E+04 -0.22244704239E+04  0.27420646324E+04  0.12699999809E+01 0. -1.
       -4    1    3    3    0  502 -0.76610780821E+03 -0.14084484352E+04  0.11108013652E+03  0.16071678749E+04  0.12699999809E+01 0.  1.
</event>
<event>
 5   0  0.1628250E-08  0.3807481E+04  0.7818609E-02  0.8044551E-01
        1   -1    0    0  501    0  0.00000000000E+00  0.00000000000E+00  0.21617948636E+04  0.21617948636E+04  0.50400001928E-02 0.  1.
       -1   -1    0    0    0  501  0.00000000000E+00  0.00000000000E+00 -0.16764898965E+04  0.16764898966E+04  0.50400001928E-02 0. -1.
    10030    2    1    2    0    0  0.00000000000E+00  0.00000000000E+00  0.48530496710E+03  0.38382847602E+04  0.38074806617E+04 0.  0.
        1    1    3    3  502    0  0.98462338059E+03  0.14991932595E+04 -0.40060369580E+03  0.18378103689E+04  0.50400001928E-02 0. -1.
       -1    1    3    3    0  502 -0.98462338059E+03 -0.14991932595E+04  0.88590866290E+03  0.20004743913E+04  0.50400001928E-02 0.  1.
</event>
<event>
 5   0  0.5147582E-08  0.3800434E+04  0.7818609E-02  0.8046062E-01
       -2   -1    0    0    0  501  0.00000000000E+00  0.00000000000E+00  0.34276726218E+04  0.34276726218E+04  0.25500000920E-02 0.  1.
        2   -1    0    0  501    0  0.00000000000E+00  0.00000000000E+00 -0.10534332389E+04  0.10534332389E+04  0.25500000920E-02 0. -1.
    10030    2    1    2    0    0  0.00000000000E+00  0.00000000000E+00  0.23742393829E+04  0.44811058607E+04  0.38004338026E+04 0.  0.
        1    1    3    3  502    0 -0.16865757191E+04 -0.71457491551E+03  0.59092057544E+03  0.19246667484E+04  0.50400001928E-02 0. -1.
       -1    1    3    3    0  502  0.16865757191E+04  0.71457491551E+03  0.17833188074E+04  0.25564391123E+04  0.50400001928E-02 0.  1.
</event>
<event>
 5   0  0.5207474E-08  0.3799276E+04  0.7818609E-02  0.8046310E-01
        2   -1    0    0  501    0  0.00000000000E+00  0.00000000000E+00  0.17355719734E+04  0.17355719734E+04  0.25500000920E-02 0. -1.
       -2   -1    0    0    0  501  0.00000000000E+00  0.00000000000E+00 -0.20792133962E+04  0.20792133962E+04  0.25500000920E-02 0.  1.
    10030    2    1    2    0    0  0.00000000000E+00  0.00000000000E+00 -0.34364142287E+03  0.38147853696E+04  0.37992759822E+04 0.  0.
        4    1    3    3  502    0  0.62533157334E+03  0.16630297670E+04 -0.84681141202E+03  0.19681968303E+04  0.12699999809E+01 0.  1.
       -4    1    3    3    0  502 -0.62533157334E+03 -0.16630297670E+04  0.50316998914E+03  0.18465885393E+04  0.12699999809E+01 0. -1.
</event>
<event>
 5   0  0.5140842E-08  0.3801364E+04  0.7818609E-02  0.8045862E-01
       -2   -1    0    0    0  501  0.00000000000E+00  0.00000000000E+00  0.31635553677E+04  0.31635553677E+04  0.25500000920E-02 0. -1.
        2   -1    0    0  501    0  0.00000000000E+00  0.00000000000E+00 -0.11419407369E+04  0.11419407369E+04  0.25500000920E-02 0.  1.
    10030    2    1    2    0    0  0.00000000000E+00  0.00000000000E+00  0.20216146309E+04  0.43054961046E+04  0.38013643591E+04 0.  0.
        2    1    3    3  502    0  0.44456432395E+03 -0.89640347742E+03  0.28411050494E+04  0.30121511473E+04  0.25500000920E-02 0. -1.
       -2    1    3    3    0  502 -0.44456432395E+03  0.89640347742E+03 -0.81949041853E+03  0.12933449573E+04  0.25500000920E-02 0.  1.
</event>
<event>
 5   0  0.1628250E-08  0.3813164E+04  0.7818609E-02  0.8043336E-01
       -3   -1    0    0    0  501  0.00000000000E+00  0.00000000000E+00  0.13566010354E+04  0.13566010391E+04  0.10100000352E+00 0. -1.
        3   -1    0    0  501    0  0.00000000000E+00  0.00000000000E+00 -0.26795318673E+04  0.26795318692E+04  0.10100000352E+00 0.  1.
    10030    2    1    2    0    0  0.00000000000E+00  0.00000000000E+00 -0.13229308319E+04  0.40361329083E+04  0.38131644166E+04 0.  0.
        4    1    3    3  502    0  0.72776305377E+03  0.37529221736E+03 -0.24839373130E+04  0.26154214763E+04  0.12699999809E+01 0.  1.
       -4    1    3    3    0  502 -0.72776305377E+03 -0.37529221736E+03  0.11610064811E+04  0.14207114320E+04  0.12699999809E+01 0. -1.
</event>
<event>
 5   0  0.1628473E-08  0.3683738E+04  0.7818609E-02  0.8071575E-01
        1   -1    0    0  501    0  0.00000000000E+00  0.00000000000E+00  0.18983582200E+04  0.18983582200E+04  0.50400001928E-02 0.  1.
       -1   -1    0    0    0  501  0.00000000000E+00  0.00000000000E+00 -0.17870608509E+04  0.17870608509E+04  0.50400001928E-02 0. -1.
    10030    2    1    2    0    0  0.00000000000E+00  0.00000000000E+00  0.11129736908E+03  0.36854190710E+04  0.36837381319E+04 0.  0.
        3    1    3    3  502    0  0.51158926132E+03  0.10842980009E+04  0.14545198589E+04  0.18849545769E+04  0.10100000352E+00 0.  1.
       -3    1    3    3    0  502 -0.51158926132E+03 -0.10842980009E+04 -0.13432224898E+04  0.18004644940E+04  0.10100000352E+00 0. -1.
</event>
<event>
 5   0  0.5147582E-08  0.3719119E+04  0.7818609E-02  0.8063738E-01
       -2   -1    0    0    0  501  0.00000000000E+00  0.00000000000E+00  0.25431920744E+04  0.25431920744E+04  0.25500000920E-02 0.  1.
        2   -1    0    0  501    0  0.00000000000E+00  0.00000000000E+00 -0.13596931830E+04  0.13596931830E+04  0.25500000920E-02 0. -1.
    10030    2    1    2    0    0  0.00000000000E+00  0.00000000000E+00  0.11834988914E+04  0.39028852573E+04  0.37191186733E+04 0.  0.
        1    1    3    3  502    0 -0.11808627249E+03  0.18557609208E+04  0.57814899153E+03  0.19473184689E+04  0.50400001928E-02 0.  1.
       -1    1    3    3    0  502  0.11808627249E+03 -0.18557609208E+04  0.60534989985E+03  0.19555667885E+04  0.50400001928E-02 0. -1.
</event>
<event>
 5   0  0.1628250E-08  0.3799066E+04  0.7818609E-02  0.8046355E-01
       -1   -1    0    0    0  501  0.00000000000E+00  0.00000000000E+00  0.30244806541E+04  0.30244806541E+04  0.50400001928E-02 0.  1.
        1   -1    0    0  501    0  0.00000000000E+00  0.00000000000E+00 -0.11930068317E+04  0.11930068317E+04  0.50400001928E-02 0. -1.
    10030    2    1    2    0    0  0.00000000000E+00  0.00000000000E+00  0.18314738225E+04  0.42174874858E+04  0.37990662446E+04 0.  0.
        4    1    3    3  502    0  0.18488603386E+04 -0.37122260885E+03  0.11692125235E+04  0.22188173235E+04  0.12699999809E+01 0.  1.
       -4    1    3    3    0  502 -0.18488603386E+04  0.37122260885E+03  0.66226129898E+03  0.19986701624E+04  0.12699999809E+01 0. -1.
</event>
<event>
 5   0  0.1628473E-08  0.3799948E+04  0.7818609E-02  0.8046166E-01
        1   -1    0    0  501    0  0.00000000000E+00  0.00000000000E+00  0.22591819744E+04  0.22591819744E+04  0.50400001928E-02 0.  1.
       -1   -1    0    0    0  501  0.00000000000E+00  0.00000000000E+00 -0.15978795201E+04  0.15978795201E+04  0.50400001928E-02 0. -1.
    10030    2    1    2    0    0  0.00000000000E+00  0.00000000000E+00  0.66130245428E+03  0.38570614945E+04  0.37999476886E+04 0.  0.
        3    1    3    3  502    0 -0.16159579426E+04 -0.98597093255E+03  0.49570476478E+03  0.19568295726E+04  0.10100000352E+00 0.  1.
       -3    1    3    3    0  502  0.16159579426E+04  0.98597093255E+03  0.16559768950E+03  0.19002319219E+04  0.10100000352E+00 0. -1.
</event>
<event>
 5   0  0.1628250E-08  0.3827355E+04  0.7818609E-02  0.8040310E-01
        1   -1    0    0  501    0  0.00000000000E+00  0.00000000000E+00  0.21947265260E+04  0.21947265260E+04  0.50400001928E-02 0. -1.
       -1   -1    0    0    0  501  0.00000000000E+00  0.00000000000E+00 -0.16686188118E+04  0.16686188118E+04  0.50400001928E-02 0.  1.
    10030    2    1    2    0    0  0.00000000000E+00  0.00000000000E+00  0.52610771420E+03  0.38633453377E+04  0.38273552059E+04 0.  0.
        1    1    3    3  502    0  0.15853340393E+04 -0.31470107776E+02  0.13445237665E+04  0.20789464982E+04  0.50400001928E-02 0. -1.
       -1    1    3    3    0  502 -0.15853340393E+04  0.31470107776E+02 -0.81841605230E+03  0.17843988395E+04  0.50400001928E-02 0.  1.
</event>
<event>
 5   0  0.1628250E-08  0.3802284E+04  0.7818609E-02  0.8045665E-01
        3   -1    0    0  501    0  0.00000000000E+00  0.00000000000E+00  0.20781040572E+04  0.20781040597E+04  0.10100000352E+00 0. -1.
       -3   -1    0    0    0  501  0.00000000000E+00  0.00000000000E+00 -0.17392487815E+04  0.17392487844E+04  0.10100000352E+00 0.  1.
    10030    2    1    2    0    0  0.00000000000E+00  0.00000000000E+00  0.33885527573E+03  0.38173528441E+04  0.38022835032E+04 0.  0.
        4    1    3    3  502    0 -0.47541065998E+03  0.18358838963E+04  0.35281579138E+02  0.18967686678E+04  0.12699999809E+01 0.  1.
       -4    1    3    3    0  502  0.47541065998E+03 -0.18358838963E+04  0.30357369659E+03  0.19205841763E+04  0.12699999809E+01 0. -1.
</event>
<event>
 5   0  0.1628473E-08  0.3795297E+04  0.7818609E-02  0.8047165E-01
        1   -1    0    0  501    0  0.00000000000E+00  0.00000000000E+00  0.20841945320E+04  0.20841945320E+04  0.50400001928E-02 0.  1.
       -1   -1    0    0    0  501  0.00000000000E+00  0.00000000000E+00 -0.17277993292E+04  0.17277993292E+04  0.50400001928E-02 0. -1.
    10030    2    1    2    0    0  0.00000000000E+00  0.00000000000E+00  0.35639520279E+03  0.38119938612E+04  0.37952970447E+04 0.  0.
        3    1    3    3  502    0  0.84718260635E+03 -0.16574072337E+04 -0.19268669608E+03  0.18713218002E+04  0.10100000352E+00 0. -1.
       -3    1    3    3    0  502 -0.84718260635E+03  0.16574072337E+04  0.54908189888E+03  0.19406720611E+04  0.10100000352E+00 0.  1.
</event>
<event>
 5   0  0.5207474E-08  0.3799246E+04  0.7818609E-02  0.8046317E-01
       -2   -1    0    0    0  501  0.00000000000E+00  0.00000000000E+00  0.17363198927E+04  0.17363198927E+04  0.25500000920E-02 0.  1.
        2   -1    0    0  501    0  0.00000000000E+00  0.00000000000E+00 -0.20782850649E+04  0.20782850649E+04  0.25500000920E-02 0. -1.
    10030    2    1    2    0    0  0.00000000000E+00  0.00000000000E+00 -0.34196517222E+03  0.38146049577E+04  0.37992460836E+04 0.  0.
        4    1    3    3  502    0 -0.27488039677E+03 -0.65030320206E+03  0.15996978987E+04  0.17485675473E+04  0.12699999809E+01 0.  1.
       -4    1    3    3    0  502  0.27488039677E+03  0.65030320206E+03 -0.19416630710E+04  0.20660374104E+04  0.12699999809E+01 0. -1.
</event>
<event>
 5   0  0.5147582E-08  0.3796566E+04  0.7818609E-02  0.8046892E-01
        2   -1    0    0  501    0  0.00000000000E+00  0.00000000000E+00  0.13092655248E+04  0.13092655248E+04  0.25500000920E-02 0. -1.
       -2   -1    0    0    0  501  0.00000000000E+00  0.00000000000E+00 -0.27522905761E+04  0.27522905761E+04  0.25500000920E-02 0.  1.
    10030    2    1    2    0    0  0.00000000000E+00  0.00000000000E+00 -0.14430250513E+04  0.40615561009E+04  0.37965664307E+04 0.  0.
        1    1    3    3  502    0 -0.11055117208E+04  0.14895999655E+04 -0.11526486820E+04  0.21839558618E+04  0.50400001928E-02 0.  1.
       -1    1    3    3    0  502  0.11055117208E+04 -0.14895999655E+04 -0.29037636927E+03  0.18776002391E+04  0.50400001928E-02 0. -1.
</event>
<event>
 5   0  0.1628250E-08  0.3798401E+04  0.7818609E-02  0.8046498E-01
        1   -1    0    0  501    0  0.00000000000E+00  0.00000000000E+00  0.19208912679E+04  0.19208912679E+04  0.50400001928E-02 0. -1.
       -1   -1    0    0    0  501  0.00000000000E+00  0.00000000000E+00 -0.18777546761E+04  0.18777546761E+04  0.50400001928E-02 0.  1.
    10030    2    1    2    0    0  0.00000000000E+00  0.00000000000E+00  0.43136591782E+02  0.37986459441E+04  0.37984010113E+04 0.  0.
        4    1    3    3  502    0  0.29852066564E+03  0.70864301168E+03  0.17582491458E+04  0.19190443396E+04  0.12699999809E+01 0. -1.
       -4    1    3    3    0  502 -0.29852066564E+03 -0.70864301168E+03 -0.17151125540E+04  0.18796016045E+04  0.12699999809E+01 0.  1.
</event>
<event>
 5   0  0.5159761E-08  0.3809864E+04  0.7818609E-02  0.8044041E-01
        2   -1    0    0  501    0  0.00000000000E+00  0.00000000000E+00  0.22393070196E+04  0.22393070196E+04  0.25500000920E-02 0.  1.
       -2   -1    0    0    0  501  0.00000000000E+00  0.00000000000E+00 -0.16204860907E+04  0.16204860907E+04  0.25500000920E-02 0. -1.
    10030    2    1    2    0    0  0.00000000000E+00  0.00000000000E+00  0.61882092891E+03  0.38597931102E+04  0.38098639755E+04 0.  0.
        5    1    3    3  502    0 -0.14853990727E+04  0.41627756910E+03 -0.82284346560E+03  0.17483680615E+04  0.46999998093E+01 0. -1.
       -5    1    3    3    0  502  0.14853990727E+04 -0.41627756910E+03  0.14416643945E+04  0.21114250487E+04  0.46999998093E+01 0.  1.
</event>
<event>
 5   0  0.1628250E-08  0.3797609E+04  0.7818609E-02  0.8046668E-01
        1   -1    0    0  501    0  0.00000000000E+00  0.00000000000E+00  0.23140616184E+04  0.23140616184E+04  0.50400001928E-02 0.  1.
       -1   -1    0    0    0  501  0.00000000000E+00  0.00000000000E+00 -0.15580650371E+04  0.15580650371E+04  0.50400001928E-02 0. -1.
    10030    2    1    2    0    0  0.00000000000E+00  0.00000000000E+00  0.75599658132E+03  0.38721266555E+04  0.37976089853E+04 0.  0.
        4    1    3    3  502    0  0.93125926504E+02 -0.34709246757E+03 -0.15230740199E+04  0.15648967066E+04  0.12699999809E+01 0. -1.
       -4    1    3    3    0  502 -0.93125926504E+02  0.34709246757E+03  0.22790706012E+04  0.23072299490E+04  0.12699999809E+01 0.  1.
</event>
<event>
 5   0  0.1628250E-08  0.3802911E+04  0.7818609E-02  0.8045530E-01
        1   -1    0    0  501    0  0.00000000000E+00  0.00000000000E+00  0.22773308125E+04  0.22773308125E+04  0.50400001928E-02 0. -1.
       -1   -1    0    0    0  501  0.00000000000E+00  0.00000000000E+00 -0.15876189872E+04  0.15876189872E+04  0.50400001928E-02 0.  1.
    10030    2    1    2    0    0  0.00000000000E+00  0.00000000000E+00  0.68971182536E+03  0.38649497997E+04  0.38029113258E+04 0.  0.
        1    1    3    3  502    0  0.74921122818E+03  0.16270458088E+04  0.99317952654E+03  0.20481701834E+04  0.50400001928E-02 0. -1.
       -1    1    3    3    0  502 -0.74921122818E+03 -0.16270458088E+04 -0.30346770117E+03  0.18167796163E+04  0.50400001928E-02 0.  1.
</event>
<event>
 5   0  0.1628473E-08  0.3799751E+04  0.7818609E-02  0.8046208E-01
       -1   -1    0    0    0  501  0.00000000000E+00  0.00000000000E+00  0.13791665311E+04  0.13791665311E+04  0.50400001928E-02 0.  1.
        1   -1    0    0  501    0  0.00000000000E+00  0.00000000000E+00 -0.26171804088E+04  0.26171804088E+04  0.50400001928E-02 0. -1.
    10030    2    1    2    0    0  0.00000000000E+00  0.00000000000E+00 -0.12380138777E+04  0.39963469398E+04  0.37997513737E+04 0.  0.
        3    1    3    3  502    0 -0.80323047428E+03  0.82280111828E+03 -0.22096546531E+04  0.24909344775E+04  0.10100000352E+00 0. -1.
       -3    1    3    3    0  502  0.80323047428E+03 -0.82280111828E+03  0.97164077540E+03  0.15054124623E+04  0.10100000352E+00 0.  1.
</event>
<event>
 5   0  0.1628473E-08  0.3801551E+04  0.7818609E-02  0.8045822E-01
       -1   -1    0    0    0  501  0.00000000000E+00  0.00000000000E+00  0.15950361841E+04  0.15950361841E+04  0.50400001928E-02 0. -1.
        1   -1    0    0  501    0  0.00000000000E+00  0.00000000000E+00 -0.22651190149E+04  0.22651190149E+04  0.50400001928E-02 0.  1.
    10030    2    1    2    0    0  0.00000000000E+00  0.00000000000E+00 -0.67008283077E+03  0.38601551990E+04  0.38015506258E+04 0.  0.
        3    1    3    3  502    0  0.17092764479E+04 -0.72865325850E+03  0.71613641800E+02  0.18594865072E+04  0.10100000352E+00 0. -1.
       -3    1    3    3    0  502 -0.17092764479E+04  0.72865325850E+03 -0.74169647257E+03  0.20006686918E+04  0.10100000352E+00 0.  1.
</event>
<event>
 5   0  0.5159761E-08  0.3803661E+04  0.7818609E-02  0.8045370E-01
        2   -1    0    0  501    0  0.00000000000E+00  0.00000000000E+00  0.23733551522E+04  0.23733551522E+04  0.25500000920E-02 0.  1.
       -2   -1    0    0    0  501  0.00000000000E+00  0.00000000000E+00 -0.15239855654E+04  0.15239855654E+04  0.25500000920E-02 0. -1.
    10030    2    1    2    0    0  0.00000000000E+00  0.00000000000E+00  0.84936958680E+03  0.38973407175E+04  0.38036608647E+04 0.  0.
        5    1    3    3  502    0  0.12391707256E+04  0.75129962823E+03  0.16866606011E+04  0.22236999105E+04  0.46999998093E+01 0.  1.
       -5    1    3    3    0  502 -0.12391707256E+04 -0.75129962823E+03 -0.83729101429E+03  0.16736408071E+04  0.46999998093E+01 0. -1.
</event>
<event>
 5   0  0.5147582E-08  0.3812755E+04  0.7818609E-02  0.8043423E-01
        2   -1    0    0  501    0  0.00000000000E+00  0.00000000000E+00  0.22968653928E+04  0.22968653928E+04  0.25500000920E-02 0.  1.
       -2   -1    0    0    0  501  0.00000000000E+00  0.00000000000E+00 -0.15822761721E+04  0.15822761721E+04  0.25500000920E-02 0. -1.
    10030    2    1    2    0    0  0.00000000000E+00  0.00000000000E+00  0.71458922065E+03  0.38791415649E+04  0.38127551097E+04 0.  0.
        1    1    3    3  502    0 -0.92556511683E+03 -0.16656727799E+04  0.41429497035E+03  0.19500710032E+04  0.50400001928E-02 0. -1.
       -1    1    3    3    0  502  0.92556511683E+03  0.16656727799E+04  0.30029425029E+03  0.19290705617E+04  0.50400001928E-02 0.  1.
</event>
<event>
 5   0  0.1628250E-08  0.3803956E+04  0.7818609E-02  0.8045306E-01
       -1   -1    0    0    0  501  0.00000000000E+00  0.00000000000E+00  0.26913325302E+04  0.26913325302E+04  0.50400001928E-02 0.  1.
        1   -1    0    0  501    0  0.00000000000E+00  0.00000000000E+00 -0.13441371515E+04  0.13441371515E+04  0.50400001928E-02 0. -1.
    10030    2    1    2    0    0  0.00000000000E+00  0.00000000000E+00  0.13471953786E+04  0.40354696817E+04  0.38039558572E+04 0.  0.
        4    1    3    3  502    0 -0.63826094275E+03  0.79282959764E+02 -0.12252716752E+04  0.13838190307E+04  0.12699999809E+01 0. -1.
       -4    1    3    3    0  502  0.63826094275E+03 -0.79282959764E+02  0.25724670539E+04  0.26516506510E+04  0.12699999809E+01 0.  1.
</event>
<event>
 5   0  0.1628473E-08  0.3797938E+04  0.7818609E-02  0.8046598E-01
        1   -1    0    0  501    0  0.00000000000E+00  0.00000000000E+00  0.19825956452E+04  0.19825956452E+04  0.50400001928E-02 0. -1.
       -1   -1    0    0    0  501  0.00000000000E+00  0.00000000000E+00 -0.18188694740E+04  0.18188694740E+04  0.50400001928E-02 0.  1.
    10030    2    1    2    0    0  0.00000000000E+00  0.00000000000E+00  0.16372617123E+03  0.38014651192E+04  0.37979377027E+04 0.  0.
        3    1    3    3  502    0  0.98229008429E+03  0.73076705997E+03  0.15348201932E+04  0.19633103018E+04  0.10100000352E+00 0. -1.
       -3    1    3    3    0  502 -0.98229008429E+03 -0.73076705997E+03 -0.13710940219E+04  0.18381548174E+04  0.10100000352E+00 0.  1.
</event>
<event>
 5   0  0.5159761E-08  0.3796961E+04  0.7818609E-02  0.8046807E-01
        2   -1    0    0  501    0  0.00000000000E+00  0.00000000000E+00  0.19162922326E+04  0.19162922326E+04  0.25500000920E-02 0. -1.
       -2   -1    0    0    0  501  0.00000000000E+00  0.00000000000E+00 -0.18808339696E+04  0.18808339696E+04  0.25500000920E-02 0.  1.
    10030    2    1    2    0    0  0.00000000000E+00  0.00000000000E+00  0.35458262991E+02  0.37971262021E+04  0.37969606406E+04 0.  0.
        5    1    3    3  502    0 -0.18574421657E+03 -0.33047860094E+03 -0.18425907882E+04  0.18811910914E+04  0.46999998093E+01 0.  1.
       -5    1    3    3    0  502  0.18574421657E+03  0.33047860094E+03  0.18780490512E+04  0.19159351107E+04  0.46999998093E+01 0. -1.
</event>
<event>
 5   0  0.1628250E-08  0.3807584E+04  0.7818609E-02  0.8044529E-01
        1   -1    0    0  501    0  0.00000000000E+00  0.00000000000E+00  0.32677808809E+04  0.32677808809E+04  0.50400001928E-02 0.  1.
       -1   -1    0    0    0  501  0.00000000000E+00  0.00000000000E+00 -0.11091393977E+04  0.11091393977E+04  0.50400001928E-02 0. -1.
    10030    2    1    2    0    0  0.00000000000E+00  0.00000000000E+00  0.21586414831E+04  0.43769202786E+04  0.38075842830E+04 0.  0.
        5    1    3    3  502    0 -0.96312071807E+03  0.11698595454E+04 -0.24549561291E+03  0.15350775419E+04  0.46999998093E+01 0. -1.
       -5    1    3    3    0  502  0.96312071807E+03 -0.11698595454E+04  0.24041370960E+04  0.28418427367E+04  0.46999998093E+01 0.  1.
</event>
<event>
 5   0  0.1628473E-08  0.3808528E+04  0.7818609E-02  0.8044327E-01
       -1   -1    0    0    0  501  0.00000000000E+00  0.00000000000E+00  0.30524221528E+04  0.30524221528E+04  0.50400001928E-02 0. -1.
        1   -1    0    0  501    0  0.00000000000E+00  0.00000000000E+00 -0.11879814159E+04  0.11879814159E+04  0.50400001928E-02 0.  1.
    10030    2    1    2    0    0  0.00000000000E+00  0.00000000000E+00  0.18644407369E+04  0.42404035687E+04  0.38085276898E+04 0.  0.
        3    1    3    3  502    0 -0.72200521105E+03  0.60928258280E+02  0.28929429567E+04  0.29823015840E+04  0.10100000352E+00 0. -1.
       -3    1    3    3    0  502  0.72200521105E+03 -0.60928258280E+02 -0.10285022198E+04  0.12581019847E+04  0.10100000352E+00 0.  1.
</event>
<event>
 5   0  0.5207474E-08  0.3800792E+04  0.7818609E-02  0.8045985E-01
        2   -1    0    0  501    0  0.00000000000E+00  0.00000000000E+00  0.17183201691E+04  0.17183201691E+04  0.25500000920E-02 0. -1.
       -2   -1    0    0    0  501  0.00000000000E+00  0.00000000000E+00 -0.21017643722E+04  0.21017643722E+04  0.25500000920E-02 0.  1.
    10030    2    1    2    0    0  0.00000000000E+00  0.00000000000E+00 -0.38344420304E+03  0.38200845413E+04  0.38007915552E+04 0.  0.
        4    1    3    3  502    0 -0.99545813648E+03  0.16168133522E+04 -0.11081390853E+03  0.19019210427E+04  0.12699999809E+01 0. -1.
       -4    1    3    3    0  502  0.99545813648E+03 -0.16168133522E+04 -0.27263029451E+03  0.19181634987E+04  0.12699999809E+01 0.  1.
</event>
<event>
 5   0  0.5140842E-08  0.3800348E+04  0.7818609E-02  0.8046080E-01
        2   -1    0    0  501    0  0.00000000000E+00  0.00000000000E+00  0.17545540174E+04  0.17545540174E+04  0.25500000920E-02 0. -1.
       -2   -1    0    0    0  501  0.00000000000E+00  0.00000000000E+00 -0.20578800728E+04  0.20578800728E+04  0.25500000920E-02 0.  1.
    10030    2    1    2    0    0  0.00000000000E+00  0.00000000000E+00 -0.30332605541E+03  0.38124340901E+04  0.38003482729E+04 0.  0.
        2    1    3    3  502    0  0.26341484572E+03  0.12208817883E+04 -0.15882513909E+04  0.20205153309E+04  0.25500000920E-02 0.  1.
       -2    1    3    3    0  502 -0.26341484572E+03 -0.12208817883E+04  0.12849253354E+04  0.17919187592E+04  0.25500000920E-02 0. -1.
</event>
<event>
 5   0  0.1666051E-08  0.3793337E+04  0.7818609E-02  0.8047586E-01
       -1   -1    0    0    0  501  0.00000000000E+00  0.00000000000E+00  0.11986945226E+04  0.11986945226E+04  0.50400001928E-02 0. -1.
        1   -1    0    0  501    0  0.00000000000E+00  0.00000000000E+00 -0.30010581558E+04  0.30010581558E+04  0.50400001928E-02 0.  1.
    10030    2    1    2    0    0  0.00000000000E+00  0.00000000000E+00 -0.18023636332E+04  0.41997526784E+04  0.37933373029E+04 0.  0.
        2    1    3    3  502    0 -0.41382712256E+03  0.10902937543E+04  0.75485525382E+03  0.13891723479E+04  0.25500000920E-02 0. -1.
       -2    1    3    3    0  502  0.41382712256E+03 -0.10902937543E+04 -0.25572188870E+04  0.28105803305E+04  0.25500000920E-02 0.  1.
</event>
<event>
 5   0  0.5140842E-08  0.3815157E+04  0.7818609E-02  0.8042910E-01
        2   -1    0    0  501    0  0.00000000000E+00  0.00000000000E+00  0.30845148115E+04  0.30845148115E+04  0.25500000920E-02 0.  1.
       -2   -1    0    0    0  501  0.00000000000E+00  0.00000000000E+00 -0.11797171504E+04  0.11797171504E+04  0.25500000920E-02 0. -1.
    10030    2    1    2    0    0  0.00000000000E+00  0.00000000000E+00  0.19047976611E+04  0.42642319619E+04  0.38151566279E+04 0.  0.
        2    1    3    3  502    0 -0.16934984228E+04  0.84681580765E+03  0.12117001630E+04  0.22479437727E+04  0.25500000920E-02 0.  1.
       -2    1    3    3    0  502  0.16934984228E+04 -0.84681580765E+03  0.69309749809E+03  0.20162881892E+04  0.25500000920E-02 0. -1.
</event>
<event>
 5   0  0.1666051E-08  0.3799601E+04  0.7818609E-02  0.8046240E-01
       -1   -1    0    0    0  501  0.00000000000E+00  0.00000000000E+00  0.20558987191E+04  0.20558987191E+04  0.50400001928E-02 0.  1.
        1   -1    0    0  501    0  0.00000000000E+00  0.00000000000E+00 -0.17555547254E+04  0.17555547254E+04  0.50400001928E-02 0. -1.
    10030    2    1    2    0    0  0.00000000000E+00  0.00000000000E+00  0.30034399366E+03  0.38114534445E+04  0.37996014060E+04 0.  0.
        2    1    3    3  502    0  0.11219925533E+04  0.79691039672E+03 -0.11636114734E+04  0.18022000807E+04  0.25500000920E-02 0. -1.
       -2    1    3    3    0  502 -0.11219925533E+04 -0.79691039672E+03  0.14639554671E+04  0.20092533637E+04  0.25500000920E-02 0.  1.
</event>
<event>
 5   0  0.1628250E-08  0.3798560E+04  0.7818609E-02  0.8046464E-01
        1   -1    0    0  501    0  0.00000000000E+00  0.00000000000E+00  0.16796337838E+04  0.16796337838E+04  0.50400001928E-02 0. -1.
       -1   -1    0    0    0  501  0.00000000000E+00  0.00000000000E+00 -0.21476492147E+04  0.21476492147E+04  0.50400001928E-02 0.  1.
    10030    2    1    2    0    0  0.00000000000E+00  0.00000000000E+00 -0.46801543091E+03  0.38272829986E+04  0.37985598202E+04 0.  0.
        1    1    3    3  502    0 -0.12606660402E+04  0.95923389752E+03  0.82170128730E+03  0.17845451915E+04  0.50400001928E-02 0. -1.
       -1    1    3    3    0  502  0.12606660402E+04 -0.95923389752E+03 -0.12897167182E+04  0.20427378070E+04  0.50400001928E-02 0.  1.
</event>
<event>
 5   0  0.5140842E-08  0.3803325E+04  0.7818609E-02  0.8045442E-01
       -2   -1    0    0    0  501  0.00000000000E+00  0.00000000000E+00  0.16350503079E+04  0.16350503079E+04  0.25500000920E-02 0. -1.
        2   -1    0    0  501    0  0.00000000000E+00  0.00000000000E+00 -0.22117489077E+04  0.22117489077E+04  0.25500000920E-02 0.  1.
    10030    2    1    2    0    0  0.00000000000E+00  0.00000000000E+00 -0.57669859983E+03  0.38467992156E+04  0.38033252464E+04 0.  0.
        2    1    3    3  502    0 -0.94099224195E+03 -0.11835697795E+04 -0.14547952884E+04  0.20982690851E+04  0.25500000920E-02 0.  1.
       -2    1    3    3    0  502  0.94099224195E+03  0.11835697795E+04  0.87809668858E+03  0.17485301304E+04  0.25500000920E-02 0. -1.
</event>
<event>
 5   0  0.5207474E-08  0.3783582E+04  0.7818609E-02  0.8049687E-01
       -2   -1    0    0    0  501  0.00000000000E+00  0.00000000000E+00  0.13472398565E+04  0.13472398566E+04  0.25500000920E-02 0.  1.
        2   -1    0    0  501    0  0.00000000000E+00  0.00000000000E+00 -0.26564488217E+04  0.26564488217E+04  0.25500000920E-02 0. -1.
    10030    2    1    2    0    0  0.00000000000E+00  0.00000000000E+00 -0.13092089651E+04  0.40036886782E+04  0.37835822864E+04 0.  0.
        4    1    3    3  502    0  0.17345479313E+04 -0.71846559118E+02  0.14082551184E+03  0.17417381811E+04  0.12699999809E+01 0.  1.
       -4    1    3    3    0  502 -0.17345479313E+04  0.71846559118E+02 -0.14500344770E+04  0.22619504971E+04  0.12699999809E+01 0. -1.
</event>
<event>
 5   0  0.5147582E-08  0.3796682E+04  0.7818609E-02  0.8046867E-01
       -2   -1    0    0    0  501  0.00000000000E+00  0.00000000000E+00  0.32498107285E+04  0.32498107285E+04  0.25500000920E-02 0.  1.
        2   -1    0    0  501    0  0.00000000000E+00  0.00000000000E+00 -0.11088948844E+04  0.11088948844E+04  0.25500000920E-02 0. -1.
    10030    2    1    2    0    0  0.00000000000E+00  0.00000000000E+00  0.21409158441E+04  0.43587056129E+04  0.37966819683E+04 0.  0.
        1    1    3    3  502    0 -0.71516484245E+02  0.18835860407E+04  0.13289241503E+04  0.23063066529E+04  0.50400001928E-02 0.  1.
       -1    1    3    3    0  502  0.71516484245E+02 -0.18835860407E+04  0.81199169377E+03  0.20523989600E+04  0.50400001928E-02 0. -1.
</event>
<event>
 5   0  0.5147582E-08  0.3801252E+04  0.7818609E-02  0.8045886E-01
        2   -1    0    0  501    0  0.00000000000E+00  0.00000000000E+00  0.19915132523E+04  0.19915132523E+04  0.25500000920E-02 0. -1.
       -2   -1    0    0    0  501  0.00000000000E+00  0.00000000000E+00 -0.18138870007E+04  0.18138870007E+04  0.25500000920E-02 0.  1.
    10030    2    1    2    0    0  0.00000000000E+00  0.00000000000E+00  0.17762625163E+03  0.38054002530E+04  0.38012524252E+04 0.  0.
        1    1    3    3  502    0 -0.15417656737E+03 -0.15143741764E+04  0.12281588744E+04  0.19558818423E+04  0.50400001928E-02 0. -1.
       -1    1    3    3    0  502  0.15417656737E+03  0.15143741764E+04 -0.10505326227E+04  0.18495184107E+04  0.50400001928E-02 0.  1.
</event>
<event>
 5   0  0.1666051E-08  0.3799341E+04  0.7818609E-02  0.8046296E-01
        1   -1    0    0  501    0  0.00000000000E+00  0.00000000000E+00  0.15931708899E+04  0.15931708899E+04  0.50400001928E-02 0. -1.
       -1   -1    0    0    0  501  0.00000000000E+00  0.00000000000E+00 -0.22651353425E+04  0.22651353425E+04  0.50400001928E-02 0.  1.
    10030    2    1    2    0    0  0.00000000000E+00  0.00000000000E+00 -0.67196445257E+03  0.38583062324E+04  0.37993408320E+04 0.  0.
        2    1    3    3  502    0  0.16253842622E+04  0.32988305283E+03  0.60470436833E+03  0.17653226905E+04  0.25500000920E-02 0. -1.
       -2    1    3    3    0  502 -0.16253842622E+04 -0.32988305283E+03 -0.12766688209E+04  0.20929835419E+04  0.25500000920E-02 0.  1.
</event>
<event>
 5   0  0.1666051E-08  0.3791236E+04  0.7818609E-02  0.8048038E-01
       -1   -1    0    0    0  501  0.00000000000E+00  0.00000000000E+00  0.17070087065E+04  0.17070087065E+04  0.50400001928E-02 0. -1.
        1   -1    0    0  501    0  0.00000000000E+00  0.00000000000E+00 -0.21050673569E+04  0.21050673569E+04  0.50400001928E-02 0.  1.
    10030    2    1    2    0    0  0.00000000000E+00  0.00000000000E+00 -0.39805865044E+03  0.38120760634E+04  0.37912363714E+04 0.  0.
        2    1    3    3  502    0  0.15171304810E+03 -0.18080746574E+04  0.35282034613E+03  0.18484136475E+04  0.25500000920E-02 0. -1.
       -2    1    3    3    0  502 -0.15171304810E+03  0.18080746574E+04 -0.75087899657E+03  0.19636624158E+04  0.25500000920E-02 0.  1.
</event>
<event>
 5   0  0.5147582E-08  0.3828321E+04  0.7818609E-02  0.8040104E-01
        2   -1    0    0  501    0  0.00000000000E+00  0.00000000000E+00  0.32494148131E+04  0.32494148131E+04  0.25500000920E-02 0. -1.
       -2   -1    0    0    0  501  0.00000000000E+00  0.00000000000E+00 -0.11275910954E+04  0.11275910954E+04  0.25500000920E-02 0.  1.
    10030    2    1    2    0    0  0.00000000000E+00  0.00000000000E+00  0.21218237178E+04  0.43770059085E+04  0.38283214121E+04 0.  0.
        1    1    3    3  502    0  0.13912482041E+04 -0.11041399563E+04  0.24496513431E+03  0.17929597111E+04  0.50400001928E-02 0.  1.
       -1    1    3    3    0  502 -0.13912482041E+04  0.11041399563E+04  0.18768585834E+04  0.25840461975E+04  0.50400001928E-02 0. -1.
</event>
<event>
 5   0  0.5159761E-08  0.3813024E+04  0.7818609E-02  0.8043366E-01
       -2   -1    0    0    0  501  0.00000000000E+00  0.00000000000E+00  0.31307898239E+04  0.31307898239E+04  0.25500000920E-02 0.  1.
        2   -1    0    0  501    0  0.00000000000E+00  0.00000000000E+00 -0.11609808817E+04  0.11609808817E+04  0.25500000920E-02 0. -1.
    10030    2    1    2    0    0  0.00000000000E+00  0.00000000000E+00  0.19698089422E+04  0.42917707057E+04  0.38130235406E+04 0.  0.
        5    1    3    3  502    0 -0.97936734386E+03 -0.74964108253E+03  0.26212794545E+04  0.28969380758E+04  0.46999998093E+01 0.  1.
       -5    1    3    3    0  502  0.97936734386E+03  0.74964108253E+03 -0.65147051227E+03  0.13948326298E+04  0.46999998093E+01 0. -1.
</event>
<event>
 5   0  0.5207474E-08  0.3793433E+04  0.7818609E-02  0.8047566E-01
        2   -1    0    0  501    0  0.00000000000E+00  0.00000000000E+00  0.20170804579E+04  0.20170804579E+04  0.25500000920E-02 0.  1.
       -2   -1    0    0    0  501  0.00000000000E+00  0.00000000000E+00 -0.17835351237E+04  0.17835351237E+04  0.25500000920E-02 0. -1.
    10030    2    1    2    0    0  0.00000000000E+00  0.00000000000E+00  0.23354533423E+03  0.38006155816E+04  0.37934331911E+04 0.  0.
        4    1    3    3  502    0  0.16607741471E+04  0.14219023648E+03 -0.79000637280E+03  0.18445868136E+04  0.12699999809E+01 0. -1.
       -4    1    3    3    0  502 -0.16607741471E+04 -0.14219023648E+03  0.10235517070E+04  0.19560287679E+04  0.12699999809E+01 0.  1.
</event>
<event>
 5   0  0.1628250E-08  0.3813203E+04  0.7818609E-02  0.8043327E-01
       -1   -1    0    0    0  501  0.00000000000E+00  0.00000000000E+00  0.21958722820E+04  0.21958722820E+04  0.50400001928E-02 0.  1.
        1   -1    0    0  501    0  0.00000000000E+00  0.00000000000E+00 -0.16554375512E+04  0.16554375512E+04  0.50400001928E-02 0. -1.
    10030    2    1    2    0    0  0.00000000000E+00  0.00000000000E+00  0.54043473081E+03  0.38513098332E+04  0.38132030805E+04 0.  0.
        1    1    3    3  502    0 -0.71799216739E+03 -0.70588202183E+03  0.19054547274E+04  0.21551194629E+04  0.50400001928E-02 0.  1.
       -1    1    3    3    0  502  0.71799216739E+03  0.70588202183E+03 -0.13650199966E+04  0.16961903703E+04  0.50400001928E-02 0. -1.
</event>
<event>
 5   0  0.5086209E-08  0.3811646E+04  0.7818609E-02  0.8043660E-01
        2   -1    0    0  501    0  0.00000000000E+00  0.00000000000E+00  0.19293749780E+04  0.19293749780E+04  0.25500000920E-02 0.  1.
       -2   -1    0    0    0  501  0.00000000000E+00  0.00000000000E+00 -0.18825580716E+04  0.18825580716E+04  0.25500000920E-02 0. -1.
    10030    2    1    2    0    0  0.00000000000E+00  0.00000000000E+00  0.46816906489E+02  0.38119330496E+04  0.38116455438E+04 0.  0.
        3    1    3    3  502    0 -0.34422304423E+03  0.17153889723E+04 -0.73236780752E+03  0.18966843296E+04  0.10100000352E+00 0. -1.
       -3    1    3    3    0  502  0.34422304423E+03 -0.17153889723E+04  0.77918471401E+03  0.19152487200E+04  0.10100000352E+00 0.  1.
</event>
<event>
 5   0  0.5147582E-08  0.3799394E+04  0.7818609E-02  0.8046285E-01
       -2   -1    0    0    0  501  0.00000000000E+00  0.00000000000E+00  0.24047662054E+04  0.24047662054E+04  0.25500000920E-02 0.  1.
        2   -1    0    0  501    0  0.00000000000E+00  0.00000000000E+00 -0.15007062882E+04  0.15007062882E+04  0.25500000920E-02 0. -1.
    10030    2    1    2    0    0  0.00000000000E+00  0.00000000000E+00  0.90405991726E+03  0.39054724936E+04  0.37993935127E+04 0.  0.
        1    1    3    3  502    0  0.11953628064E+04 -0.11374592419E+03 -0.10611497364E+04  0.16024572185E+04  0.50400001928E-02 0. -1.
       -1    1    3    3    0  502 -0.11953628064E+04  0.11374592419E+03  0.19652096537E+04  0.23030152750E+04  0.50400001928E-02 0.  1.
</event>
<event>
 5   0  0.1628250E-08  0.3797985E+04  0.7818609E-02  0.8046587E-01
       -1   -1    0    0    0  501  0.00000000000E+00  0.00000000000E+00  0.24311636890E+04  0.24311636890E+04  0.50400001928E-02 0.  1.
        1   -1    0    0  501    0  0.00000000000E+00  0.00000000000E+00 -0.14833115895E+04  0.14833115896E+04  0.50400001928E-02 0. -1.
    10030    2    1    2    0    0  0.00000000000E+00  0.00000000000E+00  0.94785209949E+03  0.39144752786E+04  0.37979854007E+04 0.  0.
        4    1    3    3  502    0  0.17952130888E+03 -0.82080712686E+03  0.22291627543E+04  0.23822511282E+04  0.12699999809E+01 0.  1.
       -4    1    3    3    0  502 -0.17952130888E+03  0.82080712686E+03 -0.12813106548E+04  0.15322241504E+04  0.12699999809E+01 0. -1.
</event>
<event>
 5   0  0.5086209E-08  0.3813832E+04  0.7818609E-02  0.8043193E-01
       -2   -1    0    0    0  501  0.00000000000E+00  0.00000000000E+00  0.11073376122E+04  0.11073376122E+04  0.25500000920E-02 0. -1.
        2   -1    0    0  501    0  0.00000000000E+00  0.00000000000E+00 -0.32838484386E+04  0.32838484386E+04  0.25500000920E-02 0.  1.
    10030    2    1    2    0    0  0.00000000000E+00  0.00000000000E+00 -0.21765108265E+04  0.43911860508E+04  0.38138321351E+04 0.  0.
        3    1    3    3  502    0  0.26371282442E+03  0.82435225472E+03 -0.30446695335E+04  0.31652983543E+04  0.10100000352E+00 0.  1.
       -3    1    3    3    0  502 -0.26371282442E+03 -0.82435225472E+03  0.86815870700E+03  0.12258876965E+04  0.10100000352E+00 0. -1.
</event>
<event>
 5   0  0.5147582E-08  0.3804137E+04  0.7818609E-02  0.8045268E-01
       -2   -1    0    0    0  501  0.00000000000E+00  0.00000000000E+00  0.27531497838E+04  0.27531497838E+04  0.25500000920E-02 0.  1.
        2   -1    0    0  501    0  0.00000000000E+00  0.00000000000E+00 -0.13140821720E+04  0.13140821720E+04  0.25500000920E-02 0. -1.
    10030    2    1    2    0    0  0.00000000000E+00  0.00000000000E+00  0.14390676118E+04  0.40672319558E+04  0.38041372466E+04 0.  0.
        1    1    3    3  502    0 -0.85884586755E+03 -0.66417924232E+03  0.23893123678E+04  0.26244168650E+04  0.50400001928E-02 0.  1.
       -1    1    3    3    0  502  0.85884586755E+03  0.66417924232E+03 -0.95024475596E+03  0.14428150909E+04  0.50400001928E-02 0. -1.
</event>
<event>
 5   0  0.1666051E-08  0.3813165E+04  0.7818609E-02  0.8043336E-01
        1   -1    0    0  501    0  0.00000000000E+00  0.00000000000E+00  0.17083193708E+04  0.17083193708E+04  0.50400001928E-02 0.  1.
       -1   -1    0    0    0  501  0.00000000000E+00  0.00000000000E+00 -0.21278555859E+04  0.21278555859E+04  0.50400001928E-02 0. -1.
    10030    2    1    2    0    0  0.00000000000E+00  0.00000000000E+00 -0.41953621511E+03  0.38361749567E+04  0.38131650453E+04 0.  0.
        2    1    3    3  502    0 -0.14618510729E+04  0.42459917234E+03 -0.13646341336E+04  0.20443872762E+04  0.25500000920E-02 0. -1.
       -2    1    3    3    0  502  0.14618510729E+04 -0.42459917234E+03  0.94509791850E+03  0.17917876805E+04  0.25500000920E-02 0.  1.
</event>
<event>
 5   0  0.5159761E-08  0.3807279E+04  0.7818609E-02  0.8044595E-01
        2   -1    0    0  501    0  0.00000000000E+00  0.00000000000E+00  0.15675919723E+04  0.15675919723E+04  0.25500000920E-02 0. -1.
       -2   -1    0    0    0  501  0.00000000000E+00  0.00000000000E+00 -0.23117260567E+04  0.23117260567E+04  0.25500000920E-02 0.  1.
    10030    2    1    2    0    0  0.00000000000E+00  0.00000000000E+00 -0.74413408445E+03  0.38793180290E+04  0.38072789279E+04 0.  0.
        5    1    3    3  502    0  0.51707349459E+03 -0.31128731888E+03 -0.22116523599E+04  0.22925298351E+04  0.46999998093E+01 0.  1.
       -5    1    3    3    0  502 -0.51707349459E+03  0.31128731888E+03  0.14675182754E+04  0.15867881939E+04  0.46999998093E+01 0. -1.
</event>
<event>
 5   0  0.1628250E-08  0.3784120E+04  0.7818609E-02  0.8049571E-01
       -1   -1    0    0    0  501  0.00000000000E+00  0.00000000000E+00  0.30959230604E+04  0.30959230605E+04  0.50400001928E-02 0.  1.
        1   -1    0    0  501    0  0.00000000000E+00  0.00000000000E+00 -0.11563240007E+04  0.11563240007E+04  0.50400001928E-02 0. -1.
    10030    2    1    2    0    0  0.00000000000E+00  0.00000000000E+00  0.19395990597E+04  0.42522470612E+04  0.37841195220E+04 0.  0.
        1    1    3    3  502    0  0.95126977704E+03  0.95479546842E+03  0.24619817698E+04  0.28067601982E+04  0.50400001928E-02 0.  1.
       -1    1    3    3    0  502 -0.95126977704E+03 -0.95479546842E+03 -0.52238271007E+03  0.14454868630E+04  0.50400001928E-02 0. -1.
</event>
<event>
 5   0  0.5147582E-08  0.3799917E+04  0.7818609E-02  0.8046173E-01
       -2   -1    0    0    0  501  0.00000000000E+00  0.00000000000E+00  0.17343215812E+04  0.17343215812E+04  0.25500000920E-02 0. -1.
        2   -1    0    0  501    0  0.00000000000E+00  0.00000000000E+00 -0.20814140912E+04  0.20814140912E+04  0.25500000920E-02 0.  1.
    10030    2    1    2    0    0  0.00000000000E+00  0.00000000000E+00 -0.34709250995E+03  0.38157356724E+04  0.37999165137E+04 0.  0.
        1    1    3    3  502    0  0.15374930893E+04  0.38567898117E+03 -0.12253839482E+04  0.20035466296E+04  0.50400001928E-02 0.  1.
       -1    1    3    3    0  502 -0.15374930893E+04 -0.38567898117E+03  0.87829143827E+03  0.18121890428E+04  0.50400001928E-02 0. -1.
</event>
<event>
 5   0  0.5140842E-08  0.3881312E+04  0.7818609E-02  0.8028927E-01
        2   -1    0    0  501    0  0.00000000000E+00  0.00000000000E+00  0.20748637061E+04  0.20748637061E+04  0.25500000920E-02 0. -1.
       -2   -1    0    0    0  501  0.00000000000E+00  0.00000000000E+00 -0.18151290052E+04  0.18151290052E+04  0.25500000920E-02 0.  1.
    10030    2    1    2    0    0  0.00000000000E+00  0.00000000000E+00  0.25973470091E+03  0.38899927113E+04  0.38813117858E+04 0.  0.
        2    1    3    3  502    0 -0.18000916644E+04 -0.32437419327E+03  0.77985211223E+03  0.19883958194E+04  0.25500000920E-02 0. -1.
       -2    1    3    3    0  502  0.18000916644E+04  0.32437419327E+03 -0.52011741132E+03  0.19015968919E+04  0.25500000920E-02 0.  1.
</event>
<event>
 5   0  0.1628250E-08  0.3745596E+04  0.7818609E-02  0.8057932E-01
        3   -1    0    0  501    0  0.00000000000E+00  0.00000000000E+00  0.21279916276E+04  0.21279916300E+04  0.10100000352E+00 0. -1.
       -3   -1    0    0    0  501  0.00000000000E+00  0.00000000000E+00 -0.16482076114E+04  0.16482076145E+04  0.10100000352E+00 0.  1.
    10030    2    1    2    0    0  0.00000000000E+00  0.00000000000E+00  0.47978401619E+03  0.37761992445E+04  0.37455958181E+04 0.  0.
        1    1    3    3  502    0 -0.62336398125E+03  0.16674063332E+04  0.82649259898E+03  0.19626300083E+04  0.50400001928E-02 0. -1.
       -1    1    3    3    0  502  0.62336398125E+03 -0.16674063332E+04 -0.34670858279E+03  0.18135692362E+04  0.50400001928E-02 0.  1.
</event>
<event>
 5   0  0.1628473E-08  0.3786852E+04  0.7818609E-02  0.8048982E-01
       -1   -1    0    0    0  501  0.00000000000E+00  0.00000000000E+00  0.19077700802E+04  0.19077700802E+04  0.50400001928E-02 0. -1.
        1   -1    0    0  501    0  0.00000000000E+00  0.00000000000E+00 -0.18791894024E+04  0.18791894024E+04  0.50400001928E-02 0.  1.
    10030    2    1    2    0    0  0.00000000000E+00  0.00000000000E+00  0.28580677733E+02  0.37869594826E+04  0.37868516300E+04 0.  0.
        3    1    3    3  502    0  0.12847731585E+02 -0.15176734842E+04 -0.11178034906E+04  0.18849356813E+04  0.10100000352E+00 0.  1.
       -3    1    3    3    0  502 -0.12847731585E+02  0.15176734842E+04  0.11463841684E+04  0.19020238013E+04  0.10100000352E+00 0. -1.
</event>
<event>
 5   0  0.5086209E-08  0.3800215E+04  0.7818609E-02  0.8046109E-01
        2   -1    0    0  501    0  0.00000000000E+00  0.00000000000E+00  0.19224279458E+04  0.19224279458E+04  0.25500000920E-02 0.  1.
       -2   -1    0    0    0  501  0.00000000000E+00  0.00000000000E+00 -0.18780458555E+04  0.18780458555E+04  0.25500000920E-02 0. -1.
    10030    2    1    2    0    0  0.00000000000E+00  0.00000000000E+00  0.44382090270E+02  0.38004738012E+04  0.38002146445E+04 0.  0.
        3    1    3    3  502    0 -0.14447297090E+04 -0.16409758334E+03 -0.12010995811E+04  0.18859512621E+04  0.10100000352E+00 0. -1.
       -3    1    3    3    0  502  0.14447297090E+04  0.16409758334E+03  0.12454816714E+04  0.19145225392E+04  0.10100000352E+00 0.  1.
</event>
<event>
 5   0  0.5159761E-08  0.3800858E+04  0.7818609E-02  0.8045971E-01
       -2   -1    0    0    0  501  0.00000000000E+00  0.00000000000E+00  0.14318242446E+04  0.14318242446E+04  0.25500000920E-02 0. -1.
        2   -1    0    0  501    0  0.00000000000E+00  0.00000000000E+00 -0.25223983421E+04  0.25223983421E+04  0.25500000920E-02 0.  1.
    10030    2    1    2    0    0  0.00000000000E+00  0.00000000000E+00 -0.10905740975E+04  0.39542225867E+04  0.38008583772E+04 0.  0.
        5    1    3    3  502    0  0.24744414911E+03  0.70909667937E+03  0.12708797044E+04  0.14762127288E+04  0.46999998093E+01 0. -1.
       -5    1    3    3    0  502 -0.24744414911E+03 -0.70909667937E+03 -0.23614538019E+04  0.24780098579E+04  0.46999998093E+01 0.  1.
</event>
<event>
 5   0  0.1628250E-08  0.3795006E+04  0.7818609E-02  0.8047227E-01
       -3   -1    0    0    0  501  0.00000000000E+00  0.00000000000E+00  0.18494933570E+04  0.18494933598E+04  0.10100000352E+00 0. -1.
        3   -1    0    0  501    0  0.00000000000E+00  0.00000000000E+00 -0.19467586844E+04  0.19467586870E+04  0.10100000352E+00 0.  1.
    10030    2    1    2    0    0  0.00000000000E+00  0.00000000000E+00 -0.97265327406E+02  0.37962520468E+04  0.37950058048E+04 0.  0.
        1    1    3    3  502    0  0.13983114905E+04  0.10762404596E+04  0.64941359834E+03  0.18802410944E+04  0.50400001928E-02 0. -1.
       -1    1    3    3    0  502 -0.13983114905E+04 -0.10762404596E+04 -0.74667892574E+03  0.19160109524E+04  0.50400001928E-02 0.  1.
</event>
<event>
 5   0  0.5147582E-08  0.3804242E+04  0.7818609E-02  0.8045245E-01
       -2   -1    0    0    0  501  0.00000000000E+00  0.00000000000E+00  0.23668736927E+04  0.23668736927E+04  0.25500000920E-02 0.  1.
        2   -1    0    0  501    0  0.00000000000E+00  0.00000000000E+00 -0.15286256458E+04  0.15286256458E+04  0.25500000920E-02 0. -1.
    10030    2    1    2    0    0  0.00000000000E+00  0.00000000000E+00  0.83824804690E+03  0.38954993385E+04  0.38042417521E+04 0.  0.
        1    1    3    3  502    0 -0.32260975085E+02 -0.15481012233E+04 -0.71209612968E+03  0.17043295062E+04  0.50400001928E-02 0. -1.
       -1    1    3    3    0  502  0.32260975085E+02  0.15481012233E+04  0.15503441766E+04  0.21911698323E+04  0.50400001928E-02 0.  1.
</event>
<event>
 5   0  0.1628250E-08  0.3798354E+04  0.7818609E-02  0.8046508E-01
        1   -1    0    0  501    0  0.00000000000E+00  0.00000000000E+00  0.12676429044E+04  0.12676429044E+04  0.50400001928E-02 0.  1.
       -1   -1    0    0    0  501  0.00000000000E+00  0.00000000000E+00 -0.28453392511E+04  0.28453392511E+04  0.50400001928E-02 0. -1.
    10030    2    1    2    0    0  0.00000000000E+00  0.00000000000E+00 -0.15776963467E+04  0.41129821555E+04  0.37983544396E+04 0.  0.
        1    1    3    3  502    0  0.10481236996E+04  0.15689917027E+04 -0.55515728683E+03  0.19668497314E+04  0.50400001928E-02 0.  1.
       -1    1    3    3    0  502 -0.10481236996E+04 -0.15689917027E+04 -0.10225390599E+04  0.21461324241E+04  0.50400001928E-02 0. -1.
</event>
<event>
 5   0  0.5086209E-08  0.3798939E+04  0.7818609E-02  0.8046383E-01
        2   -1    0    0  501    0  0.00000000000E+00  0.00000000000E+00  0.16156119098E+04  0.16156119098E+04  0.25500000920E-02 0.  1.
       -2   -1    0    0    0  501  0.00000000000E+00  0.00000000000E+00 -0.22331999918E+04  0.22331999918E+04  0.25500000920E-02 0. -1.
    10030    2    1    2    0    0  0.00000000000E+00  0.00000000000E+00 -0.61758808201E+03  0.38488119015E+04  0.37989390643E+04 0.  0.
        3    1    3    3  502    0  0.76579814546E+03  0.16200458674E+04  0.32954828320E+03  0.18219762603E+04  0.10100000352E+00 0.  1.
       -3    1    3    3    0  502 -0.76579814546E+03 -0.16200458674E+04 -0.94713636521E+03  0.20268356412E+04  0.10100000352E+00 0. -1.
</event>
<event>
 5   0  0.5207474E-08  0.3802771E+04  0.7818609E-02  0.8045560E-01
       -2   -1    0    0    0  501  0.00000000000E+00  0.00000000000E+00  0.31348268219E+04  0.31348268219E+04  0.25500000920E-02 0. -1.
        2   -1    0    0  501    0  0.00000000000E+00  0.00000000000E+00 -0.11532591487E+04  0.11532591487E+04  0.25500000920E-02 0.  1.
    10030    2    1    2    0    0  0.00000000000E+00  0.00000000000E+00  0.19815676733E+04  0.42880859706E+04  0.38027714693E+04 0.  0.
        4    1    3    3  502    0 -0.16961554800E+04  0.81887708088E+03  0.12843186469E+04  0.22796883747E+04  0.12699999809E+01 0. -1.
       -4    1    3    3    0  502  0.16961554800E+04 -0.81887708088E+03  0.69724902632E+03  0.20083975959E+04  0.12699999809E+01 0.  1.
</event>
<event>
 5   0  0.5140842E-08  0.3840256E+04  0.7818609E-02  0.8037571E-01
        2   -1    0    0  501    0  0.00000000000E+00  0.00000000000E+00  0.20106915188E+04  0.20106915188E+04  0.25500000920E-02 0. -1.
       -2   -1    0    0    0  501  0.00000000000E+00  0.00000000000E+00 -0.18336434483E+04  0.18336434483E+04  0.25500000920E-02 0.  1.
    10030    2    1    2    0    0  0.00000000000E+00  0.00000000000E+00  0.17704807051E+03  0.38443349670E+04  0.38402558925E+04 0.  0.
        2    1    3    3  502    0 -0.45446565615E+03 -0.26059367106E+02  0.19558936474E+04  0.20081678424E+04  0.25500000920E-02 0. -1.
       -2    1    3    3    0  502  0.45446565615E+03  0.26059367106E+02 -0.17788455769E+04  0.18361671247E+04  0.25500000920E-02 0.  1.
</event>
<event>
 5   0  0.5140842E-08  0.3805679E+04  0.7818609E-02  0.8044937E-01
        2   -1    0    0  501    0  0.00000000000E+00  0.00000000000E+00  0.18529438656E+04  0.18529438656E+04  0.25500000920E-02 0. -1.
       -2   -1    0    0    0  501  0.00000000000E+00  0.00000000000E+00 -0.19540785641E+04  0.19540785641E+04  0.25500000920E-02 0.  1.
    10030    2    1    2    0    0  0.00000000000E+00  0.00000000000E+00 -0.10113469850E+03  0.38070224298E+04  0.38056788558E+04 0.  0.
        2    1    3    3  502    0  0.17469459753E+04  0.60786016808E+03 -0.49736097264E+03  0.19153804222E+04  0.25500000920E-02 0.  1.
       -2    1    3    3    0  502 -0.17469459753E+04 -0.60786016808E+03  0.39622627414E+03  0.18916420076E+04  0.25500000920E-02 0. -1.
</event>
<event>
 5   0  0.5147582E-08  0.3801484E+04  0.7818609E-02  0.8045837E-01
        2   -1    0    0  501    0  0.00000000000E+00  0.00000000000E+00  0.20558013504E+04  0.20558013504E+04  0.25500000920E-02 0. -1.
       -2   -1    0    0    0  501  0.00000000000E+00  0.00000000000E+00 -0.17573775955E+04  0.17573775955E+04  0.25500000920E-02 0.  1.
    10030    2    1    2    0    0  0.00000000000E+00  0.00000000000E+00  0.29842375491E+03  0.38131789459E+04  0.38014835177E+04 0.  0.
        1    1    3    3  502    0 -0.17260419222E+04  0.24193990236E+03  0.90987439088E+03  0.19661197931E+04  0.50400001928E-02 0. -1.
       -1    1    3    3    0  502  0.17260419222E+04 -0.24193990236E+03 -0.61145063597E+03  0.18470591528E+04  0.50400001928E-02 0.  1.
</event>
<event>
 5   0  0.1628250E-08  0.3820829E+04  0.7818609E-02  0.8041700E-01
       -3   -1    0    0    0  501  0.00000000000E+00  0.00000000000E+00  0.21243600895E+04  0.21243600919E+04  0.10100000352E+00 0.  1.
        3   -1    0    0  501    0  0.00000000000E+00  0.00000000000E+00 -0.17180155958E+04  0.17180155988E+04  0.10100000352E+00 0. -1.
    10030    2    1    2    0    0  0.00000000000E+00  0.00000000000E+00  0.40634449370E+03  0.38423756907E+04  0.38208291118E+04 0.  0.
        1    1    3    3  502    0 -0.16418637290E+04 -0.52542154108E+03  0.10311618064E+04  0.20087505996E+04  0.50400001928E-02 0. -1.
       -1    1    3    3    0  502  0.16418637290E+04  0.52542154108E+03 -0.62481731273E+03  0.18336250911E+04  0.50400001928E-02 0.  1.
</event>
<event>
 5   0  0.1628250E-08  0.3797359E+04  0.7818609E-02  0.8046722E-01
       -1   -1    0    0    0  501  0.00000000000E+00  0.00000000000E+00  0.25550895202E+04  0.25550895202E+04  0.50400001928E-02 0.  1.
        1   -1    0    0  501    0  0.00000000000E+00  0.00000000000E+00 -0.14109033670E+04  0.14109033670E+04  0.50400001928E-02 0. -1.
    10030    2    1    2    0    0  0.00000000000E+00  0.00000000000E+00  0.11441861532E+04  0.39659928872E+04  0.37973592967E+04 0.  0.
        1    1    3    3  502    0 -0.12887915194E+03 -0.18479924202E+04  0.10068712661E+04  0.21084296449E+04  0.50400001928E-02 0. -1.
       -1    1    3    3    0  502  0.12887915194E+03  0.18479924202E+04  0.13731488717E+03  0.18575632423E+04  0.50400001928E-02 0.  1.
</event>
<event>
 5   0  0.5147582E-08  0.3800202E+04  0.7818609E-02  0.8046111E-01
       -2   -1    0    0    0  501  0.00000000000E+00  0.00000000000E+00  0.25773007206E+04  0.25773007206E+04  0.25500000920E-02 0. -1.
        2   -1    0    0  501    0  0.00000000000E+00  0.00000000000E+00 -0.14008394300E+04  0.14008394300E+04  0.25500000920E-02 0.  1.
    10030    2    1    2    0    0  0.00000000000E+00  0.00000000000E+00  0.11764612905E+04  0.39781401506E+04  0.38002023485E+04 0.  0.
        1    1    3    3  502    0 -0.21059291095E+03 -0.23065348655E+03  0.25502449764E+04  0.25692994852E+04  0.50400001928E-02 0. -1.
       -1    1    3    3    0  502  0.21059291095E+03  0.23065348655E+03 -0.13737836858E+04  0.14088406654E+04  0.50400001928E-02 0.  1.
</event>
<event>
 5   0  0.1666051E-08  0.3803047E+04  0.7818609E-02  0.8045501E-01
       -1   -1    0    0    0  501  0.00000000000E+00  0.00000000000E+00  0.16019232193E+04  0.16019232194E+04  0.50400001928E-02 0. -1.
        1   -1    0    0  501    0  0.00000000000E+00  0.00000000000E+00 -0.22571563345E+04  0.22571563345E+04  0.50400001928E-02 0.  1.
    10030    2    1    2    0    0  0.00000000000E+00  0.00000000000E+00 -0.65523311511E+03  0.38590795538E+04  0.38030467480E+04 0.  0.
        2    1    3    3  502    0  0.27538293594E+03 -0.10931062711E+04  0.12263094989E+04  0.16656986727E+04  0.25500000920E-02 0. -1.
       -2    1    3    3    0  502 -0.27538293594E+03  0.10931062711E+04 -0.18815426140E+04  0.21933808811E+04  0.25500000920E-02 0.  1.
</event>
<event>
 5   0  0.1628250E-08  0.3804827E+04  0.7818609E-02  0.8045120E-01
       -1   -1    0    0    0  501  0.00000000000E+00  0.00000000000E+00  0.24204511106E+04  0.24204511106E+04  0.50400001928E-02 0.  1.
        1   -1    0    0  501    0  0.00000000000E+00  0.00000000000E+00 -0.14952489199E+04  0.14952489199E+04  0.50400001928E-02 0. -1.
    10030    2    1    2    0    0  0.00000000000E+00  0.00000000000E+00  0.92520219079E+03  0.39157000305E+04  0.38048268864E+04 0.  0.
        5    1    3    3  502    0 -0.93031146908E+03 -0.15689219732E+04  0.10188694053E+04  0.20892851750E+04  0.46999998093E+01 0.  1.
       -5    1    3    3    0  502  0.93031146908E+03  0.15689219732E+04 -0.93667214493E+02  0.18264148555E+04  0.46999998093E+01 0. -1.
</event>
<event>
 5   0  0.1628250E-08  0.3803539E+04  0.7818609E-02  0.8045396E-01
       -1   -1    0    0    0  501  0.00000000000E+00  0.00000000000E+00  0.16467924716E+04  0.16467924716E+04  0.50400001928E-02 0. -1.
        1   -1    0    0  501    0  0.00000000000E+00  0.00000000000E+00 -0.21962248290E+04  0.21962248290E+04  0.50400001928E-02 0.  1.
    10030    2    1    2    0    0  0.00000000000E+00  0.00000000000E+00 -0.54943235738E+03  0.38430173005E+04  0.38035386230E+04 0.  0.
        4    1    3    3  502    0  0.15964346151E+04  0.16399645113E+02  0.76937911393E+03  0.17722353858E+04  0.12699999809E+01 0. -1.
       -4    1    3    3    0  502 -0.15964346151E+04 -0.16399645113E+02 -0.13188114713E+04  0.20707819148E+04  0.12699999809E+01 0.  1.
</event>
<event>
 5   0  0.5147582E-08  0.3790343E+04  0.7818609E-02  0.8048231E-01
        2   -1    0    0  501    0  0.00000000000E+00  0.00000000000E+00  0.21292772997E+04  0.21292772997E+04  0.25500000920E-02 0.  1.
       -2   -1    0    0    0  501  0.00000000000E+00  0.00000000000E+00 -0.16868043416E+04  0.16868043416E+04  0.25500000920E-02 0. -1.
    10030    2    1    2    0    0  0.00000000000E+00  0.00000000000E+00  0.44247295807E+03  0.38160816413E+04  0.37903425669E+04 0.  0.
        1    1    3    3  502    0 -0.17126934449E+04 -0.38597781300E+03  0.93978920437E+03  0.19913566875E+04  0.50400001928E-02 0.  1.
       -1    1    3    3    0  502  0.17126934449E+04  0.38597781300E+03 -0.49731624630E+03  0.18247249538E+04  0.50400001928E-02 0. -1.
</event>
<event>
 5   0  0.1666051E-08  0.3794171E+04  0.7818609E-02  0.8047407E-01
        1   -1    0    0  501    0  0.00000000000E+00  0.00000000000E+00  0.24511009167E+04  0.24511009167E+04  0.50400001928E-02 0.  1.
       -1   -1    0    0    0  501  0.00000000000E+00  0.00000000000E+00 -0.14682925504E+04  0.14682925504E+04  0.50400001928E-02 0. -1.
    10030    2    1    2    0    0  0.00000000000E+00  0.00000000000E+00  0.98280836622E+03  0.39193934671E+04  0.37941709062E+04 0.  0.
        2    1    3    3  502    0  0.59740864317E+01  0.10653446102E+04  0.21129039733E+04  0.23662962682E+04  0.25500000920E-02 0.  1.
       -2    1    3    3    0  502 -0.59740864317E+01 -0.10653446102E+04 -0.11300956071E+04  0.15530971990E+04  0.25500000920E-02 0. -1.
</event>
<event>
 5   0  0.1628250E-08  0.3798605E+04  0.7818609E-02  0.8046454E-01
       -1   -1    0    0    0  501  0.00000000000E+00  0.00000000000E+00  0.28773306139E+04  0.28773306139E+04  0.50400001928E-02 0.  1.
        1   -1    0    0  501    0  0.00000000000E+00  0.00000000000E+00 -0.12537143583E+04  0.12537143583E+04  0.50400001928E-02 0. -1.
    10030    2    1    2    0    0  0.00000000000E+00  0.00000000000E+00  0.16236162556E+04  0.41310449723E+04  0.37986053780E+04 0.  0.
        5    1    3    3  502    0 -0.15637698219E+03 -0.14937980953E+04 -0.45244625185E+03  0.15686351427E+04  0.46999998093E+01 0. -1.
       -5    1    3    3    0  502  0.15637698219E+03  0.14937980953E+04  0.20760625075E+04  0.25624098296E+04  0.46999998093E+01 0.  1.
</event>
<event>
 5   0  0.1628250E-08  0.3793993E+04  0.7818609E-02  0.8047445E-01
       -1   -1    0    0    0  501  0.00000000000E+00  0.00000000000E+00  0.15156481001E+04  0.15156481001E+04  0.50400001928E-02 0. -1.
        1   -1    0    0  501    0  0.00000000000E+00  0.00000000000E+00 -0.23742944430E+04  0.23742944430E+04  0.50400001928E-02 0.  1.
    10030    2    1    2    0    0  0.00000000000E+00  0.00000000000E+00 -0.85864634289E+03  0.38899425431E+04  0.37939925470E+04 0.  0.
        5    1    3    3  502    0  0.94476272279E+03 -0.88608379062E+03 -0.18503217047E+04  0.22586353374E+04  0.46999998093E+01 0.  1.
       -5    1    3    3    0  502 -0.94476272279E+03  0.88608379062E+03  0.99167536178E+03  0.16313072057E+04  0.46999998093E+01 0. -1.
</event>
<event>
 5   0  0.5147582E-08  0.3797737E+04  0.7818609E-02  0.8046641E-01
        2   -1    0    0  501    0  0.00000000000E+00  0.00000000000E+00  0.13884205996E+04  0.13884205996E+04  0.25500000920E-02 0.  1.
       -2   -1    0    0    0  501  0.00000000000E+00  0.00000000000E+00 -0.25969808204E+04  0.25969808204E+04  0.25500000920E-02 0. -1.
    10030    2    1    2    0    0  0.00000000000E+00  0.00000000000E+00 -0.12085602208E+04  0.39854014200E+04  0.37977370461E+04 0.  0.
        1    1    3    3  502    0  0.79529904656E+03 -0.42928024420E+03 -0.23568089553E+04  0.25241494712E+04  0.50400001928E-02 0. -1.
       -1    1    3    3    0  502 -0.79529904656E+03  0.42928024420E+03  0.11482487345E+04  0.14612519487E+04  0.50400001928E-02 0.  1.
</event>
<event>
 5   0  0.1628250E-08  0.3799250E+04  0.7818609E-02  0.8046316E-01
        1   -1    0    0  501    0  0.00000000000E+00  0.00000000000E+00  0.29011842011E+04  0.29011842011E+04  0.50400001928E-02 0.  1.
       -1   -1    0    0    0  501  0.00000000000E+00  0.00000000000E+00 -0.12438282969E+04  0.12438282969E+04  0.50400001928E-02 0. -1.
    10030    2    1    2    0    0  0.00000000000E+00  0.00000000000E+00  0.16573559042E+04  0.41450124980E+04  0.37992499280E+04 0.  0.
        5    1    3    3  502    0 -0.83337032625E+03 -0.16334488275E+04  0.13696812987E+04  0.22888228684E+04  0.46999998093E+01 0.  1.
       -5    1    3    3    0  502  0.83337032625E+03  0.16334488275E+04  0.28767460541E+03  0.18561896296E+04  0.46999998093E+01 0. -1.
</event>
<event>
 5   0  0.5140842E-08  0.3793364E+04  0.7818609E-02  0.8047580E-01
       -2   -1    0    0    0  501  0.00000000000E+00  0.00000000000E+00  0.19300238197E+04  0.19300238197E+04  0.25500000920E-02 0. -1.
        2   -1    0    0  501    0  0.00000000000E+00  0.00000000000E+00 -0.18639165066E+04  0.18639165066E+04  0.25500000920E-02 0.  1.
    10030    2    1    2    0    0  0.00000000000E+00  0.00000000000E+00  0.66107313128E+02  0.37939403262E+04  0.37933643408E+04 0.  0.
        2    1    3    3  502    0  0.22566110009E+03 -0.18073059848E+04 -0.49629544912E+03  0.18877465475E+04  0.25500000920E-02 0.  1.
       -2    1    3    3    0  502 -0.22566110009E+03  0.18073059848E+04  0.56240276225E+03  0.19061937787E+04  0.25500000920E-02 0. -1.
</event>
<event>
 5   0  0.1666051E-08  0.3797558E+04  0.7818609E-02  0.8046679E-01
        1   -1    0    0  501    0  0.00000000000E+00  0.00000000000E+00  0.23767883136E+04  0.23767883136E+04  0.50400001928E-02 0. -1.
       -1   -1    0    0    0  501  0.00000000000E+00  0.00000000000E+00 -0.15169044541E+04  0.15169044541E+04  0.50400001928E-02 0.  1.
    10030    2    1    2    0    0  0.00000000000E+00  0.00000000000E+00  0.85988385959E+03  0.38936927677E+04  0.37975575199E+04 0.  0.
        2    1    3    3  502    0 -0.65923845882E+03 -0.17766918056E+04  0.55182796086E+03  0.19737637184E+04  0.25500000920E-02 0. -1.
       -2    1    3    3    0  502  0.65923845882E+03  0.17766918056E+04  0.30805589873E+03  0.19199290493E+04  0.25500000920E-02 0.  1.
</event>
<event>
 5   0  0.5159761E-08  0.3800762E+04  0.7818609E-02  0.8045991E-01
        2   -1    0    0  501    0  0.00000000000E+00  0.00000000000E+00  0.21799476816E+04  0.21799476816E+04  0.25500000920E-02 0.  1.
       -2   -1    0    0    0  501  0.00000000000E+00  0.00000000000E+00 -0.16566675986E+04  0.16566675986E+04  0.25500000920E-02 0. -1.
    10030    2    1    2    0    0  0.00000000000E+00  0.00000000000E+00  0.52328008299E+03  0.38366152802E+04  0.38007623924E+04 0.  0.
        5    1    3    3  502    0  0.11036698271E+04 -0.14998044078E+03 -0.12926395615E+04  0.17063177740E+04  0.46999998093E+01 0. -1.
       -5    1    3    3    0  502 -0.11036698271E+04  0.14998044078E+03  0.18159196445E+04  0.21302975062E+04  0.46999998093E+01 0.  1.
</event>
<event>
 5   0  0.5207474E-08  0.3797958E+04  0.7818609E-02  0.8046593E-01
        2   -1    0    0  501    0  0.00000000000E+00  0.00000000000E+00  0.17077261645E+04  0.17077261645E+04  0.25500000920E-02 0.  1.
       -2   -1    0    0    0  501  0.00000000000E+00  0.00000000000E+00 -0.21116508389E+04  0.21116508389E+04  0.25500000920E-02 0. -1.
    10030    2    1    2    0    0  0.00000000000E+00  0.00000000000E+00 -0.40392467438E+03  0.38193770033E+04  0.37979580765E+04 0.  0.
        4    1    3    3  502    0  0.12071733397E+03 -0.18689270366E+04 -0.51783376740E+03  0.19430940190E+04  0.12699999809E+01 0. -1.
       -4    1    3    3    0  502 -0.12071733397E+03  0.18689270366E+04  0.11390909302E+03  0.18762829844E+04  0.12699999809E+01 0.  1.
</event>
<event>
 5   0  0.5207474E-08  0.3799133E+04  0.7818609E-02  0.8046341E-01
       -2   -1    0    0    0  501  0.00000000000E+00  0.00000000000E+00  0.30280926510E+04  0.30280926510E+04  0.25500000920E-02 0. -1.
        2   -1    0    0  501    0  0.00000000000E+00  0.00000000000E+00 -0.11916253915E+04  0.11916253915E+04  0.25500000920E-02 0.  1.
    10030    2    1    2    0    0  0.00000000000E+00  0.00000000000E+00  0.18364672594E+04  0.42197180425E+04  0.37991325804E+04 0.  0.
        4    1    3    3  502    0  0.17265996215E+04 -0.20955563613E+03  0.17665180573E+04  0.24790416449E+04  0.12699999809E+01 0. -1.
       -4    1    3    3    0  502 -0.17265996215E+04  0.20955563613E+03  0.69949202140E+02  0.17406763976E+04  0.12699999809E+01 0.  1.
</event>
<event>
 5   0  0.1628250E-08  0.3786195E+04  0.7818609E-02  0.8049124E-01
       -3   -1    0    0    0  501  0.00000000000E+00  0.00000000000E+00  0.19767677536E+04  0.19767677562E+04  0.10100000352E+00 0.  1.
        3   -1    0    0  501    0  0.00000000000E+00  0.00000000000E+00 -0.18129684378E+04  0.18129684406E+04  0.10100000352E+00 0. -1.
    10030    2    1    2    0    0  0.00000000000E+00  0.00000000000E+00  0.16379931581E+03  0.37897361968E+04  0.37861946893E+04 0.  0.
        3    1    3    3  502    0 -0.28287356187E+03 -0.76611273228E+03  0.17913822281E+04  0.19687550554E+04  0.10100000352E+00 0.  1.
       -3    1    3    3    0  502  0.28287356187E+03  0.76611273228E+03 -0.16275829123E+04  0.18209811414E+04  0.10100000352E+00 0. -1.
</event>
<event>
 5   0  0.1628250E-08  0.3801960E+04  0.7818609E-02  0.8045734E-01
        3   -1    0    0  501    0  0.00000000000E+00  0.00000000000E+00  0.22733783046E+04  0.22733783069E+04  0.10100000352E+00 0.  1.
       -3   -1    0    0    0  501  0.00000000000E+00  0.00000000000E+00 -0.15895838028E+04  0.15895838060E+04  0.10100000352E+00 0. -1.
    10030    2    1    2    0    0  0.00000000000E+00  0.00000000000E+00  0.68379450181E+03  0.38629621129E+04  0.38019602003E+04 0.  0.
        2    1    3    3  502    0  0.11435555593E+04 -0.12835989256E+04  0.11663222238E+04  0.20774149919E+04  0.25500000920E-02 0.  1.
       -2    1    3    3    0  502 -0.11435555593E+04  0.12835989256E+04 -0.48252772200E+03  0.17855471210E+04  0.25500000920E-02 0. -1.
</event>
<event>
 5   0  0.5207474E-08  0.3802702E+04  0.7818609E-02  0.8045575E-01
       -2   -1    0    0    0  501  0.00000000000E+00  0.00000000000E+00  0.25588318547E+04  0.25588318547E+04  0.25500000920E-02 0. -1.
        2   -1    0    0  501    0  0.00000000000E+00  0.00000000000E+00 -0.14128066940E+04  0.14128066940E+04  0.25500000920E-02 0.  1.
    10030    2    1    2    0    0  0.00000000000E+00  0.00000000000E+00  0.11460251607E+04  0.39716385487E+04  0.38027015519E+04 0.  0.
        4    1    3    3  502    0  0.62918399682E+03 -0.17895442212E+04  0.70835392408E+03  0.20248723209E+04  0.12699999809E+01 0.  1.
       -4    1    3    3    0  502 -0.62918399682E+03  0.17895442212E+04  0.43767123664E+03  0.19467662278E+04  0.12699999809E+01 0. -1.
</event>
<event>
 5   0  0.5159761E-08  0.3792881E+04  0.7818609E-02  0.8047684E-01
        2   -1    0    0  501    0  0.00000000000E+00  0.00000000000E+00  0.22070796295E+04  0.22070796295E+04  0.25500000920E-02 0. -1.
       -2   -1    0    0    0  501  0.00000000000E+00  0.00000000000E+00 -0.16295224081E+04  0.16295224081E+04  0.25500000920E-02 0.  1.
    10030    2    1    2    0    0  0.00000000000E+00  0.00000000000E+00  0.57755722140E+03  0.38366020375E+04  0.37928805479E+04 0.  0.
        5    1    3    3  502    0 -0.83191835450E+03  0.16249534751E+04 -0.23085671019E+03  0.18400757744E+04  0.46999998093E+01 0. -1.
       -5    1    3    3    0  502  0.83191835450E+03 -0.16249534751E+04  0.80841393159E+03  0.19965262632E+04  0.46999998093E+01 0.  1.
</event>
<event>
 5   0  0.1628250E-08  0.3819246E+04  0.7818609E-02  0.8042037E-01
       -1   -1    0    0    0  501  0.00000000000E+00  0.00000000000E+00  0.12234036443E+04  0.12234036443E+04  0.50400001928E-02 0.  1.
        1   -1    0    0  501    0  0.00000000000E+00  0.00000000000E+00 -0.29807501839E+04  0.29807501839E+04  0.50400001928E-02 0. -1.
    10030    2    1    2    0    0  0.00000000000E+00  0.00000000000E+00 -0.17573465396E+04  0.42041538281E+04  0.38192463328E+04 0.  0.
        5    1    3    3  502    0  0.86448477267E+03 -0.15198001925E+04 -0.33497081203E+02  0.17487912088E+04  0.46999998093E+01 0.  1.
       -5    1    3    3    0  502 -0.86448477267E+03  0.15198001925E+04 -0.17238494584E+04  0.24553626194E+04  0.46999998093E+01 0. -1.
</event>
<event>
 5   0  0.5207474E-08  0.3799676E+04  0.7818609E-02  0.8046224E-01
        2   -1    0    0  501    0  0.00000000000E+00  0.00000000000E+00  0.22079223434E+04  0.22079223434E+04  0.25500000920E-02 0. -1.
       -2   -1    0    0    0  501  0.00000000000E+00  0.00000000000E+00 -0.16347425785E+04  0.16347425785E+04  0.25500000920E-02 0.  1.
    10030    2    1    2    0    0  0.00000000000E+00  0.00000000000E+00  0.57317976490E+03  0.38426649220E+04  0.37996761256E+04 0.  0.
        4    1    3    3  502    0  0.18534318537E+04  0.14274568957E+03  0.68319652715E+03  0.19804911199E+04  0.12699999809E+01 0. -1.
       -4    1    3    3    0  502 -0.18534318537E+04 -0.14274568957E+03 -0.11001676225E+03  0.18621738021E+04  0.12699999809E+01 0.  1.
</event>
<event>
 5   0  0.5147582E-08  0.3795070E+04  0.7818609E-02  0.8047214E-01
       -2   -1    0    0    0  501  0.00000000000E+00  0.00000000000E+00  0.27244862878E+04  0.27244862878E+04  0.25500000920E-02 0. -1.
        2   -1    0    0  501    0  0.00000000000E+00  0.00000000000E+00 -0.13215846102E+04  0.13215846102E+04  0.25500000920E-02 0.  1.
    10030    2    1    2    0    0  0.00000000000E+00  0.00000000000E+00  0.14029016776E+04  0.40460708979E+04  0.37950700381E+04 0.  0.
        1    1    3    3  502    0  0.44566756684E+03 -0.42378095639E+01 -0.12649902971E+04  0.13412076614E+04  0.50400001928E-02 0.  1.
       -1    1    3    3    0  502 -0.44566756684E+03  0.42378095639E+01  0.26678919748E+04  0.27048632365E+04  0.50400001928E-02 0. -1.
</event>
<event>
 5   0  0.1628473E-08  0.3809364E+04  0.7818609E-02  0.8044148E-01
       -1   -1    0    0    0  501  0.00000000000E+00  0.00000000000E+00  0.24759202833E+04  0.24759202833E+04  0.50400001928E-02 0.  1.
        1   -1    0    0  501    0  0.00000000000E+00  0.00000000000E+00 -0.14652384561E+04  0.14652384562E+04  0.50400001928E-02 0. -1.
    10030    2    1    2    0    0  0.00000000000E+00  0.00000000000E+00  0.10106818272E+04  0.39411587395E+04  0.38093640485E+04 0.  0.
        3    1    3    3  502    0  0.10076179534E+04  0.83924061969E+03  0.19345073485E+04  0.23370788282E+04  0.10100000352E+00 0.  1.
       -3    1    3    3    0  502 -0.10076179534E+04 -0.83924061969E+03 -0.92382552134E+03  0.16040799113E+04  0.10100000352E+00 0. -1.
</event>
<event>
 5   0  0.5086209E-08  0.3791940E+04  0.7818609E-02  0.8047887E-01
        2   -1    0    0  501    0  0.00000000000E+00  0.00000000000E+00  0.22122616145E+04  0.22122616145E+04  0.25500000920E-02 0. -1.
       -2   -1    0    0    0  501  0.00000000000E+00  0.00000000000E+00 -0.16248995758E+04  0.16248995758E+04  0.25500000920E-02 0.  1.
    10030    2    1    2    0    0  0.00000000000E+00  0.00000000000E+00  0.58736203871E+03  0.38371611903E+04  0.37919403787E+04 0.  0.
        3    1    3    3  502    0 -0.82849796298E+03  0.27746756242E+03 -0.14090338724E+04  0.16579425764E+04  0.10100000352E+00 0.  1.
       -3    1    3    3    0  502  0.82849796298E+03 -0.27746756242E+03  0.19963959111E+04  0.21792186139E+04  0.10100000352E+00 0. -1.
</event>
<event>
 5   0  0.1628473E-08  0.3795599E+04  0.7818609E-02  0.8047100E-01
       -1   -1    0    0    0  501  0.00000000000E+00  0.00000000000E+00  0.16555872878E+04  0.16555872878E+04  0.50400001928E-02 0.  1.
        1   -1    0    0  501    0  0.00000000000E+00  0.00000000000E+00 -0.21754468940E+04  0.21754468940E+04  0.50400001928E-02 0. -1.
    10030    2    1    2    0    0  0.00000000000E+00  0.00000000000E+00 -0.51985960620E+03  0.38310341818E+04  0.37955986210E+04 0.  0.
        3    1    3    3  502    0 -0.42877776780E+03  0.18484581777E+04 -0.29175517205E+03  0.19198356960E+04  0.10100000352E+00 0. -1.
       -3    1    3    3    0  502  0.42877776780E+03 -0.18484581777E+04 -0.22810443415E+03  0.19111984858E+04  0.10100000352E+00 0.  1.
</event>
<event>
 5   0  0.1628250E-08  0.3803450E+04  0.7818609E-02  0.8045415E-01
       -1   -1    0    0    0  501  0.00000000000E+00  0.00000000000E+00  0.17953225998E+04  0.17953225998E+04  0.50400001928E-02 0. -1.
        1   -1    0    0  501    0  0.00000000000E+00  0.00000000000E+00 -0.20144329714E+04  0.20144329714E+04  0.50400001928E-02 0.  1.
    10030    2    1    2    0    0  0.00000000000E+00  0.00000000000E+00 -0.21911037158E+03  0.38097555712E+04  0.38034495076E+04 0.  0.
        5    1    3    3  502    0  0.33614306343E+03 -0.41317994027E+03 -0.19381846833E+04  0.20100477056E+04  0.46999998093E+01 0.  1.
       -5    1    3    3    0  502 -0.33614306343E+03  0.41317994027E+03  0.17190743117E+04  0.17997078656E+04  0.46999998093E+01 0. -1.
</event>
<event>
 5   0  0.1628250E-08  0.3798881E+04  0.7818609E-02  0.8046395E-01
        1   -1    0    0  501    0  0.00000000000E+00  0.00000000000E+00  0.24758648628E+04  0.24758648628E+04  0.50400001928E-02 0. -1.
       -1   -1    0    0    0  501  0.00000000000E+00  0.00000000000E+00 -0.14572173901E+04  0.14572173901E+04  0.50400001928E-02 0.  1.
    10030    2    1    2    0    0  0.00000000000E+00  0.00000000000E+00  0.10186474727E+04  0.39330822529E+04  0.37988805370E+04 0.  0.
        1    1    3    3  502    0 -0.72356311635E+03 -0.12694634858E+04  0.17657821862E+04  0.22919572103E+04  0.50400001928E-02 0. -1.
       -1    1    3    3    0  502  0.72356311635E+03  0.12694634858E+04 -0.74713471347E+03  0.16411250425E+04  0.50400001928E-02 0.  1.
</event>
<event>
 5   0  0.1628250E-08  0.3802808E+04  0.7818609E-02  0.8045553E-01
        1   -1    0    0  501    0  0.00000000000E+00  0.00000000000E+00  0.20406858662E+04  0.20406858662E+04  0.50400001928E-02 0. -1.
       -1   -1    0    0    0  501  0.00000000000E+00  0.00000000000E+00 -0.17716282842E+04  0.17716282842E+04  0.50400001928E-02 0.  1.
    10030    2    1    2    0    0  0.00000000000E+00  0.00000000000E+00  0.26905758201E+03  0.38123141504E+04  0.38028078046E+04 0.  0.
        1    1    3    3  502    0 -0.42647508998E+03  0.79279299150E+03 -0.15444519354E+04  0.17876614642E+04  0.50400001928E-02 0.  1.
       -1    1    3    3    0  502  0.42647508998E+03 -0.79279299150E+03  0.18135095174E+04  0.20246526862E+04  0.50400001928E-02 0. -1.
</event>
<event>
 5   0  0.5086209E-08  0.3806885E+04  0.7818609E-02  0.8044679E-01
        2   -1    0    0  501    0  0.00000000000E+00  0.00000000000E+00  0.18268981730E+04  0.18268981730E+04  0.25500000920E-02 0.  1.
       -2   -1    0    0    0  501  0.00000000000E+00  0.00000000000E+00 -0.19831937840E+04  0.19831937840E+04  0.25500000920E-02 0. -1.
    10030    2    1    2    0    0  0.00000000000E+00  0.00000000000E+00 -0.15629561098E+03  0.38100919570E+04  0.38068848686E+04 0.  0.
        3    1    3    3  502    0  0.77332100261E+03  0.10995467956E+04  0.12706018811E+04  0.18497182702E+04  0.10100000352E+00 0.  1.
       -3    1    3    3    0  502 -0.77332100261E+03 -0.10995467956E+04 -0.14268974921E+04  0.19603736868E+04  0.10100000352E+00 0. -1.
</event>
<event>
 5   0  0.1628250E-08  0.3801548E+04  0.7818609E-02  0.8045823E-01
       -1   -1    0    0    0  501  0.00000000000E+00  0.00000000000E+00  0.19236432430E+04  0.19236432430E+04  0.50400001928E-02 0. -1.
        1   -1    0    0  501    0  0.00000000000E+00  0.00000000000E+00 -0.18781768900E+04  0.18781768900E+04  0.50400001928E-02 0.  1.
    10030    2    1    2    0    0  0.00000000000E+00  0.00000000000E+00  0.45466352958E+02  0.38018201330E+04  0.38015482549E+04 0.  0.
        1    1    3    3  502    0 -0.13384601195E+04  0.33481229064E+03 -0.12847881545E+04  0.18852732862E+04  0.50400001928E-02 0.  1.
       -1    1    3    3    0  502  0.13384601195E+04 -0.33481229064E+03  0.13302545075E+04  0.19165468469E+04  0.50400001928E-02 0. -1.
</event>
<event>
 5   0  0.1666051E-08  0.3800914E+04  0.7818609E-02  0.8045959E-01
        1   -1    0    0  501    0  0.00000000000E+00  0.00000000000E+00  0.24911123193E+04  0.24911123193E+04  0.50400001928E-02 0.  1.
       -1   -1    0    0    0  501  0.00000000000E+00  0.00000000000E+00 -0.14498487820E+04  0.14498487820E+04  0.50400001928E-02 0. -1.
    10030    2    1    2    0    0  0.00000000000E+00  0.00000000000E+00  0.10412635373E+04  0.39409611012E+04  0.38009136596E+04 0.  0.
        2    1    3    3  502    0  0.92878892983E+03  0.10910390173E+04 -0.77385721169E+03  0.16284563235E+04  0.25500000920E-02 0. -1.
       -2    1    3    3    0  502 -0.92878892983E+03 -0.10910390173E+04  0.18151207490E+04  0.23125047777E+04  0.25500000920E-02 0.  1.
</event>
<event>
 5   0  0.1628250E-08  0.3807607E+04  0.7818609E-02  0.8044524E-01
        1   -1    0    0  501    0  0.00000000000E+00  0.00000000000E+00  0.27537850225E+04  0.27537850225E+04  0.50400001928E-02 0.  1.
       -1   -1    0    0    0  501  0.00000000000E+00  0.00000000000E+00 -0.13161770625E+04  0.13161770625E+04  0.50400001928E-02 0. -1.
    10030    2    1    2    0    0  0.00000000000E+00  0.00000000000E+00  0.14376079600E+04  0.40699620850E+04  0.38076074806E+04 0.  0.
        5    1    3    3  502    0 -0.90272974903E+03 -0.49718475051E+03 -0.99221950206E+03  0.14306066218E+04  0.46999998093E+01 0. -1.
       -5    1    3    3    0  502  0.90272974903E+03  0.49718475051E+03  0.24298274621E+04  0.26393554632E+04  0.46999998093E+01 0.  1.
</event>
<event>
 5   0  0.5207474E-08  0.3798669E+04  0.7818609E-02  0.8046441E-01
        2   -1    0    0  501    0  0.00000000000E+00  0.00000000000E+00  0.29725059021E+04  0.29725059021E+04  0.25500000920E-02 0.  1.
       -2   -1    0    0    0  501  0.00000000000E+00  0.00000000000E+00 -0.12136127755E+04  0.12136127755E+04  0.25500000920E-02 0. -1.
    10030    2    1    2    0    0  0.00000000000E+00  0.00000000000E+00  0.17588931266E+04  0.41861186777E+04  0.37986687869E+04 0.  0.
        4    1    3    3  502    0  0.16141365597E+04  0.94220906314E+03  0.50692167574E+03  0.19365345208E+04  0.12699999809E+01 0. -1.
       -4    1    3    3    0  502 -0.16141365597E+04 -0.94220906314E+03  0.12519714509E+04  0.22495841569E+04  0.12699999809E+01 0.  1.
</event>
<event>
 5   0  0.5086209E-08  0.3794615E+04  0.7818609E-02  0.8047312E-01
       -2   -1    0    0    0  501  0.00000000000E+00  0.00000000000E+00  0.23014229447E+04  0.23014229447E+04  0.25500000920E-02 0. -1.
        2   -1    0    0  501    0  0.00000000000E+00  0.00000000000E+00 -0.15641518379E+04  0.15641518379E+04  0.25500000920E-02 0.  1.
    10030    2    1    2    0    0  0.00000000000E+00  0.00000000000E+00  0.73727110679E+03  0.38655747827E+04  0.37946145674E+04 0.  0.
        3    1    3    3  502    0  0.16098510119E+04  0.56444165798E+03  0.12145618388E+04  0.20941287296E+04  0.10100000352E+00 0. -1.
       -3    1    3    3    0  502 -0.16098510119E+04 -0.56444165798E+03 -0.47729073205E+03  0.17714460530E+04  0.10100000352E+00 0.  1.
</event>
<event>
 5   0  0.1628250E-08  0.3797075E+04  0.7818609E-02  0.8046783E-01
       -1   -1    0    0    0  501  0.00000000000E+00  0.00000000000E+00  0.18508083252E+04  0.18508083252E+04  0.50400001928E-02 0.  1.
        1   -1    0    0  501    0  0.00000000000E+00  0.00000000000E+00 -0.19474975235E+04  0.19474975235E+04  0.50400001928E-02 0. -1.
    10030    2    1    2    0    0  0.00000000000E+00  0.00000000000E+00 -0.96689198273E+02  0.37983058487E+04  0.37970749952E+04 0.  0.
        1    1    3    3  502    0 -0.17870739483E+03  0.16888545780E+04 -0.89731194578E+03  0.19207641309E+04  0.50400001928E-02 0. -1.
       -1    1    3    3    0  502  0.17870739483E+03 -0.16888545780E+04  0.80062274750E+03  0.18775417179E+04  0.50400001928E-02 0.  1.
</event>
<event>
 5   0  0.1666051E-08  0.3803949E+04  0.7818609E-02  0.8045308E-01
        1   -1    0    0  501    0  0.00000000000E+00  0.00000000000E+00  0.21438059269E+04  0.21438059269E+04  0.50400001928E-02 0.  1.
       -1   -1    0    0    0  501  0.00000000000E+00  0.00000000000E+00 -0.16874232311E+04  0.16874232311E+04  0.50400001928E-02 0. -1.
    10030    2    1    2    0    0  0.00000000000E+00  0.00000000000E+00  0.45638269579E+03  0.38312291580E+04  0.38039494865E+04 0.  0.
        2    1    3    3  502    0 -0.10116015225E+04  0.33806322985E+03  0.18142492235E+04  0.21045485579E+04  0.25500000920E-02 0.  1.
       -2    1    3    3    0  502  0.10116015225E+04 -0.33806322985E+03 -0.13578665277E+04  0.17266806001E+04  0.25500000920E-02 0. -1.
</event>
<event>
 5   0  0.1628250E-08  0.3798515E+04  0.7818609E-02  0.8046474E-01
        1   -1    0    0  501    0  0.00000000000E+00  0.00000000000E+00  0.19514998576E+04  0.19514998576E+04  0.50400001928E-02 0. -1.
       -1   -1    0    0    0  501  0.00000000000E+00  0.00000000000E+00 -0.18484138045E+04  0.18484138045E+04  0.50400001928E-02 0.  1.
    10030    2    1    2    0    0  0.00000000000E+00  0.00000000000E+00  0.10308605310E+03  0.37999136621E+04  0.37985151184E+04 0.  0.
        4    1    3    3  502    0 -0.13340710640E+04  0.36911160863E+03  0.13524789352E+04  0.19352493035E+04  0.12699999809E+01 0. -1.
       -4    1    3    3    0  502  0.13340710640E+04 -0.36911160863E+03 -0.12493928821E+04  0.18646643586E+04  0.12699999809E+01 0.  1.
</event>
<event>
 5   0  0.1628473E-08  0.3752643E+04  0.7818609E-02  0.8056395E-01
        1   -1    0    0  501    0  0.00000000000E+00  0.00000000000E+00  0.21086960400E+04  0.21086960400E+04  0.50400001928E-02 0.  1.
       -1   -1    0    0    0  501  0.00000000000E+00  0.00000000000E+00 -0.16695540175E+04  0.16695540175E+04  0.50400001928E-02 0. -1.
    10030    2    1    2    0    0  0.00000000000E+00  0.00000000000E+00  0.43914202248E+03  0.37782500576E+04  0.37526427730E+04 0.  0.
        3    1    3    3  502    0 -0.11002394935E+04  0.55734882275E+03 -0.12040854191E+04  0.17236549422E+04  0.10100000352E+00 0. -1.
       -3    1    3    3    0  502  0.11002394935E+04 -0.55734882275E+03  0.16432274416E+04  0.20545951154E+04  0.10100000352E+00 0.  1.
</event>
<event>
 5   0  0.1628250E-08  0.3797607E+04  0.7818609E-02  0.8046669E-01
        1   -1    0    0  501    0  0.00000000000E+00  0.00000000000E+00  0.30049257804E+04  0.30049257804E+04  0.50400001928E-02 0.  1.
       -1   -1    0    0    0  501  0.00000000000E+00  0.00000000000E+00 -0.11998480660E+04  0.11998480661E+04  0.50400001928E-02 0. -1.
    10030    2    1    2    0    0  0.00000000000E+00  0.00000000000E+00  0.18050777143E+04  0.42047738464E+04  0.37976068181E+04 0.  0.
        1    1    3    3  502    0 -0.44600136598E+03  0.83803889292E+03 -0.91822781346E+03  0.13207455175E+04  0.50400001928E-02 0. -1.
       -1    1    3    3    0  502  0.44600136598E+03 -0.83803889292E+03  0.27233055278E+04  0.28840283289E+04  0.50400001928E-02 0.  1.
</event>
<event>
 5   0  0.5207474E-08  0.3805169E+04  0.7818609E-02  0.8045046E-01
       -2   -1    0    0    0  501  0.00000000000E+00  0.00000000000E+00  0.11370330956E+04  0.11370330956E+04  0.25500000920E-02 0. -1.
        2   -1    0    0  501    0  0.00000000000E+00  0.00000000000E+00 -0.31835735635E+04  0.31835735635E+04  0.25500000920E-02 0.  1.
    10030    2    1    2    0    0  0.00000000000E+00  0.00000000000E+00 -0.20465404679E+04  0.43206066590E+04  0.38051693807E+04 0.  0.
        4    1    3    3  502    0 -0.15682896101E+04 -0.84663577723E+03 -0.26710144265E+03  0.18021290836E+04  0.12699999809E+01 0. -1.
       -4    1    3    3    0  502  0.15682896101E+04  0.84663577723E+03 -0.17794390252E+04  0.25184775754E+04  0.12699999809E+01 0.  1.
</event>
<event>
 5   0  0.5207474E-08  0.3779145E+04  0.7818609E-02  0.8050645E-01
        2   -1    0    0  501    0  0.00000000000E+00  0.00000000000E+00  0.22857233595E+04  0.22857233595E+04  0.25500000920E-02 0.  1.
       -2   -1    0    0    0  501  0.00000000000E+00  0.00000000000E+00 -0.15620805139E+04  0.15620805139E+04  0.25500000920E-02 0. -1.
    10030    2    1    2    0    0  0.00000000000E+00  0.00000000000E+00  0.72364284565E+03  0.38478038734E+04  0.37791448345E+04 0.  0.
        4    1    3    3  502    0 -0.15788392465E+04 -0.82956676540E+03  0.99731473671E+03  0.20434169133E+04  0.12699999809E+01 0.  1.
       -4    1    3    3    0  502  0.15788392465E+04  0.82956676540E+03 -0.27367189107E+03  0.18043869600E+04  0.12699999809E+01 0. -1.
</event>
<event>
 5   0  0.1628473E-08  0.3800925E+04  0.7818609E-02  0.8045956E-01
        1   -1    0    0  501    0  0.00000000000E+00  0.00000000000E+00  0.23803955288E+04  0.23803955288E+04  0.50400001928E-02 0.  1.
       -1   -1    0    0    0  501  0.00000000000E+00  0.00000000000E+00 -0.15172934787E+04  0.15172934787E+04  0.50400001928E-02 0. -1.
    10030    2    1    2    0    0  0.00000000000E+00  0.00000000000E+00  0.86310205013E+03  0.38976890075E+04  0.38009254728E+04 0.  0.
        3    1    3    3  502    0 -0.16349371357E+04 -0.82827641965E+03  0.94703855395E+03  0.20629937707E+04  0.10100000352E+00 0. -1.
       -3    1    3    3    0  502  0.16349371357E+04  0.82827641965E+03 -0.83936503818E+02  0.18346952368E+04  0.10100000352E+00 0.  1.
</event>
<event>
 5   0  0.1628250E-08  0.3796679E+04  0.7818609E-02  0.8046868E-01
       -1   -1    0    0    0  501  0.00000000000E+00  0.00000000000E+00  0.17940211271E+04  0.17940211271E+04  0.50400001928E-02 0. -1.
        1   -1    0    0  501    0  0.00000000000E+00  0.00000000000E+00 -0.20087236079E+04  0.20087236079E+04  0.50400001928E-02 0.  1.
    10030    2    1    2    0    0  0.00000000000E+00  0.00000000000E+00 -0.21470248079E+03  0.38027447351E+04  0.37966788598E+04 0.  0.
        4    1    3    3  502    0  0.61009785859E+02 -0.68988066865E+02  0.17917818754E+04  0.17941475550E+04  0.12699999809E+01 0. -1.
       -4    1    3    3    0  502 -0.61009785859E+02  0.68988066865E+02 -0.20064843562E+04  0.20085971801E+04  0.12699999809E+01 0.  1.
</event>
<event>
 5   0  0.5207474E-08  0.3800006E+04  0.7818609E-02  0.8046154E-01
       -2   -1    0    0    0  501  0.00000000000E+00  0.00000000000E+00  0.18847693289E+04  0.18847693289E+04  0.25500000920E-02 0.  1.
        2   -1    0    0  501    0  0.00000000000E+00  0.00000000000E+00 -0.19153597355E+04  0.19153597355E+04  0.25500000920E-02 0. -1.
    10030    2    1    2    0    0  0.00000000000E+00  0.00000000000E+00 -0.30590406579E+02  0.38001290643E+04  0.38000059385E+04 0.  0.
        4    1    3    3  502    0 -0.14545815513E+04 -0.83266740282E+03  0.87964561965E+03  0.18928604075E+04  0.12699999809E+01 0. -1.
       -4    1    3    3    0  502  0.14545815513E+04  0.83266740282E+03 -0.91023602623E+03  0.19072686569E+04  0.12699999809E+01 0.  1.
</event>
<event>
 5   0  0.5207474E-08  0.3801199E+04  0.7818609E-02  0.8045898E-01
       -2   -1    0    0    0  501  0.00000000000E+00  0.00000000000E+00  0.15382148836E+04  0.15382148836E+04  0.25500000920E-02 0. -1.
        2   -1    0    0  501    0  0.00000000000E+00  0.00000000000E+00 -0.23483579253E+04  0.23483579253E+04  0.25500000920E-02 0.  1.
    10030    2    1    2    0    0  0.00000000000E+00  0.00000000000E+00 -0.81014304162E+03  0.38865728089E+04  0.38011993437E+04 0.  0.
        4    1    3    3  502    0 -0.43634742250E+03 -0.18492517916E+04 -0.45243952609E+03  0.19531601060E+04  0.12699999809E+01 0.  1.
       -4    1    3    3    0  502  0.43634742250E+03  0.18492517916E+04 -0.35770351552E+03  0.19334127029E+04  0.12699999809E+01 0. -1.
</event>
<event>
 5   0  0.5159761E-08  0.3797681E+04  0.7818609E-02  0.8046653E-01
        2   -1    0    0  501    0  0.00000000000E+00  0.00000000000E+00  0.24463405503E+04  0.24463405503E+04  0.25500000920E-02 0. -1.
       -2   -1    0    0    0  501  0.00000000000E+00  0.00000000000E+00 -0.14738730938E+04  0.14738730938E+04  0.25500000920E-02 0.  1.
    10030    2    1    2    0    0  0.00000000000E+00  0.00000000000E+00  0.97246745659E+03  0.39202136441E+04  0.37976811427E+04 0.  0.
        5    1    3    3  502    0 -0.53679420700E+03 -0.53628687305E+03  0.22830339000E+04  0.24058299003E+04  0.46999998093E+01 0. -1.
       -5    1    3    3    0  502  0.53679420700E+03  0.53628687305E+03 -0.13105664434E+04  0.15143837438E+04  0.46999998093E+01 0.  1.
</event>
<event>
 5   0  0.5147582E-08  0.3793060E+04  0.7818609E-02  0.8047646E-01
       -2   -1    0    0    0  501  0.00000000000E+00  0.00000000000E+00  0.12511919230E+04  0.12511919230E+04  0.25500000920E-02 0.  1.
        2   -1    0    0  501    0  0.00000000000E+00  0.00000000000E+00 -0.28747200666E+04  0.28747200666E+04  0.25500000920E-02 0. -1.
    10030    2    1    2    0    0  0.00000000000E+00  0.00000000000E+00 -0.16235281436E+04  0.41259119897E+04  0.37930602570E+04 0.  0.
        1    1    3    3  502    0 -0.10915417512E+04 -0.36923681210E+02  0.87477896975E+03  0.13993087575E+04  0.50400001928E-02 0.  1.
       -1    1    3    3    0  502  0.10915417512E+04  0.36923681210E+02 -0.24983071133E+04  0.27266032321E+04  0.50400001928E-02 0. -1.
</event>
<event>
 5   0  0.1628250E-08  0.3804434E+04  0.7818609E-02  0.8045204E-01
        3   -1    0    0  501    0  0.00000000000E+00  0.00000000000E+00  0.20465714532E+04  0.20465714557E+04  0.10100000352E+00 0. -1.
       -3   -1    0    0    0  501  0.00000000000E+00  0.00000000000E+00 -0.17680442124E+04  0.17680442153E+04  0.10100000352E+00 0.  1.
    10030    2    1    2    0    0  0.00000000000E+00  0.00000000000E+00  0.27852724079E+03  0.38146156710E+04  0.38044336364E+04 0.  0.
        1    1    3    3  502    0 -0.15490329695E+04  0.51903922652E+03  0.11163067625E+04  0.19786474288E+04  0.50400001928E-02 0.  1.
       -1    1    3    3    0  502  0.15490329695E+04 -0.51903922652E+03 -0.83777952174E+03  0.18359682422E+04  0.50400001928E-02 0. -1.
</event>
<event>
 5   0  0.5159761E-08  0.3796275E+04  0.7818609E-02  0.8046955E-01
       -2   -1    0    0    0  501  0.00000000000E+00  0.00000000000E+00  0.18199332546E+04  0.18199332546E+04  0.25500000920E-02 0. -1.
        2   -1    0    0  501    0  0.00000000000E+00  0.00000000000E+00 -0.19797023155E+04  0.19797023155E+04  0.25500000920E-02 0.  1.
    10030    2    1    2    0    0  0.00000000000E+00  0.00000000000E+00 -0.15976906091E+03  0.37996355701E+04  0.37962750576E+04 0.  0.
        5    1    3    3  502    0 -0.29378802258E+03 -0.18706911271E+04 -0.21079516314E+03  0.19053223837E+04  0.46999998093E+01 0. -1.
       -5    1    3    3    0  502  0.29378802258E+03  0.18706911271E+04  0.51026102229E+02  0.18943131864E+04  0.46999998093E+01 0.  1.
</event>
<event>
 5   0  0.1666051E-08  0.3799986E+04  0.7818609E-02  0.8046158E-01
       -1   -1    0    0    0  501  0.00000000000E+00  0.00000000000E+00  0.20044891259E+04  0.20044891260E+04  0.50400001928E-02 0.  1.
        1   -1    0    0  501    0  0.00000000000E+00  0.00000000000E+00 -0.18009439440E+04  0.18009439440E+04  0.50400001928E-02 0. -1.
    10030    2    1    2    0    0  0.00000000000E+00  0.00000000000E+00  0.20354518192E+03  0.38054330700E+04  0.37999855538E+04 0.  0.
        2    1    3    3  502    0 -0.15202471331E+04  0.20008713381E+03 -0.10217922846E+04  0.18426192444E+04  0.25500000920E-02 0. -1.
       -2    1    3    3    0  502  0.15202471331E+04 -0.20008713381E+03  0.12253374666E+04  0.19628138256E+04  0.25500000920E-02 0.  1.
</event>
<event>
 5   0  0.5159761E-08  0.3799697E+04  0.7818609E-02  0.8046220E-01
       -2   -1    0    0    0  501  0.00000000000E+00  0.00000000000E+00  0.14794489077E+04  0.14794489077E+04  0.25500000920E-02 0. -1.
        2   -1    0    0  501    0  0.00000000000E+00  0.00000000000E+00 -0.24397086598E+04  0.24397086598E+04  0.25500000920E-02 0.  1.
    10030    2    1    2    0    0  0.00000000000E+00  0.00000000000E+00 -0.96025975214E+03  0.39191575675E+04  0.37996969941E+04 0.  0.
        5    1    3    3  502    0  0.18591821367E+04 -0.35462394210E+03 -0.31037779516E+03  0.19179866588E+04  0.46999998093E+01 0. -1.
       -5    1    3    3    0  502 -0.18591821367E+04  0.35462394210E+03 -0.64988195698E+03  0.20011709087E+04  0.46999998093E+01 0.  1.
</event>
<event>
 5   0  0.1628473E-08  0.3801535E+04  0.7818609E-02  0.8045826E-01
        1   -1    0    0  501    0  0.00000000000E+00  0.00000000000E+00  0.13674755057E+04  0.13674755057E+04  0.50400001928E-02 0. -1.
       -1   -1    0    0    0  501  0.00000000000E+00  0.00000000000E+00 -0.26420339915E+04  0.26420339915E+04  0.50400001928E-02 0.  1.
    10030    2    1    2    0    0  0.00000000000E+00  0.00000000000E+00 -0.12745584858E+04  0.40095094972E+04  0.38015348314E+04 0.  0.
        3    1    3    3  502    0  0.17637943153E+04  0.70018566320E+03 -0.75129708174E+03  0.20409991830E+04  0.10100000352E+00 0.  1.
       -3    1    3    3    0  502 -0.17637943153E+04 -0.70018566320E+03 -0.52326140406E+03  0.19685103142E+04  0.10100000352E+00 0. -1.
</event>
<event>
 5   0  0.1628250E-08  0.3692895E+04  0.7818609E-02  0.8069538E-01
       -1   -1    0    0    0  501  0.00000000000E+00  0.00000000000E+00  0.15822472089E+04  0.15822472089E+04  0.50400001928E-02 0. -1.
        1   -1    0    0  501    0  0.00000000000E+00  0.00000000000E+00 -0.21547634216E+04  0.21547634216E+04  0.50400001928E-02 0.  1.
    10030    2    1    2    0    0  0.00000000000E+00  0.00000000000E+00 -0.57251621269E+03  0.37370106304E+04  0.36928950213E+04 0.  0.
        4    1    3    3  502    0 -0.10631586354E+04 -0.13856195015E+04  0.32016624041E+03  0.17756001018E+04  0.12699999809E+01 0. -1.
       -4    1    3    3    0  502  0.10631586354E+04  0.13856195015E+04 -0.89268245310E+03  0.19614105287E+04  0.12699999809E+01 0.  1.
</event>
<event>
 5   0  0.1628473E-08  0.3754457E+04  0.7818609E-02  0.8055999E-01
       -1   -1    0    0    0  501  0.00000000000E+00  0.00000000000E+00  0.18833121500E+04  0.18833121500E+04  0.50400001928E-02 0.  1.
        1   -1    0    0  501    0  0.00000000000E+00  0.00000000000E+00 -0.18711647904E+04  0.18711647904E+04  0.50400001928E-02 0. -1.
    10030    2    1    2    0    0  0.00000000000E+00  0.00000000000E+00  0.12147359559E+02  0.37544769404E+04  0.37544572894E+04 0.  0.
        3    1    3    3  502    0 -0.41186055851E+03 -0.16121147682E+04  0.87524117618E+03  0.18800506036E+04  0.10100000352E+00 0.  1.
       -3    1    3    3    0  502  0.41186055851E+03  0.16121147682E+04 -0.86309381662E+03  0.18744263368E+04  0.10100000352E+00 0. -1.
</event>
<event>
 5   0  0.1628473E-08  0.3795362E+04  0.7818609E-02  0.8047151E-01
        1   -1    0    0  501    0  0.00000000000E+00  0.00000000000E+00  0.30878935298E+04  0.30878935298E+04  0.50400001928E-02 0.  1.
       -1   -1    0    0    0  501  0.00000000000E+00  0.00000000000E+00 -0.11662298711E+04  0.11662298712E+04  0.50400001928E-02 0. -1.
    10030    2    1    2    0    0  0.00000000000E+00  0.00000000000E+00  0.19216636586E+04  0.42541234009E+04  0.37953622612E+04 0.  0.
        3    1    3    3  502    0  0.68150717097E+02 -0.14439692272E+04  0.23388698930E+04  0.27495461509E+04  0.10100000352E+00 0.  1.
       -3    1    3    3    0  502 -0.68150717097E+02  0.14439692272E+04 -0.41720623437E+03  0.15045772501E+04  0.10100000352E+00 0. -1.
</event>
<event>
 5   0  0.5140842E-08  0.3792798E+04  0.7818609E-02  0.8047702E-01
       -2   -1    0    0    0  501  0.00000000000E+00  0.00000000000E+00  0.20030890928E+04  0.20030890928E+04  0.25500000920E-02 0. -1.
        2   -1    0    0  501    0  0.00000000000E+00  0.00000000000E+00 -0.17953914839E+04  0.17953914839E+04  0.25500000920E-02 0.  1.
    10030    2    1    2    0    0  0.00000000000E+00  0.00000000000E+00  0.20769760886E+03  0.37984805767E+04  0.37927979639E+04 0.  0.
        2    1    3    3  502    0  0.14211641632E+04  0.60425287769E+03 -0.99848190507E+03  0.18389658055E+04  0.25500000920E-02 0.  1.
       -2    1    3    3    0  502 -0.14211641632E+04 -0.60425287769E+03  0.12061795139E+04  0.19595147712E+04  0.25500000920E-02 0. -1.
</event>
<event>
 5   0  0.1628250E-08  0.3811003E+04  0.7818609E-02  0.8043798E-01
        1   -1    0    0  501    0  0.00000000000E+00  0.00000000000E+00  0.13698179610E+04  0.13698179611E+04  0.50400001928E-02 0. -1.
       -1   -1    0    0    0  501  0.00000000000E+00  0.00000000000E+00 -0.26506702032E+04  0.26506702032E+04  0.50400001928E-02 0.  1.
    10030    2    1    2    0    0  0.00000000000E+00  0.00000000000E+00 -0.12808522422E+04  0.40204881643E+04  0.38110028356E+04 0.  0.
        5    1    3    3  502    0  0.16070240040E+04 -0.10066704534E+04 -0.44305390317E+03  0.19473649895E+04  0.46999998093E+01 0. -1.
       -5    1    3    3    0  502 -0.16070240040E+04  0.10066704534E+04 -0.83779833900E+03  0.20731231748E+04  0.46999998093E+01 0.  1.
</event>
<event>
 5   0  0.1666051E-08  0.3784540E+04  0.7818609E-02  0.8049481E-01
       -1   -1    0    0    0  501  0.00000000000E+00  0.00000000000E+00  0.14937815051E+04  0.14937815051E+04  0.50400001928E-02 0. -1.
        1   -1    0    0  501    0  0.00000000000E+00  0.00000000000E+00 -0.23970611108E+04  0.23970611108E+04  0.50400001928E-02 0.  1.
    10030    2    1    2    0    0  0.00000000000E+00  0.00000000000E+00 -0.90327960574E+03  0.38908426160E+04  0.37845398949E+04 0.  0.
        2    1    3    3  502    0  0.99686531328E+03 -0.14397085183E+04  0.28556823157E+03  0.17742745800E+04  0.25500000920E-02 0. -1.
       -2    1    3    3    0  502 -0.99686531328E+03  0.14397085183E+04 -0.11888478373E+04  0.21165680359E+04  0.25500000920E-02 0.  1.
</event>
<event>
 5   0  0.1628473E-08  0.3801102E+04  0.7818609E-02  0.8045918E-01
       -1   -1    0    0    0  501  0.00000000000E+00  0.00000000000E+00  0.12277450387E+04  0.12277450387E+04  0.50400001928E-02 0.  1.
        1   -1    0    0  501    0  0.00000000000E+00  0.00000000000E+00 -0.29420556209E+04  0.29420556209E+04  0.50400001928E-02 0. -1.
    10030    2    1    2    0    0  0.00000000000E+00  0.00000000000E+00 -0.17143105822E+04  0.41698006596E+04  0.38011020466E+04 0.  0.
        3    1    3    3  502    0 -0.27017547108E+03  0.17184002418E+04 -0.17253178138E+02  0.17395953146E+04  0.10100000352E+00 0. -1.
       -3    1    3    3    0  502  0.27017547108E+03 -0.17184002418E+04 -0.16970574041E+04  0.24302053450E+04  0.10100000352E+00 0.  1.
</event>
<event>
 5   0  0.5147582E-08  0.3801220E+04  0.7818609E-02  0.8045893E-01
        2   -1    0    0  501    0  0.00000000000E+00  0.00000000000E+00  0.28178277577E+04  0.28178277577E+04  0.25500000920E-02 0.  1.
       -2   -1    0    0    0  501  0.00000000000E+00  0.00000000000E+00 -0.12819516446E+04  0.12819516446E+04  0.25500000920E-02 0. -1.
    10030    2    1    2    0    0  0.00000000000E+00  0.00000000000E+00  0.15358761131E+04  0.40997794023E+04  0.38012202926E+04 0.  0.
        1    1    3    3  502    0 -0.16426096779E+04 -0.73579922647E+02 -0.26021289754E+03  0.16647195893E+04  0.50400001928E-02 0. -1.
       -1    1    3    3    0  502  0.16426096779E+04  0.73579922647E+02  0.17960890106E+04  0.24350598130E+04  0.50400001928E-02 0.  1.
</event>
<event>
 5   0  0.5140842E-08  0.3805612E+04  0.7818609E-02  0.8044952E-01
       -2   -1    0    0    0  501  0.00000000000E+00  0.00000000000E+00  0.19175097713E+04  0.19175097713E+04  0.25500000920E-02 0. -1.
        2   -1    0    0  501    0  0.00000000000E+00  0.00000000000E+00 -0.18882151030E+04  0.18882151030E+04  0.25500000920E-02 0.  1.
    10030    2    1    2    0    0  0.00000000000E+00  0.00000000000E+00  0.29294668352E+02  0.38057248743E+04  0.38056121244E+04 0.  0.
        2    1    3    3  502    0  0.10023313752E+04 -0.78590066909E+03 -0.13990291765E+04  0.18919806246E+04  0.25500000920E-02 0.  1.
       -2    1    3    3    0  502 -0.10023313752E+04  0.78590066909E+03  0.14283238448E+04  0.19137442497E+04  0.25500000920E-02 0. -1.
</event>
<event>
 5   0  0.1628473E-08  0.3800996E+04  0.7818609E-02  0.8045941E-01
       -1   -1    0    0    0  501  0.00000000000E+00  0.00000000000E+00  0.32255572176E+04  0.32255572176E+04  0.50400001928E-02 0.  1.
        1   -1    0    0  501    0  0.00000000000E+00  0.00000000000E+00 -0.11197735093E+04  0.11197735093E+04  0.50400001928E-02 0. -1.
    10030    2    1    2    0    0  0.00000000000E+00  0.00000000000E+00  0.21057837084E+04  0.43453307269E+04  0.38009964614E+04 0.  0.
        3    1    3    3  502    0  0.21084903714E+02 -0.15887900969E+04  0.22448996299E+04  0.27503223273E+04  0.10100000352E+00 0.  1.
       -3    1    3    3    0  502 -0.21084903714E+02  0.15887900969E+04 -0.13911592156E+03  0.15950083997E+04  0.10100000352E+00 0. -1.
</event>
<event>
 5   0  0.5147582E-08  0.3801106E+04  0.7818609E-02  0.8045918E-01
       -2   -1    0    0    0  501  0.00000000000E+00  0.00000000000E+00  0.11119825972E+04  0.11119825972E+04  0.25500000920E-02 0.  1.
        2   -1    0    0  501    0  0.00000000000E+00  0.00000000000E+00 -0.32483438707E+04  0.32483438707E+04  0.25500000920E-02 0. -1.
    10030    2    1    2    0    0  0.00000000000E+00  0.00000000000E+00 -0.21363612735E+04  0.43603264679E+04  0.38011060779E+04 0.  0.
        1    1    3    3  502    0  0.73852611043E+03  0.70620101882E+03 -0.29064249994E+04  0.30808192046E+04  0.50400001928E-02 0. -1.
       -1    1    3    3    0  502 -0.73852611043E+03 -0.70620101882E+03  0.77006372584E+03  0.12795072632E+04  0.50400001928E-02 0.  1.
</event>
<event>
 5   0  0.1628250E-08  0.3800559E+04  0.7818609E-02  0.8046035E-01
       -1   -1    0    0    0  501  0.00000000000E+00  0.00000000000E+00  0.20815993222E+04  0.20815993222E+04  0.50400001928E-02 0. -1.
        1   -1    0    0  501    0  0.00000000000E+00  0.00000000000E+00 -0.17347541094E+04  0.17347541094E+04  0.50400001928E-02 0.  1.
    10030    2    1    2    0    0  0.00000000000E+00  0.00000000000E+00  0.34684521277E+03  0.38163534317E+04  0.38005594211E+04 0.  0.
        1    1    3    3  502    0  0.86203703762E+03 -0.71812189949E+03 -0.13666576700E+04  0.17682081619E+04  0.50400001928E-02 0.  1.
       -1    1    3    3    0  502 -0.86203703762E+03  0.71812189949E+03  0.17135028828E+04  0.20481452698E+04  0.50400001928E-02 0. -1.
</event>
<event>
 5   0  0.1628473E-08  0.3791240E+04  0.7818609E-02  0.8048037E-01
       -1   -1    0    0    0  501  0.00000000000E+00  0.00000000000E+00  0.15856316552E+04  0.15856316552E+04  0.50400001928E-02 0.  1.
        1   -1    0    0  501    0  0.00000000000E+00  0.00000000000E+00 -0.22662099698E+04  0.22662099698E+04  0.50400001928E-02 0. -1.
    10030    2    1    2    0    0  0.00000000000E+00  0.00000000000E+00 -0.68057831462E+03  0.38518416249E+04  0.37912395152E+04 0.  0.
        3    1    3    3  502    0  0.17821467515E+04 -0.31525282544E+03  0.23258831302E+03  0.18246996250E+04  0.10100000352E+00 0. -1.
       -3    1    3    3    0  502 -0.17821467515E+04  0.31525282544E+03 -0.91316662765E+03  0.20271419999E+04  0.10100000352E+00 0.  1.
</event>
<event>
 5   0  0.5207474E-08  0.3800198E+04  0.7818609E-02  0.8046112E-01
       -2   -1    0    0    0  501  0.00000000000E+00  0.00000000000E+00  0.12509869428E+04  0.12509869428E+04  0.25500000920E-02 0. -1.
        2   -1    0    0  501    0  0.00000000000E+00  0.00000000000E+00 -0.28860220815E+04  0.28860220816E+04  0.25500000920E-02 0.  1.
    10030    2    1    2    0    0  0.00000000000E+00  0.00000000000E+00 -0.16350351388E+04  0.41370090243E+04  0.38001978583E+04 0.  0.
        4    1    3    3  502    0 -0.15139942780E+04  0.89561897982E+03 -0.15995618152E+04  0.23775852549E+04  0.12699999809E+01 0.  1.
       -4    1    3    3    0  502  0.15139942780E+04 -0.89561897982E+03 -0.35473323615E+02  0.17594237694E+04  0.12699999809E+01 0. -1.
</event>
<event>
 5   0  0.5159761E-08  0.3787871E+04  0.7818609E-02  0.8048763E-01
        2   -1    0    0  501    0  0.00000000000E+00  0.00000000000E+00  0.21450055448E+04  0.21450055448E+04  0.25500000920E-02 0.  1.
       -2   -1    0    0    0  501  0.00000000000E+00  0.00000000000E+00 -0.16722525216E+04  0.16722525216E+04  0.25500000920E-02 0. -1.
    10030    2    1    2    0    0  0.00000000000E+00  0.00000000000E+00  0.47275302317E+03  0.38172580664E+04  0.37878706056E+04 0.  0.
        5    1    3    3  502    0 -0.11458038934E+04 -0.14954241770E+04  0.40423071756E+02  0.18843609383E+04  0.46999998093E+01 0.  1.
       -5    1    3    3    0  502  0.11458038934E+04  0.14954241770E+04  0.43232995142E+03  0.19328971281E+04  0.46999998093E+01 0. -1.
</event>
<event>
 5   0  0.5147582E-08  0.3799967E+04  0.7818609E-02  0.8046162E-01
       -2   -1    0    0    0  501  0.00000000000E+00  0.00000000000E+00  0.26511507036E+04  0.26511507036E+04  0.25500000920E-02 0.  1.
        2   -1    0    0  501    0  0.00000000000E+00  0.00000000000E+00 -0.13616492649E+04  0.13616492649E+04  0.25500000920E-02 0. -1.
    10030    2    1    2    0    0  0.00000000000E+00  0.00000000000E+00  0.12895014387E+04  0.40127999685E+04  0.37999670560E+04 0.  0.
        1    1    3    3  502    0 -0.76424723690E+03 -0.88753631548E+03 -0.93508373672E+03  0.14987248397E+04  0.50400001928E-02 0. -1.
       -1    1    3    3    0  502  0.76424723690E+03  0.88753631548E+03  0.22245851754E+04  0.25140751288E+04  0.50400001928E-02 0.  1.
</event>
<event>
 5   0  0.5159761E-08  0.3802003E+04  0.7818609E-02  0.8045725E-01
       -2   -1    0    0    0  501  0.00000000000E+00  0.00000000000E+00  0.11420518424E+04  0.11420518424E+04  0.25500000920E-02 0.  1.
        2   -1    0    0  501    0  0.00000000000E+00  0.00000000000E+00 -0.31643098826E+04  0.31643098826E+04  0.25500000920E-02 0. -1.
    10030    2    1    2    0    0  0.00000000000E+00  0.00000000000E+00 -0.20222580402E+04  0.43063617251E+04  0.38020025942E+04 0.  0.
        5    1    3    3  502    0  0.58576111838E+03  0.12675366882E+04  0.44996166784E+03  0.14670558736E+04  0.46999998093E+01 0.  1.
       -5    1    3    3    0  502 -0.58576111838E+03 -0.12675366882E+04 -0.24722197080E+04  0.28393058515E+04  0.46999998093E+01 0. -1.
</event>
<event>
 5   0  0.5207474E-08  0.3798766E+04  0.7818609E-02  0.8046420E-01
        2   -1    0    0  501    0  0.00000000000E+00  0.00000000000E+00  0.21011934591E+04  0.21011934591E+04  0.25500000920E-02 0. -1.
       -2   -1    0    0    0  501  0.00000000000E+00  0.00000000000E+00 -0.17169551696E+04  0.17169551696E+04  0.25500000920E-02 0.  1.
    10030    2    1    2    0    0  0.00000000000E+00  0.00000000000E+00  0.38423828955E+03  0.38181486287E+04  0.37987655742E+04 0.  0.
        4    1    3    3  502    0  0.80710530154E+03 -0.94002622390E+03 -0.12548741587E+04  0.17634565593E+04  0.12699999809E+01 0.  1.
       -4    1    3    3    0  502 -0.80710530154E+03  0.94002622390E+03  0.16391124482E+04  0.20546920694E+04  0.12699999809E+01 0. -1.
</event>
<event>
 5   0  0.1628473E-08  0.3796144E+04  0.7818609E-02  0.8046983E-01
        1   -1    0    0  501    0  0.00000000000E+00  0.00000000000E+00  0.16818540371E+04  0.16818540371E+04  0.50400001928E-02 0.  1.
       -1   -1    0    0    0  501  0.00000000000E+00  0.00000000000E+00 -0.21420867675E+04  0.21420867675E+04  0.50400001928E-02 0. -1.
    10030    2    1    2    0    0  0.00000000000E+00  0.00000000000E+00 -0.46023273045E+03  0.38239408046E+04  0.37961439792E+04 0.  0.
        3    1    3    3  502    0 -0.22789533991E+03 -0.30009884869E+03 -0.21040288759E+04  0.21375062867E+04  0.10100000352E+00 0. -1.
       -3    1    3    3    0  502  0.22789533991E+03  0.30009884869E+03  0.16437961455E+04  0.16864345178E+04  0.10100000352E+00 0.  1.
</event>
<event>
 5   0  0.1628473E-08  0.3801412E+04  0.7818609E-02  0.8045852E-01
        1   -1    0    0  501    0  0.00000000000E+00  0.00000000000E+00  0.24517873998E+04  0.24517873998E+04  0.50400001928E-02 0.  1.
       -1   -1    0    0    0  501  0.00000000000E+00  0.00000000000E+00 -0.14734892424E+04  0.14734892424E+04  0.50400001928E-02 0. -1.
    10030    2    1    2    0    0  0.00000000000E+00  0.00000000000E+00  0.97829815737E+03  0.39252766422E+04  0.38014115053E+04 0.  0.
        3    1    3    3  502    0 -0.11549821450E+04 -0.77454989766E+03 -0.84874311791E+03  0.16291949514E+04  0.10100000352E+00 0. -1.
       -3    1    3    3    0  502  0.11549821450E+04  0.77454989766E+03  0.18270412753E+04  0.22960816908E+04  0.10100000352E+00 0.  1.
</event>
<event>
 5   0  0.5086209E-08  0.3806424E+04  0.7818609E-02  0.8044778E-01
       -2   -1    0    0    0  501  0.00000000000E+00  0.00000000000E+00  0.33703774901E+04  0.33703774901E+04  0.25500000920E-02 0. -1.
        2   -1    0    0  501    0  0.00000000000E+00  0.00000000000E+00 -0.10747214079E+04  0.10747214079E+04  0.25500000920E-02 0.  1.
    10030    2    1    2    0    0  0.00000000000E+00  0.00000000000E+00  0.22956560822E+04  0.44450988980E+04  0.38064244857E+04 0.  0.
        3    1    3    3  502    0 -0.57561985334E+03 -0.52300715156E+03  0.31763349361E+04  0.32701648785E+04  0.10100000352E+00 0. -1.
       -3    1    3    3    0  502  0.57561985334E+03  0.52300715156E+03 -0.88067885393E+03  0.11749340195E+04  0.10100000352E+00 0.  1.
</event>
<event>
 5   0  0.5207474E-08  0.3799102E+04  0.7818609E-02  0.8046348E-01
       -2   -1    0    0    0  501  0.00000000000E+00  0.00000000000E+00  0.31557118673E+04  0.31557118673E+04  0.25500000920E-02 0.  1.
        2   -1    0    0  501    0  0.00000000000E+00  0.00000000000E+00 -0.11434168685E+04  0.11434168685E+04  0.25500000920E-02 0. -1.
    10030    2    1    2    0    0  0.00000000000E+00  0.00000000000E+00  0.20122949988E+04  0.42991287358E+04  0.37991020946E+04 0.  0.
        4    1    3    3  502    0  0.24848679204E+03  0.23883333574E+03  0.31200328560E+04  0.31390115774E+04  0.12699999809E+01 0.  1.
       -4    1    3    3    0  502 -0.24848679204E+03 -0.23883333574E+03 -0.11077378572E+04  0.11601171584E+04  0.12699999809E+01 0. -1.
</event>
<event>
 5   0  0.1628250E-08  0.3792455E+04  0.7818609E-02  0.8047776E-01
        1   -1    0    0  501    0  0.00000000000E+00  0.00000000000E+00  0.13873920634E+04  0.13873920634E+04  0.50400001928E-02 0. -1.
       -1   -1    0    0    0  501  0.00000000000E+00  0.00000000000E+00 -0.25916814594E+04  0.25916814594E+04  0.50400001928E-02 0.  1.
    10030    2    1    2    0    0  0.00000000000E+00  0.00000000000E+00 -0.12042893960E+04  0.39790735228E+04  0.37924547658E+04 0.  0.
        4    1    3    3  502    0 -0.36860401487E+03 -0.39428968762E+03 -0.25093794060E+04  0.25667722715E+04  0.12699999809E+01 0.  1.
       -4    1    3    3    0  502  0.36860401487E+03  0.39428968762E+03  0.13050900099E+04  0.14123012513E+04  0.12699999809E+01 0. -1.
</event>
<event>
 5   0  0.1628250E-08  0.3853379E+04  0.7818609E-02  0.8034796E-01
        1   -1    0    0  501    0  0.00000000000E+00  0.00000000000E+00  0.14301109594E+04  0.14301109594E+04  0.50400001928E-02 0. -1.
       -1   -1    0    0    0  501  0.00000000000E+00  0.00000000000E+00 -0.25956957368E+04  0.25956957368E+04  0.50400001928E-02 0.  1.
    10030    2    1    2    0    0  0.00000000000E+00  0.00000000000E+00 -0.11655847774E+04  0.40258066962E+04  0.38533792548E+04 0.  0.
        1    1    3    3  502    0 -0.16981922504E+04 -0.55182471554E+03 -0.13388930201E+04  0.22318158426E+04  0.50400001928E-02 0.  1.
       -1    1    3    3    0  502  0.16981922504E+04  0.55182471554E+03  0.17330824264E+03  0.17939908536E+04  0.50400001928E-02 0. -1.
</event>
<event>
 5   0  0.1666051E-08  0.3795386E+04  0.7818609E-02  0.8047146E-01
       -1   -1    0    0    0  501  0.00000000000E+00  0.00000000000E+00  0.13664929321E+04  0.13664929321E+04  0.50400001928E-02 0.  1.
        1   -1    0    0  501    0  0.00000000000E+00  0.00000000000E+00 -0.26353877632E+04  0.26353877632E+04  0.50400001928E-02 0. -1.
    10030    2    1    2    0    0  0.00000000000E+00  0.00000000000E+00 -0.12688948311E+04  0.40018806953E+04  0.37953860156E+04 0.  0.
        2    1    3    3  502    0 -0.76890472875E+03 -0.96576105200E+02 -0.24609457469E+04  0.25800766258E+04  0.25500000920E-02 0. -1.
       -2    1    3    3    0  502  0.76890472875E+03  0.96576105200E+02  0.11920509158E+04  0.14218040695E+04  0.25500000920E-02 0.  1.
</event>
<event>
 5   0  0.5207474E-08  0.3797984E+04  0.7818609E-02  0.8046588E-01
        2   -1    0    0  501    0  0.00000000000E+00  0.00000000000E+00  0.17892771292E+04  0.17892771292E+04  0.25500000920E-02 0.  1.
       -2   -1    0    0    0  501  0.00000000000E+00  0.00000000000E+00 -0.20154341383E+04  0.20154341383E+04  0.25500000920E-02 0. -1.
    10030    2    1    2    0    0  0.00000000000E+00  0.00000000000E+00 -0.22615700908E+03  0.38047112675E+04  0.37979837857E+04 0.  0.
        4    1    3    3  502    0 -0.15349944222E+04 -0.10183080971E+04  0.34926836447E+03  0.18748731317E+04  0.12699999809E+01 0.  1.
       -4    1    3    3    0  502  0.15349944222E+04  0.10183080971E+04 -0.57542537355E+03  0.19298381357E+04  0.12699999809E+01 0. -1.
</event>
<event>
 5   0  0.5207474E-08  0.3800593E+04  0.7818609E-02  0.8046028E-01
       -2   -1    0    0    0  501  0.00000000000E+00  0.00000000000E+00  0.23005301436E+04  0.23005301436E+04  0.25500000920E-02 0. -1.
        2   -1    0    0  501    0  0.00000000000E+00  0.00000000000E+00 -0.15696932875E+04  0.15696932875E+04  0.25500000920E-02 0.  1.
    10030    2    1    2    0    0  0.00000000000E+00  0.00000000000E+00  0.73083685604E+03  0.38702234311E+04  0.38005929664E+04 0.  0.
        4    1    3    3  502    0 -0.10302560867E+04 -0.13954394030E+04  0.11558128688E+04  0.20843665062E+04  0.12699999809E+01 0. -1.
       -4    1    3    3    0  502  0.10302560867E+04  0.13954394030E+04 -0.42497601279E+03  0.17858569248E+04  0.12699999809E+01 0.  1.
</event>
<event>
 5   0  0.5159761E-08  0.3799323E+04  0.7818609E-02  0.8046300E-01
        2   -1    0    0  501    0  0.00000000000E+00  0.00000000000E+00  0.24581523984E+04  0.24581523984E+04  0.25500000920E-02 0. -1.
       -2   -1    0    0    0  501  0.00000000000E+00  0.00000000000E+00 -0.14680593163E+04  0.14680593163E+04  0.25500000920E-02 0.  1.
    10030    2    1    2    0    0  0.00000000000E+00  0.00000000000E+00  0.99009308208E+03  0.39262117147E+04  0.37993228499E+04 0.  0.
        5    1    3    3  502    0 -0.63336216129E+02  0.15995680277E+04 -0.56188351002E+03  0.16965743487E+04  0.46999998093E+01 0.  1.
       -5    1    3    3    0  502  0.63336216129E+02 -0.15995680277E+04  0.15519765921E+04  0.22296373661E+04  0.46999998093E+01 0. -1.
</event>
<event>
 5   0  0.1628473E-08  0.3851334E+04  0.7818609E-02  0.8035228E-01
        1   -1    0    0  501    0  0.00000000000E+00  0.00000000000E+00  0.21629875035E+04  0.21629875036E+04  0.50400001928E-02 0. -1.
       -1   -1    0    0    0  501  0.00000000000E+00  0.00000000000E+00 -0.17143848321E+04  0.17143848321E+04  0.50400001928E-02 0.  1.
    10030    2    1    2    0    0  0.00000000000E+00  0.00000000000E+00  0.44860267144E+03  0.38773723357E+04  0.38513337784E+04 0.  0.
        3    1    3    3  502    0  0.15917581088E+04  0.95721022565E+03  0.73591784527E+03  0.19978789698E+04  0.10100000352E+00 0.  1.
       -3    1    3    3    0  502 -0.15917581088E+04 -0.95721022565E+03 -0.28731517383E+03  0.18794933658E+04  0.10100000352E+00 0. -1.
</event>
<event>
 5   0  0.1666051E-08  0.3801344E+04  0.7818609E-02  0.8045867E-01
       -1   -1    0    0    0  501  0.00000000000E+00  0.00000000000E+00  0.13984855693E+04  0.13984855693E+04  0.50400001928E-02 0.  1.
        1   -1    0    0  501    0  0.00000000000E+00  0.00000000000E+00 -0.25831898921E+04  0.25831898921E+04  0.50400001928E-02 0. -1.
    10030    2    1    2    0    0  0.00000000000E+00  0.00000000000E+00 -0.11847043228E+04  0.39816754614E+04  0.38013438607E+04 0.  0.
        2    1    3    3  502    0 -0.14530846846E+04 -0.28422675962E+03 -0.18406575945E+04  0.23622574652E+04  0.25500000920E-02 0. -1.
       -2    1    3    3    0  502  0.14530846846E+04  0.28422675962E+03  0.65595327177E+03  0.16194179962E+04  0.25500000920E-02 0.  1.
</event>
<event>
 5   0  0.5147582E-08  0.3807991E+04  0.7818609E-02  0.8044442E-01
        2   -1    0    0  501    0  0.00000000000E+00  0.00000000000E+00  0.14548887519E+04  0.14548887519E+04  0.25500000920E-02 0.  1.
       -2   -1    0    0    0  501  0.00000000000E+00  0.00000000000E+00 -0.24917365698E+04  0.24917365698E+04  0.25500000920E-02 0. -1.
    10030    2    1    2    0    0  0.00000000000E+00  0.00000000000E+00 -0.10368478179E+04  0.39466253216E+04  0.38079913382E+04 0.  0.
        1    1    3    3  502    0  0.19446009000E+03 -0.14285214981E+04  0.77052157379E+03  0.16346840345E+04  0.50400001928E-02 0.  1.
       -1    1    3    3    0  502 -0.19446009000E+03  0.14285214981E+04 -0.18073693917E+04  0.23119412871E+04  0.50400001928E-02 0. -1.
</event>
<event>
 5   0  0.1628250E-08  0.3799905E+04  0.7818609E-02  0.8046175E-01
       -1   -1    0    0    0  501  0.00000000000E+00  0.00000000000E+00  0.20922712717E+04  0.20922712717E+04  0.50400001928E-02 0.  1.
        1   -1    0    0  501    0  0.00000000000E+00  0.00000000000E+00 -0.17253113679E+04  0.17253113679E+04  0.50400001928E-02 0. -1.
    10030    2    1    2    0    0  0.00000000000E+00  0.00000000000E+00  0.36695990382E+03  0.38175826395E+04  0.37999049513E+04 0.  0.
        4    1    3    3  502    0  0.13550564294E+04 -0.10487004470E+04  0.10081930387E+04  0.19880657360E+04  0.12699999809E+01 0.  1.
       -4    1    3    3    0  502 -0.13550564294E+04  0.10487004470E+04 -0.64123313489E+03  0.18295169036E+04  0.12699999809E+01 0. -1.
</event>
<event>
 5   0  0.5207474E-08  0.3813619E+04  0.7818609E-02  0.8043239E-01
       -2   -1    0    0    0  501  0.00000000000E+00  0.00000000000E+00  0.13956415653E+04  0.13956415653E+04  0.25500000920E-02 0.  1.
        2   -1    0    0  501    0  0.00000000000E+00  0.00000000000E+00 -0.26051980653E+04  0.26051980653E+04  0.25500000920E-02 0. -1.
    10030    2    1    2    0    0  0.00000000000E+00  0.00000000000E+00 -0.12095565000E+04  0.40008396306E+04  0.38136191240E+04 0.  0.
        4    1    3    3  502    0  0.16805312491E+04 -0.57405754325E+03 -0.13332699625E+04  0.22206615564E+04  0.12699999809E+01 0. -1.
       -4    1    3    3    0  502 -0.16805312491E+04  0.57405754325E+03  0.12371346243E+03  0.17801780742E+04  0.12699999809E+01 0.  1.
</event>
<event>
 5   0  0.5140842E-08  0.3783282E+04  0.7818609E-02  0.8049752E-01
        2   -1    0    0  501    0  0.00000000000E+00  0.00000000000E+00  0.11758929247E+04  0.11758929247E+04  0.25500000920E-02 0.  1.
       -2   -1    0    0    0  501  0.00000000000E+00  0.00000000000E+00 -0.30430548043E+04  0.30430548043E+04  0.25500000920E-02 0. -1.
    10030    2    1    2    0    0  0.00000000000E+00  0.00000000000E+00 -0.18671618797E+04  0.42189477290E+04  0.37832824974E+04 0.  0.
        2    1    3    3  502    0 -0.18864411591E+04  0.52703510979E+02 -0.78874502453E+03  0.20453744451E+04  0.25500000920E-02 0.  1.
       -2    1    3    3    0  502  0.18864411591E+04 -0.52703510979E+02 -0.10784168551E+04  0.21735732839E+04  0.25500000920E-02 0. -1.
</event>
<event>
 5   0  0.1628250E-08  0.3798379E+04  0.7818609E-02  0.8046503E-01
        1   -1    0    0  501    0  0.00000000000E+00  0.00000000000E+00  0.15249740757E+04  0.15249740757E+04  0.50400001928E-02 0.  1.
       -1   -1    0    0    0  501  0.00000000000E+00  0.00000000000E+00 -0.23652340809E+04  0.23652340809E+04  0.50400001928E-02 0. -1.
    10030    2    1    2    0    0  0.00000000000E+00  0.00000000000E+00 -0.84026000521E+03  0.38902081566E+04  0.37983789470E+04 0.  0.
        1    1    3    3  502    0  0.65052149924E+03  0.91210403847E+03  0.11505059788E+04  0.16058567823E+04  0.50400001928E-02 0.  1.
       -1    1    3    3    0  502 -0.65052149924E+03 -0.91210403847E+03 -0.19907659840E+04  0.22843513743E+04  0.50400001928E-02 0. -1.
</event>
<event>
 5   0  0.5207474E-08  0.3800390E+04  0.7818609E-02  0.8046071E-01
       -2   -1    0    0    0  501  0.00000000000E+00  0.00000000000E+00  0.20251031553E+04  0.20251031553E+04  0.25500000920E-02 0.  1.
        2   -1    0    0  501    0  0.00000000000E+00  0.00000000000E+00 -0.17829915395E+04  0.17829915395E+04  0.25500000920E-02 0. -1.
    10030    2    1    2    0    0  0.00000000000E+00  0.00000000000E+00  0.24211161579E+03  0.38080946947E+04  0.38003903970E+04 0.  0.
        4    1    3    3  502    0 -0.14481077093E+04  0.11940137135E+04  0.41839883278E+03  0.19229518668E+04  0.12699999809E+01 0. -1.
       -4    1    3    3    0  502  0.14481077093E+04 -0.11940137135E+04 -0.17628721699E+03  0.18851428279E+04  0.12699999809E+01 0.  1.
</event>
<event>
 5   0  0.1628473E-08  0.3783402E+04  0.7818609E-02  0.8049726E-01
       -1   -1    0    0    0  501  0.00000000000E+00  0.00000000000E+00  0.15418761712E+04  0.15418761712E+04  0.50400001928E-02 0. -1.
        1   -1    0    0  501    0  0.00000000000E+00  0.00000000000E+00 -0.23208943854E+04  0.23208943854E+04  0.50400001928E-02 0.  1.
    10030    2    1    2    0    0  0.00000000000E+00  0.00000000000E+00 -0.77901821420E+03  0.38627705566E+04  0.37834015111E+04 0.  0.
        3    1    3    3  502    0 -0.54148004274E+03  0.10332871188E+04 -0.19099266343E+04  0.22380131065E+04  0.10100000352E+00 0.  1.
       -3    1    3    3    0  502  0.54148004274E+03 -0.10332871188E+04  0.11309084201E+04  0.16247574500E+04  0.10100000352E+00 0. -1.
</event>
<event>
 5   0  0.5159761E-08  0.3800869E+04  0.7818609E-02  0.8045968E-01
       -2   -1    0    0    0  501  0.00000000000E+00  0.00000000000E+00  0.16467853776E+04  0.16467853776E+04  0.25500000920E-02 0. -1.
        2   -1    0    0  501    0  0.00000000000E+00  0.00000000000E+00 -0.21931525927E+04  0.21931525927E+04  0.25500000920E-02 0.  1.
    10030    2    1    2    0    0  0.00000000000E+00  0.00000000000E+00 -0.54636721517E+03  0.38399379703E+04  0.38008691745E+04 0.  0.
        5    1    3    3  502    0  0.11762012711E+04 -0.12486575595E+04  0.55316920871E+03  0.18023910215E+04  0.46999998093E+01 0. -1.
       -5    1    3    3    0  502 -0.11762012711E+04  0.12486575595E+04 -0.10995364239E+04  0.20375469488E+04  0.46999998093E+01 0.  1.
</event>
<event>
 5   0  0.5159761E-08  0.3799598E+04  0.7818609E-02  0.8046241E-01
        2   -1    0    0  501    0  0.00000000000E+00  0.00000000000E+00  0.22441885239E+04  0.22441885239E+04  0.25500000920E-02 0. -1.
       -2   -1    0    0    0  501  0.00000000000E+00  0.00000000000E+00 -0.16082586149E+04  0.16082586149E+04  0.25500000920E-02 0.  1.
    10030    2    1    2    0    0  0.00000000000E+00  0.00000000000E+00  0.63592990901E+03  0.38524471387E+04  0.37995976244E+04 0.  0.
        5    1    3    3  502    0 -0.87019288445E+03  0.14104761906E+04  0.12596103082E+04  0.20816625469E+04  0.46999998093E+01 0. -1.
       -5    1    3    3    0  502  0.87019288445E+03 -0.14104761906E+04 -0.62368039918E+03  0.17707845919E+04  0.46999998093E+01 0.  1.
</event>
<event>
 5   0  0.5147582E-08  0.3797276E+04  0.7818609E-02  0.8046740E-01
       -2   -1    0    0    0  501  0.00000000000E+00  0.00000000000E+00  0.20005058627E+04  0.20005058627E+04  0.25500000920E-02 0.  1.
        2   -1    0    0  501    0  0.00000000000E+00  0.00000000000E+00 -0.18019573975E+04  0.18019573975E+04  0.25500000920E-02 0. -1.
    10030    2    1    2    0    0  0.00000000000E+00  0.00000000000E+00  0.19854846521E+03  0.38024632602E+04  0.37972760437E+04 0.  0.
        1    1    3    3  502    0 -0.18528699745E+04 -0.38672633831E+03 -0.49730698055E+02  0.18934512261E+04  0.50400001928E-02 0.  1.
       -1    1    3    3    0  502  0.18528699745E+04  0.38672633831E+03  0.24827916326E+03  0.19090120341E+04  0.50400001928E-02 0. -1.
</event>
<event>
 5   0  0.1628250E-08  0.3799073E+04  0.7818609E-02  0.8046354E-01
       -1   -1    0    0    0  501  0.00000000000E+00  0.00000000000E+00  0.19405269261E+04  0.19405269261E+04  0.50400001928E-02 0.  1.
        1   -1    0    0  501    0  0.00000000000E+00  0.00000000000E+00 -0.18594118071E+04  0.18594118071E+04  0.50400001928E-02 0. -1.
    10030    2    1    2    0    0  0.00000000000E+00  0.00000000000E+00  0.81115119056E+02  0.37999387332E+04  0.37990728755E+04 0.  0.
        4    1    3    3  502    0 -0.13584620519E+04 -0.65120281732E+03 -0.11167510067E+04  0.18752649625E+04  0.12699999809E+01 0. -1.
       -4    1    3    3    0  502  0.13584620519E+04  0.65120281732E+03  0.11978661257E+04  0.19246737707E+04  0.12699999809E+01 0.  1.
</event>
<event>
 5   0  0.1628473E-08  0.3805654E+04  0.7818609E-02  0.8044943E-01
        1   -1    0    0  501    0  0.00000000000E+00  0.00000000000E+00  0.26806952486E+04  0.26806952486E+04  0.50400001928E-02 0.  1.
       -1   -1    0    0    0  501  0.00000000000E+00  0.00000000000E+00 -0.13506759460E+04  0.13506759460E+04  0.50400001928E-02 0. -1.
    10030    2    1    2    0    0  0.00000000000E+00  0.00000000000E+00  0.13300193026E+04  0.40313711946E+04  0.38056539994E+04 0.  0.
        3    1    3    3  502    0 -0.46936420000E+03 -0.12846315833E+04 -0.73639497237E+03  0.15533378971E+04  0.10100000352E+00 0. -1.
       -3    1    3    3    0  502  0.46936420000E+03  0.12846315833E+04  0.20664142750E+04  0.24780332974E+04  0.10100000352E+00 0.  1.
</event>
<event>
 5   0  0.1628473E-08  0.3795081E+04  0.7818609E-02  0.8047211E-01
       -1   -1    0    0    0  501  0.00000000000E+00  0.00000000000E+00  0.14176781539E+04  0.14176781539E+04  0.50400001928E-02 0. -1.
        1   -1    0    0  501    0  0.00000000000E+00  0.00000000000E+00 -0.25398283054E+04  0.25398283054E+04  0.50400001928E-02 0.  1.
    10030    2    1    2    0    0  0.00000000000E+00  0.00000000000E+00 -0.11221501515E+04  0.39575064592E+04  0.37950805541E+04 0.  0.
        3    1    3    3  502    0  0.12199092227E+04 -0.47595986421E+03 -0.19931471988E+04  0.23848169888E+04  0.10100000352E+00 0.  1.
       -3    1    3    3    0  502 -0.12199092227E+04  0.47595986421E+03  0.87099704729E+03  0.15726894704E+04  0.10100000352E+00 0. -1.
</event>
<event>
 5   0  0.5207474E-08  0.3801046E+04  0.7818609E-02  0.8045931E-01
        2   -1    0    0  501    0  0.00000000000E+00  0.00000000000E+00  0.11394746174E+04  0.11394746174E+04  0.25500000920E-02 0.  1.
       -2   -1    0    0    0  501  0.00000000000E+00  0.00000000000E+00 -0.31698705759E+04  0.31698705759E+04  0.25500000920E-02 0. -1.
    10030    2    1    2    0    0  0.00000000000E+00  0.00000000000E+00 -0.20303959585E+04  0.43093451932E+04  0.38010456780E+04 0.  0.
        4    1    3    3  502    0  0.75826823388E+03 -0.17335256180E+04 -0.81269636463E+03  0.20592617067E+04  0.12699999809E+01 0.  1.
       -4    1    3    3    0  502 -0.75826823388E+03  0.17335256180E+04 -0.12176995939E+04  0.22500834865E+04  0.12699999809E+01 0. -1.
</event>
<event>
 5   0  0.1628250E-08  0.3790661E+04  0.7818609E-02  0.8048162E-01
        3   -1    0    0  501    0  0.00000000000E+00  0.00000000000E+00  0.23720872500E+04  0.23720872522E+04  0.10100000352E+00 0. -1.
       -3   -1    0    0    0  501  0.00000000000E+00  0.00000000000E+00 -0.15143950915E+04  0.15143950949E+04  0.10100000352E+00 0.  1.
    10030    2    1    2    0    0  0.00000000000E+00  0.00000000000E+00  0.85769215855E+03  0.38864823470E+04  0.37906607861E+04 0.  0.
        2    1    3    3  502    0  0.81974647390E+02  0.30341279296E+03 -0.14874915813E+04  0.15203323223E+04  0.25500000920E-02 0.  1.
       -2    1    3    3    0  502 -0.81974647390E+02 -0.30341279296E+03  0.23451837399E+04  0.23661500247E+04  0.25500000920E-02 0. -1.
</event>
<event>
 5   0  0.1628250E-08  0.3800748E+04  0.7818609E-02  0.8045994E-01
        1   -1    0    0  501    0  0.00000000000E+00  0.00000000000E+00  0.24701729164E+04  0.24701729165E+04  0.50400001928E-02 0.  1.
       -1   -1    0    0    0  501  0.00000000000E+00  0.00000000000E+00 -0.14620114430E+04  0.14620114431E+04  0.50400001928E-02 0. -1.
    10030    2    1    2    0    0  0.00000000000E+00  0.00000000000E+00  0.10081614734E+04  0.39321843595E+04  0.38007478581E+04 0.  0.
        1    1    3    3  502    0  0.43321772597E+03  0.15757820026E+04 -0.49933265484E+03  0.17088298973E+04  0.50400001928E-02 0. -1.
       -1    1    3    3    0  502 -0.43321772597E+03 -0.15757820026E+04  0.15074941282E+04  0.22233544622E+04  0.50400001928E-02 0.  1.
</event>
<event>
 5   0  0.1666051E-08  0.3798356E+04  0.7818609E-02  0.8046508E-01
       -1   -1    0    0    0  501  0.00000000000E+00  0.00000000000E+00  0.12687015614E+04  0.12687015614E+04  0.50400001928E-02 0. -1.
        1   -1    0    0  501    0  0.00000000000E+00  0.00000000000E+00 -0.28429671861E+04  0.28429671862E+04  0.50400001928E-02 0.  1.
    10030    2    1    2    0    0  0.00000000000E+00  0.00000000000E+00 -0.15742656248E+04  0.41116687475E+04  0.37983559117E+04 0.  0.
        2    1    3    3  502    0 -0.18056791034E+04 -0.46392279771E+03 -0.11791894962E+04  0.22059440733E+04  0.25500000920E-02 0. -1.
       -2    1    3    3    0  502  0.18056791034E+04  0.46392279771E+03 -0.39507612858E+03  0.19057246742E+04  0.25500000920E-02 0.  1.
</event>
<event>
 5   0  0.5086209E-08  0.3888799E+04  0.7818609E-02  0.8027363E-01
        2   -1    0    0  501    0  0.00000000000E+00  0.00000000000E+00  0.11657079820E+04  0.11657079820E+04  0.25500000920E-02 0.  1.
       -2   -1    0    0    0  501  0.00000000000E+00  0.00000000000E+00 -0.32432554664E+04  0.32432554664E+04  0.25500000920E-02 0. -1.
    10030    2    1    2    0    0  0.00000000000E+00  0.00000000000E+00 -0.20775474843E+04  0.44089634484E+04  0.38887986756E+04 0.  0.
        3    1    3    3  502    0 -0.10165932107E+04 -0.12291337818E+03 -0.29127792780E+04  0.30875317953E+04  0.10100000352E+00 0. -1.
       -3    1    3    3    0  502  0.10165932107E+04  0.12291337818E+03  0.83523179364E+03  0.13214316531E+04  0.10100000352E+00 0.  1.
</event>
<event>
 5   0  0.5207474E-08  0.3832313E+04  0.7818609E-02  0.8039256E-01
       -2   -1    0    0    0  501  0.00000000000E+00  0.00000000000E+00  0.12836054965E+04  0.12836054965E+04  0.25500000920E-02 0.  1.
        2   -1    0    0  501    0  0.00000000000E+00  0.00000000000E+00 -0.28604233692E+04  0.28604233692E+04  0.25500000920E-02 0. -1.
    10030    2    1    2    0    0  0.00000000000E+00  0.00000000000E+00 -0.15768178726E+04  0.41440288657E+04  0.38323127007E+04 0.  0.
        4    1    3    3  502    0 -0.99029002887E+02 -0.13892129247E+04 -0.22114831003E+04  0.26134992653E+04  0.12699999809E+01 0. -1.
       -4    1    3    3    0  502  0.99029002887E+02  0.13892129247E+04  0.63466522770E+03  0.15305296004E+04  0.12699999809E+01 0.  1.
</event>
<event>
 5   0  0.5147582E-08  0.3813340E+04  0.7818609E-02  0.8043298E-01
        2   -1    0    0  501    0  0.00000000000E+00  0.00000000000E+00  0.18633701727E+04  0.18633701727E+04  0.25500000920E-02 0.  1.
       -2   -1    0    0    0  501  0.00000000000E+00  0.00000000000E+00 -0.19509762050E+04  0.19509762050E+04  0.25500000920E-02 0. -1.
    10030    2    1    2    0    0  0.00000000000E+00  0.00000000000E+00 -0.87606032265E+02  0.38143463778E+04  0.38133401989E+04 0.  0.
        1    1    3    3  502    0 -0.13317136406E+04  0.13006326932E+04  0.36896098257E+03  0.18976930283E+04  0.50400001928E-02 0.  1.
       -1    1    3    3    0  502  0.13317136406E+04 -0.13006326932E+04 -0.45656701484E+03  0.19166533495E+04  0.50400001928E-02 0. -1.
</event>
<event>
 5   0  0.5086209E-08  0.3799943E+04  0.7818609E-02  0.8046167E-01
        2   -1    0    0  501    0  0.00000000000E+00  0.00000000000E+00  0.19765017035E+04  0.19765017035E+04  0.25500000920E-02 0.  1.
       -2   -1    0    0    0  501  0.00000000000E+00  0.00000000000E+00 -0.18264041316E+04  0.18264041316E+04  0.25500000920E-02 0. -1.
    10030    2    1    2    0    0  0.00000000000E+00  0.00000000000E+00  0.15009757195E+03  0.38029058351E+04  0.37999425667E+04 0.  0.
        3    1    3    3  502    0 -0.18538169749E+04  0.12045924211E+03 -0.32368764338E+03  0.18857151180E+04  0.10100000352E+00 0. -1.
       -3    1    3    3    0  502  0.18538169749E+04 -0.12045924211E+03  0.47378521533E+03  0.19171907172E+04  0.10100000352E+00 0.  1.
</event>
<event>
 5   0  0.1628250E-08  0.3799887E+04  0.7818609E-02  0.8046179E-01
       -1   -1    0    0    0  501  0.00000000000E+00  0.00000000000E+00  0.13864412088E+04  0.13864412088E+04  0.50400001928E-02 0. -1.
        1   -1    0    0  501    0  0.00000000000E+00  0.00000000000E+00 -0.26036334204E+04  0.26036334204E+04  0.50400001928E-02 0.  1.
    10030    2    1    2    0    0  0.00000000000E+00  0.00000000000E+00 -0.12171922116E+04  0.39900746292E+04  0.37998866650E+04 0.  0.
        5    1    3    3  502    0 -0.77703193161E+03 -0.16896951082E+04 -0.10165167725E+04  0.21194755531E+04  0.46999998093E+01 0.  1.
       -5    1    3    3    0  502  0.77703193161E+03  0.16896951082E+04 -0.20067543915E+03  0.18705990761E+04  0.46999998093E+01 0. -1.
</event>
<event>
 5   0  0.1628250E-08  0.3799244E+04  0.7818609E-02  0.8046317E-01
        1   -1    0    0  501    0  0.00000000000E+00  0.00000000000E+00  0.20282614481E+04  0.20282614481E+04  0.50400001928E-02 0. -1.
       -1   -1    0    0    0  501  0.00000000000E+00  0.00000000000E+00 -0.17791417813E+04  0.17791417814E+04  0.50400001928E-02 0.  1.
    10030    2    1    2    0    0  0.00000000000E+00  0.00000000000E+00  0.24911966677E+03  0.38074032295E+04  0.37992444964E+04 0.  0.
        4    1    3    3  502    0  0.83467082842E+03  0.18324213897E+03 -0.15756417417E+04  0.17924568570E+04  0.12699999809E+01 0.  1.
       -4    1    3    3    0  502 -0.83467082842E+03 -0.18324213897E+03  0.18247614084E+04  0.20149463725E+04  0.12699999809E+01 0. -1.
</event>
<event>
 5   0  0.1628250E-08  0.3805709E+04  0.7818609E-02  0.8044931E-01
       -1   -1    0    0    0  501  0.00000000000E+00  0.00000000000E+00  0.14558960242E+04  0.14558960242E+04  0.50400001928E-02 0.  1.
        1   -1    0    0  501    0  0.00000000000E+00  0.00000000000E+00 -0.24870282031E+04  0.24870282031E+04  0.50400001928E-02 0. -1.
    10030    2    1    2    0    0  0.00000000000E+00  0.00000000000E+00 -0.10311321790E+04  0.39429242273E+04  0.38057085926E+04 0.  0.
        5    1    3    3  502    0  0.17363544272E+04  0.42944344314E+03  0.15705960695E+03  0.17955606862E+04  0.46999998093E+01 0.  1.
       -5    1    3    3    0  502 -0.17363544272E+04 -0.42944344314E+03 -0.11881917859E+04  0.21473635411E+04  0.46999998093E+01 0. -1.
</event>
<event>
 5   0  0.1628473E-08  0.3790765E+04  0.7818609E-02  0.8048139E-01
        1   -1    0    0  501    0  0.00000000000E+00  0.00000000000E+00  0.14318861874E+04  0.14318861874E+04  0.50400001928E-02 0.  1.
       -1   -1    0    0    0  501  0.00000000000E+00  0.00000000000E+00 -0.25089115126E+04  0.25089115126E+04  0.50400001928E-02 0. -1.
    10030    2    1    2    0    0  0.00000000000E+00  0.00000000000E+00 -0.10770253252E+04  0.39407977000E+04  0.37907654849E+04 0.  0.
        3    1    3    3  502    0  0.51849370546E+03  0.18230702153E+04 -0.54622221968E+03  0.19725058824E+04  0.10100000352E+00 0.  1.
       -3    1    3    3    0  502 -0.51849370546E+03 -0.18230702153E+04 -0.53080310552E+03  0.19682918177E+04  0.10100000352E+00 0. -1.
</event>
<event>
 5   0  0.5207474E-08  0.3802587E+04  0.7818609E-02  0.8045600E-01
        2   -1    0    0  501    0  0.00000000000E+00  0.00000000000E+00  0.14619346579E+04  0.14619346579E+04  0.25500000920E-02 0.  1.
       -2   -1    0    0    0  501  0.00000000000E+00  0.00000000000E+00 -0.24726934235E+04  0.24726934235E+04  0.25500000920E-02 0. -1.
    10030    2    1    2    0    0  0.00000000000E+00  0.00000000000E+00 -0.10107587657E+04  0.39346280814E+04  0.38025866008E+04 0.  0.
        4    1    3    3  502    0  0.11180023061E+04 -0.13514486493E+04  0.25397841365E+03  0.17722441298E+04  0.12699999809E+01 0.  1.
       -4    1    3    3    0  502 -0.11180023061E+04  0.13514486493E+04 -0.12647371793E+04  0.21623839515E+04  0.12699999809E+01 0. -1.
</event>
<event>
 5   0  0.5147582E-08  0.3790682E+04  0.7818609E-02  0.8048157E-01
       -2   -1    0    0    0  501  0.00000000000E+00  0.00000000000E+00  0.33432218836E+04  0.33432218836E+04  0.25500000920E-02 0.  1.
        2   -1    0    0  501    0  0.00000000000E+00  0.00000000000E+00 -0.10745076119E+04  0.10745076119E+04  0.25500000920E-02 0. -1.
    10030    2    1    2    0    0  0.00000000000E+00  0.00000000000E+00  0.22687142717E+04  0.44177294955E+04  0.37906819240E+04 0.  0.
        1    1    3    3  502    0 -0.91014918064E+03  0.80901068851E+03 -0.55828886657E+03  0.13396104970E+04  0.50400001928E-02 0. -1.
       -1    1    3    3    0  502  0.91014918064E+03 -0.80901068851E+03  0.28270031383E+04  0.30781189985E+04  0.50400001928E-02 0.  1.
</event>
<event>
 5   0  0.5140842E-08  0.3771337E+04  0.7818609E-02  0.8052334E-01
       -2   -1    0    0    0  501  0.00000000000E+00  0.00000000000E+00  0.13255588323E+04  0.13255588323E+04  0.25500000920E-02 0.  1.
        2   -1    0    0  501    0  0.00000000000E+00  0.00000000000E+00 -0.26824502738E+04  0.26824502738E+04  0.25500000920E-02 0. -1.
    10030    2    1    2    0    0  0.00000000000E+00  0.00000000000E+00 -0.13568914415E+04  0.40080091061E+04  0.37713369792E+04 0.  0.
        2    1    3    3  502    0 -0.14961629782E+04 -0.10168230488E+04 -0.11277132521E+03  0.18124983150E+04  0.25500000920E-02 0.  1.
       -2    1    3    3    0  502  0.14961629782E+04  0.10168230488E+04 -0.12441201163E+04  0.21955107911E+04  0.25500000920E-02 0. -1.
</event>
<event>
 5   0  0.1628473E-08  0.3805052E+04  0.7818609E-02  0.8045072E-01
       -1   -1    0    0    0  501  0.00000000000E+00  0.00000000000E+00  0.14493546801E+04  0.14493546802E+04  0.50400001928E-02 0. -1.
        1   -1    0    0  501    0  0.00000000000E+00  0.00000000000E+00 -0.24973910871E+04  0.24973910871E+04  0.50400001928E-02 0.  1.
    10030    2    1    2    0    0  0.00000000000E+00  0.00000000000E+00 -0.10480364070E+04  0.39467457673E+04  0.38050521470E+04 0.  0.
        3    1    3    3  502    0  0.11608691258E+04  0.13517353897E+04  0.16775034140E+03  0.17896775906E+04  0.10100000352E+00 0. -1.
       -3    1    3    3    0  502 -0.11608691258E+04 -0.13517353897E+04 -0.12157867484E+04  0.21570681767E+04  0.10100000352E+00 0.  1.
</event>
<event>
 5   0  0.5086209E-08  0.3800683E+04  0.7818609E-02  0.8046008E-01
        2   -1    0    0  501    0  0.00000000000E+00  0.00000000000E+00  0.24087251632E+04  0.24087251632E+04  0.25500000920E-02 0.  1.
       -2   -1    0    0    0  501  0.00000000000E+00  0.00000000000E+00 -0.14992565737E+04  0.14992565737E+04  0.25500000920E-02 0. -1.
    10030    2    1    2    0    0  0.00000000000E+00  0.00000000000E+00  0.90946858955E+03  0.39079817369E+04  0.38006825888E+04 0.  0.
        3    1    3    3  502    0  0.68360341892E+02 -0.48660369995E+03 -0.14328033051E+04  0.15147216307E+04  0.10100000352E+00 0. -1.
       -3    1    3    3    0  502 -0.68360341892E+02  0.48660369995E+03  0.23422718947E+04  0.23932601062E+04  0.10100000352E+00 0.  1.
</event>
<event>
 5   0  0.5159761E-08  0.3799224E+04  0.7818609E-02  0.8046321E-01
       -2   -1    0    0    0  501  0.00000000000E+00  0.00000000000E+00  0.17332376868E+04  0.17332376868E+04  0.25500000920E-02 0. -1.
        2   -1    0    0  501    0  0.00000000000E+00  0.00000000000E+00 -0.20819568990E+04  0.20819568990E+04  0.25500000920E-02 0.  1.
    10030    2    1    2    0    0  0.00000000000E+00  0.00000000000E+00 -0.34871921229E+03  0.38151945858E+04  0.37992242154E+04 0.  0.
        5    1    3    3  502    0  0.12477254750E+03  0.16446221897E+04  0.77202102092E+03  0.18210955171E+04  0.46999998093E+01 0. -1.
       -5    1    3    3    0  502 -0.12477254750E+03 -0.16446221897E+04 -0.11207402332E+04  0.19940990687E+04  0.46999998093E+01 0.  1.
</event>
<event>
 5   0  0.5147582E-08  0.3800069E+04  0.7818609E-02  0.8046140E-01
       -2   -1    0    0    0  501  0.00000000000E+00  0.00000000000E+00  0.17872322896E+04  0.17872322896E+04  0.25500000920E-02 0.  1.
        2   -1    0    0  501    0  0.00000000000E+00  0.00000000000E+00 -0.20199565100E+04  0.20199565100E+04  0.25500000920E-02 0. -1.
    10030    2    1    2    0    0  0.00000000000E+00  0.00000000000E+00 -0.23272422035E+03  0.38071887996E+04  0.38000692090E+04 0.  0.
        1    1    3    3  502    0 -0.12873502460E+04 -0.13767676583E+04 -0.35633468256E+03  0.19182633413E+04  0.50400001928E-02 0.  1.
       -1    1    3    3    0  502  0.12873502460E+04  0.13767676583E+04  0.12361046221E+03  0.18889254583E+04  0.50400001928E-02 0. -1.
</event>
<event>
 5   0  0.1628473E-08  0.3784843E+04  0.7818609E-02  0.8049415E-01
       -1   -1    0    0    0  501  0.00000000000E+00  0.00000000000E+00  0.14229198441E+04  0.14229198441E+04  0.50400001928E-02 0.  1.
        1   -1    0    0  501    0  0.00000000000E+00  0.00000000000E+00 -0.25168389357E+04  0.25168389357E+04  0.50400001928E-02 0. -1.
    10030    2    1    2    0    0  0.00000000000E+00  0.00000000000E+00 -0.10939190916E+04  0.39397587798E+04  0.37848434927E+04 0.  0.
        3    1    3    3  502    0  0.68677905525E+03 -0.79222413210E+03  0.10929521086E+04  0.15145391603E+04  0.10100000352E+00 0.  1.
       -3    1    3    3    0  502 -0.68677905525E+03  0.79222413210E+03 -0.21868712002E+04  0.24252196195E+04  0.10100000352E+00 0. -1.
</event>
<event>
 5   0  0.1628250E-08  0.3808317E+04  0.7818609E-02  0.8044372E-01
       -1   -1    0    0    0  501  0.00000000000E+00  0.00000000000E+00  0.15203017736E+04  0.15203017736E+04  0.50400001928E-02 0. -1.
        1   -1    0    0  501    0  0.00000000000E+00  0.00000000000E+00 -0.23849341121E+04  0.23849341121E+04  0.50400001928E-02 0.  1.
    10030    2    1    2    0    0  0.00000000000E+00  0.00000000000E+00 -0.86463233842E+03  0.39052358857E+04  0.38083169829E+04 0.  0.
        4    1    3    3  502    0  0.33933319245E+03  0.63335816293E+03 -0.22405785350E+04  0.23529733026E+04  0.12699999809E+01 0.  1.
       -4    1    3    3    0  502 -0.33933319245E+03 -0.63335816293E+03  0.13759461966E+04  0.15522625831E+04  0.12699999809E+01 0. -1.
</event>
<event>
 5   0  0.1628250E-08  0.3797143E+04  0.7818609E-02  0.8046768E-01
        1   -1    0    0  501    0  0.00000000000E+00  0.00000000000E+00  0.18306943104E+04  0.18306943104E+04  0.50400001928E-02 0.  1.
       -1   -1    0    0    0  501  0.00000000000E+00  0.00000000000E+00 -0.19689656165E+04  0.19689656165E+04  0.50400001928E-02 0. -1.
    10030    2    1    2    0    0  0.00000000000E+00  0.00000000000E+00 -0.13827130611E+03  0.37996599269E+04  0.37971432165E+04 0.  0.
        5    1    3    3  502    0  0.82601945764E+02  0.16730644955E+03  0.18214915118E+04  0.18310292043E+04  0.46999998093E+01 0.  1.
       -5    1    3    3    0  502 -0.82601945764E+02 -0.16730644955E+03 -0.19597628179E+04  0.19686307226E+04  0.46999998093E+01 0. -1.
</event>
<event>
 5   0  0.5207474E-08  0.3805171E+04  0.7818609E-02  0.8045046E-01
       -2   -1    0    0    0  501  0.00000000000E+00  0.00000000000E+00  0.26616184365E+04  0.26616184365E+04  0.25500000920E-02 0.  1.
        2   -1    0    0  501    0  0.00000000000E+00  0.00000000000E+00 -0.13600114859E+04  0.13600114859E+04  0.25500000920E-02 0. -1.
    10030    2    1    2    0    0  0.00000000000E+00  0.00000000000E+00  0.13016069505E+04  0.40216299224E+04  0.38051710315E+04 0.  0.
        4    1    3    3  502    0 -0.63850817674E+02  0.20236785337E+03 -0.13474649127E+04  0.13640722044E+04  0.12699999809E+01 0. -1.
       -4    1    3    3    0  502  0.63850817674E+02 -0.20236785337E+03  0.26490718633E+04  0.26575577180E+04  0.12699999809E+01 0.  1.
</event>
<event>
 5   0  0.5159761E-08  0.3801368E+04  0.7818609E-02  0.8045861E-01
       -2   -1    0    0    0  501  0.00000000000E+00  0.00000000000E+00  0.34869543994E+04  0.34869543994E+04  0.25500000920E-02 0.  1.
        2   -1    0    0  501    0  0.00000000000E+00  0.00000000000E+00 -0.10360328540E+04  0.10360328540E+04  0.25500000920E-02 0. -1.
    10030    2    1    2    0    0  0.00000000000E+00  0.00000000000E+00  0.24509215454E+04  0.45229872534E+04  0.38013678160E+04 0.  0.
        5    1    3    3  502    0 -0.57799266867E+03 -0.14350013254E+04  0.25392809603E+04  0.29734280241E+04  0.46999998093E+01 0.  1.
       -5    1    3    3    0  502  0.57799266867E+03  0.14350013254E+04 -0.88359414900E+02  0.15495592293E+04  0.46999998093E+01 0. -1.
</event>
<event>
 5   0  0.5140842E-08  0.3838039E+04  0.7818609E-02  0.8038041E-01
        2   -1    0    0  501    0  0.00000000000E+00  0.00000000000E+00  0.31425210143E+04  0.31425210143E+04  0.25500000920E-02 0. -1.
       -2   -1    0    0    0  501  0.00000000000E+00  0.00000000000E+00 -0.11718730332E+04  0.11718730332E+04  0.25500000920E-02 0.  1.
    10030    2    1    2    0    0  0.00000000000E+00  0.00000000000E+00  0.19706479811E+04  0.43143940475E+04  0.38380388914E+04 0.  0.
        2    1    3    3  502    0 -0.77578621219E+02  0.42367060865E+03  0.30874838043E+04  0.31173821499E+04  0.25500000920E-02 0. -1.
       -2    1    3    3    0  502  0.77578621219E+02 -0.42367060865E+03 -0.11168358231E+04  0.11970118976E+04  0.25500000920E-02 0.  1.
</event>
<event>
 5   0  0.5086209E-08  0.3791888E+04  0.7818609E-02  0.8047898E-01
       -2   -1    0    0    0  501  0.00000000000E+00  0.00000000000E+00  0.16836561824E+04  0.16836561824E+04  0.25500000920E-02 0.  1.
        2   -1    0    0  501    0  0.00000000000E+00  0.00000000000E+00 -0.21349981464E+04  0.21349981464E+04  0.25500000920E-02 0. -1.
    10030    2    1    2    0    0  0.00000000000E+00  0.00000000000E+00 -0.45134196401E+03  0.38186543288E+04  0.37918875662E+04 0.  0.
        3    1    3    3  502    0 -0.14388895195E+04  0.69210437554E+03 -0.12552336558E+04  0.20310152773E+04  0.10100000352E+00 0. -1.
       -3    1    3    3    0  502  0.14388895195E+04 -0.69210437554E+03  0.80389169180E+03  0.17876390515E+04  0.10100000352E+00 0.  1.
</event>
<event>
 5   0  0.5140842E-08  0.3788980E+04  0.7818609E-02  0.8048524E-01
        2   -1    0    0  501    0  0.00000000000E+00  0.00000000000E+00  0.17218789265E+04  0.17218789265E+04  0.25500000920E-02 0. -1.
       -2   -1    0    0    0  501  0.00000000000E+00  0.00000000000E+00 -0.20844044560E+04  0.20844044560E+04  0.25500000920E-02 0.  1.
    10030    2    1    2    0    0  0.00000000000E+00  0.00000000000E+00 -0.36252552950E+03  0.38062833824E+04  0.37889798664E+04 0.  0.
        2    1    3    3  502    0  0.37331410591E+02  0.11102657827E+04 -0.17228746445E+04  0.20499709225E+04  0.25500000920E-02 0.  1.
       -2    1    3    3    0  502 -0.37331410591E+02 -0.11102657827E+04  0.13603491150E+04  0.17563124600E+04  0.25500000920E-02 0. -1.
</event>
<event>
 5   0  0.5086209E-08  0.3800609E+04  0.7818609E-02  0.8046024E-01
        2   -1    0    0  501    0  0.00000000000E+00  0.00000000000E+00  0.23891629994E+04  0.23891629994E+04  0.25500000920E-02 0.  1.
       -2   -1    0    0    0  501  0.00000000000E+00  0.00000000000E+00 -0.15114735705E+04  0.15114735705E+04  0.25500000920E-02 0. -1.
    10030    2    1    2    0    0  0.00000000000E+00  0.00000000000E+00  0.87768942888E+03  0.39006365699E+04  0.38006087561E+04 0.  0.
        3    1    3    3  502    0  0.12539852074E+04  0.19890367397E+03  0.18899576998E+04  0.22768358942E+04  0.10100000352E+00 0.  1.
       -3    1    3    3    0  502 -0.12539852074E+04 -0.19890367397E+03 -0.10122682709E+04  0.16238006757E+04  0.10100000352E+00 0. -1.
</event>
<event>
 5   0  0.5086209E-08  0.3803372E+04  0.7818609E-02  0.8045432E-01
       -2   -1    0    0    0  501  0.00000000000E+00  0.00000000000E+00  0.22159429587E+04  0.22159429587E+04  0.25500000920E-02 0. -1.
        2   -1    0    0  501    0  0.00000000000E+00  0.00000000000E+00 -0.16319958888E+04  0.16319958888E+04  0.25500000920E-02 0.  1.
    10030    2    1    2    0    0  0.00000000000E+00  0.00000000000E+00  0.58394706991E+03  0.38479388475E+04  0.38033720819E+04 0.  0.
        3    1    3    3  502    0 -0.76627369784E+03  0.15934231634E+04  0.10003471944E+04  0.20314692410E+04  0.10100000352E+00 0. -1.
       -3    1    3    3    0  502  0.76627369784E+03 -0.15934231634E+04 -0.41640012445E+03  0.18164696065E+04  0.10100000352E+00 0.  1.
</event>
<event>
 5   0  0.5207474E-08  0.3804387E+04  0.7818609E-02  0.8045214E-01
       -2   -1    0    0    0  501  0.00000000000E+00  0.00000000000E+00  0.24432777092E+04  0.24432777092E+04  0.25500000920E-02 0. -1.
        2   -1    0    0  501    0  0.00000000000E+00  0.00000000000E+00 -0.14809367470E+04  0.14809367470E+04  0.25500000920E-02 0.  1.
    10030    2    1    2    0    0  0.00000000000E+00  0.00000000000E+00  0.96234096219E+03  0.39242144561E+04  0.38043868061E+04 0.  0.
        4    1    3    3  502    0 -0.17002184167E+04  0.62985350467E+03 -0.11216913099E+03  0.18166016703E+04  0.12699999809E+01 0.  1.
       -4    1    3    3    0  502  0.17002184167E+04 -0.62985350467E+03  0.10745100932E+04  0.21076127858E+04  0.12699999809E+01 0. -1.
</event>
<event>
 5   0  0.1628250E-08  0.3791325E+04  0.7818609E-02  0.8048019E-01
        1   -1    0    0  501    0  0.00000000000E+00  0.00000000000E+00  0.15287606344E+04  0.15287606345E+04  0.50400001928E-02 0.  1.
       -1   -1    0    0    0  501  0.00000000000E+00  0.00000000000E+00 -0.23506206802E+04  0.23506206802E+04  0.50400001928E-02 0. -1.
    10030    2    1    2    0    0  0.00000000000E+00  0.00000000000E+00 -0.82186004573E+03  0.38793813146E+04  0.37913250256E+04 0.  0.
        5    1    3    3  502    0 -0.11467867643E+04  0.11012520476E+04  0.64534343308E+03  0.17159155549E+04  0.46999998093E+01 0.  1.
       -5    1    3    3    0  502  0.11467867643E+04 -0.11012520476E+04 -0.14672034788E+04  0.21634657597E+04  0.46999998093E+01 0. -1.
</event>
<event>
 5   0  0.1666051E-08  0.3785162E+04  0.7818609E-02  0.8049347E-01
       -1   -1    0    0    0  501  0.00000000000E+00  0.00000000000E+00  0.24015414818E+04  0.24015414818E+04  0.50400001928E-02 0. -1.
        1   -1    0    0  501    0  0.00000000000E+00  0.00000000000E+00 -0.14914851372E+04  0.14914851372E+04  0.50400001928E-02 0.  1.
    10030    2    1    2    0    0  0.00000000000E+00  0.00000000000E+00  0.91005634454E+03  0.38930266190E+04  0.37851623091E+04 0.  0.
        2    1    3    3  502    0 -0.42602268009E+03  0.10054577644E+04 -0.11347969919E+04  0.15748666143E+04  0.25500000920E-02 0.  1.
       -2    1    3    3    0  502  0.42602268009E+03 -0.10054577644E+04  0.20448533364E+04  0.23181600047E+04  0.25500000920E-02 0. -1.
</event>
<event>
 5   0  0.1666051E-08  0.3798178E+04  0.7818609E-02  0.8046546E-01
       -1   -1    0    0    0  501  0.00000000000E+00  0.00000000000E+00  0.10082330652E+04  0.10082330652E+04  0.50400001928E-02 0.  1.
        1   -1    0    0  501    0  0.00000000000E+00  0.00000000000E+00 -0.35770880584E+04  0.35770880584E+04  0.50400001928E-02 0. -1.
    10030    2    1    2    0    0  0.00000000000E+00  0.00000000000E+00 -0.25688549932E+04  0.45853211236E+04  0.37981776987E+04 0.  0.
        2    1    3    3  502    0 -0.13404281643E+04  0.99030340217E+03 -0.23836745396E+04  0.29084966569E+04  0.25500000920E-02 0. -1.
       -2    1    3    3    0  502  0.13404281643E+04 -0.99030340217E+03 -0.18518045352E+03  0.16768244668E+04  0.25500000920E-02 0.  1.
</event>
<event>
 5   0  0.1628473E-08  0.3800297E+04  0.7818609E-02  0.8046091E-01
       -1   -1    0    0    0  501  0.00000000000E+00  0.00000000000E+00  0.23440516639E+04  0.23440516639E+04  0.50400001928E-02 0.  1.
        1   -1    0    0  501    0  0.00000000000E+00  0.00000000000E+00 -0.15403091818E+04  0.15403091818E+04  0.50400001928E-02 0. -1.
    10030    2    1    2    0    0  0.00000000000E+00  0.00000000000E+00  0.80374248208E+03  0.38843608457E+04  0.38002969887E+04 0.  0.
        3    1    3    3  502    0  0.17322532566E+04  0.34249445658E+03 -0.31547993993E+03  0.17937478643E+04  0.10100000352E+00 0. -1.
       -3    1    3    3    0  502 -0.17322532566E+04 -0.34249445658E+03  0.11192224220E+04  0.20906129814E+04  0.10100000352E+00 0.  1.
</event>
<event>
 5   0  0.5147582E-08  0.3803116E+04  0.7818609E-02  0.8045487E-01
       -2   -1    0    0    0  501  0.00000000000E+00  0.00000000000E+00  0.18068546615E+04  0.18068546615E+04  0.25500000920E-02 0.  1.
        2   -1    0    0  501    0  0.00000000000E+00  0.00000000000E+00 -0.20012250748E+04  0.20012250748E+04  0.25500000920E-02 0. -1.
    10030    2    1    2    0    0  0.00000000000E+00  0.00000000000E+00 -0.19437041323E+03  0.38080797363E+04  0.38031160146E+04 0.  0.
        1    1    3    3  502    0 -0.29851364958E+03 -0.97781297213E+03 -0.17026163090E+04  0.19859836110E+04  0.50400001928E-02 0.  1.
       -1    1    3    3    0  502  0.29851364958E+03  0.97781297213E+03  0.15082458958E+04  0.18220961253E+04  0.50400001928E-02 0. -1.
</event>
<event>
 5   0  0.1628473E-08  0.3801060E+04  0.7818609E-02  0.8045927E-01
       -1   -1    0    0    0  501  0.00000000000E+00  0.00000000000E+00  0.17786885697E+04  0.17786885697E+04  0.50400001928E-02 0. -1.
        1   -1    0    0  501    0  0.00000000000E+00  0.00000000000E+00 -0.20307175312E+04  0.20307175312E+04  0.50400001928E-02 0.  1.
    10030    2    1    2    0    0  0.00000000000E+00  0.00000000000E+00 -0.25202896149E+03  0.38094061009E+04  0.38010598843E+04 0.  0.
        3    1    3    3  502    0  0.57592836341E+03 -0.45363676290E+03  0.16312706307E+04  0.17884416885E+04  0.10100000352E+00 0. -1.
       -3    1    3    3    0  502 -0.57592836341E+03  0.45363676290E+03 -0.18832995921E+04  0.20209644125E+04  0.10100000352E+00 0.  1.
</event>
<event>
 5   0  0.5086209E-08  0.3803790E+04  0.7818609E-02  0.8045342E-01
        2   -1    0    0  501    0  0.00000000000E+00  0.00000000000E+00  0.21468171237E+04  0.21468171237E+04  0.25500000920E-02 0.  1.
       -2   -1    0    0    0  501  0.00000000000E+00  0.00000000000E+00 -0.16849154713E+04  0.16849154713E+04  0.25500000920E-02 0. -1.
    10030    2    1    2    0    0  0.00000000000E+00  0.00000000000E+00  0.46190165239E+03  0.38317325949E+04  0.38037904178E+04 0.  0.
        3    1    3    3  502    0  0.66177115225E+03  0.13744191464E+04 -0.91327895247E+03  0.17779334923E+04  0.10100000352E+00 0. -1.
       -3    1    3    3    0  502 -0.66177115225E+03 -0.13744191464E+04  0.13751806049E+04  0.20537991026E+04  0.10100000352E+00 0.  1.
</event>
<event>
 5   0  0.1628250E-08  0.3802762E+04  0.7818609E-02  0.8045562E-01
       -1   -1    0    0    0  501  0.00000000000E+00  0.00000000000E+00  0.26559487845E+04  0.26559487845E+04  0.50400001928E-02 0. -1.
        1   -1    0    0  501    0  0.00000000000E+00  0.00000000000E+00 -0.13611896781E+04  0.13611896781E+04  0.50400001928E-02 0.  1.
    10030    2    1    2    0    0  0.00000000000E+00  0.00000000000E+00  0.12947591064E+04  0.40171384625E+04  0.38027621913E+04 0.  0.
        1    1    3    3  502    0 -0.16939426607E+04  0.58206012914E+03  0.13213215009E+04  0.22257866566E+04  0.50400001928E-02 0. -1.
       -1    1    3    3    0  502  0.16939426607E+04 -0.58206012914E+03 -0.26562394543E+02  0.17913518059E+04  0.50400001928E-02 0.  1.
</event>
<event>
 5   0  0.5207474E-08  0.3796030E+04  0.7818609E-02  0.8047007E-01
       -2   -1    0    0    0  501  0.00000000000E+00  0.00000000000E+00  0.23106460171E+04  0.23106460171E+04  0.25500000920E-02 0.  1.
        2   -1    0    0  501    0  0.00000000000E+00  0.00000000000E+00 -0.15590708355E+04  0.15590708355E+04  0.25500000920E-02 0. -1.
    10030    2    1    2    0    0  0.00000000000E+00  0.00000000000E+00  0.75157518154E+03  0.38697168526E+04  0.37960299348E+04 0.  0.
        4    1    3    3  502    0  0.34201505311E+03 -0.17683783861E+04 -0.23443288504E+03  0.18163415988E+04  0.12699999809E+01 0. -1.
       -4    1    3    3    0  502 -0.34201505311E+03  0.17683783861E+04  0.98600806657E+03  0.20533752539E+04  0.12699999809E+01 0.  1.
</event>
<event>
 5   0  0.5207474E-08  0.3807991E+04  0.7818609E-02  0.8044442E-01
       -2   -1    0    0    0  501  0.00000000000E+00  0.00000000000E+00  0.19208991659E+04  0.19208991659E+04  0.25500000920E-02 0. -1.
        2   -1    0    0  501    0  0.00000000000E+00  0.00000000000E+00 -0.18872404521E+04  0.18872404521E+04  0.25500000920E-02 0.  1.
    10030    2    1    2    0    0  0.00000000000E+00  0.00000000000E+00  0.33658713881E+02  0.38081396180E+04  0.38079908667E+04 0.  0.
        4    1    3    3  502    0 -0.86862653242E+03 -0.12651435313E+04 -0.11102003761E+04  0.18941084171E+04  0.12699999809E+01 0.  1.
       -4    1    3    3    0  502  0.86862653242E+03  0.12651435313E+04  0.11438590900E+04  0.19140312009E+04  0.12699999809E+01 0. -1.
</event>
<event>
 5   0  0.1628250E-08  0.3798416E+04  0.7818609E-02  0.8046495E-01
        1   -1    0    0  501    0  0.00000000000E+00  0.00000000000E+00  0.24181421098E+04  0.24181421098E+04  0.50400001928E-02 0.  1.
       -1   -1    0    0    0  501  0.00000000000E+00  0.00000000000E+00 -0.14916369793E+04  0.14916369794E+04  0.50400001928E-02 0. -1.
    10030    2    1    2    0    0  0.00000000000E+00  0.00000000000E+00  0.92650513046E+03  0.39097790892E+04  0.37984155604E+04 0.  0.
        5    1    3    3  502    0  0.35477196627E+03  0.74582964929E+03  0.22236106905E+04  0.23720437616E+04  0.46999998093E+01 0.  1.
       -5    1    3    3    0  502 -0.35477196627E+03 -0.74582964929E+03 -0.12971055601E+04  0.15377353276E+04  0.46999998093E+01 0. -1.
</event>
<event>
 5   0  0.1628473E-08  0.3795380E+04  0.7818609E-02  0.8047147E-01
       -1   -1    0    0    0  501  0.00000000000E+00  0.00000000000E+00  0.19744109961E+04  0.19744109961E+04  0.50400001928E-02 0. -1.
        1   -1    0    0  501    0  0.00000000000E+00  0.00000000000E+00 -0.18239503954E+04  0.18239503954E+04  0.50400001928E-02 0.  1.
    10030    2    1    2    0    0  0.00000000000E+00  0.00000000000E+00  0.15046060076E+03  0.37983613915E+04  0.37953802008E+04 0.  0.
        3    1    3    3  502    0  0.15260569495E+04 -0.79040099740E+03 -0.73016524102E+03  0.18672773868E+04  0.10100000352E+00 0. -1.
       -3    1    3    3    0  502 -0.15260569495E+04  0.79040099740E+03  0.88062584178E+03  0.19310840047E+04  0.10100000352E+00 0.  1.
</event>
<event>
 5   0  0.1666051E-08  0.3803732E+04  0.7818609E-02  0.8045354E-01
        1   -1    0    0  501    0  0.00000000000E+00  0.00000000000E+00  0.12265519252E+04  0.12265519252E+04  0.50400001928E-02 0. -1.
       -1   -1    0    0    0  501  0.00000000000E+00  0.00000000000E+00 -0.29489944961E+04  0.29489944962E+04  0.50400001928E-02 0.  1.
    10030    2    1    2    0    0  0.00000000000E+00  0.00000000000E+00 -0.17224425709E+04  0.41755464214E+04  0.38037323127E+04 0.  0.
        2    1    3    3  502    0 -0.16309258368E+04 -0.83601177865E+03 -0.30335254652E+03  0.18576483916E+04  0.25500000920E-02 0. -1.
       -2    1    3    3    0  502  0.16309258368E+04  0.83601177865E+03 -0.14190900244E+04  0.23178980298E+04  0.25500000920E-02 0.  1.
</event>
<event>
 5   0  0.5207474E-08  0.3809525E+04  0.7818609E-02  0.8044114E-01
        2   -1    0    0  501    0  0.00000000000E+00  0.00000000000E+00  0.27463525880E+04  0.27463525880E+04  0.25500000920E-02 0.  1.
       -2   -1    0    0    0  501  0.00000000000E+00  0.00000000000E+00 -0.13210683846E+04  0.13210683847E+04  0.25500000920E-02 0. -1.
    10030    2    1    2    0    0  0.00000000000E+00  0.00000000000E+00  0.14252842034E+04  0.40674209727E+04  0.38095246828E+04 0.  0.
        4    1    3    3  502    0 -0.70991068161E+03  0.11130538688E+03  0.25960790789E+04  0.26936945376E+04  0.12699999809E+01 0.  1.
       -4    1    3    3    0  502  0.70991068161E+03 -0.11130538688E+03 -0.11707948755E+04  0.13737264351E+04  0.12699999809E+01 0. -1.
</event>
<event>
 5   0  0.1628473E-08  0.3812090E+04  0.7818609E-02  0.8043565E-01
        1   -1    0    0  501    0  0.00000000000E+00  0.00000000000E+00  0.25764047527E+04  0.25764047527E+04  0.50400001928E-02 0. -1.
       -1   -1    0    0    0  501  0.00000000000E+00  0.00000000000E+00 -0.14101077507E+04  0.14101077507E+04  0.50400001928E-02 0.  1.
    10030    2    1    2    0    0  0.00000000000E+00  0.00000000000E+00  0.11662970021E+04  0.39865125034E+04  0.38120904033E+04 0.  0.
        3    1    3    3  502    0  0.18763528730E+04 -0.31042576368E+03  0.45110131585E+03  0.19546244310E+04  0.10100000352E+00 0. -1.
       -3    1    3    3    0  502 -0.18763528730E+04  0.31042576368E+03  0.71519568623E+03  0.20318880724E+04  0.10100000352E+00 0.  1.
</event>
<event>
 5   0  0.5140842E-08  0.3777961E+04  0.7818609E-02  0.8050901E-01
        2   -1    0    0  501    0  0.00000000000E+00  0.00000000000E+00  0.23066600090E+04  0.23066600090E+04  0.25500000920E-02 0.  1.
       -2   -1    0    0    0  501  0.00000000000E+00  0.00000000000E+00 -0.15469326211E+04  0.15469326211E+04  0.25500000920E-02 0. -1.
    10030    2    1    2    0    0  0.00000000000E+00  0.00000000000E+00  0.75972738789E+03  0.38535926301E+04  0.37779611505E+04 0.  0.
        2    1    3    3  502    0 -0.11317888673E+04 -0.48570008653E+03 -0.10810789735E+04  0.16387746524E+04  0.25500000920E-02 0. -1.
       -2    1    3    3    0  502  0.11317888673E+04  0.48570008653E+03  0.18408063614E+04  0.22148179777E+04  0.25500000920E-02 0.  1.
</event>
<event>
 5   0  0.5207474E-08  0.3745262E+04  0.7818609E-02  0.8058005E-01
        2   -1    0    0  501    0  0.00000000000E+00  0.00000000000E+00  0.32316515484E+04  0.32316515485E+04  0.25500000920E-02 0.  1.
       -2   -1    0    0    0  501  0.00000000000E+00  0.00000000000E+00 -0.10851253758E+04  0.10851253758E+04  0.25500000920E-02 0. -1.
    10030    2    1    2    0    0  0.00000000000E+00  0.00000000000E+00  0.21465261726E+04  0.43167769243E+04  0.37452621275E+04 0.  0.
        4    1    3    3  502    0 -0.15913396038E+03  0.12883624037E+04 -0.48233443660E+03  0.13848644057E+04  0.12699999809E+01 0. -1.
       -4    1    3    3    0  502  0.15913396038E+03 -0.12883624037E+04  0.26288606092E+04  0.29319125185E+04  0.12699999809E+01 0.  1.
</event>
<event>
 5   0  0.1628250E-08  0.3818218E+04  0.7818609E-02  0.8042257E-01
       -1   -1    0    0    0  501  0.00000000000E+00  0.00000000000E+00  0.15634820563E+04  0.15634820563E+04  0.50400001928E-02 0. -1.
        1   -1    0    0  501    0  0.00000000000E+00  0.00000000000E+00 -0.23311412022E+04  0.23311412022E+04  0.50400001928E-02 0.  1.
    10030    2    1    2    0    0  0.00000000000E+00  0.00000000000E+00 -0.76765914590E+03  0.38946232585E+04  0.38182181395E+04 0.  0.
        5    1    3    3  502    0  0.93055889298E+03  0.40095502123E+03  0.12665623763E+04  0.16220071286E+04  0.46999998093E+01 0. -1.
       -5    1    3    3    0  502 -0.93055889298E+03 -0.40095502123E+03 -0.20342215222E+04  0.22726161298E+04  0.46999998093E+01 0.  1.
</event>
<event>
 5   0  0.1666051E-08  0.3800183E+04  0.7818609E-02  0.8046116E-01
        1   -1    0    0  501    0  0.00000000000E+00  0.00000000000E+00  0.25145664555E+04  0.25145664555E+04  0.50400001928E-02 0.  1.
       -1   -1    0    0    0  501  0.00000000000E+00  0.00000000000E+00 -0.14357735351E+04  0.14357735351E+04  0.50400001928E-02 0. -1.
    10030    2    1    2    0    0  0.00000000000E+00  0.00000000000E+00  0.10787929205E+04  0.39503399906E+04  0.38001831372E+04 0.  0.
        2    1    3    3  502    0 -0.13004250956E+04 -0.12827066863E+04  0.10834364180E+04  0.21237411199E+04  0.25500000920E-02 0. -1.
       -2    1    3    3    0  502  0.13004250956E+04  0.12827066863E+04 -0.46434975500E+01  0.18265988707E+04  0.25500000920E-02 0.  1.
</event>
<event>
 5   0  0.5140842E-08  0.3802776E+04  0.7818609E-02  0.8045559E-01
       -2   -1    0    0    0  501  0.00000000000E+00  0.00000000000E+00  0.12673676931E+04  0.12673676931E+04  0.25500000920E-02 0.  1.
        2   -1    0    0  501    0  0.00000000000E+00  0.00000000000E+00 -0.28525863707E+04  0.28525863707E+04  0.25500000920E-02 0. -1.
    10030    2    1    2    0    0  0.00000000000E+00  0.00000000000E+00 -0.15852186776E+04  0.41199540638E+04  0.38027757273E+04 0.  0.
        2    1    3    3  502    0  0.33473803657E+03  0.96369690830E+03  0.94574911410E+03  0.13911156210E+04  0.25500000920E-02 0.  1.
       -2    1    3    3    0  502 -0.33473803657E+03 -0.96369690830E+03 -0.25309677917E+04  0.27288384428E+04  0.25500000920E-02 0. -1.
</event>
<event>
 5   0  0.5086209E-08  0.3787438E+04  0.7818609E-02  0.8048856E-01
       -2   -1    0    0    0  501  0.00000000000E+00  0.00000000000E+00  0.16527523887E+04  0.16527523887E+04  0.25500000920E-02 0.  1.
        2   -1    0    0  501    0  0.00000000000E+00  0.00000000000E+00 -0.21698177033E+04  0.21698177033E+04  0.25500000920E-02 0. -1.
    10030    2    1    2    0    0  0.00000000000E+00  0.00000000000E+00 -0.51706531455E+03  0.38225700920E+04  0.37874378634E+04 0.  0.
        3    1    3    3  502    0 -0.15286211648E+04  0.70437427392E+02  0.86739931678E+03  0.17589842755E+04  0.10100000352E+00 0.  1.
       -3    1    3    3    0  502  0.15286211648E+04 -0.70437427392E+02 -0.13844646313E+04  0.20635858165E+04  0.10100000352E+00 0. -1.
</event>
<event>
 5   0  0.5159761E-08  0.3801992E+04  0.7818609E-02  0.8045728E-01
       -2   -1    0    0    0  501  0.00000000000E+00  0.00000000000E+00  0.15080768604E+04  0.15080768604E+04  0.25500000920E-02 0.  1.
        2   -1    0    0  501    0  0.00000000000E+00  0.00000000000E+00 -0.23962876628E+04  0.23962876628E+04  0.25500000920E-02 0. -1.
    10030    2    1    2    0    0  0.00000000000E+00  0.00000000000E+00 -0.88821080243E+03  0.39043645232E+04  0.38019920963E+04 0.  0.
        5    1    3    3  502    0  0.10458587916E+04 -0.15284549131E+04 -0.88433080346E+03  0.20523299183E+04  0.46999998093E+01 0. -1.
       -5    1    3    3    0  502 -0.10458587916E+04  0.15284549131E+04 -0.38799989680E+01  0.18520346049E+04  0.46999998093E+01 0.  1.
</event>
<event>
 5   0  0.1666051E-08  0.3816770E+04  0.7818609E-02  0.8042566E-01
       -1   -1    0    0    0  501  0.00000000000E+00  0.00000000000E+00  0.17628169340E+04  0.17628169340E+04  0.50400001928E-02 0.  1.
        1   -1    0    0  501    0  0.00000000000E+00  0.00000000000E+00 -0.20659738553E+04  0.20659738553E+04  0.50400001928E-02 0. -1.
    10030    2    1    2    0    0  0.00000000000E+00  0.00000000000E+00 -0.30315692130E+03  0.38287907893E+04  0.38167702039E+04 0.  0.
        2    1    3    3  502    0  0.13895398049E+04  0.72480311468E+03 -0.12439401286E+04  0.20008866705E+04  0.25500000920E-02 0. -1.
       -2    1    3    3    0  502 -0.13895398049E+04 -0.72480311468E+03  0.94078320730E+03  0.18279041189E+04  0.25500000920E-02 0.  1.
</event>
<event>
 5   0  0.5140842E-08  0.3802833E+04  0.7818609E-02  0.8045547E-01
        2   -1    0    0  501    0  0.00000000000E+00  0.00000000000E+00  0.22137286099E+04  0.22137286099E+04  0.25500000920E-02 0. -1.
       -2   -1    0    0    0  501  0.00000000000E+00  0.00000000000E+00 -0.16331652392E+04  0.16331652392E+04  0.25500000920E-02 0.  1.
    10030    2    1    2    0    0  0.00000000000E+00  0.00000000000E+00  0.58056337071E+03  0.38468938492E+04  0.38028329518E+04 0.  0.
        2    1    3    3  502    0  0.13227856366E+03  0.18886740232E+04  0.11275640932E+03  0.18966552644E+04  0.25500000920E-02 0.  1.
       -2    1    3    3    0  502 -0.13227856366E+03 -0.18886740232E+04  0.46780696139E+03  0.19502385847E+04  0.25500000920E-02 0. -1.
</event>
<event>
 5   0  0.1666051E-08  0.3803909E+04  0.7818609E-02  0.8045317E-01
        1   -1    0    0  501    0  0.00000000000E+00  0.00000000000E+00  0.22289337015E+04  0.22289337015E+04  0.50400001928E-02 0. -1.
       -1   -1    0    0    0  501  0.00000000000E+00  0.00000000000E+00 -0.16229425270E+04  0.16229425270E+04  0.50400001928E-02 0.  1.
    10030    2    1    2    0    0  0.00000000000E+00  0.00000000000E+00  0.60599117454E+03  0.38518762285E+04  0.38039091966E+04 0.  0.
        2    1    3    3  502    0 -0.10627324750E+04  0.15395225257E+04  0.65069312447E+03  0.19806391551E+04  0.25500000920E-02 0. -1.
       -2    1    3    3    0  502  0.10627324750E+04 -0.15395225257E+04 -0.44701949934E+02  0.18712370734E+04  0.25500000920E-02 0.  1.
</event>
<event>
 5   0  0.5159761E-08  0.3799757E+04  0.7818609E-02  0.8046207E-01
        2   -1    0    0  501    0  0.00000000000E+00  0.00000000000E+00  0.17300989755E+04  0.17300989755E+04  0.25500000920E-02 0.  1.
       -2   -1    0    0    0  501  0.00000000000E+00  0.00000000000E+00 -0.20863189378E+04  0.20863189378E+04  0.25500000920E-02 0. -1.
    10030    2    1    2    0    0  0.00000000000E+00  0.00000000000E+00 -0.35621996238E+03  0.38164179133E+04  0.37997569695E+04 0.  0.
        5    1    3    3  502    0  0.11836840501E+04  0.36485678627E+03 -0.16250124841E+04  0.20432611357E+04  0.46999998093E+01 0. -1.
       -5    1    3    3    0  502 -0.11836840501E+04 -0.36485678627E+03  0.12687925217E+04  0.17731567777E+04  0.46999998093E+01 0.  1.
</event>
<event>
 5   0  0.1628250E-08  0.3798846E+04  0.7818609E-02  0.8046403E-01
       -1   -1    0    0    0  501  0.00000000000E+00  0.00000000000E+00  0.19766557942E+04  0.19766557942E+04  0.50400001928E-02 0. -1.
        1   -1    0    0  501    0  0.00000000000E+00  0.00000000000E+00 -0.18252081561E+04  0.18252081561E+04  0.50400001928E-02 0.  1.
    10030    2    1    2    0    0  0.00000000000E+00  0.00000000000E+00  0.15144763810E+03  0.38018639504E+04  0.37988462867E+04 0.  0.
        1    1    3    3  502    0 -0.52513612882E+03 -0.24509522596E+02  0.19023968755E+04  0.19736976827E+04  0.50400001928E-02 0. -1.
       -1    1    3    3    0  502  0.52513612882E+03  0.24509522596E+02 -0.17509492374E+04  0.18281662677E+04  0.50400001928E-02 0.  1.
</event>
<event>
 5   0  0.1628250E-08  0.3794062E+04  0.7818609E-02  0.8047430E-01
        1   -1    0    0  501    0  0.00000000000E+00  0.00000000000E+00  0.16389797624E+04  0.16389797624E+04  0.50400001928E-02 0.  1.
       -1   -1    0    0    0  501  0.00000000000E+00  0.00000000000E+00 -0.21957119626E+04  0.21957119627E+04  0.50400001928E-02 0. -1.
    10030    2    1    2    0    0  0.00000000000E+00  0.00000000000E+00 -0.55673220022E+03  0.38346917251E+04  0.37940624512E+04 0.  0.
        4    1    3    3  502    0 -0.10788757964E+04 -0.14632154686E+04 -0.82616027177E+03  0.19968762854E+04  0.12699999809E+01 0. -1.
       -4    1    3    3    0  502  0.10788757964E+04  0.14632154686E+04  0.26942807155E+03  0.18378154397E+04  0.12699999809E+01 0.  1.
</event>
<event>
 5   0  0.1628250E-08  0.3816697E+04  0.7818609E-02  0.8042581E-01
        1   -1    0    0  501    0  0.00000000000E+00  0.00000000000E+00  0.15546982969E+04  0.15546982969E+04  0.50400001928E-02 0. -1.
       -1   -1    0    0    0  501  0.00000000000E+00  0.00000000000E+00 -0.23424445433E+04  0.23424445433E+04  0.50400001928E-02 0.  1.
    10030    2    1    2    0    0  0.00000000000E+00  0.00000000000E+00 -0.78774624641E+03  0.38971428401E+04  0.38166972853E+04 0.  0.
        1    1    3    3  502    0 -0.33211116904E+03  0.14654916593E+04  0.80728483093E+03  0.17057761958E+04  0.50400001928E-02 0. -1.
       -1    1    3    3    0  502  0.33211116904E+03 -0.14654916593E+04 -0.15950310773E+04  0.21913666443E+04  0.50400001928E-02 0.  1.
</event>
<event>
 5   0  0.5159761E-08  0.3805398E+04  0.7818609E-02  0.8044998E-01
        2   -1    0    0  501    0  0.00000000000E+00  0.00000000000E+00  0.14374979388E+04  0.14374979388E+04  0.25500000920E-02 0.  1.
       -2   -1    0    0    0  501  0.00000000000E+00  0.00000000000E+00 -0.25184473844E+04  0.25184473844E+04  0.25500000920E-02 0. -1.
    10030    2    1    2    0    0  0.00000000000E+00  0.00000000000E+00 -0.10809494455E+04  0.39559453232E+04  0.38053977054E+04 0.  0.
        5    1    3    3  502    0  0.34212254136E+03  0.33650824244E+03 -0.24544979689E+04  0.25009734105E+04  0.46999998093E+01 0. -1.
       -5    1    3    3    0  502 -0.34212254136E+03 -0.33650824244E+03  0.13735485234E+04  0.14549719127E+04  0.46999998093E+01 0.  1.
</event>
<event>
 5   0  0.1628250E-08  0.3797100E+04  0.7818609E-02  0.8046778E-01
        1   -1    0    0  501    0  0.00000000000E+00  0.00000000000E+00  0.10982267011E+04  0.10982267011E+04  0.50400001928E-02 0.  1.
       -1   -1    0    0    0  501  0.00000000000E+00  0.00000000000E+00 -0.32821013408E+04  0.32821013408E+04  0.50400001928E-02 0. -1.
    10030    2    1    2    0    0  0.00000000000E+00  0.00000000000E+00 -0.21838746397E+04  0.43803280419E+04  0.37970995921E+04 0.  0.
        5    1    3    3  502    0  0.11194137015E+04  0.27554633801E+03 -0.28320962267E+04  0.30577449120E+04  0.46999998093E+01 0. -1.
       -5    1    3    3    0  502 -0.11194137015E+04 -0.27554633801E+03  0.64822158699E+03  0.13225831299E+04  0.46999998093E+01 0.  1.
</event>
<event>
 5   0  0.1628473E-08  0.3797128E+04  0.7818609E-02  0.8046772E-01
        1   -1    0    0  501    0  0.00000000000E+00  0.00000000000E+00  0.21741068106E+04  0.21741068106E+04  0.50400001928E-02 0. -1.
       -1   -1    0    0    0  501  0.00000000000E+00  0.00000000000E+00 -0.16579427255E+04  0.16579427255E+04  0.50400001928E-02 0.  1.
    10030    2    1    2    0    0  0.00000000000E+00  0.00000000000E+00  0.51616408510E+03  0.38320495361E+04  0.37971276360E+04 0.  0.
        3    1    3    3  502    0 -0.96471000068E+03 -0.67612521982E+03  0.17606450642E+04  0.21184149146E+04  0.10100000352E+00 0. -1.
       -3    1    3    3    0  502  0.96471000068E+03  0.67612521982E+03 -0.12444809791E+04  0.17136346214E+04  0.10100000352E+00 0.  1.
</event>
<event>
 5   0  0.5147582E-08  0.3801001E+04  0.7818609E-02  0.8045940E-01
       -2   -1    0    0    0  501  0.00000000000E+00  0.00000000000E+00  0.12865828022E+04  0.12865828022E+04  0.25500000920E-02 0. -1.
        2   -1    0    0  501    0  0.00000000000E+00  0.00000000000E+00 -0.28073603906E+04  0.28073603906E+04  0.25500000920E-02 0.  1.
    10030    2    1    2    0    0  0.00000000000E+00  0.00000000000E+00 -0.15207775884E+04  0.40939431927E+04  0.38010007093E+04 0.  0.
        1    1    3    3  502    0  0.17505890281E+04  0.65236931189E+03 -0.11362135312E+04  0.21865792583E+04  0.50400001928E-02 0.  1.
       -1    1    3    3    0  502 -0.17505890281E+04 -0.65236931189E+03 -0.38456405725E+03  0.19073639345E+04  0.50400001928E-02 0. -1.
</event>
<event>
 5   0  0.1628473E-08  0.3797846E+04  0.7818609E-02  0.8046617E-01
        1   -1    0    0  501    0  0.00000000000E+00  0.00000000000E+00  0.15757976315E+04  0.15757976315E+04  0.50400001928E-02 0.  1.
       -1   -1    0    0    0  501  0.00000000000E+00  0.00000000000E+00 -0.22883065480E+04  0.22883065480E+04  0.50400001928E-02 0. -1.
    10030    2    1    2    0    0  0.00000000000E+00  0.00000000000E+00 -0.71250891654E+03  0.38641041795E+04  0.37978457254E+04 0.  0.
        3    1    3    3  502    0  0.17286977039E+04  0.70770446601E+03 -0.87303794195E+01  0.18679715181E+04  0.10100000352E+00 0.  1.
       -3    1    3    3    0  502 -0.17286977039E+04 -0.70770446601E+03 -0.70377853712E+03  0.19961326615E+04  0.10100000352E+00 0. -1.
</event>
<event>
 5   0  0.5086209E-08  0.3801656E+04  0.7818609E-02  0.8045800E-01
       -2   -1    0    0    0  501  0.00000000000E+00  0.00000000000E+00  0.19138061097E+04  0.19138061097E+04  0.25500000920E-02 0.  1.
        2   -1    0    0  501    0  0.00000000000E+00  0.00000000000E+00 -0.18879382285E+04  0.18879382285E+04  0.25500000920E-02 0. -1.
    10030    2    1    2    0    0  0.00000000000E+00  0.00000000000E+00  0.25867881215E+02  0.38017443382E+04  0.38016563319E+04 0.  0.
        3    1    3    3  502    0 -0.10248037997E+04 -0.11811077053E+04  0.10936575595E+04  0.19082256437E+04  0.10100000352E+00 0.  1.
       -3    1    3    3    0  502  0.10248037997E+04  0.11811077053E+04 -0.10677896783E+04  0.18935186946E+04  0.10100000352E+00 0. -1.
</event>
<event>
 5   0  0.1628473E-08  0.3802258E+04  0.7818609E-02  0.8045670E-01
        1   -1    0    0  501    0  0.00000000000E+00  0.00000000000E+00  0.21253628599E+04  0.21253628599E+04  0.50400001928E-02 0.  1.
       -1   -1    0    0    0  501  0.00000000000E+00  0.00000000000E+00 -0.17005526873E+04  0.17005526874E+04  0.50400001928E-02 0. -1.
    10030    2    1    2    0    0  0.00000000000E+00  0.00000000000E+00  0.42481017253E+03  0.38259155472E+04  0.38022580254E+04 0.  0.
        3    1    3    3  502    0 -0.71056847236E+03  0.17593191380E+04  0.33222634979E+03  0.19262621163E+04  0.10100000352E+00 0.  1.
       -3    1    3    3    0  502  0.71056847236E+03 -0.17593191380E+04  0.92583822735E+02  0.18996534309E+04  0.10100000352E+00 0. -1.
</event>
<event>
 5   0  0.1628250E-08  0.3793771E+04  0.7818609E-02  0.8047493E-01
       -1   -1    0    0    0  501  0.00000000000E+00  0.00000000000E+00  0.29825541586E+04  0.29825541586E+04  0.50400001928E-02 0. -1.
        1   -1    0    0  501    0  0.00000000000E+00  0.00000000000E+00 -0.12064068903E+04  0.12064068903E+04  0.50400001928E-02 0.  1.
    10030    2    1    2    0    0  0.00000000000E+00  0.00000000000E+00  0.17761472683E+04  0.41889610489E+04  0.37937706244E+04 0.  0.
        1    1    3    3  502    0  0.10610617771E+04  0.25212345020E+03  0.26017610896E+04  0.28210953717E+04  0.50400001928E-02 0. -1.
       -1    1    3    3    0  502 -0.10610617771E+04 -0.25212345020E+03 -0.82561382130E+03  0.13678656772E+04  0.50400001928E-02 0.  1.
</event>
<event>
 5   0  0.5147582E-08  0.3797870E+04  0.7818609E-02  0.8046612E-01
        2   -1    0    0  501    0  0.00000000000E+00  0.00000000000E+00  0.12711423574E+04  0.12711423574E+04  0.25500000920E-02 0.  1.
       -2   -1    0    0    0  501  0.00000000000E+00  0.00000000000E+00 -0.28367822453E+04  0.28367822453E+04  0.25500000920E-02 0. -1.
    10030    2    1    2    0    0  0.00000000000E+00  0.00000000000E+00 -0.15656398880E+04  0.41079246027E+04  0.37978699665E+04 0.  0.
        1    1    3    3  502    0 -0.38504309005E+03 -0.11745250398E+03  0.12244588174E+04  0.12889347025E+04  0.50400001928E-02 0.  1.
       -1    1    3    3    0  502  0.38504309005E+03  0.11745250398E+03 -0.27900987053E+04  0.28189899002E+04  0.50400001928E-02 0. -1.
</event>
<event>
 5   0  0.1628473E-08  0.3802247E+04  0.7818609E-02  0.8045673E-01
        1   -1    0    0  501    0  0.00000000000E+00  0.00000000000E+00  0.26878814302E+04  0.26878814302E+04  0.50400001928E-02 0.  1.
       -1   -1    0    0    0  501  0.00000000000E+00  0.00000000000E+00 -0.13446537430E+04  0.13446537431E+04  0.50400001928E-02 0. -1.
    10030    2    1    2    0    0  0.00000000000E+00  0.00000000000E+00  0.13432276871E+04  0.40325351732E+04  0.38022466127E+04 0.  0.
        3    1    3    3  502    0  0.26283524527E+03  0.17597433647E+04  0.13818693719E+04  0.22528519807E+04  0.10100000352E+00 0.  1.
       -3    1    3    3    0  502 -0.26283524527E+03 -0.17597433647E+04 -0.38641684817E+02  0.17796831925E+04  0.10100000352E+00 0. -1.
</event>
<event>
 5   0  0.1628473E-08  0.3801936E+04  0.7818609E-02  0.8045739E-01
       -1   -1    0    0    0  501  0.00000000000E+00  0.00000000000E+00  0.26441259924E+04  0.26441259924E+04  0.50400001928E-02 0.  1.
        1   -1    0    0  501    0  0.00000000000E+00  0.00000000000E+00 -0.13666821660E+04  0.13666821660E+04  0.50400001928E-02 0. -1.
    10030    2    1    2    0    0  0.00000000000E+00  0.00000000000E+00  0.12774438264E+04  0.40108081584E+04  0.38019362638E+04 0.  0.
        3    1    3    3  502    0 -0.12347184402E+04 -0.88203687280E+03  0.18466889824E+04  0.23901420208E+04  0.10100000352E+00 0.  1.
       -3    1    3    3    0  502  0.12347184402E+04  0.88203687280E+03 -0.56924515604E+03  0.16206661376E+04  0.10100000352E+00 0. -1.
</event>
<event>
 5   0  0.5086209E-08  0.3803557E+04  0.7818609E-02  0.8045392E-01
       -2   -1    0    0    0  501  0.00000000000E+00  0.00000000000E+00  0.24416258829E+04  0.24416258829E+04  0.25500000920E-02 0.  1.
        2   -1    0    0  501    0  0.00000000000E+00  0.00000000000E+00 -0.14812923964E+04  0.14812923964E+04  0.25500000920E-02 0. -1.
    10030    2    1    2    0    0  0.00000000000E+00  0.00000000000E+00  0.96033348646E+03  0.39229182792E+04  0.38035572061E+04 0.  0.
        3    1    3    3  502    0 -0.52405741563E+03 -0.12153506869E+04 -0.92835760724E+03  0.16166512686E+04  0.10100000352E+00 0. -1.
       -3    1    3    3    0  502  0.52405741563E+03  0.12153506869E+04  0.18886910937E+04  0.23062670107E+04  0.10100000352E+00 0.  1.
</event>
<event>
 5   0  0.5159761E-08  0.3793989E+04  0.7818609E-02  0.8047446E-01
        2   -1    0    0  501    0  0.00000000000E+00  0.00000000000E+00  0.21428785243E+04  0.21428785243E+04  0.25500000920E-02 0.  1.
       -2   -1    0    0    0  501  0.00000000000E+00  0.00000000000E+00 -0.16793247260E+04  0.16793247260E+04  0.25500000920E-02 0. -1.
    10030    2    1    2    0    0  0.00000000000E+00  0.00000000000E+00  0.46355379830E+03  0.38222032504E+04  0.37939893995E+04 0.  0.
        5    1    3    3  502    0  0.47269485111E+03  0.26543693273E+03  0.20631704812E+04  0.21332115957E+04  0.46999998093E+01 0.  1.
       -5    1    3    3    0  502 -0.47269485111E+03 -0.26543693273E+03 -0.15996166829E+04  0.16889916547E+04  0.46999998093E+01 0. -1.
</event>
<event>
 5   0  0.5140842E-08  0.3803043E+04  0.7818609E-02  0.8045502E-01
       -2   -1    0    0    0  501  0.00000000000E+00  0.00000000000E+00  0.13909294250E+04  0.13909294250E+04  0.25500000920E-02 0. -1.
        2   -1    0    0  501    0  0.00000000000E+00  0.00000000000E+00 -0.25995458860E+04  0.25995458860E+04  0.25500000920E-02 0.  1.
    10030    2    1    2    0    0  0.00000000000E+00  0.00000000000E+00 -0.12086164610E+04  0.39904753109E+04  0.38030434467E+04 0.  0.
        2    1    3    3  502    0  0.11997516537E+04  0.92602276814E+03 -0.18093251051E+04  0.23602075192E+04  0.25500000920E-02 0.  1.
       -2    1    3    3    0  502 -0.11997516537E+04 -0.92602276814E+03  0.60070864409E+03  0.16302677917E+04  0.25500000920E-02 0. -1.
</event>
<event>
 5   0  0.5140842E-08  0.3813529E+04  0.7818609E-02  0.8043258E-01
        2   -1    0    0  501    0  0.00000000000E+00  0.00000000000E+00  0.28747377747E+04  0.28747377747E+04  0.25500000920E-02 0. -1.
       -2   -1    0    0    0  501  0.00000000000E+00  0.00000000000E+00 -0.12647242387E+04  0.12647242387E+04  0.25500000920E-02 0.  1.
    10030    2    1    2    0    0  0.00000000000E+00  0.00000000000E+00  0.16100135360E+04  0.41394620135E+04  0.38135288349E+04 0.  0.
        2    1    3    3  502    0  0.18360787634E+04 -0.50776409485E+03  0.71588635828E+03  0.20350682739E+04  0.25500000920E-02 0. -1.
       -2    1    3    3    0  502 -0.18360787634E+04  0.50776409485E+03  0.89412717769E+03  0.21043937396E+04  0.25500000920E-02 0.  1.
</event>
<event>
 5   0  0.5086209E-08  0.3808032E+04  0.7818609E-02  0.8044433E-01
       -2   -1    0    0    0  501  0.00000000000E+00  0.00000000000E+00  0.18009576918E+04  0.18009576918E+04  0.25500000920E-02 0. -1.
        2   -1    0    0  501    0  0.00000000000E+00  0.00000000000E+00 -0.20129718177E+04  0.20129718177E+04  0.25500000920E-02 0.  1.
    10030    2    1    2    0    0  0.00000000000E+00  0.00000000000E+00 -0.21201412583E+03  0.38139295095E+04  0.38080320789E+04 0.  0.
        3    1    3    3  502    0 -0.16146591368E+04 -0.15442192691E+03 -0.11047006714E+04  0.19624815523E+04  0.10100000352E+00 0.  1.
       -3    1    3    3    0  502  0.16146591368E+04  0.15442192691E+03  0.89268654557E+03  0.18514479572E+04  0.10100000352E+00 0. -1.
</event>
<event>
 5   0  0.1666051E-08  0.3808065E+04  0.7818609E-02  0.8044426E-01
        1   -1    0    0  501    0  0.00000000000E+00  0.00000000000E+00  0.17322265585E+04  0.17322265585E+04  0.50400001928E-02 0.  1.
       -1   -1    0    0    0  501  0.00000000000E+00  0.00000000000E+00 -0.20928783163E+04  0.20928783163E+04  0.50400001928E-02 0. -1.
    10030    2    1    2    0    0  0.00000000000E+00  0.00000000000E+00 -0.36065175780E+03  0.38251048749E+04  0.38080648121E+04 0.  0.
        2    1    3    3  502    0  0.19783823144E+03 -0.10762437812E+04 -0.17454698848E+04  0.20601227539E+04  0.25500000920E-02 0. -1.
       -2    1    3    3    0  502 -0.19783823144E+03  0.10762437812E+04  0.13848181270E+04  0.17649821209E+04  0.25500000920E-02 0.  1.
</event>
<event>
 5   0  0.5147582E-08  0.3765793E+04  0.7818609E-02  0.8053536E-01
        2   -1    0    0  501    0  0.00000000000E+00  0.00000000000E+00  0.14292219940E+04  0.14292219940E+04  0.25500000920E-02 0.  1.
       -2   -1    0    0    0  501  0.00000000000E+00  0.00000000000E+00 -0.24805803768E+04  0.24805803768E+04  0.25500000920E-02 0. -1.
    10030    2    1    2    0    0  0.00000000000E+00  0.00000000000E+00 -0.10513583828E+04  0.39098023708E+04  0.37657934263E+04 0.  0.
        1    1    3    3  502    0  0.44364436814E+03 -0.27515820863E+03 -0.24039400169E+04  0.24599715385E+04  0.50400001928E-02 0. -1.
       -1    1    3    3    0  502 -0.44364436814E+03  0.27515820863E+03  0.13525816341E+04  0.14498308323E+04  0.50400001928E-02 0.  1.
</event>
<event>
 5   0  0.1628473E-08  0.3801364E+04  0.7818609E-02  0.8045862E-01
       -1   -1    0    0    0  501  0.00000000000E+00  0.00000000000E+00  0.25155645592E+04  0.25155645592E+04  0.50400001928E-02 0. -1.
        1   -1    0    0  501    0  0.00000000000E+00  0.00000000000E+00 -0.14360960319E+04  0.14360960319E+04  0.50400001928E-02 0.  1.
    10030    2    1    2    0    0  0.00000000000E+00  0.00000000000E+00  0.10794685273E+04  0.39516605911E+04  0.38013641139E+04 0.  0.
        3    1    3    3  502    0  0.56293249743E+03 -0.37363054909E+03 -0.13070472038E+04  0.14713480849E+04  0.10100000352E+00 0.  1.
       -3    1    3    3    0  502 -0.56293249743E+03  0.37363054909E+03  0.23865157311E+04  0.24803125062E+04  0.10100000352E+00 0. -1.
</event>
<event>
 5   0  0.1628473E-08  0.3805119E+04  0.7818609E-02  0.8045057E-01
       -1   -1    0    0    0  501  0.00000000000E+00  0.00000000000E+00  0.28494168161E+04  0.28494168161E+04  0.50400001928E-02 0.  1.
        1   -1    0    0  501    0  0.00000000000E+00  0.00000000000E+00 -0.12703412697E+04  0.12703412697E+04  0.50400001928E-02 0. -1.
    10030    2    1    2    0    0  0.00000000000E+00  0.00000000000E+00  0.15790755464E+04  0.41197580858E+04  0.38051185401E+04 0.  0.
        3    1    3    3  502    0 -0.90355068082E+03 -0.16225961179E+04  0.34246506418E+03  0.18885190825E+04  0.10100000352E+00 0. -1.
       -3    1    3    3    0  502  0.90355068082E+03  0.16225961179E+04  0.12366104823E+04  0.22312390033E+04  0.10100000352E+00 0.  1.
</event>
<event>
 5   0  0.1628250E-08  0.3819924E+04  0.7818609E-02  0.8041893E-01
       -1   -1    0    0    0  501  0.00000000000E+00  0.00000000000E+00  0.17266610345E+04  0.17266610345E+04  0.50400001928E-02 0. -1.
        1   -1    0    0  501    0  0.00000000000E+00  0.00000000000E+00 -0.21127220457E+04  0.21127220457E+04  0.50400001928E-02 0.  1.
    10030    2    1    2    0    0  0.00000000000E+00  0.00000000000E+00 -0.38606101121E+03  0.38393830801E+04  0.38199239955E+04 0.  0.
        4    1    3    3  502    0 -0.83940620227E+03 -0.68007662355E+03  0.13900632950E+04  0.17605069053E+04  0.12699999809E+01 0. -1.
       -4    1    3    3    0  502  0.83940620227E+03  0.68007662355E+03 -0.17761243062E+04  0.20788761749E+04  0.12699999809E+01 0.  1.
</event>
<event>
 5   0  0.5207474E-08  0.3787608E+04  0.7818609E-02  0.8048819E-01
       -2   -1    0    0    0  501  0.00000000000E+00  0.00000000000E+00  0.16840799306E+04  0.16840799306E+04  0.25500000920E-02 0. -1.
        2   -1    0    0  501    0  0.00000000000E+00  0.00000000000E+00 -0.21296453900E+04  0.21296453900E+04  0.25500000920E-02 0.  1.
    10030    2    1    2    0    0  0.00000000000E+00  0.00000000000E+00 -0.44556545943E+03  0.38137253206E+04  0.37876077203E+04 0.  0.
        4    1    3    3  502    0 -0.68104499535E+03  0.10142884272E+04  0.12342226541E+04  0.17366376916E+04  0.12699999809E+01 0. -1.
       -4    1    3    3    0  502  0.68104499535E+03 -0.10142884272E+04 -0.16797881135E+04  0.20770876290E+04  0.12699999809E+01 0.  1.
</event>
<event>
 5   0  0.1628473E-08  0.3795584E+04  0.7818609E-02  0.8047103E-01
       -1   -1    0    0    0  501  0.00000000000E+00  0.00000000000E+00  0.15688096538E+04  0.15688096538E+04  0.50400001928E-02 0.  1.
        1   -1    0    0  501    0  0.00000000000E+00  0.00000000000E+00 -0.22957622693E+04  0.22957622693E+04  0.50400001928E-02 0. -1.
    10030    2    1    2    0    0  0.00000000000E+00  0.00000000000E+00 -0.72695261544E+03  0.38645719231E+04  0.37955837553E+04 0.  0.
        3    1    3    3  502    0  0.85518559998E+03 -0.23846333813E+03 -0.20712844647E+04  0.22535364470E+04  0.10100000352E+00 0. -1.
       -3    1    3    3    0  502 -0.85518559998E+03  0.23846333813E+03  0.13443318493E+04  0.16110354761E+04  0.10100000352E+00 0.  1.
</event>
<event>
 5   0  0.5159761E-08  0.3799711E+04  0.7818609E-02  0.8046217E-01
        2   -1    0    0  501    0  0.00000000000E+00  0.00000000000E+00  0.22959925151E+04  0.22959925151E+04  0.25500000920E-02 0. -1.
       -2   -1    0    0    0  501  0.00000000000E+00  0.00000000000E+00 -0.15720659970E+04  0.15720659970E+04  0.25500000920E-02 0.  1.
    10030    2    1    2    0    0  0.00000000000E+00  0.00000000000E+00  0.72392651812E+03  0.38680585120E+04  0.37997114429E+04 0.  0.
        5    1    3    3  502    0  0.12839864610E+04 -0.98907365982E+03 -0.64709890429E+03  0.17451782197E+04  0.46999998093E+01 0.  1.
       -5    1    3    3    0  502 -0.12839864610E+04  0.98907365982E+03  0.13710254224E+04  0.21228802923E+04  0.46999998093E+01 0. -1.
</event>
<event>
 5   0  0.1628473E-08  0.3837383E+04  0.7818609E-02  0.8038180E-01
        1   -1    0    0  501    0  0.00000000000E+00  0.00000000000E+00  0.16735663704E+04  0.16735663704E+04  0.50400001928E-02 0. -1.
       -1   -1    0    0    0  501  0.00000000000E+00  0.00000000000E+00 -0.21997198710E+04  0.21997198710E+04  0.50400001928E-02 0.  1.
    10030    2    1    2    0    0  0.00000000000E+00  0.00000000000E+00 -0.52615350063E+03  0.38732862414E+04  0.38373830668E+04 0.  0.
        3    1    3    3  502    0  0.58913456211E+01 -0.14129310401E+04  0.10471314498E+04  0.17586623085E+04  0.10100000352E+00 0. -1.
       -3    1    3    3    0  502 -0.58913456211E+01  0.14129310401E+04 -0.15732849505E+04  0.21146239329E+04  0.10100000352E+00 0.  1.
</event>
<event>
 5   0  0.5147582E-08  0.3816075E+04  0.7818609E-02  0.8042714E-01
       -2   -1    0    0    0  501  0.00000000000E+00  0.00000000000E+00  0.19746687629E+04  0.19746687629E+04  0.25500000920E-02 0. -1.
        2   -1    0    0  501    0  0.00000000000E+00  0.00000000000E+00 -0.18436542079E+04  0.18436542079E+04  0.25500000920E-02 0.  1.
    10030    2    1    2    0    0  0.00000000000E+00  0.00000000000E+00  0.13101455498E+03  0.38183229708E+04  0.38160746187E+04 0.  0.
        1    1    3    3  502    0 -0.12218582962E+04  0.60501495418E+03  0.14010691799E+04  0.19549873753E+04  0.50400001928E-02 0. -1.
       -1    1    3    3    0  502  0.12218582962E+04 -0.60501495418E+03 -0.12700546249E+04  0.18633355954E+04  0.50400001928E-02 0.  1.
</event>
<event>
 5   0  0.1628473E-08  0.3791791E+04  0.7818609E-02  0.8047919E-01
       -1   -1    0    0    0  501  0.00000000000E+00  0.00000000000E+00  0.12124601811E+04  0.12124601811E+04  0.50400001928E-02 0. -1.
        1   -1    0    0  501    0  0.00000000000E+00  0.00000000000E+00 -0.29645677603E+04  0.29645677603E+04  0.50400001928E-02 0.  1.
    10030    2    1    2    0    0  0.00000000000E+00  0.00000000000E+00 -0.17521075792E+04  0.41770279414E+04  0.37917913253E+04 0.  0.
        3    1    3    3  502    0  0.15984964291E+04  0.70291416440E+03 -0.62703822562E+02  0.17473439662E+04  0.10100000352E+00 0. -1.
       -3    1    3    3    0  502 -0.15984964291E+04 -0.70291416440E+03 -0.16894037566E+04  0.24296839753E+04  0.10100000352E+00 0.  1.
</event>
<event>
 5   0  0.5159761E-08  0.3801605E+04  0.7818609E-02  0.8045810E-01
       -2   -1    0    0    0  501  0.00000000000E+00  0.00000000000E+00  0.11993838642E+04  0.11993838642E+04  0.25500000920E-02 0.  1.
        2   -1    0    0  501    0  0.00000000000E+00  0.00000000000E+00 -0.30124222805E+04  0.30124222805E+04  0.25500000920E-02 0. -1.
    10030    2    1    2    0    0  0.00000000000E+00  0.00000000000E+00 -0.18130384163E+04  0.42118061447E+04  0.38016052795E+04 0.  0.
        5    1    3    3  502    0 -0.26092779467E+03 -0.97167207234E+03 -0.26932318806E+04  0.28750217361E+04  0.46999998093E+01 0. -1.
       -5    1    3    3    0  502  0.26092779467E+03  0.97167207234E+03  0.88019346439E+03  0.13367844086E+04  0.46999998093E+01 0.  1.
</event>
<event>
 5   0  0.5086209E-08  0.3805657E+04  0.7818609E-02  0.8044942E-01
        2   -1    0    0  501    0  0.00000000000E+00  0.00000000000E+00  0.13047096709E+04  0.13047096709E+04  0.25500000920E-02 0. -1.
       -2   -1    0    0    0  501  0.00000000000E+00  0.00000000000E+00 -0.27751430111E+04  0.27751430111E+04  0.25500000920E-02 0.  1.
    10030    2    1    2    0    0  0.00000000000E+00  0.00000000000E+00 -0.14704333403E+04  0.40798526820E+04  0.38056568026E+04 0.  0.
        3    1    3    3  502    0  0.17536297575E+04  0.30179603838E+03 -0.14579225912E+04  0.23003991974E+04  0.10100000352E+00 0. -1.
       -3    1    3    3    0  502 -0.17536297575E+04 -0.30179603838E+03 -0.12510749029E+02  0.17794534847E+04  0.10100000352E+00 0.  1.
</event>
<event>
 5   0  0.5086209E-08  0.3780829E+04  0.7818609E-02  0.8050281E-01
       -2   -1    0    0    0  501  0.00000000000E+00  0.00000000000E+00  0.18424517756E+04  0.18424517756E+04  0.25500000920E-02 0. -1.
        2   -1    0    0  501    0  0.00000000000E+00  0.00000000000E+00 -0.19396260658E+04  0.19396260658E+04  0.25500000920E-02 0.  1.
    10030    2    1    2    0    0  0.00000000000E+00  0.00000000000E+00 -0.97174290191E+02  0.37820778414E+04  0.37808292683E+04 0.  0.
        3    1    3    3  502    0  0.91809590005E+01 -0.86694356603E+03  0.16318461941E+04  0.18478629408E+04  0.10100000352E+00 0. -1.
       -3    1    3    3    0  502 -0.91809590005E+01  0.86694356603E+03 -0.17290204843E+04  0.19342149006E+04  0.10100000352E+00 0.  1.
</event>
<event>
 5   0  0.1628250E-08  0.3798566E+04  0.7818609E-02  0.8046463E-01
        1   -1    0    0  501    0  0.00000000000E+00  0.00000000000E+00  0.28006908322E+04  0.28006908322E+04  0.50400001928E-02 0. -1.
       -1   -1    0    0    0  501  0.00000000000E+00  0.00000000000E+00 -0.12879948480E+04  0.12879948480E+04  0.50400001928E-02 0.  1.
    10030    2    1    2    0    0  0.00000000000E+00  0.00000000000E+00  0.15126959842E+04  0.40886856801E+04  0.37985657096E+04 0.  0.
        1    1    3    3  502    0  0.39751640995E+03  0.85362324530E+03 -0.10190474696E+04  0.13874976347E+04  0.50400001928E-02 0.  1.
       -1    1    3    3    0  502 -0.39751640995E+03 -0.85362324530E+03  0.25317434537E+04  0.27011880454E+04  0.50400001928E-02 0. -1.
</event>
<event>
 5   0  0.1628250E-08  0.3797057E+04  0.7818609E-02  0.8046787E-01
        1   -1    0    0  501    0  0.00000000000E+00  0.00000000000E+00  0.21969374244E+04  0.21969374244E+04  0.50400001928E-02 0. -1.
       -1   -1    0    0    0  501  0.00000000000E+00  0.00000000000E+00 -0.16406522398E+04  0.16406522398E+04  0.50400001928E-02 0.  1.
    10030    2    1    2    0    0  0.00000000000E+00  0.00000000000E+00  0.55628518463E+03  0.38375896641E+04  0.37970569160E+04 0.  0.
        4    1    3    3  502    0  0.13505978990E+02  0.36461631998E+03  0.21611686423E+04  0.21917524918E+04  0.12699999809E+01 0. -1.
       -4    1    3    3    0  502 -0.13505978990E+02 -0.36461631998E+03 -0.16048834576E+04  0.16458371723E+04  0.12699999809E+01 0.  1.
</event>
<event>
 5   0  0.1628250E-08  0.3803901E+04  0.7818609E-02  0.8045318E-01
        1   -1    0    0  501    0  0.00000000000E+00  0.00000000000E+00  0.29002141642E+04  0.29002141642E+04  0.50400001928E-02 0.  1.
       -1   -1    0    0    0  501  0.00000000000E+00  0.00000000000E+00 -0.12472925099E+04  0.12472925099E+04  0.50400001928E-02 0. -1.
    10030    2    1    2    0    0  0.00000000000E+00  0.00000000000E+00  0.16529216543E+04  0.41475066741E+04  0.38039008421E+04 0.  0.
        1    1    3    3  502    0 -0.89511020808E+03  0.12068577186E+04 -0.44492530266E+03  0.15670629734E+04  0.50400001928E-02 0. -1.
       -1    1    3    3    0  502  0.89511020808E+03 -0.12068577186E+04  0.20978469569E+04  0.25804437007E+04  0.50400001928E-02 0.  1.
</event>
<event>
 5   0  0.1628250E-08  0.3796358E+04  0.7818609E-02  0.8046937E-01
        1   -1    0    0  501    0  0.00000000000E+00  0.00000000000E+00  0.19923165627E+04  0.19923165627E+04  0.50400001928E-02 0.  1.
       -1   -1    0    0    0  501  0.00000000000E+00  0.00000000000E+00 -0.18084898318E+04  0.18084898318E+04  0.50400001928E-02 0. -1.
    10030    2    1    2    0    0  0.00000000000E+00  0.00000000000E+00  0.18382673091E+03  0.38008063945E+04  0.37963583843E+04 0.  0.
        5    1    3    3  502    0  0.15580956336E+03 -0.12093474401E+04 -0.13645296508E+04  0.18299620512E+04  0.46999998093E+01 0. -1.
       -5    1    3    3    0  502 -0.15580956336E+03  0.12093474401E+04  0.15483563817E+04  0.19708443433E+04  0.46999998093E+01 0.  1.
</event>
<event>
 5   0  0.1628250E-08  0.3795427E+04  0.7818609E-02  0.8047137E-01
       -1   -1    0    0    0  501  0.00000000000E+00  0.00000000000E+00  0.25953183957E+04  0.25953183957E+04  0.50400001928E-02 0. -1.
        1   -1    0    0  501    0  0.00000000000E+00  0.00000000000E+00 -0.13876205176E+04  0.13876205177E+04  0.50400001928E-02 0.  1.
    10030    2    1    2    0    0  0.00000000000E+00  0.00000000000E+00  0.12076978780E+04  0.39829389133E+04  0.37954272780E+04 0.  0.
        4    1    3    3  502    0  0.65533934187E+03  0.77123640162E+03  0.22884752057E+04  0.25022780861E+04  0.12699999809E+01 0. -1.
       -4    1    3    3    0  502 -0.65533934187E+03 -0.77123640162E+03 -0.10807773277E+04  0.14806608272E+04  0.12699999809E+01 0.  1.
</event>
<event>
 5   0  0.1666051E-08  0.3690209E+04  0.7818609E-02  0.8070135E-01
        1   -1    0    0  501    0  0.00000000000E+00  0.00000000000E+00  0.14132955625E+04  0.14132955625E+04  0.50400001928E-02 0. -1.
       -1   -1    0    0    0  501  0.00000000000E+00  0.00000000000E+00 -0.24088459396E+04  0.24088459396E+04  0.50400001928E-02 0.  1.
    10030    2    1    2    0    0  0.00000000000E+00  0.00000000000E+00 -0.99555037711E+03  0.38221415021E+04  0.36902093583E+04 0.  0.
        2    1    3    3  502    0  0.99809183254E+03 -0.12210933841E+04  0.49414585775E+03  0.16527058079E+04  0.25500000920E-02 0. -1.
       -2    1    3    3    0  502 -0.99809183254E+03  0.12210933841E+04 -0.14896962349E+04  0.21694356941E+04  0.25500000920E-02 0.  1.
</event>
<event>
 5   0  0.5140842E-08  0.3798400E+04  0.7818609E-02  0.8046498E-01
        2   -1    0    0  501    0  0.00000000000E+00  0.00000000000E+00  0.20362528185E+04  0.20362528185E+04  0.25500000920E-02 0.  1.
       -2   -1    0    0    0  501  0.00000000000E+00  0.00000000000E+00 -0.17713721253E+04  0.17713721253E+04  0.25500000920E-02 0. -1.
    10030    2    1    2    0    0  0.00000000000E+00  0.00000000000E+00  0.26488069320E+03  0.38076249438E+04  0.37984004438E+04 0.  0.
        2    1    3    3  502    0  0.78016663881E+03  0.43764317053E+03  0.18118506937E+04  0.20206420923E+04  0.25500000920E-02 0.  1.
       -2    1    3    3    0  502 -0.78016663881E+03 -0.43764317053E+03 -0.15469700005E+04  0.17869828515E+04  0.25500000920E-02 0. -1.
</event>
<event>
 5   0  0.1628250E-08  0.3813882E+04  0.7818609E-02  0.8043182E-01
       -1   -1    0    0    0  501  0.00000000000E+00  0.00000000000E+00  0.19963670536E+04  0.19963670536E+04  0.50400001928E-02 0.  1.
        1   -1    0    0  501    0  0.00000000000E+00  0.00000000000E+00 -0.18215207326E+04  0.18215207326E+04  0.50400001928E-02 0. -1.
    10030    2    1    2    0    0  0.00000000000E+00  0.00000000000E+00  0.17484632099E+03  0.38178877862E+04  0.38138820002E+04 0.  0.
        5    1    3    3  502    0 -0.30213769008E+01  0.75826040535E+03 -0.16641099530E+04  0.18287296128E+04  0.46999998093E+01 0. -1.
       -5    1    3    3    0  502  0.30213769008E+01 -0.75826040535E+03  0.18389562740E+04  0.19891581734E+04  0.46999998093E+01 0.  1.
</event>
<event>
 5   0  0.1628473E-08  0.3800980E+04  0.7818609E-02  0.8045945E-01
        1   -1    0    0  501    0  0.00000000000E+00  0.00000000000E+00  0.22772807521E+04  0.22772807521E+04  0.50400001928E-02 0. -1.
       -1   -1    0    0    0  501  0.00000000000E+00  0.00000000000E+00 -0.15860415750E+04  0.15860415750E+04  0.50400001928E-02 0.  1.
    10030    2    1    2    0    0  0.00000000000E+00  0.00000000000E+00  0.69123917707E+03  0.38633223270E+04  0.38009798477E+04 0.  0.
        3    1    3    3  502    0  0.12326994371E+03  0.18498566718E+04 -0.79203190929E+02  0.18556503822E+04  0.10100000352E+00 0.  1.
       -3    1    3    3    0  502 -0.12326994371E+03 -0.18498566718E+04  0.77044236800E+03  0.20076719448E+04  0.10100000352E+00 0. -1.
</event>
<event>
 5   0  0.5140842E-08  0.3801007E+04  0.7818609E-02  0.8045939E-01
        2   -1    0    0  501    0  0.00000000000E+00  0.00000000000E+00  0.21153662155E+04  0.21153662155E+04  0.25500000920E-02 0.  1.
       -2   -1    0    0    0  501  0.00000000000E+00  0.00000000000E+00 -0.17074652247E+04  0.17074652247E+04  0.25500000920E-02 0. -1.
    10030    2    1    2    0    0  0.00000000000E+00  0.00000000000E+00  0.40790099085E+03  0.38228314402E+04  0.38010073667E+04 0.  0.
        2    1    3    3  502    0  0.22144025358E+03 -0.18775956897E+04  0.39874500050E+03  0.19322005423E+04  0.25500000920E-02 0.  1.
       -2    1    3    3    0  502 -0.22144025358E+03  0.18775956897E+04  0.91559903522E+01  0.18906308979E+04  0.25500000920E-02 0. -1.
</event>
<event>
 5   0  0.1666051E-08  0.3805672E+04  0.7818609E-02  0.8044939E-01
        1   -1    0    0  501    0  0.00000000000E+00  0.00000000000E+00  0.17692383501E+04  0.17692383501E+04  0.50400001928E-02 0.  1.
       -1   -1    0    0    0  501  0.00000000000E+00  0.00000000000E+00 -0.20465218852E+04  0.20465218852E+04  0.50400001928E-02 0. -1.
    10030    2    1    2    0    0  0.00000000000E+00  0.00000000000E+00 -0.27728353512E+03  0.38157602352E+04  0.38056720844E+04 0.  0.
        2    1    3    3  502    0 -0.11048836468E+04  0.59894557108E+03  0.12938797209E+04  0.18037816948E+04  0.25500000920E-02 0.  1.
       -2    1    3    3    0  502  0.11048836468E+04 -0.59894557108E+03 -0.15711632561E+04  0.20119785405E+04  0.25500000920E-02 0. -1.
</event>
<event>
 5   0  0.1628250E-08  0.3797005E+04  0.7818609E-02  0.8046798E-01
        1   -1    0    0  501    0  0.00000000000E+00  0.00000000000E+00  0.23718269248E+04  0.23718269248E+04  0.50400001928E-02 0.  1.
       -1   -1    0    0    0  501  0.00000000000E+00  0.00000000000E+00 -0.15196354891E+04  0.15196354892E+04  0.50400001928E-02 0. -1.
    10030    2    1    2    0    0  0.00000000000E+00  0.00000000000E+00  0.85219143564E+03  0.38914624140E+04  0.37970053300E+04 0.  0.
        5    1    3    3  502    0  0.13781173076E+04 -0.12561826794E+04  0.79145822320E+03  0.20257419497E+04  0.46999998093E+01 0.  1.
       -5    1    3    3    0  502 -0.13781173076E+04  0.12561826794E+04  0.60733212439E+02  0.18657204643E+04  0.46999998093E+01 0. -1.
</event>
<event>
 5   0  0.5147582E-08  0.3795937E+04  0.7818609E-02  0.8047027E-01
       -2   -1    0    0    0  501  0.00000000000E+00  0.00000000000E+00  0.18022591918E+04  0.18022591918E+04  0.25500000920E-02 0.  1.
        2   -1    0    0  501    0  0.00000000000E+00  0.00000000000E+00 -0.19987602794E+04  0.19987602794E+04  0.25500000920E-02 0. -1.
    10030    2    1    2    0    0  0.00000000000E+00  0.00000000000E+00 -0.19650108758E+03  0.38010194712E+04  0.37959368203E+04 0.  0.
        1    1    3    3  502    0 -0.13671358075E+04  0.12493131845E+01 -0.14165322991E+04  0.19686608726E+04  0.50400001928E-02 0. -1.
       -1    1    3    3    0  502  0.13671358075E+04 -0.12493131845E+01  0.12200312115E+04  0.18323585986E+04  0.50400001928E-02 0.  1.
</event>
<event>
 5   0  0.5140842E-08  0.3802445E+04  0.7818609E-02  0.8045630E-01
        2   -1    0    0  501    0  0.00000000000E+00  0.00000000000E+00  0.29465918989E+04  0.29465918989E+04  0.25500000920E-02 0.  1.
       -2   -1    0    0    0  501  0.00000000000E+00  0.00000000000E+00 -0.12267211038E+04  0.12267211038E+04  0.25500000920E-02 0. -1.
    10030    2    1    2    0    0  0.00000000000E+00  0.00000000000E+00  0.17198707951E+04  0.41733130028E+04  0.38024447225E+04 0.  0.
        2    1    3    3  502    0 -0.15308465909E+04 -0.44983244046E+03 -0.27472914088E+03  0.16190480568E+04  0.25500000920E-02 0. -1.
       -2    1    3    3    0  502  0.15308465909E+04  0.44983244046E+03  0.19945999360E+04  0.25542649459E+04  0.25500000920E-02 0.  1.
</event>
<event>
 5   0  0.5207474E-08  0.3796081E+04  0.7818609E-02  0.8046996E-01
        2   -1    0    0  501    0  0.00000000000E+00  0.00000000000E+00  0.24097658703E+04  0.24097658703E+04  0.25500000920E-02 0.  1.
       -2   -1    0    0    0  501  0.00000000000E+00  0.00000000000E+00 -0.14949825701E+04  0.14949825701E+04  0.25500000920E-02 0. -1.
    10030    2    1    2    0    0  0.00000000000E+00  0.00000000000E+00  0.91478330016E+03  0.39047484404E+04  0.37960811235E+04 0.  0.
        4    1    3    3  502    0  0.15605561707E+04  0.33099261598E+03  0.15152598874E+04  0.22002058570E+04  0.12699999809E+01 0.  1.
       -4    1    3    3    0  502 -0.15605561707E+04 -0.33099261598E+03 -0.60047658727E+03  0.17045425834E+04  0.12699999809E+01 0. -1.
</event>
<event>
 5   0  0.5159761E-08  0.3809391E+04  0.7818609E-02  0.8044143E-01
       -2   -1    0    0    0  501  0.00000000000E+00  0.00000000000E+00  0.17276150014E+04  0.17276150014E+04  0.25500000920E-02 0.  1.
        2   -1    0    0  501    0  0.00000000000E+00  0.00000000000E+00 -0.20999272628E+04  0.20999272628E+04  0.25500000920E-02 0. -1.
    10030    2    1    2    0    0  0.00000000000E+00  0.00000000000E+00 -0.37231226137E+03  0.38275422642E+04  0.38093914691E+04 0.  0.
        5    1    3    3  502    0 -0.12174882764E+04 -0.13557319809E+04  0.37106437221E+03  0.18595692419E+04  0.46999998093E+01 0.  1.
       -5    1    3    3    0  502  0.12174882764E+04  0.13557319809E+04 -0.74337663358E+03  0.19679730223E+04  0.46999998093E+01 0. -1.
</event>
<event>
 5   0  0.5207474E-08  0.3799531E+04  0.7818609E-02  0.8046256E-01
        2   -1    0    0  501    0  0.00000000000E+00  0.00000000000E+00  0.12821744780E+04  0.12821744780E+04  0.25500000920E-02 0. -1.
       -2   -1    0    0    0  501  0.00000000000E+00  0.00000000000E+00 -0.28148342760E+04  0.28148342760E+04  0.25500000920E-02 0.  1.
    10030    2    1    2    0    0  0.00000000000E+00  0.00000000000E+00 -0.15326597980E+04  0.40970087540E+04  0.37995308492E+04 0.  0.
        4    1    3    3  502    0  0.16169822240E+04 -0.12957787862E+03 -0.18325243521E+04  0.24473596085E+04  0.12699999809E+01 0.  1.
       -4    1    3    3    0  502 -0.16169822240E+04  0.12957787862E+03  0.29986455416E+03  0.16496491455E+04  0.12699999809E+01 0. -1.
</event>
<event>
 5   0  0.5147582E-08  0.3794163E+04  0.7818609E-02  0.8047409E-01
        2   -1    0    0  501    0  0.00000000000E+00  0.00000000000E+00  0.20641006372E+04  0.20641006372E+04  0.25500000920E-02 0.  1.
       -2   -1    0    0    0  501  0.00000000000E+00  0.00000000000E+00 -0.17435768887E+04  0.17435768887E+04  0.25500000920E-02 0. -1.
    10030    2    1    2    0    0  0.00000000000E+00  0.00000000000E+00  0.32052374856E+03  0.38076775259E+04  0.37941629733E+04 0.  0.
        1    1    3    3  502    0  0.94201391559E+03 -0.26137229281E+03 -0.14713250523E+04  0.17664945803E+04  0.50400001928E-02 0. -1.
       -1    1    3    3    0  502 -0.94201391559E+03  0.26137229281E+03  0.17918488008E+04  0.20411829457E+04  0.50400001928E-02 0.  1.
</event>
<event>
 5   0  0.1628250E-08  0.3790111E+04  0.7818609E-02  0.8048280E-01
       -1   -1    0    0    0  501  0.00000000000E+00  0.00000000000E+00  0.15402227023E+04  0.15402227023E+04  0.50400001928E-02 0. -1.
        1   -1    0    0  501    0  0.00000000000E+00  0.00000000000E+00 -0.23316336147E+04  0.23316336147E+04  0.50400001928E-02 0.  1.
    10030    2    1    2    0    0  0.00000000000E+00  0.00000000000E+00 -0.79141091240E+03  0.38718563169E+04  0.37901108304E+04 0.  0.
        4    1    3    3  502    0  0.17238562949E+04  0.54219882760E+03 -0.97860233063E+03  0.20550728037E+04  0.12699999809E+01 0.  1.
       -4    1    3    3    0  502 -0.17238562949E+04 -0.54219882760E+03  0.18719141823E+03  0.18167835132E+04  0.12699999809E+01 0. -1.
</event>
<event>
 5   0  0.5140842E-08  0.3804972E+04  0.7818609E-02  0.8045089E-01
       -2   -1    0    0    0  501  0.00000000000E+00  0.00000000000E+00  0.12602513213E+04  0.12602513213E+04  0.25500000920E-02 0.  1.
        2   -1    0    0  501    0  0.00000000000E+00  0.00000000000E+00 -0.28720087942E+04  0.28720087942E+04  0.25500000920E-02 0. -1.
    10030    2    1    2    0    0  0.00000000000E+00  0.00000000000E+00 -0.16117574729E+04  0.41322601155E+04  0.38049719462E+04 0.  0.
        2    1    3    3  502    0  0.17714524941E+04 -0.43999358346E+03 -0.13885083995E+04  0.22933804455E+04  0.25500000920E-02 0. -1.
       -2    1    3    3    0  502 -0.17714524941E+04  0.43999358346E+03 -0.22324907343E+03  0.18388796701E+04  0.25500000920E-02 0.  1.
</event>
<event>
 5   0  0.5086209E-08  0.3920552E+04  0.7818609E-02  0.8020768E-01
        2   -1    0    0  501    0  0.00000000000E+00  0.00000000000E+00  0.22091830460E+04  0.22091830460E+04  0.25500000920E-02 0. -1.
       -2   -1    0    0    0  501  0.00000000000E+00  0.00000000000E+00 -0.17394128140E+04  0.17394128140E+04  0.25500000920E-02 0.  1.
    10030    2    1    2    0    0  0.00000000000E+00  0.00000000000E+00  0.46977023198E+03  0.39485958601E+04  0.39205516443E+04 0.  0.
        3    1    3    3  502    0 -0.83794464386E+03  0.13569841550E+04  0.13828294286E+04  0.21108705460E+04  0.10100000352E+00 0.  1.
       -3    1    3    3    0  502  0.83794464386E+03 -0.13569841550E+04 -0.91305919661E+03  0.18377253141E+04  0.10100000352E+00 0. -1.
</event>
<event>
 5   0  0.5159761E-08  0.3802199E+04  0.7818609E-02  0.8045683E-01
       -2   -1    0    0    0  501  0.00000000000E+00  0.00000000000E+00  0.24989952308E+04  0.24989952308E+04  0.25500000920E-02 0.  1.
        2   -1    0    0  501    0  0.00000000000E+00  0.00000000000E+00 -0.14462528406E+04  0.14462528406E+04  0.25500000920E-02 0. -1.
    10030    2    1    2    0    0  0.00000000000E+00  0.00000000000E+00  0.10527423902E+04  0.39452480714E+04  0.38021988118E+04 0.  0.
        5    1    3    3  502    0 -0.14698587433E+04 -0.77386967608E+03  0.14857082233E+04  0.22286116790E+04  0.46999998093E+01 0.  1.
       -5    1    3    3    0  502  0.14698587433E+04  0.77386967608E+03 -0.43296583315E+03  0.17166363924E+04  0.46999998093E+01 0. -1.
</event>
<event>
 5   0  0.5147582E-08  0.3799813E+04  0.7818609E-02  0.8046195E-01
        2   -1    0    0  501    0  0.00000000000E+00  0.00000000000E+00  0.14006848469E+04  0.14006848469E+04  0.25500000920E-02 0.  1.
       -2   -1    0    0    0  501  0.00000000000E+00  0.00000000000E+00 -0.25770566533E+04  0.25770566533E+04  0.25500000920E-02 0. -1.
    10030    2    1    2    0    0  0.00000000000E+00  0.00000000000E+00 -0.11763718064E+04  0.39777415003E+04  0.37998127344E+04 0.  0.
        1    1    3    3  502    0  0.14533271264E+04  0.39752937703E+03  0.62335590103E+03  0.16305710415E+04  0.50400001928E-02 0.  1.
       -1    1    3    3    0  502 -0.14533271264E+04 -0.39752937703E+03 -0.17997277074E+04  0.23471704588E+04  0.50400001928E-02 0. -1.
</event>
<event>
 5   0  0.1628250E-08  0.3801354E+04  0.7818609E-02  0.8045864E-01
        1   -1    0    0  501    0  0.00000000000E+00  0.00000000000E+00  0.20950371366E+04  0.20950371366E+04  0.50400001928E-02 0.  1.
       -1   -1    0    0    0  501  0.00000000000E+00  0.00000000000E+00 -0.17243475404E+04  0.17243475404E+04  0.50400001928E-02 0. -1.
    10030    2    1    2    0    0  0.00000000000E+00  0.00000000000E+00  0.37068959619E+03  0.38193846770E+04  0.38013535134E+04 0.  0.
        1    1    3    3  502    0  0.14163081561E+04  0.11627404643E+04  0.69239483358E+03  0.19589039757E+04  0.50400001928E-02 0.  1.
       -1    1    3    3    0  502 -0.14163081561E+04 -0.11627404643E+04 -0.32170523739E+03  0.18604807013E+04  0.50400001928E-02 0. -1.
</event>
<event>
 5   0  0.5140842E-08  0.3800521E+04  0.7818609E-02  0.8046043E-01
       -2   -1    0    0    0  501  0.00000000000E+00  0.00000000000E+00  0.18268977885E+04  0.18268977885E+04  0.25500000920E-02 0.  1.
        2   -1    0    0  501    0  0.00000000000E+00  0.00000000000E+00 -0.19765688485E+04  0.19765688485E+04  0.25500000920E-02 0. -1.
    10030    2    1    2    0    0  0.00000000000E+00  0.00000000000E+00 -0.14967106002E+03  0.38034666370E+04  0.38005206266E+04 0.  0.
        2    1    3    3  502    0 -0.56954812900E+02 -0.59004136825E+03  0.17319992620E+04  0.18306321615E+04  0.25500000920E-02 0.  1.
       -2    1    3    3    0  502  0.56954812900E+02  0.59004136825E+03 -0.18816703221E+04  0.19728344755E+04  0.25500000920E-02 0. -1.
</event>
<event>
 5   0  0.1628250E-08  0.3816049E+04  0.7818609E-02  0.8042720E-01
       -1   -1    0    0    0  501  0.00000000000E+00  0.00000000000E+00  0.22651275021E+04  0.22651275021E+04  0.50400001928E-02 0.  1.
        1   -1    0    0  501    0  0.00000000000E+00  0.00000000000E+00 -0.16072195499E+04  0.16072195499E+04  0.50400001928E-02 0. -1.
    10030    2    1    2    0    0  0.00000000000E+00  0.00000000000E+00  0.65790795218E+03  0.38723470520E+04  0.38160488490E+04 0.  0.
        5    1    3    3  502    0 -0.33007667258E+03  0.14660729156E+04 -0.86406706467E+03  0.17334804256E+04  0.46999998093E+01 0. -1.
       -5    1    3    3    0  502  0.33007667258E+03 -0.14660729156E+04  0.15219750168E+04  0.21388666264E+04  0.46999998093E+01 0.  1.
</event>
<event>
 5   0  0.5159761E-08  0.3798233E+04  0.7818609E-02  0.8046534E-01
        2   -1    0    0  501    0  0.00000000000E+00  0.00000000000E+00  0.18171256761E+04  0.18171256761E+04  0.25500000920E-02 0.  1.
       -2   -1    0    0    0  501  0.00000000000E+00  0.00000000000E+00 -0.19848067759E+04  0.19848067759E+04  0.25500000920E-02 0. -1.
    10030    2    1    2    0    0  0.00000000000E+00  0.00000000000E+00 -0.16768109977E+03  0.38019324520E+04  0.37982329337E+04 0.  0.
        5    1    3    3  502    0 -0.16812829714E+03  0.73581557503E+03  0.16605356890E+04  0.18240319486E+04  0.46999998093E+01 0.  1.
       -5    1    3    3    0  502  0.16812829714E+03 -0.73581557503E+03 -0.18282167888E+04  0.19779005035E+04  0.46999998093E+01 0. -1.
</event>
<event>
 5   0  0.1628250E-08  0.3794691E+04  0.7818609E-02  0.8047295E-01
       -1   -1    0    0    0  501  0.00000000000E+00  0.00000000000E+00  0.13640467158E+04  0.13640467158E+04  0.50400001928E-02 0. -1.
        1   -1    0    0  501    0  0.00000000000E+00  0.00000000000E+00 -0.26391466174E+04  0.26391466174E+04  0.50400001928E-02 0.  1.
    10030    2    1    2    0    0  0.00000000000E+00  0.00000000000E+00 -0.12750999016E+04  0.40031933333E+04  0.37946906468E+04 0.  0.
        4    1    3    3  502    0  0.18202854417E+04 -0.51686352786E+03 -0.78422411295E+03  0.20483154219E+04  0.12699999809E+01 0.  1.
       -4    1    3    3    0  502 -0.18202854417E+04  0.51686352786E+03 -0.49087578865E+03  0.19548779114E+04  0.12699999809E+01 0. -1.
</event>
<event>
 5   0  0.5207474E-08  0.3781320E+04  0.7818609E-02  0.8050176E-01
        2   -1    0    0  501    0  0.00000000000E+00  0.00000000000E+00  0.25469967903E+04  0.25469967903E+04  0.25500000920E-02 0. -1.
       -2   -1    0    0    0  501  0.00000000000E+00  0.00000000000E+00 -0.14034548218E+04  0.14034548218E+04  0.25500000920E-02 0.  1.
    10030    2    1    2    0    0  0.00000000000E+00  0.00000000000E+00  0.11435419685E+04  0.39504516121E+04  0.37813198365E+04 0.  0.
        4    1    3    3  502    0  0.18196778941E+04  0.50415937663E+03  0.47162410551E+03  0.19462361689E+04  0.12699999809E+01 0.  1.
       -4    1    3    3    0  502 -0.18196778941E+04 -0.50415937663E+03  0.67191786302E+03  0.20042154432E+04  0.12699999809E+01 0. -1.
</event>
<event>
 5   0  0.1628250E-08  0.3802851E+04  0.7818609E-02  0.8045543E-01
        1   -1    0    0  501    0  0.00000000000E+00  0.00000000000E+00  0.20066680048E+04  0.20066680048E+04  0.50400001928E-02 0. -1.
       -1   -1    0    0    0  501  0.00000000000E+00  0.00000000000E+00 -0.18017029244E+04  0.18017029244E+04  0.50400001928E-02 0.  1.
    10030    2    1    2    0    0  0.00000000000E+00  0.00000000000E+00  0.20496508039E+03  0.38083709292E+04  0.38028513579E+04 0.  0.
        1    1    3    3  502    0  0.75139966493E+03 -0.50243232778E+03 -0.15727813526E+04  0.18140233967E+04  0.50400001928E-02 0.  1.
       -1    1    3    3    0  502 -0.75139966493E+03  0.50243232778E+03  0.17777464330E+04  0.19943475326E+04  0.50400001928E-02 0. -1.
</event>
<event>
 5   0  0.5147582E-08  0.3785088E+04  0.7818609E-02  0.8049363E-01
       -2   -1    0    0    0  501  0.00000000000E+00  0.00000000000E+00  0.16736384701E+04  0.16736384701E+04  0.25500000920E-02 0.  1.
        2   -1    0    0  501    0  0.00000000000E+00  0.00000000000E+00 -0.21400812471E+04  0.21400812471E+04  0.25500000920E-02 0. -1.
    10030    2    1    2    0    0  0.00000000000E+00  0.00000000000E+00 -0.46644277700E+03  0.38137197171E+04  0.37850877423E+04 0.  0.
        1    1    3    3  502    0  0.58126335368E+00 -0.10676490287E+04  0.13412402775E+04  0.17142929354E+04  0.50400001928E-02 0.  1.
       -1    1    3    3    0  502 -0.58126335368E+00  0.10676490287E+04 -0.18076830545E+04  0.20994267817E+04  0.50400001928E-02 0. -1.
</event>
<event>
 5   0  0.1628250E-08  0.3801792E+04  0.7818609E-02  0.8045771E-01
        1   -1    0    0  501    0  0.00000000000E+00  0.00000000000E+00  0.14482958505E+04  0.14482958506E+04  0.50400001928E-02 0.  1.
       -1   -1    0    0    0  501  0.00000000000E+00  0.00000000000E+00 -0.24949356754E+04  0.24949356754E+04  0.50400001928E-02 0. -1.
    10030    2    1    2    0    0  0.00000000000E+00  0.00000000000E+00 -0.10466398249E+04  0.39432315260E+04  0.38017916756E+04 0.  0.
        4    1    3    3  502    0 -0.43994685110E+03  0.17900195767E+04 -0.10050113828E+04  0.20994696495E+04  0.12699999809E+01 0. -1.
       -4    1    3    3    0  502  0.43994685110E+03 -0.17900195767E+04 -0.41628442047E+02  0.18437618764E+04  0.12699999809E+01 0.  1.
</event>
<event>
 5   0  0.5086209E-08  0.3799786E+04  0.7818609E-02  0.8046201E-01
        2   -1    0    0  501    0  0.00000000000E+00  0.00000000000E+00  0.19775981452E+04  0.19775981452E+04  0.25500000920E-02 0.  1.
       -2   -1    0    0    0  501  0.00000000000E+00  0.00000000000E+00 -0.18252407882E+04  0.18252407882E+04  0.25500000920E-02 0. -1.
    10030    2    1    2    0    0  0.00000000000E+00  0.00000000000E+00  0.15235735700E+03  0.38028389334E+04  0.37997856768E+04 0.  0.
        3    1    3    3  502    0  0.13707531509E+04  0.11596072962E+04  0.69791816185E+03  0.19263289057E+04  0.10100000352E+00 0. -1.
       -3    1    3    3    0  502 -0.13707531509E+04 -0.11596072962E+04 -0.54556080485E+03  0.18765100277E+04  0.10100000352E+00 0.  1.
</event>
<event>
 5   0  0.1628473E-08  0.3799376E+04  0.7818609E-02  0.8046289E-01
       -1   -1    0    0    0  501  0.00000000000E+00  0.00000000000E+00  0.12896360764E+04  0.12896360764E+04  0.50400001928E-02 0.  1.
        1   -1    0    0  501    0  0.00000000000E+00  0.00000000000E+00 -0.27983206487E+04  0.27983206487E+04  0.50400001928E-02 0. -1.
    10030    2    1    2    0    0  0.00000000000E+00  0.00000000000E+00 -0.15086845723E+04  0.40879567251E+04  0.37993764025E+04 0.  0.
        3    1    3    3  502    0  0.58933586810E+03 -0.17873747227E+04 -0.10324096205E+04  0.21466007545E+04  0.10100000352E+00 0. -1.
       -3    1    3    3    0  502 -0.58933586810E+03  0.17873747227E+04 -0.47627495181E+03  0.19413559706E+04  0.10100000352E+00 0.  1.
</event>
<event>
 5   0  0.5147582E-08  0.3799525E+04  0.7818609E-02  0.8046257E-01
        2   -1    0    0  501    0  0.00000000000E+00  0.00000000000E+00  0.25518723673E+04  0.25518723673E+04  0.25500000920E-02 0. -1.
       -2   -1    0    0    0  501  0.00000000000E+00  0.00000000000E+00 -0.14142937468E+04  0.14142937468E+04  0.25500000920E-02 0.  1.
    10030    2    1    2    0    0  0.00000000000E+00  0.00000000000E+00  0.11375786205E+04  0.39661661142E+04  0.37995247765E+04 0.  0.
        1    1    3    3  502    0  0.13250184057E+04 -0.65915893936E+03 -0.67464412274E+03  0.16264405846E+04  0.50400001928E-02 0.  1.
       -1    1    3    3    0  502 -0.13250184057E+04  0.65915893936E+03  0.18122227432E+04  0.23397255296E+04  0.50400001928E-02 0. -1.
</event>
<event>
 5   0  0.1628250E-08  0.3801630E+04  0.7818609E-02  0.8045805E-01
       -1   -1    0    0    0  501  0.00000000000E+00  0.00000000000E+00  0.20570249029E+04  0.20570249029E+04  0.50400001928E-02 0. -1.
        1   -1    0    0  501    0  0.00000000000E+00  0.00000000000E+00 -0.17564674628E+04  0.17564674628E+04  0.50400001928E-02 0.  1.
    10030    2    1    2    0    0  0.00000000000E+00  0.00000000000E+00  0.30055744017E+03  0.38134923657E+04  0.38016298148E+04 0.  0.
        4    1    3    3  502    0 -0.91070445002E+03 -0.12207585029E+04 -0.99057472136E+03  0.18168307046E+04  0.12699999809E+01 0.  1.
       -4    1    3    3    0  502  0.91070445002E+03  0.12207585029E+04  0.12911321615E+04  0.19966616611E+04  0.12699999809E+01 0. -1.
</event>
<event>
 5   0  0.5086209E-08  0.3800160E+04  0.7818609E-02  0.8046121E-01
       -2   -1    0    0    0  501  0.00000000000E+00  0.00000000000E+00  0.17289870766E+04  0.17289870766E+04  0.25500000920E-02 0.  1.
        2   -1    0    0  501    0  0.00000000000E+00  0.00000000000E+00 -0.20881034911E+04  0.20881034911E+04  0.25500000920E-02 0. -1.
    10030    2    1    2    0    0  0.00000000000E+00  0.00000000000E+00 -0.35911641450E+03  0.38170905678E+04  0.38001599707E+04 0.  0.
        3    1    3    3  502    0 -0.68204815310E+03 -0.17472104211E+04 -0.48483659682E+03  0.19372662374E+04  0.10100000352E+00 0. -1.
       -3    1    3    3    0  502  0.68204815310E+03  0.17472104211E+04  0.12572018232E+03  0.18798243304E+04  0.10100000352E+00 0.  1.
</event>
<event>
 5   0  0.1628250E-08  0.3796765E+04  0.7818609E-02  0.8046850E-01
        1   -1    0    0  501    0  0.00000000000E+00  0.00000000000E+00  0.19418096278E+04  0.19418096278E+04  0.50400001928E-02 0.  1.
       -1   -1    0    0    0  501  0.00000000000E+00  0.00000000000E+00 -0.18559263657E+04  0.18559263657E+04  0.50400001928E-02 0. -1.
    10030    2    1    2    0    0  0.00000000000E+00  0.00000000000E+00  0.85883262052E+02  0.37977359935E+04  0.37967647730E+04 0.  0.
        4    1    3    3  502    0 -0.13252504720E+04  0.71891827487E+03 -0.11109225997E+04  0.18727741281E+04  0.12699999809E+01 0. -1.
       -4    1    3    3    0  502  0.13252504720E+04 -0.71891827487E+03  0.11968058618E+04  0.19249618654E+04  0.12699999809E+01 0.  1.
</event>
<event>
 5   0  0.1628250E-08  0.3797349E+04  0.7818609E-02  0.8046724E-01
       -1   -1    0    0    0  501  0.00000000000E+00  0.00000000000E+00  0.17475934023E+04  0.17475934023E+04  0.50400001928E-02 0. -1.
        1   -1    0    0  501    0  0.00000000000E+00  0.00000000000E+00 -0.20628168671E+04  0.20628168671E+04  0.50400001928E-02 0.  1.
    10030    2    1    2    0    0  0.00000000000E+00  0.00000000000E+00 -0.31522346478E+03  0.38104102694E+04  0.37973491528E+04 0.  0.
        4    1    3    3  502    0 -0.31989672902E+03  0.24516895259E+03 -0.20193968647E+04  0.20592248645E+04  0.12699999809E+01 0.  1.
       -4    1    3    3    0  502  0.31989672902E+03 -0.24516895259E+03  0.17041733999E+04  0.17511854049E+04  0.12699999809E+01 0. -1.
</event>
<event>
 5   0  0.1628250E-08  0.3754625E+04  0.7818609E-02  0.8055963E-01
        1   -1    0    0  501    0  0.00000000000E+00  0.00000000000E+00  0.16540931281E+04  0.16540931281E+04  0.50400001928E-02 0.  1.
       -1   -1    0    0    0  501  0.00000000000E+00  0.00000000000E+00 -0.21306557090E+04  0.21306557090E+04  0.50400001928E-02 0. -1.
    10030    2    1    2    0    0  0.00000000000E+00  0.00000000000E+00 -0.47656258087E+03  0.37847488371E+04  0.37546253963E+04 0.  0.
        5    1    3    3  502    0 -0.52635423285E+03 -0.42319162839E+03  0.15273828789E+04  0.16700480477E+04  0.46999998093E+01 0.  1.
       -5    1    3    3    0  502  0.52635423285E+03  0.42319162839E+03 -0.20039454598E+04  0.21147007894E+04  0.46999998093E+01 0. -1.
</event>
<event>
 5   0  0.5140842E-08  0.3754487E+04  0.7818609E-02  0.8055993E-01
        2   -1    0    0  501    0  0.00000000000E+00  0.00000000000E+00  0.21092414226E+04  0.21092414226E+04  0.25500000920E-02 0. -1.
       -2   -1    0    0    0  501  0.00000000000E+00  0.00000000000E+00 -0.16707634301E+04  0.16707634301E+04  0.25500000920E-02 0.  1.
    10030    2    1    2    0    0  0.00000000000E+00  0.00000000000E+00  0.43847799249E+03  0.37800048528E+04  0.37544871470E+04 0.  0.
        2    1    3    3  502    0 -0.13625881780E+04 -0.13572758721E+03  0.15120908419E+04  0.20399723613E+04  0.25500000920E-02 0. -1.
       -2    1    3    3    0  502  0.13625881780E+04  0.13572758721E+03 -0.10736128494E+04  0.17400324914E+04  0.25500000920E-02 0.  1.
</event>
<event>
 5   0  0.5207474E-08  0.3805285E+04  0.7818609E-02  0.8045022E-01
       -2   -1    0    0    0  501  0.00000000000E+00  0.00000000000E+00  0.11610704689E+04  0.11610704689E+04  0.25500000920E-02 0. -1.
        2   -1    0    0  501    0  0.00000000000E+00  0.00000000000E+00 -0.31178536571E+04  0.31178536571E+04  0.25500000920E-02 0.  1.
    10030    2    1    2    0    0  0.00000000000E+00  0.00000000000E+00 -0.19567831882E+04  0.42789241260E+04  0.38052846451E+04 0.  0.
        4    1    3    3  502    0  0.22249022813E+03 -0.24501575367E+03 -0.30852368642E+04  0.31029377600E+04  0.12699999809E+01 0.  1.
       -4    1    3    3    0  502 -0.22249022813E+03  0.24501575367E+03  0.11284536760E+04  0.11759863660E+04  0.12699999809E+01 0. -1.
</event>
<event>
 5   0  0.5159761E-08  0.3798395E+04  0.7818609E-02  0.8046499E-01
        2   -1    0    0  501    0  0.00000000000E+00  0.00000000000E+00  0.24332172603E+04  0.24332172603E+04  0.25500000920E-02 0. -1.
       -2   -1    0    0    0  501  0.00000000000E+00  0.00000000000E+00 -0.14823796272E+04  0.14823796272E+04  0.25500000920E-02 0.  1.
    10030    2    1    2    0    0  0.00000000000E+00  0.00000000000E+00  0.95083763308E+03  0.39155968875E+04  0.37983952902E+04 0.  0.
        5    1    3    3  502    0  0.12991724595E+04 -0.13313665679E+04  0.87004075499E+03  0.20536258235E+04  0.46999998093E+01 0. -1.
       -5    1    3    3    0  502 -0.12991724595E+04  0.13313665679E+04  0.80796878088E+02  0.18619710640E+04  0.46999998093E+01 0.  1.
</event>
<event>
 5   0  0.5159761E-08  0.3796645E+04  0.7818609E-02  0.8046875E-01
        2   -1    0    0  501    0  0.00000000000E+00  0.00000000000E+00  0.21142383079E+04  0.21142383079E+04  0.25500000920E-02 0. -1.
       -2   -1    0    0    0  501  0.00000000000E+00  0.00000000000E+00 -0.17044566445E+04  0.17044566445E+04  0.25500000920E-02 0.  1.
    10030    2    1    2    0    0  0.00000000000E+00  0.00000000000E+00  0.40978166345E+03  0.38186949524E+04  0.37966445880E+04 0.  0.
        5    1    3    3  502    0 -0.10821555732E+04  0.40485206908E+03 -0.13100573345E+04  0.17467793771E+04  0.46999998093E+01 0.  1.
       -5    1    3    3    0  502  0.10821555732E+04 -0.40485206908E+03  0.17198389980E+04  0.20719155753E+04  0.46999998093E+01 0. -1.
</event>
<event>
 5   0  0.1628250E-08  0.3803678E+04  0.7818609E-02  0.8045366E-01
       -1   -1    0    0    0  501  0.00000000000E+00  0.00000000000E+00  0.26019630136E+04  0.26019630136E+04  0.50400001928E-02 0. -1.
        1   -1    0    0  501    0  0.00000000000E+00  0.00000000000E+00 -0.13901011757E+04  0.13901011757E+04  0.50400001928E-02 0.  1.
    10030    2    1    2    0    0  0.00000000000E+00  0.00000000000E+00  0.12118618379E+04  0.39920641893E+04  0.38036781380E+04 0.  0.
        4    1    3    3  502    0  0.14624739404E+04  0.19254244073E+03 -0.65397741324E+03  0.16135645905E+04  0.12699999809E+01 0.  1.
       -4    1    3    3    0  502 -0.14624739404E+04 -0.19254244073E+03  0.18658392511E+04  0.23784995988E+04  0.12699999809E+01 0. -1.
</event>
<event>
 5   0  0.1628250E-08  0.3798549E+04  0.7818609E-02  0.8046466E-01
        1   -1    0    0  501    0  0.00000000000E+00  0.00000000000E+00  0.21084015871E+04  0.21084015872E+04  0.50400001928E-02 0. -1.
       -1   -1    0    0    0  501  0.00000000000E+00  0.00000000000E+00 -0.17108904709E+04  0.17108904709E+04  0.50400001928E-02 0.  1.
    10030    2    1    2    0    0  0.00000000000E+00  0.00000000000E+00  0.39751111629E+03  0.38192920580E+04  0.37985492937E+04 0.  0.
        1    1    3    3  502    0 -0.29784852161E+03  0.42325008554E+03  0.20361341919E+04  0.21008800118E+04  0.50400001928E-02 0. -1.
       -1    1    3    3    0  502  0.29784852161E+03 -0.42325008554E+03 -0.16386230756E+04  0.17184120462E+04  0.50400001928E-02 0.  1.
</event>
<event>
 5   0  0.5086209E-08  0.3796124E+04  0.7818609E-02  0.8046987E-01
        2   -1    0    0  501    0  0.00000000000E+00  0.00000000000E+00  0.26862766699E+04  0.26862766699E+04  0.25500000920E-02 0.  1.
       -2   -1    0    0    0  501  0.00000000000E+00  0.00000000000E+00 -0.13411276076E+04  0.13411276076E+04  0.25500000920E-02 0. -1.
    10030    2    1    2    0    0  0.00000000000E+00  0.00000000000E+00  0.13451490623E+04  0.40274042775E+04  0.37961242360E+04 0.  0.
        3    1    3    3  502    0 -0.18185901593E+04  0.54035994325E+03  0.73426127314E+03  0.20343054498E+04  0.10100000352E+00 0. -1.
       -3    1    3    3    0  502  0.18185901593E+04 -0.54035994325E+03  0.61088778918E+03  0.19930988277E+04  0.10100000352E+00 0.  1.
</event>
<event>
 5   0  0.5147582E-08  0.3851389E+04  0.7818609E-02  0.8035216E-01
       -2   -1    0    0    0  501  0.00000000000E+00  0.00000000000E+00  0.19771319324E+04  0.19771319324E+04  0.25500000920E-02 0.  1.
        2   -1    0    0  501    0  0.00000000000E+00  0.00000000000E+00 -0.18755957481E+04  0.18755957482E+04  0.25500000920E-02 0. -1.
    10030    2    1    2    0    0  0.00000000000E+00  0.00000000000E+00  0.10153618420E+03  0.38527276805E+04  0.38513894874E+04 0.  0.
        1    1    3    3  502    0 -0.16221236963E+04  0.22195468390E+03  0.10649009242E+04  0.19530906651E+04  0.50400001928E-02 0.  1.
       -1    1    3    3    0  502  0.16221236963E+04 -0.22195468390E+03 -0.96336474004E+03  0.18996370154E+04  0.50400001928E-02 0. -1.
</event>
<event>
 5   0  0.5159761E-08  0.3809360E+04  0.7818609E-02  0.8044149E-01
       -2   -1    0    0    0  501  0.00000000000E+00  0.00000000000E+00  0.15078199987E+04  0.15078199987E+04  0.25500000920E-02 0.  1.
        2   -1    0    0  501    0  0.00000000000E+00  0.00000000000E+00 -0.24059936910E+04  0.24059936911E+04  0.25500000920E-02 0. -1.
    10030    2    1    2    0    0  0.00000000000E+00  0.00000000000E+00 -0.89817369230E+03  0.39138136898E+04  0.38093597384E+04 0.  0.
        5    1    3    3  502    0 -0.12412725772E+04 -0.10371992843E+04 -0.14822668672E+04  0.21940093715E+04  0.46999998093E+01 0. -1.
       -5    1    3    3    0  502  0.12412725772E+04  0.10371992843E+04  0.58409317488E+03  0.17198043183E+04  0.46999998093E+01 0.  1.
</event>
<event>
 5   0  0.1628250E-08  0.3806079E+04  0.7818609E-02  0.8044852E-01
        1   -1    0    0  501    0  0.00000000000E+00  0.00000000000E+00  0.25520387143E+04  0.25520387143E+04  0.50400001928E-02 0.  1.
       -1   -1    0    0    0  501  0.00000000000E+00  0.00000000000E+00 -0.14190845962E+04  0.14190845962E+04  0.50400001928E-02 0. -1.
    10030    2    1    2    0    0  0.00000000000E+00  0.00000000000E+00  0.11329541181E+04  0.39711233104E+04  0.38060787318E+04 0.  0.
        5    1    3    3  502    0  0.99096670026E+03 -0.13078430813E+04  0.15721561148E+04  0.22724800253E+04  0.46999998093E+01 0.  1.
       -5    1    3    3    0  502 -0.99096670026E+03  0.13078430813E+04 -0.43920199667E+03  0.16986432851E+04  0.46999998093E+01 0. -1.
</event>
<event>
 5   0  0.5140842E-08  0.3801239E+04  0.7818609E-02  0.8045889E-01
       -2   -1    0    0    0  501  0.00000000000E+00  0.00000000000E+00  0.28140253246E+04  0.28140253246E+04  0.25500000920E-02 0.  1.
        2   -1    0    0  501    0  0.00000000000E+00  0.00000000000E+00 -0.12836964557E+04  0.12836964557E+04  0.25500000920E-02 0. -1.
    10030    2    1    2    0    0  0.00000000000E+00  0.00000000000E+00  0.15303288689E+04  0.40977217803E+04  0.38012389219E+04 0.  0.
        2    1    3    3  502    0  0.33182787918E+03  0.14620398336E+04  0.20244765147E+04  0.25191616413E+04  0.25500000920E-02 0.  1.
       -2    1    3    3    0  502 -0.33182787918E+03 -0.14620398336E+04 -0.49414764586E+03  0.15785601390E+04  0.25500000920E-02 0. -1.
</event>
<event>
 5   0  0.1628250E-08  0.3800322E+04  0.7818609E-02  0.8046086E-01
        1   -1    0    0  501    0  0.00000000000E+00  0.00000000000E+00  0.25888299169E+04  0.25888299169E+04  0.50400001928E-02 0.  1.
       -1   -1    0    0    0  501  0.00000000000E+00  0.00000000000E+00 -0.13946886683E+04  0.13946886683E+04  0.50400001928E-02 0. -1.
    10030    2    1    2    0    0  0.00000000000E+00  0.00000000000E+00  0.11941412485E+04  0.39835185852E+04  0.38003219597E+04 0.  0.
        1    1    3    3  502    0  0.12331398744E+04 -0.10923857838E+04 -0.39550371306E+03  0.16942148145E+04  0.50400001928E-02 0. -1.
       -1    1    3    3    0  502 -0.12331398744E+04  0.10923857838E+04  0.15896449616E+04  0.22893037707E+04  0.50400001928E-02 0.  1.
</event>
<event>
 5   0  0.5086209E-08  0.3801065E+04  0.7818609E-02  0.8045926E-01
        2   -1    0    0  501    0  0.00000000000E+00  0.00000000000E+00  0.26771721768E+04  0.26771721768E+04  0.25500000920E-02 0. -1.
       -2   -1    0    0    0  501  0.00000000000E+00  0.00000000000E+00 -0.13491938170E+04  0.13491938170E+04  0.25500000920E-02 0.  1.
    10030    2    1    2    0    0  0.00000000000E+00  0.00000000000E+00  0.13279783599E+04  0.40263659938E+04  0.38010651917E+04 0.  0.
        3    1    3    3  502    0  0.18624310503E+04 -0.30893262114E+03  0.89590795641E+03  0.20896745818E+04  0.10100000352E+00 0.  1.
       -3    1    3    3    0  502 -0.18624310503E+04  0.30893262114E+03  0.43207040347E+03  0.19366914120E+04  0.10100000352E+00 0. -1.
</event>
<event>
 5   0  0.5140842E-08  0.3805665E+04  0.7818609E-02  0.8044940E-01
       -2   -1    0    0    0  501  0.00000000000E+00  0.00000000000E+00  0.20410397965E+04  0.20410397965E+04  0.25500000920E-02 0. -1.
        2   -1    0    0  501    0  0.00000000000E+00  0.00000000000E+00 -0.17739842120E+04  0.17739842120E+04  0.25500000920E-02 0.  1.
    10030    2    1    2    0    0  0.00000000000E+00  0.00000000000E+00  0.26705558444E+03  0.38150240085E+04  0.38056654478E+04 0.  0.
        2    1    3    3  502    0 -0.10433542537E+04  0.15889200363E+04  0.22044391467E+03  0.19135962218E+04  0.25500000920E-02 0.  1.
       -2    1    3    3    0  502  0.10433542537E+04 -0.15889200363E+04  0.46611669763E+02  0.19014277867E+04  0.25500000920E-02 0. -1.
</event>
<event>
 5   0  0.1628473E-08  0.3800270E+04  0.7818609E-02  0.8046097E-01
       -1   -1    0    0    0  501  0.00000000000E+00  0.00000000000E+00  0.16486168380E+04  0.16486168380E+04  0.50400001928E-02 0.  1.
        1   -1    0    0  501    0  0.00000000000E+00  0.00000000000E+00 -0.21900251792E+04  0.21900251792E+04  0.50400001928E-02 0. -1.
    10030    2    1    2    0    0  0.00000000000E+00  0.00000000000E+00 -0.54140834117E+03  0.38386420172E+04  0.38002696673E+04 0.  0.
        3    1    3    3  502    0 -0.49057484223E+03  0.17072176132E+04 -0.95224421858E+03  0.20154465304E+04  0.10100000352E+00 0.  1.
       -3    1    3    3    0  502  0.49057484223E+03 -0.17072176132E+04  0.41083587742E+03  0.18231954868E+04  0.10100000352E+00 0. -1.
</event>
<event>
 5   0  0.5159761E-08  0.3797754E+04  0.7818609E-02  0.8046637E-01
       -2   -1    0    0    0  501  0.00000000000E+00  0.00000000000E+00  0.16511372483E+04  0.16511372483E+04  0.25500000920E-02 0.  1.
        2   -1    0    0  501    0  0.00000000000E+00  0.00000000000E+00 -0.21837876268E+04  0.21837876268E+04  0.25500000920E-02 0. -1.
    10030    2    1    2    0    0  0.00000000000E+00  0.00000000000E+00 -0.53265037857E+03  0.38349248751E+04  0.37977535954E+04 0.  0.
        5    1    3    3  502    0  0.86409923742E+03 -0.13478924048E+04 -0.12972138763E+04  0.20606473153E+04  0.46999998093E+01 0. -1.
       -5    1    3    3    0  502 -0.86409923742E+03  0.13478924048E+04  0.76456349777E+03  0.17742775598E+04  0.46999998093E+01 0.  1.
</event>
<event>
 5   0  0.5140842E-08  0.3801003E+04  0.7818609E-02  0.8045940E-01
        2   -1    0    0  501    0  0.00000000000E+00  0.00000000000E+00  0.20498443014E+04  0.20498443014E+04  0.25500000920E-02 0.  1.
       -2   -1    0    0    0  501  0.00000000000E+00  0.00000000000E+00 -0.17620391427E+04  0.17620391428E+04  0.25500000920E-02 0. -1.
    10030    2    1    2    0    0  0.00000000000E+00  0.00000000000E+00  0.28780515862E+03  0.38118834441E+04  0.38010029706E+04 0.  0.
        2    1    3    3  502    0 -0.14858600908E+04 -0.11405820397E+04 -0.17826191046E+03  0.18816176305E+04  0.25500000920E-02 0. -1.
       -2    1    3    3    0  502  0.14858600908E+04  0.11405820397E+04  0.46606706908E+03  0.19302658137E+04  0.25500000920E-02 0.  1.
</event>
<event>
 5   0  0.5159761E-08  0.3786047E+04  0.7818609E-02  0.8049156E-01
       -2   -1    0    0    0  501  0.00000000000E+00  0.00000000000E+00  0.18612835255E+04  0.18612835255E+04  0.25500000920E-02 0. -1.
        2   -1    0    0  501    0  0.00000000000E+00  0.00000000000E+00 -0.19253045708E+04  0.19253045708E+04  0.25500000920E-02 0.  1.
    10030    2    1    2    0    0  0.00000000000E+00  0.00000000000E+00 -0.64021045330E+02  0.37865880963E+04  0.37860468456E+04 0.  0.
        5    1    3    3  502    0 -0.53986047075E+03  0.87919403101E+03 -0.16193997068E+04  0.19201325403E+04  0.46999998093E+01 0.  1.
       -5    1    3    3    0  502  0.53986047075E+03 -0.87919403101E+03  0.15553786615E+04  0.18664555560E+04  0.46999998093E+01 0. -1.
</event>
<event>
 5   0  0.1628250E-08  0.3727945E+04  0.7818609E-02  0.8061797E-01
        1   -1    0    0  501    0  0.00000000000E+00  0.00000000000E+00  0.25542797392E+04  0.25542797393E+04  0.50400001928E-02 0.  1.
       -1   -1    0    0    0  501  0.00000000000E+00  0.00000000000E+00 -0.13602245119E+04  0.13602245119E+04  0.50400001928E-02 0. -1.
    10030    2    1    2    0    0  0.00000000000E+00  0.00000000000E+00  0.11940552273E+04  0.39145042512E+04  0.37279452312E+04 0.  0.
        1    1    3    3  502    0  0.18126154162E+04 -0.74786282252E+02  0.14755718523E+03  0.18201485538E+04  0.50400001928E-02 0. -1.
       -1    1    3    3    0  502 -0.18126154162E+04  0.74786282252E+02  0.10464980421E+04  0.20943556974E+04  0.50400001928E-02 0.  1.
</event>
<event>
 5   0  0.5207474E-08  0.3796601E+04  0.7818609E-02  0.8046885E-01
       -2   -1    0    0    0  501  0.00000000000E+00  0.00000000000E+00  0.13195131143E+04  0.13195131143E+04  0.25500000920E-02 0.  1.
        2   -1    0    0  501    0  0.00000000000E+00  0.00000000000E+00 -0.27309651807E+04  0.27309651807E+04  0.25500000920E-02 0. -1.
    10030    2    1    2    0    0  0.00000000000E+00  0.00000000000E+00 -0.14114520664E+04  0.40504782949E+04  0.37966007799E+04 0.  0.
        4    1    3    3  502    0  0.49895935790E+03 -0.15893655248E+04  0.26535956623E+03  0.16868492892E+04  0.12699999809E+01 0. -1.
       -4    1    3    3    0  502 -0.49895935790E+03  0.15893655248E+04 -0.16768116326E+04  0.23636290057E+04  0.12699999809E+01 0.  1.
</event>
<event>
 5   0  0.5086209E-08  0.3822528E+04  0.7818609E-02  0.8041338E-01
        2   -1    0    0  501    0  0.00000000000E+00  0.00000000000E+00  0.16482687896E+04  0.16482687896E+04  0.25500000920E-02 0. -1.
       -2   -1    0    0    0  501  0.00000000000E+00  0.00000000000E+00 -0.22162225958E+04  0.22162225958E+04  0.25500000920E-02 0.  1.
    10030    2    1    2    0    0  0.00000000000E+00  0.00000000000E+00 -0.56795380616E+03  0.38644913854E+04  0.38225282395E+04 0.  0.
        3    1    3    3  502    0 -0.14795506903E+04  0.84137628295E+03  0.59501949188E+03  0.18030619792E+04  0.10100000352E+00 0. -1.
       -3    1    3    3    0  502  0.14795506903E+04 -0.84137628295E+03 -0.11629732980E+04  0.20614294062E+04  0.10100000352E+00 0.  1.
</event>
<event>
 5   0  0.5159761E-08  0.3796847E+04  0.7818609E-02  0.8046832E-01
       -2   -1    0    0    0  501  0.00000000000E+00  0.00000000000E+00  0.17394242669E+04  0.17394242669E+04  0.25500000920E-02 0.  1.
        2   -1    0    0  501    0  0.00000000000E+00  0.00000000000E+00 -0.20719568534E+04  0.20719568534E+04  0.25500000920E-02 0. -1.
    10030    2    1    2    0    0  0.00000000000E+00  0.00000000000E+00 -0.33253258651E+03  0.38113811203E+04  0.37968471293E+04 0.  0.
        5    1    3    3  502    0 -0.57107616431E+03 -0.38325270714E+03 -0.19424969689E+04  0.20606618323E+04  0.46999998093E+01 0. -1.
       -5    1    3    3    0  502  0.57107616431E+03  0.38325270714E+03  0.16099643823E+04  0.17507192880E+04  0.46999998093E+01 0.  1.
</event>
<event>
 5   0  0.5086209E-08  0.3804606E+04  0.7818609E-02  0.8045167E-01
        2   -1    0    0  501    0  0.00000000000E+00  0.00000000000E+00  0.30376146319E+04  0.30376146319E+04  0.25500000920E-02 0.  1.
       -2   -1    0    0    0  501  0.00000000000E+00  0.00000000000E+00 -0.11913150685E+04  0.11913150685E+04  0.25500000920E-02 0. -1.
    10030    2    1    2    0    0  0.00000000000E+00  0.00000000000E+00  0.18462995635E+04  0.42289297004E+04  0.38046056738E+04 0.  0.
        3    1    3    3  502    0 -0.41400007172E+03  0.90955496052E+03 -0.87604111103E+03  0.13289598655E+04  0.10100000352E+00 0. -1.
       -3    1    3    3    0  502  0.41400007172E+03 -0.90955496052E+03  0.27223406745E+04  0.28999698350E+04  0.10100000352E+00 0.  1.
</event>
<event>
 5   0  0.1628473E-08  0.3863532E+04  0.7818609E-02  0.8032657E-01
        1   -1    0    0  501    0  0.00000000000E+00  0.00000000000E+00  0.21509436434E+04  0.21509436434E+04  0.50400001928E-02 0.  1.
       -1   -1    0    0    0  501  0.00000000000E+00  0.00000000000E+00 -0.17349219464E+04  0.17349219464E+04  0.50400001928E-02 0. -1.
    10030    2    1    2    0    0  0.00000000000E+00  0.00000000000E+00  0.41602169694E+03  0.38858655898E+04  0.38635317172E+04 0.  0.
        3    1    3    3  502    0  0.70030157644E+03 -0.16817431994E+03  0.20108609974E+04  0.21359463619E+04  0.10100000352E+00 0.  1.
       -3    1    3    3    0  502 -0.70030157644E+03  0.16817431994E+03 -0.15948393004E+04  0.17499192279E+04  0.10100000352E+00 0. -1.
</event>
<event>
 5   0  0.1628473E-08  0.3802224E+04  0.7818609E-02  0.8045678E-01
       -1   -1    0    0    0  501  0.00000000000E+00  0.00000000000E+00  0.26193648178E+04  0.26193648178E+04  0.50400001928E-02 0.  1.
        1   -1    0    0  501    0  0.00000000000E+00  0.00000000000E+00 -0.13798100974E+04  0.13798100974E+04  0.50400001928E-02 0. -1.
    10030    2    1    2    0    0  0.00000000000E+00  0.00000000000E+00  0.12395547203E+04  0.39991749152E+04  0.38022235728E+04 0.  0.
        3    1    3    3  502    0  0.54730929715E+03  0.18206204247E+04  0.62445952925E+03  0.20010387082E+04  0.10100000352E+00 0. -1.
       -3    1    3    3    0  502 -0.54730929715E+03 -0.18206204247E+04  0.61509519109E+03  0.19981362071E+04  0.10100000352E+00 0.  1.
</event>
<event>
 5   0  0.5207474E-08  0.3802905E+04  0.7818609E-02  0.8045532E-01
       -2   -1    0    0    0  501  0.00000000000E+00  0.00000000000E+00  0.17013995592E+04  0.17013995592E+04  0.25500000920E-02 0. -1.
        2   -1    0    0  501    0  0.00000000000E+00  0.00000000000E+00 -0.21250277172E+04  0.21250277172E+04  0.25500000920E-02 0.  1.
    10030    2    1    2    0    0  0.00000000000E+00  0.00000000000E+00 -0.42362815801E+03  0.38264272764E+04  0.38029047957E+04 0.  0.
        4    1    3    3  502    0  0.26485116163E+03 -0.16149002014E+04  0.76240557671E+03  0.18053566613E+04  0.12699999809E+01 0. -1.
       -4    1    3    3    0  502 -0.26485116163E+03  0.16149002014E+04 -0.11860337347E+04  0.20210706151E+04  0.12699999809E+01 0.  1.
</event>
<event>
 5   0  0.1628250E-08  0.3800334E+04  0.7818609E-02  0.8046083E-01
        1   -1    0    0  501    0  0.00000000000E+00  0.00000000000E+00  0.26007323748E+04  0.26007323748E+04  0.50400001928E-02 0. -1.
       -1   -1    0    0    0  501  0.00000000000E+00  0.00000000000E+00 -0.13883146897E+04  0.13883146897E+04  0.50400001928E-02 0.  1.
    10030    2    1    2    0    0  0.00000000000E+00  0.00000000000E+00  0.12124176852E+04  0.39890470645E+04  0.38003341747E+04 0.  0.
        5    1    3    3  502    0  0.44951928470E+03 -0.27635569434E+03  0.25222777855E+04  0.25768871481E+04  0.46999998093E+01 0. -1.
       -5    1    3    3    0  502 -0.44951928470E+03  0.27635569434E+03 -0.13098601003E+04  0.14121599164E+04  0.46999998093E+01 0.  1.
</event>
<event>
 5   0  0.1628250E-08  0.3797905E+04  0.7818609E-02  0.8046605E-01
       -1   -1    0    0    0  501  0.00000000000E+00  0.00000000000E+00  0.18706550477E+04  0.18706550477E+04  0.50400001928E-02 0. -1.
        1   -1    0    0  501    0  0.00000000000E+00  0.00000000000E+00 -0.19276782984E+04  0.19276782984E+04  0.50400001928E-02 0.  1.
    10030    2    1    2    0    0  0.00000000000E+00  0.00000000000E+00 -0.57023250742E+02  0.37983333461E+04  0.37979052854E+04 0.  0.
        5    1    3    3  502    0 -0.73849765904E+03 -0.11017112811E+04  0.13306310638E+04  0.18787622674E+04  0.46999998093E+01 0. -1.
       -5    1    3    3    0  502  0.73849765904E+03  0.11017112811E+04 -0.13876543146E+04  0.19195710787E+04  0.46999998093E+01 0.  1.
</event>
<event>
 5   0  0.1628473E-08  0.3791782E+04  0.7818609E-02  0.8047921E-01
       -1   -1    0    0    0  501  0.00000000000E+00  0.00000000000E+00  0.12184511370E+04  0.12184511370E+04  0.50400001928E-02 0. -1.
        1   -1    0    0  501    0  0.00000000000E+00  0.00000000000E+00 -0.29499774499E+04  0.29499774499E+04  0.50400001928E-02 0.  1.
    10030    2    1    2    0    0  0.00000000000E+00  0.00000000000E+00 -0.17315263129E+04  0.41684285869E+04  0.37917823661E+04 0.  0.
        3    1    3    3  502    0  0.10787258339E+04  0.41056848488E+03 -0.25192215024E+04  0.27710454515E+04  0.10100000352E+00 0.  1.
       -3    1    3    3    0  502 -0.10787258339E+04 -0.41056848488E+03  0.78769518954E+03  0.13973831355E+04  0.10100000352E+00 0. -1.
</event>
<event>
 5   0  0.5147582E-08  0.3806894E+04  0.7818609E-02  0.8044677E-01
       -2   -1    0    0    0  501  0.00000000000E+00  0.00000000000E+00  0.12292695964E+04  0.12292695964E+04  0.25500000920E-02 0. -1.
        2   -1    0    0  501    0  0.00000000000E+00  0.00000000000E+00 -0.29473689054E+04  0.29473689054E+04  0.25500000920E-02 0.  1.
    10030    2    1    2    0    0  0.00000000000E+00  0.00000000000E+00 -0.17180993090E+04  0.41766385018E+04  0.38068942642E+04 0.  0.
        1    1    3    3  502    0  0.65126894837E+03  0.35586267236E+03 -0.27820944602E+04  0.28793817167E+04  0.50400001928E-02 0.  1.
       -1    1    3    3    0  502 -0.65126894837E+03 -0.35586267236E+03  0.10639951512E+04  0.12972567851E+04  0.50400001928E-02 0. -1.
</event>
<event>
 5   0  0.1666051E-08  0.3800176E+04  0.7818609E-02  0.8046117E-01
        1   -1    0    0  501    0  0.00000000000E+00  0.00000000000E+00  0.25083727288E+04  0.25083727288E+04  0.50400001928E-02 0. -1.
       -1   -1    0    0    0  501  0.00000000000E+00  0.00000000000E+00 -0.14393133361E+04  0.14393133361E+04  0.50400001928E-02 0.  1.
    10030    2    1    2    0    0  0.00000000000E+00  0.00000000000E+00  0.10690593927E+04  0.39476860650E+04  0.38001759542E+04 0.  0.
        2    1    3    3  502    0 -0.29669484764E+03 -0.94920792712E+03  0.22164219153E+04  0.24293105252E+04  0.25500000920E-02 0. -1.
       -2    1    3    3    0  502  0.29669484764E+03  0.94920792712E+03 -0.11473625226E+04  0.15183755398E+04  0.25500000920E-02 0.  1.
</event>
<event>
 5   0  0.1628473E-08  0.3747142E+04  0.7818609E-02  0.8057594E-01
        1   -1    0    0  501    0  0.00000000000E+00  0.00000000000E+00  0.21667360918E+04  0.21667360918E+04  0.50400001928E-02 0.  1.
       -1   -1    0    0    0  501  0.00000000000E+00  0.00000000000E+00 -0.16200722707E+04  0.16200722707E+04  0.50400001928E-02 0. -1.
    10030    2    1    2    0    0  0.00000000000E+00  0.00000000000E+00  0.54666382117E+03  0.37868083625E+04  0.37471424100E+04 0.  0.
        3    1    3    3  502    0 -0.92887540718E+03  0.38342090625E+03 -0.13246874509E+04  0.16627140362E+04  0.10100000352E+00 0. -1.
       -3    1    3    3    0  502  0.92887540718E+03 -0.38342090625E+03  0.18713512721E+04  0.21240943263E+04  0.10100000352E+00 0.  1.
</event>
<event>
 5   0  0.1666051E-08  0.3838865E+04  0.7818609E-02  0.8037866E-01
        1   -1    0    0  501    0  0.00000000000E+00  0.00000000000E+00  0.24638840488E+04  0.24638840488E+04  0.50400001928E-02 0.  1.
       -1   -1    0    0    0  501  0.00000000000E+00  0.00000000000E+00 -0.14952899517E+04  0.14952899517E+04  0.50400001928E-02 0. -1.
    10030    2    1    2    0    0  0.00000000000E+00  0.00000000000E+00  0.96859409703E+03  0.39591740005E+04  0.38388649679E+04 0.  0.
        2    1    3    3  502    0 -0.86395817706E+03  0.16859494006E+04  0.80279898542E+03  0.20575070654E+04  0.25500000920E-02 0.  1.
       -2    1    3    3    0  502  0.86395817706E+03 -0.16859494006E+04  0.16579511161E+03  0.19016669351E+04  0.25500000920E-02 0. -1.
</event>
<event>
 5   0  0.1628473E-08  0.3796784E+04  0.7818609E-02  0.8046845E-01
       -1   -1    0    0    0  501  0.00000000000E+00  0.00000000000E+00  0.14763128550E+04  0.14763128550E+04  0.50400001928E-02 0.  1.
        1   -1    0    0  501    0  0.00000000000E+00  0.00000000000E+00 -0.24411444215E+04  0.24411444215E+04  0.50400001928E-02 0. -1.
    10030    2    1    2    0    0  0.00000000000E+00  0.00000000000E+00 -0.96483156652E+03  0.39174572765E+04  0.37967843712E+04 0.  0.
        3    1    3    3  502    0 -0.57949853177E+03 -0.14716180587E+04  0.60091433627E+03  0.16919149827E+04  0.10100000352E+00 0.  1.
       -3    1    3    3    0  502  0.57949853177E+03  0.14716180587E+04 -0.15657459028E+04  0.22255422938E+04  0.10100000352E+00 0. -1.
</event>
<event>
 5   0  0.5159761E-08  0.3799118E+04  0.7818609E-02  0.8046344E-01
       -2   -1    0    0    0  501  0.00000000000E+00  0.00000000000E+00  0.26570854648E+04  0.26570854648E+04  0.25500000920E-02 0.  1.
        2   -1    0    0  501    0  0.00000000000E+00  0.00000000000E+00 -0.13580012040E+04  0.13580012040E+04  0.25500000920E-02 0. -1.
    10030    2    1    2    0    0  0.00000000000E+00  0.00000000000E+00  0.12990842608E+04  0.40150866688E+04  0.37991184558E+04 0.  0.
        5    1    3    3  502    0  0.80043836700E+03  0.50159886881E+03  0.23912567024E+04  0.25710763721E+04  0.46999998093E+01 0.  1.
       -5    1    3    3    0  502 -0.80043836700E+03 -0.50159886881E+03 -0.10921724416E+04  0.14440102966E+04  0.46999998093E+01 0. -1.
</event>
<event>
 5   0  0.5147582E-08  0.3779539E+04  0.7818609E-02  0.8050560E-01
        2   -1    0    0  501    0  0.00000000000E+00  0.00000000000E+00  0.25382301498E+04  0.25382301498E+04  0.25500000920E-02 0. -1.
       -2   -1    0    0    0  501  0.00000000000E+00  0.00000000000E+00 -0.14069761335E+04  0.14069761335E+04  0.25500000920E-02 0.  1.
    10030    2    1    2    0    0  0.00000000000E+00  0.00000000000E+00  0.11312540163E+04  0.39452062833E+04  0.37795392535E+04 0.  0.
        1    1    3    3  502    0 -0.14911419441E+04 -0.88889024130E+03  0.13450835056E+04  0.21961055975E+04  0.50400001928E-02 0.  1.
       -1    1    3    3    0  502  0.14911419441E+04  0.88889024130E+03 -0.21382948923E+03  0.17491006858E+04  0.50400001928E-02 0. -1.
</event>
<event>
 5   0  0.1628250E-08  0.3790504E+04  0.7818609E-02  0.8048196E-01
        1   -1    0    0  501    0  0.00000000000E+00  0.00000000000E+00  0.16466621502E+04  0.16466621502E+04  0.50400001928E-02 0. -1.
       -1   -1    0    0    0  501  0.00000000000E+00  0.00000000000E+00 -0.21813702672E+04  0.21813702672E+04  0.50400001928E-02 0.  1.
    10030    2    1    2    0    0  0.00000000000E+00  0.00000000000E+00 -0.53470811702E+03  0.38280324173E+04  0.37905038475E+04 0.  0.
        1    1    3    3  502    0 -0.70370968758E+03  0.12669306160E+04 -0.15007811739E+04  0.20863040627E+04  0.50400001928E-02 0.  1.
       -1    1    3    3    0  502  0.70370968758E+03 -0.12669306160E+04  0.96607305684E+03  0.17417283546E+04  0.50400001928E-02 0. -1.
</event>
<event>
 5   0  0.5140842E-08  0.3797854E+04  0.7818609E-02  0.8046616E-01
        2   -1    0    0  501    0  0.00000000000E+00  0.00000000000E+00  0.22614258367E+04  0.22614258367E+04  0.25500000920E-02 0. -1.
       -2   -1    0    0    0  501  0.00000000000E+00  0.00000000000E+00 -0.15945354133E+04  0.15945354133E+04  0.25500000920E-02 0.  1.
    10030    2    1    2    0    0  0.00000000000E+00  0.00000000000E+00  0.66689042336E+03  0.38559612500E+04  0.37978539104E+04 0.  0.
        2    1    3    3  502    0 -0.22722095834E+03  0.12684474896E+04  0.17495377247E+04  0.21728945321E+04  0.25500000920E-02 0. -1.
       -2    1    3    3    0  502  0.22722095834E+03 -0.12684474896E+04 -0.10826473013E+04  0.16830667179E+04  0.25500000920E-02 0.  1.
</event>
<event>
 5   0  0.5159761E-08  0.3803260E+04  0.7818609E-02  0.8045456E-01
       -2   -1    0    0    0  501  0.00000000000E+00  0.00000000000E+00  0.21936073901E+04  0.21936073901E+04  0.25500000920E-02 0.  1.
        2   -1    0    0  501    0  0.00000000000E+00  0.00000000000E+00 -0.16485161783E+04  0.16485161783E+04  0.25500000920E-02 0. -1.
    10030    2    1    2    0    0  0.00000000000E+00  0.00000000000E+00  0.54509121180E+03  0.38421235684E+04  0.38032603232E+04 0.  0.
        5    1    3    3  502    0  0.10651538264E+04  0.61806349847E+03 -0.11912674895E+04  0.17133871377E+04  0.46999998093E+01 0. -1.
       -5    1    3    3    0  502 -0.10651538264E+04 -0.61806349847E+03  0.17363587013E+04  0.21287364307E+04  0.46999998093E+01 0.  1.
</event>
<event>
 5   0  0.1666051E-08  0.3798190E+04  0.7818609E-02  0.8046544E-01
       -1   -1    0    0    0  501  0.00000000000E+00  0.00000000000E+00  0.27057593572E+04  0.27057593573E+04  0.50400001928E-02 0. -1.
        1   -1    0    0  501    0  0.00000000000E+00  0.00000000000E+00 -0.13329200765E+04  0.13329200766E+04  0.50400001928E-02 0.  1.
    10030    2    1    2    0    0  0.00000000000E+00  0.00000000000E+00  0.13728392807E+04  0.40386794338E+04  0.37981895527E+04 0.  0.
        2    1    3    3  502    0 -0.12161635144E+04  0.14317926621E+04  0.98239072383E+03  0.21199470407E+04  0.25500000920E-02 0. -1.
       -2    1    3    3    0  502  0.12161635144E+04 -0.14317926621E+04  0.39044855686E+03  0.19187323931E+04  0.25500000920E-02 0.  1.
</event>
<event>
 5   0  0.5140842E-08  0.3802895E+04  0.7818609E-02  0.8045534E-01
        2   -1    0    0  501    0  0.00000000000E+00  0.00000000000E+00  0.17183315232E+04  0.17183315232E+04  0.25500000920E-02 0.  1.
       -2   -1    0    0    0  501  0.00000000000E+00  0.00000000000E+00 -0.21040779152E+04  0.21040779152E+04  0.25500000920E-02 0. -1.
    10030    2    1    2    0    0  0.00000000000E+00  0.00000000000E+00 -0.38574639200E+03  0.38224094383E+04  0.38028954279E+04 0.  0.
        2    1    3    3  502    0 -0.79836097758E+03 -0.14388774252E+04 -0.11505238853E+04  0.20078480286E+04  0.25500000920E-02 0. -1.
       -2    1    3    3    0  502  0.79836097758E+03  0.14388774252E+04  0.76477749332E+03  0.18145614097E+04  0.25500000920E-02 0.  1.
</event>
<event>
 5   0  0.5086209E-08  0.3810307E+04  0.7818609E-02  0.8043947E-01
       -2   -1    0    0    0  501  0.00000000000E+00  0.00000000000E+00  0.17849790842E+04  0.17849790842E+04  0.25500000920E-02 0.  1.
        2   -1    0    0  501    0  0.00000000000E+00  0.00000000000E+00 -0.20334188848E+04  0.20334188848E+04  0.25500000920E-02 0. -1.
    10030    2    1    2    0    0  0.00000000000E+00  0.00000000000E+00 -0.24843980064E+03  0.38183979690E+04  0.38103071681E+04 0.  0.
        3    1    3    3  502    0 -0.24172915963E+03 -0.15644908034E+04 -0.11864450387E+04  0.19783114772E+04  0.10100000352E+00 0. -1.
       -3    1    3    3    0  502  0.24172915963E+03  0.15644908034E+04  0.93800523804E+03  0.18400864918E+04  0.10100000352E+00 0.  1.
</event>
<event>
 5   0  0.1628250E-08  0.3772814E+04  0.7818609E-02  0.8052014E-01
        1   -1    0    0  501    0  0.00000000000E+00  0.00000000000E+00  0.19370331813E+04  0.19370331813E+04  0.50400001928E-02 0. -1.
       -1   -1    0    0    0  501  0.00000000000E+00  0.00000000000E+00 -0.18371043383E+04  0.18371043383E+04  0.50400001928E-02 0.  1.
    10030    2    1    2    0    0  0.00000000000E+00  0.00000000000E+00  0.99928843002E+02  0.37741375196E+04  0.37728143664E+04 0.  0.
        5    1    3    3  502    0  0.61619625548E+03 -0.15762082883E+04  0.88355107606E+03  0.19091398554E+04  0.46999998093E+01 0.  1.
       -5    1    3    3    0  502 -0.61619625548E+03  0.15762082883E+04 -0.78362223306E+03  0.18649976642E+04  0.46999998093E+01 0. -1.
</event>
<event>
 5   0  0.5147582E-08  0.3803618E+04  0.7818609E-02  0.8045379E-01
       -2   -1    0    0    0  501  0.00000000000E+00  0.00000000000E+00  0.11129884595E+04  0.11129884595E+04  0.25500000920E-02 0.  1.
        2   -1    0    0  501    0  0.00000000000E+00  0.00000000000E+00 -0.32496993235E+04  0.32496993235E+04  0.25500000920E-02 0. -1.
    10030    2    1    2    0    0  0.00000000000E+00  0.00000000000E+00 -0.21367108640E+04  0.43626877830E+04  0.38036181952E+04 0.  0.
        1    1    3    3  502    0 -0.26936124336E+03 -0.18355297066E+04 -0.15483828926E+04  0.24164466403E+04  0.50400001928E-02 0. -1.
       -1    1    3    3    0  502  0.26936124336E+03  0.18355297066E+04 -0.58832797139E+03  0.19462411426E+04  0.50400001928E-02 0.  1.
</event>
<event>
 5   0  0.1628250E-08  0.3799021E+04  0.7818609E-02  0.8046365E-01
        1   -1    0    0  501    0  0.00000000000E+00  0.00000000000E+00  0.19190782363E+04  0.19190782363E+04  0.50400001928E-02 0.  1.
       -1   -1    0    0    0  501  0.00000000000E+00  0.00000000000E+00 -0.18801423935E+04  0.18801423935E+04  0.50400001928E-02 0. -1.
    10030    2    1    2    0    0  0.00000000000E+00  0.00000000000E+00  0.38935842846E+02  0.37992206298E+04  0.37990211100E+04 0.  0.
        4    1    3    3  502    0 -0.10691679939E+04 -0.69884054080E+02  0.15880319682E+04  0.19156855496E+04  0.12699999809E+01 0.  1.
       -4    1    3    3    0  502  0.10691679939E+04  0.69884054080E+02 -0.15490961253E+04  0.18835350802E+04  0.12699999809E+01 0. -1.
</event>
<event>
 5   0  0.1666051E-08  0.3790009E+04  0.7818609E-02  0.8048302E-01
       -1   -1    0    0    0  501  0.00000000000E+00  0.00000000000E+00  0.17402053955E+04  0.17402053955E+04  0.50400001928E-02 0.  1.
        1   -1    0    0  501    0  0.00000000000E+00  0.00000000000E+00 -0.20635739047E+04  0.20635739047E+04  0.50400001928E-02 0. -1.
    10030    2    1    2    0    0  0.00000000000E+00  0.00000000000E+00 -0.32336850920E+03  0.38037793003E+04  0.37900092048E+04 0.  0.
        2    1    3    3  502    0  0.13322762897E+04 -0.48431447422E+03  0.11004705948E+04  0.17945908034E+04  0.25500000920E-02 0. -1.
       -2    1    3    3    0  502 -0.13322762897E+04  0.48431447422E+03 -0.14238391040E+04  0.20091884968E+04  0.25500000920E-02 0.  1.
</event>
<event>
 5   0  0.5207474E-08  0.3804823E+04  0.7818609E-02  0.8045121E-01
       -2   -1    0    0    0  501  0.00000000000E+00  0.00000000000E+00  0.14527688157E+04  0.14527688157E+04  0.25500000920E-02 0.  1.
        2   -1    0    0  501    0  0.00000000000E+00  0.00000000000E+00 -0.24912222677E+04  0.24912222677E+04  0.25500000920E-02 0. -1.
    10030    2    1    2    0    0  0.00000000000E+00  0.00000000000E+00 -0.10384534520E+04  0.39439910834E+04  0.38048232671E+04 0.  0.
        4    1    3    3  502    0  0.88172541874E+03  0.11469163091E+04  0.76140143872E+03  0.16348059512E+04  0.12699999809E+01 0.  1.
       -4    1    3    3    0  502 -0.88172541874E+03 -0.11469163091E+04 -0.17998548907E+04  0.23091851322E+04  0.12699999809E+01 0. -1.
</event>
<event>
 5   0  0.5140842E-08  0.3762511E+04  0.7818609E-02  0.8054248E-01
       -2   -1    0    0    0  501  0.00000000000E+00  0.00000000000E+00  0.27391720008E+04  0.27391720008E+04  0.25500000920E-02 0.  1.
        2   -1    0    0  501    0  0.00000000000E+00  0.00000000000E+00 -0.12920407589E+04  0.12920407589E+04  0.25500000920E-02 0. -1.
    10030    2    1    2    0    0  0.00000000000E+00  0.00000000000E+00  0.14471312419E+04  0.40312127596E+04  0.37625107950E+04 0.  0.
        2    1    3    3  502    0 -0.17013116787E+04 -0.46726471562E+03  0.24000865076E+02  0.17644754983E+04  0.25500000920E-02 0. -1.
       -2    1    3    3    0  502  0.17013116787E+04  0.46726471562E+03  0.14231303768E+04  0.22667372614E+04  0.25500000920E-02 0.  1.
</event>
<event>
 5   0  0.5086209E-08  0.3797476E+04  0.7818609E-02  0.8046697E-01
        2   -1    0    0  501    0  0.00000000000E+00  0.00000000000E+00  0.14991791990E+04  0.14991791990E+04  0.25500000920E-02 0. -1.
       -2   -1    0    0    0  501  0.00000000000E+00  0.00000000000E+00 -0.24047863585E+04  0.24047863585E+04  0.25500000920E-02 0.  1.
    10030    2    1    2    0    0  0.00000000000E+00  0.00000000000E+00 -0.90560715947E+03  0.39039655576E+04  0.37974758389E+04 0.  0.
        3    1    3    3  502    0 -0.28337558420E+03 -0.93371461737E+03  0.12217005009E+04  0.15635462361E+04  0.10100000352E+00 0. -1.
       -3    1    3    3    0  502  0.28337558420E+03  0.93371461737E+03 -0.21273076603E+04  0.23404193215E+04  0.10100000352E+00 0.  1.
</event>
<event>
 5   0  0.1666051E-08  0.3796055E+04  0.7818609E-02  0.8047002E-01
       -1   -1    0    0    0  501  0.00000000000E+00  0.00000000000E+00  0.17300291918E+04  0.17300291918E+04  0.50400001928E-02 0. -1.
        1   -1    0    0  501    0  0.00000000000E+00  0.00000000000E+00 -0.20823398612E+04  0.20823398612E+04  0.50400001928E-02 0.  1.
    10030    2    1    2    0    0  0.00000000000E+00  0.00000000000E+00 -0.35231066940E+03  0.38123690530E+04  0.37960551877E+04 0.  0.
        2    1    3    3  502    0  0.38811499927E+03  0.16631065600E+04  0.65562625110E+03  0.18293174858E+04  0.25500000920E-02 0. -1.
       -2    1    3    3    0  502 -0.38811499927E+03 -0.16631065600E+04 -0.10079369205E+04  0.19830515672E+04  0.25500000920E-02 0.  1.
</event>
<event>
 5   0  0.5207474E-08  0.3809147E+04  0.7818609E-02  0.8044195E-01
        2   -1    0    0  501    0  0.00000000000E+00  0.00000000000E+00  0.24053708713E+04  0.24053708713E+04  0.25500000920E-02 0. -1.
       -2   -1    0    0    0  501  0.00000000000E+00  0.00000000000E+00 -0.15080421013E+04  0.15080421013E+04  0.25500000920E-02 0.  1.
    10030    2    1    2    0    0  0.00000000000E+00  0.00000000000E+00  0.89732876993E+03  0.39134129726E+04  0.38091471713E+04 0.  0.
        4    1    3    3  502    0  0.24664896139E+03  0.18163634343E+04 -0.82584643834E+02  0.18348933680E+04  0.12699999809E+01 0. -1.
       -4    1    3    3    0  502 -0.24664896139E+03 -0.18163634343E+04  0.97991341376E+03  0.20785196046E+04  0.12699999809E+01 0.  1.
</event>
<event>
 5   0  0.5086209E-08  0.3798826E+04  0.7818609E-02  0.8046407E-01
       -2   -1    0    0    0  501  0.00000000000E+00  0.00000000000E+00  0.17353896557E+04  0.17353896557E+04  0.25500000920E-02 0. -1.
        2   -1    0    0  501    0  0.00000000000E+00  0.00000000000E+00 -0.20789389970E+04  0.20789389970E+04  0.25500000920E-02 0.  1.
    10030    2    1    2    0    0  0.00000000000E+00  0.00000000000E+00 -0.34354934131E+03  0.38143286528E+04  0.37988257293E+04 0.  0.
        3    1    3    3  502    0 -0.45177483961E+03  0.15283808647E+04  0.86574791589E+03  0.18137166365E+04  0.10100000352E+00 0. -1.
       -3    1    3    3    0  502  0.45177483961E+03 -0.15283808647E+04 -0.12092972572E+04  0.20006120163E+04  0.10100000352E+00 0.  1.
</event>
<event>
 5   0  0.1628250E-08  0.3789264E+04  0.7818609E-02  0.8048463E-01
        1   -1    0    0  501    0  0.00000000000E+00  0.00000000000E+00  0.20187630149E+04  0.20187630149E+04  0.50400001928E-02 0. -1.
       -1   -1    0    0    0  501  0.00000000000E+00  0.00000000000E+00 -0.17781340915E+04  0.17781340915E+04  0.50400001928E-02 0.  1.
    10030    2    1    2    0    0  0.00000000000E+00  0.00000000000E+00  0.24062892344E+03  0.37968971064E+04  0.37892644877E+04 0.  0.
        5    1    3    3  502    0 -0.42562431590E+03  0.19831421531E+03 -0.17189003208E+04  0.17818880406E+04  0.46999998093E+01 0.  1.
       -5    1    3    3    0  502  0.42562431590E+03 -0.19831421531E+03  0.19595292442E+04  0.20150090658E+04  0.46999998093E+01 0. -1.
</event>
<event>
 5   0  0.5086209E-08  0.3787014E+04  0.7818609E-02  0.8048947E-01
       -2   -1    0    0    0  501  0.00000000000E+00  0.00000000000E+00  0.18794649965E+04  0.18794649965E+04  0.25500000920E-02 0. -1.
        2   -1    0    0  501    0  0.00000000000E+00  0.00000000000E+00 -0.19076537975E+04  0.19076537975E+04  0.25500000920E-02 0.  1.
    10030    2    1    2    0    0  0.00000000000E+00  0.00000000000E+00 -0.28188800924E+02  0.37871187940E+04  0.37870138832E+04 0.  0.
        3    1    3    3  502    0 -0.11691593613E+03  0.28640617711E+03 -0.18822121813E+04  0.19074644269E+04  0.10100000352E+00 0.  1.
       -3    1    3    3    0  502  0.11691593613E+03 -0.28640617711E+03  0.18540233804E+04  0.18796543670E+04  0.10100000352E+00 0. -1.
</event>
<event>
 5   0  0.1666051E-08  0.3797795E+04  0.7818609E-02  0.8046628E-01
        1   -1    0    0  501    0  0.00000000000E+00  0.00000000000E+00  0.21918265310E+04  0.21918265310E+04  0.50400001928E-02 0. -1.
       -1   -1    0    0    0  501  0.00000000000E+00  0.00000000000E+00 -0.16451168540E+04  0.16451168540E+04  0.50400001928E-02 0.  1.
    10030    2    1    2    0    0  0.00000000000E+00  0.00000000000E+00  0.54670967698E+03  0.38369433851E+04  0.37977945007E+04 0.  0.
        2    1    3    3  502    0  0.14457537072E+04  0.10884058845E+04  0.85459358009E+03  0.20012899186E+04  0.25500000920E-02 0. -1.
       -2    1    3    3    0  502 -0.14457537072E+04 -0.10884058845E+04 -0.30788390310E+03  0.18356534665E+04  0.25500000920E-02 0.  1.
</event>
<event>
 5   0  0.1628250E-08  0.3787546E+04  0.7818609E-02  0.8048833E-01
       -1   -1    0    0    0  501  0.00000000000E+00  0.00000000000E+00  0.14726018508E+04  0.14726018508E+04  0.50400001928E-02 0. -1.
        1   -1    0    0  501    0  0.00000000000E+00  0.00000000000E+00 -0.24354012391E+04  0.24354012391E+04  0.50400001928E-02 0.  1.
    10030    2    1    2    0    0  0.00000000000E+00  0.00000000000E+00 -0.96279938828E+03  0.39080030899E+04  0.37875461039E+04 0.  0.
        1    1    3    3  502    0 -0.15231455846E+04 -0.30242127386E+03 -0.15998219218E+04  0.22295428411E+04  0.50400001928E-02 0.  1.
       -1    1    3    3    0  502  0.15231455846E+04  0.30242127386E+03  0.63702253349E+03  0.16784602489E+04  0.50400001928E-02 0. -1.
</event>
<event>
 5   0  0.5207474E-08  0.3793974E+04  0.7818609E-02  0.8047449E-01
        2   -1    0    0  501    0  0.00000000000E+00  0.00000000000E+00  0.21068575861E+04  0.21068575861E+04  0.25500000920E-02 0.  1.
       -2   -1    0    0    0  501  0.00000000000E+00  0.00000000000E+00 -0.17080227108E+04  0.17080227108E+04  0.25500000920E-02 0. -1.
    10030    2    1    2    0    0  0.00000000000E+00  0.00000000000E+00  0.39883487530E+03  0.38148802969E+04  0.37939744888E+04 0.  0.
        4    1    3    3  502    0  0.49006843012E+03  0.11254266963E+04  0.16536949260E+04  0.20594807200E+04  0.12699999809E+01 0.  1.
       -4    1    3    3    0  502 -0.49006843012E+03 -0.11254266963E+04 -0.12548600507E+04  0.17553995769E+04  0.12699999809E+01 0. -1.
</event>
<event>
 5   0  0.5207474E-08  0.3794121E+04  0.7818609E-02  0.8047418E-01
        2   -1    0    0  501    0  0.00000000000E+00  0.00000000000E+00  0.18280934805E+04  0.18280934805E+04  0.25500000920E-02 0. -1.
       -2   -1    0    0    0  501  0.00000000000E+00  0.00000000000E+00 -0.19686290929E+04  0.19686290929E+04  0.25500000920E-02 0.  1.
    10030    2    1    2    0    0  0.00000000000E+00  0.00000000000E+00 -0.14053561237E+03  0.37967225734E+04  0.37941207204E+04 0.  0.
        4    1    3    3  502    0  0.94668103132E+03  0.10851853773E+04  0.11654896164E+04  0.18526197497E+04  0.12699999809E+01 0. -1.
       -4    1    3    3    0  502 -0.94668103132E+03 -0.10851853773E+04 -0.13060252287E+04  0.19441028237E+04  0.12699999809E+01 0.  1.
</event>
<event>
 5   0  0.5207474E-08  0.3791180E+04  0.7818609E-02  0.8048050E-01
       -2   -1    0    0    0  501  0.00000000000E+00  0.00000000000E+00  0.19941812744E+04  0.19941812744E+04  0.25500000920E-02 0.  1.
        2   -1    0    0  501    0  0.00000000000E+00  0.00000000000E+00 -0.18018732868E+04  0.18018732868E+04  0.25500000920E-02 0. -1.
    10030    2    1    2    0    0  0.00000000000E+00  0.00000000000E+00  0.19230798757E+03  0.37960545612E+04  0.37911802740E+04 0.  0.
        4    1    3    3  502    0  0.17340076539E+04  0.17741395124E+02  0.86275119697E+03  0.19368630674E+04  0.12699999809E+01 0.  1.
       -4    1    3    3    0  502 -0.17340076539E+04 -0.17741395124E+02 -0.67044320940E+03  0.18591914939E+04  0.12699999809E+01 0. -1.
</event>
<event>
 5   0  0.1628473E-08  0.3796051E+04  0.7818609E-02  0.8047003E-01
        1   -1    0    0  501    0  0.00000000000E+00  0.00000000000E+00  0.13703280044E+04  0.13703280044E+04  0.50400001928E-02 0. -1.
       -1   -1    0    0    0  501  0.00000000000E+00  0.00000000000E+00 -0.26289329592E+04  0.26289329592E+04  0.50400001928E-02 0.  1.
    10030    2    1    2    0    0  0.00000000000E+00  0.00000000000E+00 -0.12586049548E+04  0.39992609635E+04  0.37960508192E+04 0.  0.
        3    1    3    3  502    0  0.16437641068E+04  0.59599078815E+03  0.14869718217E+03  0.17547866880E+04  0.10100000352E+00 0. -1.
       -3    1    3    3    0  502 -0.16437641068E+04 -0.59599078815E+03 -0.14073021370E+04  0.22444742755E+04  0.10100000352E+00 0.  1.
</event>
<event>
 5   0  0.5086209E-08  0.3798065E+04  0.7818609E-02  0.8046570E-01
       -2   -1    0    0    0  501  0.00000000000E+00  0.00000000000E+00  0.20387554345E+04  0.20387554345E+04  0.25500000920E-02 0. -1.
        2   -1    0    0  501    0  0.00000000000E+00  0.00000000000E+00 -0.17688857151E+04  0.17688857151E+04  0.25500000920E-02 0.  1.
    10030    2    1    2    0    0  0.00000000000E+00  0.00000000000E+00  0.26986971945E+03  0.38076411496E+04  0.37980654890E+04 0.  0.
        3    1    3    3  502    0  0.17389957246E+04 -0.16619058305E+03 -0.61165736358E+03  0.18509052327E+04  0.10100000352E+00 0.  1.
       -3    1    3    3    0  502 -0.17389957246E+04  0.16619058305E+03  0.88152708304E+03  0.19567359169E+04  0.10100000352E+00 0. -1.
</event>
<event>
 5   0  0.5147582E-08  0.3796224E+04  0.7818609E-02  0.8046966E-01
        2   -1    0    0  501    0  0.00000000000E+00  0.00000000000E+00  0.18918905985E+04  0.18918905985E+04  0.25500000920E-02 0. -1.
       -2   -1    0    0    0  501  0.00000000000E+00  0.00000000000E+00 -0.19043543422E+04  0.19043543422E+04  0.25500000920E-02 0.  1.
    10030    2    1    2    0    0  0.00000000000E+00  0.00000000000E+00 -0.12463743647E+02  0.37962449407E+04  0.37962244803E+04 0.  0.
        1    1    3    3  502    0  0.73636769212E+03  0.16884435254E+04 -0.46422032233E+03  0.18996261274E+04  0.50400001928E-02 0.  1.
       -1    1    3    3    0  502 -0.73636769212E+03 -0.16884435254E+04  0.45175657868E+03  0.18966188133E+04  0.50400001928E-02 0. -1.
</event>
<event>
 5   0  0.1666051E-08  0.3822373E+04  0.7818609E-02  0.8041371E-01
       -1   -1    0    0    0  501  0.00000000000E+00  0.00000000000E+00  0.14059107516E+04  0.14059107516E+04  0.50400001928E-02 0.  1.
        1   -1    0    0  501    0  0.00000000000E+00  0.00000000000E+00 -0.25980547151E+04  0.25980547152E+04  0.50400001928E-02 0. -1.
    10030    2    1    2    0    0  0.00000000000E+00  0.00000000000E+00 -0.11921439636E+04  0.40039654667E+04  0.38223725916E+04 0.  0.
        2    1    3    3  502    0  0.74002270153E+03 -0.39981796306E+03  0.12016008279E+04  0.14667421559E+04  0.25500000920E-02 0.  1.
       -2    1    3    3    0  502 -0.74002270153E+03  0.39981796306E+03 -0.23937447915E+04  0.25372233108E+04  0.25500000920E-02 0. -1.
</event>
<event>
 5   0  0.1628250E-08  0.3797758E+04  0.7818609E-02  0.8046636E-01
       -1   -1    0    0    0  501  0.00000000000E+00  0.00000000000E+00  0.20447824006E+04  0.20447824006E+04  0.50400001928E-02 0.  1.
        1   -1    0    0  501    0  0.00000000000E+00  0.00000000000E+00 -0.17633867934E+04  0.17633867934E+04  0.50400001928E-02 0. -1.
    10030    2    1    2    0    0  0.00000000000E+00  0.00000000000E+00  0.28139560721E+03  0.38081691941E+04  0.37977584340E+04 0.  0.
        1    1    3    3  502    0 -0.93736306373E+03 -0.29824638526E+03  0.17693860837E+04  0.20244326447E+04  0.50400001928E-02 0.  1.
       -1    1    3    3    0  502  0.93736306373E+03  0.29824638526E+03 -0.14879904765E+04  0.17837365494E+04  0.50400001928E-02 0. -1.
</event>
<event>
 5   0  0.1666051E-08  0.3807801E+04  0.7818609E-02  0.8044483E-01
       -1   -1    0    0    0  501  0.00000000000E+00  0.00000000000E+00  0.34099614453E+04  0.34099614453E+04  0.50400001928E-02 0.  1.
        1   -1    0    0  501    0  0.00000000000E+00  0.00000000000E+00 -0.10630140054E+04  0.10630140054E+04  0.50400001928E-02 0. -1.
    10030    2    1    2    0    0  0.00000000000E+00  0.00000000000E+00  0.23469474399E+04  0.44729754507E+04  0.38078008216E+04 0.  0.
        2    1    3    3  502    0  0.11179748065E+04  0.14116090264E+04  0.18998153686E+04  0.26175954895E+04  0.25500000920E-02 0. -1.
       -2    1    3    3    0  502 -0.11179748065E+04 -0.14116090264E+04  0.44713207128E+03  0.18553799613E+04  0.25500000920E-02 0.  1.
</event>
<event>
 5   0  0.5086209E-08  0.3798049E+04  0.7818609E-02  0.8046574E-01
        2   -1    0    0  501    0  0.00000000000E+00  0.00000000000E+00  0.18232161109E+04  0.18232161109E+04  0.25500000920E-02 0.  1.
       -2   -1    0    0    0  501  0.00000000000E+00  0.00000000000E+00 -0.19779846893E+04  0.19779846893E+04  0.25500000920E-02 0. -1.
    10030    2    1    2    0    0  0.00000000000E+00  0.00000000000E+00 -0.15476857840E+03  0.38012008001E+04  0.37980487372E+04 0.  0.
        3    1    3    3  502    0  0.75733743433E+02 -0.95089635266E+03 -0.17208049362E+04  0.19675134338E+04  0.10100000352E+00 0. -1.
       -3    1    3    3    0  502 -0.75733743433E+02  0.95089635266E+03  0.15660363578E+04  0.18336873664E+04  0.10100000352E+00 0.  1.
</event>
<event>
 5   0  0.1666051E-08  0.3791847E+04  0.7818609E-02  0.8047907E-01
       -1   -1    0    0    0  501  0.00000000000E+00  0.00000000000E+00  0.24991722773E+04  0.24991722773E+04  0.50400001928E-02 0.  1.
        1   -1    0    0  501    0  0.00000000000E+00  0.00000000000E+00 -0.14382869025E+04  0.14382869025E+04  0.50400001928E-02 0. -1.
    10030    2    1    2    0    0  0.00000000000E+00  0.00000000000E+00  0.10608853748E+04  0.39374591798E+04  0.37918474408E+04 0.  0.
        2    1    3    3  502    0 -0.17299549048E+04 -0.54766822283E+03  0.11009421747E+04  0.21224415485E+04  0.25500000920E-02 0.  1.
       -2    1    3    3    0  502  0.17299549048E+04  0.54766822283E+03 -0.40056799861E+02  0.18150176313E+04  0.25500000920E-02 0. -1.
</event>
<event>
 5   0  0.5140842E-08  0.3802985E+04  0.7818609E-02  0.8045515E-01
       -2   -1    0    0    0  501  0.00000000000E+00  0.00000000000E+00  0.18556882798E+04  0.18556882798E+04  0.25500000920E-02 0. -1.
        2   -1    0    0  501    0  0.00000000000E+00  0.00000000000E+00 -0.19484276389E+04  0.19484276389E+04  0.25500000920E-02 0.  1.
    10030    2    1    2    0    0  0.00000000000E+00  0.00000000000E+00 -0.92739359085E+02  0.38041159187E+04  0.38029853187E+04 0.  0.
        2    1    3    3  502    0  0.11921299878E+04  0.98336787848E+03  0.10618802907E+04  0.18750402780E+04  0.25500000920E-02 0. -1.
       -2    1    3    3    0  502 -0.11921299878E+04 -0.98336787848E+03 -0.11546196498E+04  0.19290756408E+04  0.25500000920E-02 0.  1.
</event>
<event>
 5   0  0.1628473E-08  0.3798485E+04  0.7818609E-02  0.8046480E-01
       -1   -1    0    0    0  501  0.00000000000E+00  0.00000000000E+00  0.22359915949E+04  0.22359915949E+04  0.50400001928E-02 0. -1.
        1   -1    0    0  501    0  0.00000000000E+00  0.00000000000E+00 -0.16132091748E+04  0.16132091748E+04  0.50400001928E-02 0.  1.
    10030    2    1    2    0    0  0.00000000000E+00  0.00000000000E+00  0.62278242011E+03  0.38492007697E+04  0.37984850431E+04 0.  0.
        3    1    3    3  502    0 -0.38324887039E+03  0.45931314292E+01  0.21963943768E+04  0.22295849529E+04  0.10100000352E+00 0. -1.
       -3    1    3    3    0  502  0.38324887039E+03 -0.45931314292E+01 -0.15736119567E+04  0.16196158168E+04  0.10100000352E+00 0.  1.
</event>
<event>
 5   0  0.1628250E-08  0.3792237E+04  0.7818609E-02  0.8047823E-01
       -1   -1    0    0    0  501  0.00000000000E+00  0.00000000000E+00  0.16169571811E+04  0.16169571811E+04  0.50400001928E-02 0. -1.
        1   -1    0    0  501    0  0.00000000000E+00  0.00000000000E+00 -0.22234759481E+04  0.22234759481E+04  0.50400001928E-02 0.  1.
    10030    2    1    2    0    0  0.00000000000E+00  0.00000000000E+00 -0.60651876706E+03  0.38404331292E+04  0.37922370186E+04 0.  0.
        1    1    3    3  502    0 -0.36120425758E+03 -0.92552055128E+03 -0.19387795178E+04  0.21785139029E+04  0.50400001928E-02 0.  1.
       -1    1    3    3    0  502  0.36120425758E+03  0.92552055128E+03  0.13322607508E+04  0.16619192263E+04  0.50400001928E-02 0. -1.
</event>
<event>
 5   0  0.5207474E-08  0.3797312E+04  0.7818609E-02  0.8046732E-01
        2   -1    0    0  501    0  0.00000000000E+00  0.00000000000E+00  0.25392048622E+04  0.25392048622E+04  0.25500000920E-02 0. -1.
       -2   -1    0    0    0  501  0.00000000000E+00  0.00000000000E+00 -0.14196943609E+04  0.14196943609E+04  0.25500000920E-02 0.  1.
    10030    2    1    2    0    0  0.00000000000E+00  0.00000000000E+00  0.11195105014E+04  0.39588992231E+04  0.37973121146E+04 0.  0.
        4    1    3    3  502    0  0.11246565337E+04  0.15287886232E+04  0.61537560473E+03  0.19951781176E+04  0.12699999809E+01 0. -1.
       -4    1    3    3    0  502 -0.11246565337E+04 -0.15287886232E+04  0.50413489666E+03  0.19637211055E+04  0.12699999809E+01 0.  1.
</event>
<event>
 5   0  0.5159761E-08  0.3804351E+04  0.7818609E-02  0.8045222E-01
        2   -1    0    0  501    0  0.00000000000E+00  0.00000000000E+00  0.20241704470E+04  0.20241704470E+04  0.25500000920E-02 0. -1.
       -2   -1    0    0    0  501  0.00000000000E+00  0.00000000000E+00 -0.17875326171E+04  0.17875326171E+04  0.25500000920E-02 0.  1.
    10030    2    1    2    0    0  0.00000000000E+00  0.00000000000E+00  0.23663782987E+03  0.38117030641E+04  0.38043505078E+04 0.  0.
        5    1    3    3  502    0 -0.19505736478E+03  0.72386369090E+03  0.18699031540E+04  0.20145932379E+04  0.46999998093E+01 0. -1.
       -5    1    3    3    0  502  0.19505736478E+03 -0.72386369090E+03 -0.16332653242E+04  0.17971098263E+04  0.46999998093E+01 0.  1.
</event>
<event>
 5   0  0.1666051E-08  0.3807521E+04  0.7818609E-02  0.8044543E-01
        1   -1    0    0  501    0  0.00000000000E+00  0.00000000000E+00  0.33884771335E+04  0.33884771335E+04  0.50400001928E-02 0. -1.
       -1   -1    0    0    0  501  0.00000000000E+00  0.00000000000E+00 -0.10695966804E+04  0.10695966804E+04  0.50400001928E-02 0.  1.
    10030    2    1    2    0    0  0.00000000000E+00  0.00000000000E+00  0.23188804531E+04  0.44580738139E+04  0.38075209224E+04 0.  0.
        2    1    3    3  502    0 -0.12338766261E+04  0.25047762715E+03  0.28313992814E+04  0.30987114195E+04  0.25500000920E-02 0.  1.
       -2    1    3    3    0  502  0.12338766261E+04 -0.25047762715E+03 -0.51251882829E+03  0.13593623945E+04  0.25500000920E-02 0. -1.
</event>
<event>
 5   0  0.1628250E-08  0.3828442E+04  0.7818609E-02  0.8040079E-01
        1   -1    0    0  501    0  0.00000000000E+00  0.00000000000E+00  0.17357964138E+04  0.17357964138E+04  0.50400001928E-02 0.  1.
       -1   -1    0    0    0  501  0.00000000000E+00  0.00000000000E+00 -0.21109858118E+04  0.21109858118E+04  0.50400001928E-02 0. -1.
    10030    2    1    2    0    0  0.00000000000E+00  0.00000000000E+00 -0.37518939798E+03  0.38467822257E+04  0.38284417728E+04 0.  0.
        4    1    3    3  502    0 -0.47582824260E+03  0.60417174471E+03  0.15737444267E+04  0.17516018803E+04  0.12699999809E+01 0.  1.
       -4    1    3    3    0  502  0.47582824260E+03 -0.60417174471E+03 -0.19489338247E+04  0.20951803454E+04  0.12699999809E+01 0. -1.
</event>
<event>
 5   0  0.1628250E-08  0.3800496E+04  0.7818609E-02  0.8046048E-01
        1   -1    0    0  501    0  0.00000000000E+00  0.00000000000E+00  0.22452186821E+04  0.22452186821E+04  0.50400001928E-02 0.  1.
       -1   -1    0    0    0  501  0.00000000000E+00  0.00000000000E+00 -0.16082810778E+04  0.16082810778E+04  0.50400001928E-02 0. -1.
    10030    2    1    2    0    0  0.00000000000E+00  0.00000000000E+00  0.63693760427E+03  0.38534997598E+04  0.38004961370E+04 0.  0.
        1    1    3    3  502    0 -0.53262885762E+03  0.18915802295E+03  0.21580115733E+04  0.22308043859E+04  0.50400001928E-02 0.  1.
       -1    1    3    3    0  502  0.53262885762E+03 -0.18915802295E+03 -0.15210739690E+04  0.16226953740E+04  0.50400001928E-02 0. -1.
</event>
<event>
 5   0  0.1628250E-08  0.3802636E+04  0.7818609E-02  0.8045590E-01
       -1   -1    0    0    0  501  0.00000000000E+00  0.00000000000E+00  0.26785333422E+04  0.26785333422E+04  0.50400001928E-02 0. -1.
        1   -1    0    0  501    0  0.00000000000E+00  0.00000000000E+00 -0.13496227593E+04  0.13496227593E+04  0.50400001928E-02 0.  1.
    10030    2    1    2    0    0  0.00000000000E+00  0.00000000000E+00  0.13289105829E+04  0.40281561015E+04  0.38026356966E+04 0.  0.
        5    1    3    3  502    0 -0.52207397880E+03 -0.40361692459E+03 -0.12244158237E+04  0.13909292076E+04  0.46999998093E+01 0.  1.
       -5    1    3    3    0  502  0.52207397880E+03  0.40361692459E+03  0.25533264067E+04  0.26372268939E+04  0.46999998093E+01 0. -1.
</event>
<event>
 5   0  0.1628473E-08  0.3799174E+04  0.7818609E-02  0.8046332E-01
        1   -1    0    0  501    0  0.00000000000E+00  0.00000000000E+00  0.23249322562E+04  0.23249322562E+04  0.50400001928E-02 0. -1.
       -1   -1    0    0    0  501  0.00000000000E+00  0.00000000000E+00 -0.15520586130E+04  0.15520586130E+04  0.50400001928E-02 0.  1.
    10030    2    1    2    0    0  0.00000000000E+00  0.00000000000E+00  0.77287364321E+03  0.38769908691E+04  0.37991741907E+04 0.  0.
        3    1    3    3  502    0  0.85201679190E+03 -0.42095950678E+03  0.20649030759E+04  0.22730957400E+04  0.10100000352E+00 0. -1.
       -3    1    3    3    0  502 -0.85201679190E+03  0.42095950678E+03 -0.12920294327E+04  0.16038951291E+04  0.10100000352E+00 0.  1.
</event>
<event>
 5   0  0.5147582E-08  0.3805215E+04  0.7818609E-02  0.8045037E-01
       -2   -1    0    0    0  501  0.00000000000E+00  0.00000000000E+00  0.17809412656E+04  0.17809412656E+04  0.25500000920E-02 0. -1.
        2   -1    0    0  501    0  0.00000000000E+00  0.00000000000E+00 -0.20325858231E+04  0.20325858231E+04  0.25500000920E-02 0.  1.
    10030    2    1    2    0    0  0.00000000000E+00  0.00000000000E+00 -0.25164455745E+03  0.38135270887E+04  0.38052153517E+04 0.  0.
        1    1    3    3  502    0  0.11455495214E+04 -0.21417430862E+03  0.13813781581E+04  0.18073073774E+04  0.50400001928E-02 0. -1.
       -1    1    3    3    0  502 -0.11455495214E+04  0.21417430862E+03 -0.16330227156E+04  0.20062197113E+04  0.50400001928E-02 0.  1.
</event>
<event>
 5   0  0.1628250E-08  0.3804913E+04  0.7818609E-02  0.8045101E-01
       -1   -1    0    0    0  501  0.00000000000E+00  0.00000000000E+00  0.31672190831E+04  0.31672190831E+04  0.50400001928E-02 0.  1.
        1   -1    0    0  501    0  0.00000000000E+00  0.00000000000E+00 -0.11427501582E+04  0.11427501582E+04  0.50400001928E-02 0. -1.
    10030    2    1    2    0    0  0.00000000000E+00  0.00000000000E+00  0.20244689249E+04  0.43099692414E+04  0.38049126710E+04 0.  0.
        5    1    3    3  502    0  0.16343876111E+04  0.48025520619E+03  0.19716910413E+04  0.26056583773E+04  0.46999998093E+01 0.  1.
       -5    1    3    3    0  502 -0.16343876111E+04 -0.48025520619E+03  0.52777883559E+02  0.17043108641E+04  0.46999998093E+01 0. -1.
</event>
<event>
 5   0  0.1628250E-08  0.3799557E+04  0.7818609E-02  0.8046250E-01
        1   -1    0    0  501    0  0.00000000000E+00  0.00000000000E+00  0.13045602117E+04  0.13045602117E+04  0.50400001928E-02 0. -1.
       -1   -1    0    0    0  501  0.00000000000E+00  0.00000000000E+00 -0.27665706375E+04  0.27665706375E+04  0.50400001928E-02 0.  1.
    10030    2    1    2    0    0  0.00000000000E+00  0.00000000000E+00 -0.14620104258E+04  0.40711308493E+04  0.37995568040E+04 0.  0.
        1    1    3    3  502    0  0.72338139991E+03  0.13169087529E+04  0.51468719067E+03  0.15882166783E+04  0.50400001928E-02 0. -1.
       -1    1    3    3    0  502 -0.72338139991E+03 -0.13169087529E+04 -0.19766976165E+04  0.24829141709E+04  0.50400001928E-02 0.  1.
</event>
<event>
 5   0  0.1628473E-08  0.3802786E+04  0.7818609E-02  0.8045557E-01
        1   -1    0    0  501    0  0.00000000000E+00  0.00000000000E+00  0.26652334296E+04  0.26652334296E+04  0.50400001928E-02 0.  1.
       -1   -1    0    0    0  501  0.00000000000E+00  0.00000000000E+00 -0.13564649940E+04  0.13564649940E+04  0.50400001928E-02 0. -1.
    10030    2    1    2    0    0  0.00000000000E+00  0.00000000000E+00  0.13087684355E+04  0.40216984236E+04  0.38027862670E+04 0.  0.
        3    1    3    3  502    0 -0.16635631158E+04 -0.29449759059E+03 -0.26826264850E+03  0.17105951976E+04  0.10100000352E+00 0.  1.
       -3    1    3    3    0  502  0.16635631158E+04  0.29449759059E+03  0.15770310840E+04  0.23111032260E+04  0.10100000352E+00 0. -1.
</event>
<event>
 5   0  0.1628250E-08  0.3800957E+04  0.7818609E-02  0.8045950E-01
       -1   -1    0    0    0  501  0.00000000000E+00  0.00000000000E+00  0.24011599745E+04  0.24011599745E+04  0.50400001928E-02 0.  1.
        1   -1    0    0  501    0  0.00000000000E+00  0.00000000000E+00 -0.15041972647E+04  0.15041972647E+04  0.50400001928E-02 0. -1.
    10030    2    1    2    0    0  0.00000000000E+00  0.00000000000E+00  0.89696270983E+03  0.39053572392E+04  0.38009568615E+04 0.  0.
        4    1    3    3  502    0  0.52972530176E+03 -0.17780396823E+04  0.25116819748E+02  0.18554423932E+04  0.12699999809E+01 0.  1.
       -4    1    3    3    0  502 -0.52972530176E+03  0.17780396823E+04  0.87184589008E+03  0.20499148460E+04  0.12699999809E+01 0. -1.
</event>
<event>
 5   0  0.1628473E-08  0.3799509E+04  0.7818609E-02  0.8046260E-01
       -1   -1    0    0    0  501  0.00000000000E+00  0.00000000000E+00  0.20108177667E+04  0.20108177667E+04  0.50400001928E-02 0. -1.
        1   -1    0    0  501    0  0.00000000000E+00  0.00000000000E+00 -0.17948256288E+04  0.17948256288E+04  0.50400001928E-02 0.  1.
    10030    2    1    2    0    0  0.00000000000E+00  0.00000000000E+00  0.21599213784E+03  0.38056433955E+04  0.37995090538E+04 0.  0.
        3    1    3    3  502    0 -0.12687643732E+04 -0.74987086671E+03  0.13086799318E+04  0.19709674086E+04  0.10100000352E+00 0. -1.
       -3    1    3    3    0  502  0.12687643732E+04  0.74987086671E+03 -0.10926877940E+04  0.18346759869E+04  0.10100000352E+00 0.  1.
</event>
<event>
 5   0  0.5147582E-08  0.3772738E+04  0.7818609E-02  0.8052031E-01
       -2   -1    0    0    0  501  0.00000000000E+00  0.00000000000E+00  0.16442529948E+04  0.16442529948E+04  0.25500000920E-02 0. -1.
        2   -1    0    0  501    0  0.00000000000E+00  0.00000000000E+00 -0.21641369828E+04  0.21641369828E+04  0.25500000920E-02 0.  1.
    10030    2    1    2    0    0  0.00000000000E+00  0.00000000000E+00 -0.51988398793E+03  0.38083899776E+04  0.37727383769E+04 0.  0.
        1    1    3    3  502    0 -0.16356425732E+04  0.78856792083E+03  0.25598731408E+03  0.18337653879E+04  0.50400001928E-02 0. -1.
       -1    1    3    3    0  502  0.16356425732E+04 -0.78856792083E+03 -0.77587130201E+03  0.19746245897E+04  0.50400001928E-02 0.  1.
</event>
<event>
 5   0  0.5086209E-08  0.3804155E+04  0.7818609E-02  0.8045264E-01
       -2   -1    0    0    0  501  0.00000000000E+00  0.00000000000E+00  0.14586620971E+04  0.14586620971E+04  0.25500000920E-02 0.  1.
        2   -1    0    0  501    0  0.00000000000E+00  0.00000000000E+00 -0.24802860895E+04  0.24802860895E+04  0.25500000920E-02 0. -1.
    10030    2    1    2    0    0  0.00000000000E+00  0.00000000000E+00 -0.10216239923E+04  0.39389481866E+04  0.38041552590E+04 0.  0.
        3    1    3    3  502    0 -0.74820935634E+03  0.56199713859E+03  0.12038355653E+04  0.15247550962E+04  0.10100000352E+00 0.  1.
       -3    1    3    3    0  502  0.74820935634E+03 -0.56199713859E+03 -0.22254595577E+04  0.24141930904E+04  0.10100000352E+00 0. -1.
</event>
<event>
 5   0  0.1628473E-08  0.3789108E+04  0.7818609E-02  0.8048496E-01
        1   -1    0    0  501    0  0.00000000000E+00  0.00000000000E+00  0.18837233321E+04  0.18837233321E+04  0.50400001928E-02 0. -1.
       -1   -1    0    0    0  501  0.00000000000E+00  0.00000000000E+00 -0.19054472117E+04  0.19054472117E+04  0.50400001928E-02 0.  1.
    10030    2    1    2    0    0  0.00000000000E+00  0.00000000000E+00 -0.21723879551E+02  0.37891705438E+04  0.37891082701E+04 0.  0.
        3    1    3    3  502    0 -0.11995354629E+04  0.32312381769E+03  0.14195604754E+04  0.18863844470E+04  0.10100000352E+00 0.  1.
       -3    1    3    3    0  502  0.11995354629E+04 -0.32312381769E+03 -0.14412843549E+04  0.19027860968E+04  0.10100000352E+00 0. -1.
</event>
<event>
 5   0  0.5159761E-08  0.3741198E+04  0.7818609E-02  0.8058893E-01
        2   -1    0    0  501    0  0.00000000000E+00  0.00000000000E+00  0.23963574703E+04  0.23963574703E+04  0.25500000920E-02 0. -1.
       -2   -1    0    0    0  501  0.00000000000E+00  0.00000000000E+00 -0.14601911536E+04  0.14601911536E+04  0.25500000920E-02 0.  1.
    10030    2    1    2    0    0  0.00000000000E+00  0.00000000000E+00  0.93616631675E+03  0.38565486239E+04  0.37411976579E+04 0.  0.
        5    1    3    3  502    0  0.47282836147E+02 -0.18464349902E+04  0.16305414040E+03  0.18542293769E+04  0.46999998093E+01 0.  1.
       -5    1    3    3    0  502 -0.47282836147E+02  0.18464349902E+04  0.77311217635E+03  0.20023192470E+04  0.46999998093E+01 0. -1.
</event>
<event>
 5   0  0.1628250E-08  0.3798818E+04  0.7818609E-02  0.8046409E-01
       -1   -1    0    0    0  501  0.00000000000E+00  0.00000000000E+00  0.24037668779E+04  0.24037668779E+04  0.50400001928E-02 0.  1.
        1   -1    0    0  501    0  0.00000000000E+00  0.00000000000E+00 -0.15008754672E+04  0.15008754672E+04  0.50400001928E-02 0. -1.
    10030    2    1    2    0    0  0.00000000000E+00  0.00000000000E+00  0.90289141070E+03  0.39046423451E+04  0.37988180983E+04 0.  0.
        4    1    3    3  502    0  0.24342668754E+03 -0.93055886751E+03  0.21349228389E+04  0.23416006275E+04  0.12699999809E+01 0.  1.
       -4    1    3    3    0  502 -0.24342668754E+03  0.93055886751E+03 -0.12320314282E+04  0.15630417176E+04  0.12699999809E+01 0. -1.
</event>
<event>
 5   0  0.1666051E-08  0.3799850E+04  0.7818609E-02  0.8046187E-01
        1   -1    0    0  501    0  0.00000000000E+00  0.00000000000E+00  0.21502659555E+04  0.21502659555E+04  0.50400001928E-02 0.  1.
       -1   -1    0    0    0  501  0.00000000000E+00  0.00000000000E+00 -0.16787299823E+04  0.16787299823E+04  0.50400001928E-02 0. -1.
    10030    2    1    2    0    0  0.00000000000E+00  0.00000000000E+00  0.47153597319E+03  0.38289959377E+04  0.37998504862E+04 0.  0.
        2    1    3    3  502    0  0.43475583180E+03  0.18495046288E+04  0.22972833940E+03  0.19137541940E+04  0.25500000920E-02 0. -1.
       -2    1    3    3    0  502 -0.43475583180E+03 -0.18495046288E+04  0.24180763378E+03  0.19152417437E+04  0.25500000920E-02 0.  1.
</event>
<event>
 5   0  0.1628250E-08  0.3799797E+04  0.7818609E-02  0.8046198E-01
       -1   -1    0    0    0  501  0.00000000000E+00  0.00000000000E+00  0.25918292972E+04  0.25918292972E+04  0.50400001928E-02 0. -1.
        1   -1    0    0  501    0  0.00000000000E+00  0.00000000000E+00 -0.13926900169E+04  0.13926900169E+04  0.50400001928E-02 0.  1.
    10030    2    1    2    0    0  0.00000000000E+00  0.00000000000E+00  0.11991392803E+04  0.39845193141E+04  0.37997972513E+04 0.  0.
        1    1    3    3  502    0 -0.52576018267E+03  0.17186358163E+04  0.12455377425E+04  0.21866634645E+04  0.50400001928E-02 0. -1.
       -1    1    3    3    0  502  0.52576018267E+03 -0.17186358163E+04 -0.46398462279E+02  0.17978558496E+04  0.50400001928E-02 0.  1.
</event>
<event>
 5   0  0.1628250E-08  0.3800032E+04  0.7818609E-02  0.8046148E-01
       -1   -1    0    0    0  501  0.00000000000E+00  0.00000000000E+00  0.19271783923E+04  0.19271783924E+04  0.50400001928E-02 0.  1.
        1   -1    0    0  501    0  0.00000000000E+00  0.00000000000E+00 -0.18732366339E+04  0.18732366339E+04  0.50400001928E-02 0. -1.
    10030    2    1    2    0    0  0.00000000000E+00  0.00000000000E+00  0.53941758461E+02  0.38004150262E+04  0.38000321918E+04 0.  0.
        5    1    3    3  502    0 -0.18019896768E+04 -0.20035235344E+03 -0.54118072387E+03  0.18921433685E+04  0.46999998093E+01 0.  1.
       -5    1    3    3    0  502  0.18019896768E+04  0.20035235344E+03  0.59512248233E+03  0.19082716578E+04  0.46999998093E+01 0. -1.
</event>
<event>
 5   0  0.5159761E-08  0.3796793E+04  0.7818609E-02  0.8046843E-01
       -2   -1    0    0    0  501  0.00000000000E+00  0.00000000000E+00  0.15332980596E+04  0.15332980596E+04  0.25500000920E-02 0.  1.
        2   -1    0    0  501    0  0.00000000000E+00  0.00000000000E+00 -0.23504293686E+04  0.23504293687E+04  0.25500000920E-02 0. -1.
    10030    2    1    2    0    0  0.00000000000E+00  0.00000000000E+00 -0.81713130902E+03  0.38837274283E+04  0.37967927467E+04 0.  0.
        5    1    3    3  502    0  0.77899408943E+03 -0.25693024622E+03 -0.21597943054E+04  0.23103199939E+04  0.46999998093E+01 0. -1.
       -5    1    3    3    0  502 -0.77899408943E+03  0.25693024622E+03  0.13426629963E+04  0.15734074344E+04  0.46999998093E+01 0.  1.
</event>
<event>
 5   0  0.5207474E-08  0.3756967E+04  0.7818609E-02  0.8055453E-01
       -2   -1    0    0    0  501  0.00000000000E+00  0.00000000000E+00  0.23661860292E+04  0.23661860292E+04  0.25500000920E-02 0.  1.
        2   -1    0    0  501    0  0.00000000000E+00  0.00000000000E+00 -0.14913026502E+04  0.14913026502E+04  0.25500000920E-02 0. -1.
    10030    2    1    2    0    0  0.00000000000E+00  0.00000000000E+00  0.87488337895E+03  0.38574886794E+04  0.37569665935E+04 0.  0.
        4    1    3    3  502    0 -0.15791468164E+04  0.22737085913E+03  0.14555861404E+04  0.21596608067E+04  0.12699999809E+01 0.  1.
       -4    1    3    3    0  502  0.15791468164E+04 -0.22737085913E+03 -0.58070276144E+03  0.16978278727E+04  0.12699999809E+01 0. -1.
</event>
<event>
 5   0  0.1628250E-08  0.3799544E+04  0.7818609E-02  0.8046253E-01
        1   -1    0    0  501    0  0.00000000000E+00  0.00000000000E+00  0.18374331682E+04  0.18374331682E+04  0.50400001928E-02 0.  1.
       -1   -1    0    0    0  501  0.00000000000E+00  0.00000000000E+00 -0.19642253832E+04  0.19642253832E+04  0.50400001928E-02 0. -1.
    10030    2    1    2    0    0  0.00000000000E+00  0.00000000000E+00 -0.12679221497E+03  0.38016585514E+04  0.37995435878E+04 0.  0.
        5    1    3    3  502    0 -0.64141661149E+03 -0.10701115760E+04  0.13700760461E+04  0.18530203768E+04  0.46999998093E+01 0. -1.
       -5    1    3    3    0  502  0.64141661149E+03  0.10701115760E+04 -0.14968682611E+04  0.19486381746E+04  0.46999998093E+01 0.  1.
</event>
<event>
 5   0  0.5147582E-08  0.3792944E+04  0.7818609E-02  0.8047671E-01
       -2   -1    0    0    0  501  0.00000000000E+00  0.00000000000E+00  0.29275078451E+04  0.29275078451E+04  0.25500000920E-02 0. -1.
        2   -1    0    0  501    0  0.00000000000E+00  0.00000000000E+00 -0.12285556072E+04  0.12285556072E+04  0.25500000920E-02 0.  1.
    10030    2    1    2    0    0  0.00000000000E+00  0.00000000000E+00  0.16989522378E+04  0.41560634523E+04  0.37929440693E+04 0.  0.
        1    1    3    3  502    0  0.13343374143E+04 -0.16877483166E+03  0.23145137740E+04  0.26769227275E+04  0.50400001928E-02 0. -1.
       -1    1    3    3    0  502 -0.13343374143E+04  0.16877483166E+03 -0.61556153616E+03  0.14791407248E+04  0.50400001928E-02 0.  1.
</event>
<event>
 5   0  0.5207474E-08  0.3781137E+04  0.7818609E-02  0.8050215E-01
        2   -1    0    0  501    0  0.00000000000E+00  0.00000000000E+00  0.11619016551E+04  0.11619016551E+04  0.25500000920E-02 0.  1.
       -2   -1    0    0    0  501  0.00000000000E+00  0.00000000000E+00 -0.30762061216E+04  0.30762061216E+04  0.25500000920E-02 0. -1.
    10030    2    1    2    0    0  0.00000000000E+00  0.00000000000E+00 -0.19143044666E+04  0.42381077767E+04  0.37811368576E+04 0.  0.
        4    1    3    3  502    0  0.92306431959E+03 -0.14258396083E+03 -0.27995431341E+04  0.29512406369E+04  0.12699999809E+01 0. -1.
       -4    1    3    3    0  502 -0.92306431959E+03  0.14258396083E+03  0.88523866758E+03  0.12868671398E+04  0.12699999809E+01 0.  1.
</event>
<event>
 5   0  0.5207474E-08  0.3799173E+04  0.7818609E-02  0.8046332E-01
        2   -1    0    0  501    0  0.00000000000E+00  0.00000000000E+00  0.16367101447E+04  0.16367101447E+04  0.25500000920E-02 0.  1.
       -2   -1    0    0    0  501  0.00000000000E+00  0.00000000000E+00 -0.22046839894E+04  0.22046839894E+04  0.25500000920E-02 0. -1.
    10030    2    1    2    0    0  0.00000000000E+00  0.00000000000E+00 -0.56797384468E+03  0.38413941341E+04  0.37991728843E+04 0.  0.
        4    1    3    3  502    0  0.15578249216E+04 -0.71456634360E+03  0.54426452270E+03  0.17982349761E+04  0.12699999809E+01 0. -1.
       -4    1    3    3    0  502 -0.15578249216E+04  0.71456634360E+03 -0.11122383674E+04  0.20431591579E+04  0.12699999809E+01 0.  1.
</event>
<event>
 5   0  0.1628250E-08  0.3803742E+04  0.7818609E-02  0.8045352E-01
        1   -1    0    0  501    0  0.00000000000E+00  0.00000000000E+00  0.17439997200E+04  0.17439997200E+04  0.50400001928E-02 0.  1.
       -1   -1    0    0    0  501  0.00000000000E+00  0.00000000000E+00 -0.20740335054E+04  0.20740335054E+04  0.50400001928E-02 0. -1.
    10030    2    1    2    0    0  0.00000000000E+00  0.00000000000E+00 -0.33003378543E+03  0.38180332254E+04  0.38037422902E+04 0.  0.
        1    1    3    3  502    0 -0.12690610707E+03 -0.11473458467E+04  0.13521532727E+04  0.17778712341E+04  0.50400001928E-02 0.  1.
       -1    1    3    3    0  502  0.12690610707E+03  0.11473458467E+04 -0.16821870582E+04  0.20401619913E+04  0.50400001928E-02 0. -1.
</event>
<event>
 5   0  0.1628250E-08  0.3804805E+04  0.7818609E-02  0.8045125E-01
       -1   -1    0    0    0  501  0.00000000000E+00  0.00000000000E+00  0.17323865542E+04  0.17323865542E+04  0.50400001928E-02 0.  1.
        1   -1    0    0  501    0  0.00000000000E+00  0.00000000000E+00 -0.20891036609E+04  0.20891036609E+04  0.50400001928E-02 0. -1.
    10030    2    1    2    0    0  0.00000000000E+00  0.00000000000E+00 -0.35671710665E+03  0.38214902151E+04  0.38048049056E+04 0.  0.
        5    1    3    3  502    0  0.64673740111E+02  0.80261372189E+02  0.17295739959E+04  0.17326490926E+04  0.46999998093E+01 0.  1.
       -5    1    3    3    0  502 -0.64673740111E+02 -0.80261372189E+02 -0.20862911026E+04  0.20888411225E+04  0.46999998093E+01 0. -1.
</event>
<event>
 5   0  0.1628473E-08  0.3797153E+04  0.7818609E-02  0.8046766E-01
        1   -1    0    0  501    0  0.00000000000E+00  0.00000000000E+00  0.18302962697E+04  0.18302962697E+04  0.50400001928E-02 0.  1.
       -1   -1    0    0    0  501  0.00000000000E+00  0.00000000000E+00 -0.19694043950E+04  0.19694043950E+04  0.50400001928E-02 0. -1.
    10030    2    1    2    0    0  0.00000000000E+00  0.00000000000E+00 -0.13910812527E+03  0.37997006648E+04  0.37971534169E+04 0.  0.
        3    1    3    3  502    0 -0.13795795211E+04 -0.11391153432E+04  0.56630126070E+03  0.18765714876E+04  0.10100000352E+00 0.  1.
       -3    1    3    3    0  502  0.13795795211E+04  0.11391153432E+04 -0.70540938597E+03  0.19231291772E+04  0.10100000352E+00 0. -1.
</event>
<event>
 5   0  0.5207474E-08  0.3805138E+04  0.7818609E-02  0.8045053E-01
        2   -1    0    0  501    0  0.00000000000E+00  0.00000000000E+00  0.28962507349E+04  0.28962507349E+04  0.25500000920E-02 0.  1.
       -2   -1    0    0    0  501  0.00000000000E+00  0.00000000000E+00 -0.12498121990E+04  0.12498121990E+04  0.25500000920E-02 0. -1.
    10030    2    1    2    0    0  0.00000000000E+00  0.00000000000E+00  0.16464385359E+04  0.41460629339E+04  0.38051383680E+04 0.  0.
        4    1    3    3  502    0 -0.10224512125E+04 -0.96287081776E+03  0.22216598980E+04  0.26283647024E+04  0.12699999809E+01 0.  1.
       -4    1    3    3    0  502  0.10224512125E+04  0.96287081776E+03 -0.57522136210E+03  0.15176982315E+04  0.12699999809E+01 0. -1.
</event>
<event>
 5   0  0.1628250E-08  0.3800569E+04  0.7818609E-02  0.8046033E-01
        1   -1    0    0  501    0  0.00000000000E+00  0.00000000000E+00  0.17710650199E+04  0.17710650199E+04  0.50400001928E-02 0. -1.
       -1   -1    0    0    0  501  0.00000000000E+00  0.00000000000E+00 -0.20389325086E+04  0.20389325086E+04  0.50400001928E-02 0.  1.
    10030    2    1    2    0    0  0.00000000000E+00  0.00000000000E+00 -0.26786748875E+03  0.38099975285E+04  0.38005694541E+04 0.  0.
        4    1    3    3  502    0 -0.67965277026E+03  0.13244001264E+04  0.10501469823E+04  0.18217502245E+04  0.12699999809E+01 0. -1.
       -4    1    3    3    0  502  0.67965277026E+03 -0.13244001264E+04 -0.13180144711E+04  0.19882473040E+04  0.12699999809E+01 0.  1.
</event>
<event>
 5   0  0.5147582E-08  0.3803994E+04  0.7818609E-02  0.8045298E-01
       -2   -1    0    0    0  501  0.00000000000E+00  0.00000000000E+00  0.29935171212E+04  0.29935171212E+04  0.25500000920E-02 0. -1.
        2   -1    0    0  501    0  0.00000000000E+00  0.00000000000E+00 -0.12084754087E+04  0.12084754087E+04  0.25500000920E-02 0.  1.
    10030    2    1    2    0    0  0.00000000000E+00  0.00000000000E+00  0.17850417125E+04  0.42019925299E+04  0.38039935996E+04 0.  0.
        1    1    3    3  502    0  0.83368658061E+01  0.94794995702E+03 -0.92891201592E+03  0.13272362856E+04  0.50400001928E-02 0.  1.
       -1    1    3    3    0  502 -0.83368658061E+01 -0.94794995702E+03  0.27139537285E+04  0.28747562444E+04  0.50400001928E-02 0. -1.
</event>
<event>
 5   0  0.1628250E-08  0.3772378E+04  0.7818609E-02  0.8052109E-01
        1   -1    0    0  501    0  0.00000000000E+00  0.00000000000E+00  0.19332496493E+04  0.19332496493E+04  0.50400001928E-02 0.  1.
       -1   -1    0    0    0  501  0.00000000000E+00  0.00000000000E+00 -0.18402743130E+04  0.18402743130E+04  0.50400001928E-02 0. -1.
    10030    2    1    2    0    0  0.00000000000E+00  0.00000000000E+00  0.92975336224E+02  0.37735239623E+04  0.37723783852E+04 0.  0.
        5    1    3    3  502    0  0.30118501762E+03  0.96679280753E+03 -0.15453116442E+04  0.18475418575E+04  0.46999998093E+01 0. -1.
       -5    1    3    3    0  502 -0.30118501762E+03 -0.96679280753E+03  0.16382869805E+04  0.19259821048E+04  0.46999998093E+01 0.  1.
</event>
<event>
 5   0  0.5086209E-08  0.3774652E+04  0.7818609E-02  0.8051617E-01
       -2   -1    0    0    0  501  0.00000000000E+00  0.00000000000E+00  0.16898417722E+04  0.16898417722E+04  0.25500000920E-02 0.  1.
        2   -1    0    0  501    0  0.00000000000E+00  0.00000000000E+00 -0.21078889136E+04  0.21078889136E+04  0.25500000920E-02 0. -1.
    10030    2    1    2    0    0  0.00000000000E+00  0.00000000000E+00 -0.41804714136E+03  0.37977306858E+04  0.37746516329E+04 0.  0.
        3    1    3    3  502    0  0.22518961227E+03 -0.15146379315E+04  0.90097182448E+03  0.17766791111E+04  0.10100000352E+00 0.  1.
       -3    1    3    3    0  502 -0.22518961227E+03  0.15146379315E+04 -0.13190189658E+04  0.20210515747E+04  0.10100000352E+00 0. -1.
</event>
<event>
 5   0  0.5147582E-08  0.3802815E+04  0.7818609E-02  0.8045551E-01
       -2   -1    0    0    0  501  0.00000000000E+00  0.00000000000E+00  0.15716171296E+04  0.15716171296E+04  0.25500000920E-02 0.  1.
        2   -1    0    0  501    0  0.00000000000E+00  0.00000000000E+00 -0.23004017843E+04  0.23004017843E+04  0.25500000920E-02 0. -1.
    10030    2    1    2    0    0  0.00000000000E+00  0.00000000000E+00 -0.72878465466E+03  0.38720189139E+04  0.38028151936E+04 0.  0.
        1    1    3    3  502    0 -0.16518081577E+04 -0.49907595203E+02 -0.13219261748E+04  0.21162348096E+04  0.50400001928E-02 0. -1.
       -1    1    3    3    0  502  0.16518081577E+04  0.49907595203E+02  0.59314152016E+03  0.17557841043E+04  0.50400001928E-02 0.  1.
</event>
<event>
 5   0  0.1628250E-08  0.3795261E+04  0.7818609E-02  0.8047173E-01
        1   -1    0    0  501    0  0.00000000000E+00  0.00000000000E+00  0.18425476756E+04  0.18425476756E+04  0.50400001928E-02 0.  1.
       -1   -1    0    0    0  501  0.00000000000E+00  0.00000000000E+00 -0.19543595630E+04  0.19543595630E+04  0.50400001928E-02 0. -1.
    10030    2    1    2    0    0  0.00000000000E+00  0.00000000000E+00 -0.11181188739E+03  0.37969072386E+04  0.37952605550E+04 0.  0.
        5    1    3    3  502    0 -0.14015080761E+04 -0.34573048476E+03 -0.12881968969E+04  0.19347423060E+04  0.46999998093E+01 0. -1.
       -5    1    3    3    0  502  0.14015080761E+04  0.34573048476E+03  0.11763850095E+04  0.18621649326E+04  0.46999998093E+01 0.  1.
</event>
<event>
 5   0  0.1666051E-08  0.3790225E+04  0.7818609E-02  0.8048256E-01
        1   -1    0    0  501    0  0.00000000000E+00  0.00000000000E+00  0.23547194324E+04  0.23547194324E+04  0.50400001928E-02 0. -1.
       -1   -1    0    0    0  501  0.00000000000E+00  0.00000000000E+00 -0.15252142601E+04  0.15252142601E+04  0.50400001928E-02 0.  1.
    10030    2    1    2    0    0  0.00000000000E+00  0.00000000000E+00  0.82950517229E+03  0.38799336926E+04  0.37902251421E+04 0.  0.
        2    1    3    3  502    0 -0.86317351868E+03 -0.10303840293E+04 -0.95279019087E+03  0.16475948892E+04  0.25500000920E-02 0.  1.
       -2    1    3    3    0  502  0.86317351868E+03  0.10303840293E+04  0.17822953632E+04  0.22323388033E+04  0.25500000920E-02 0. -1.
</event>
<event>
 5   0  0.5140842E-08  0.3799567E+04  0.7818609E-02  0.8046248E-01
        2   -1    0    0  501    0  0.00000000000E+00  0.00000000000E+00  0.21542936448E+04  0.21542936448E+04  0.25500000920E-02 0.  1.
       -2   -1    0    0    0  501  0.00000000000E+00  0.00000000000E+00 -0.16753410397E+04  0.16753410397E+04  0.25500000920E-02 0. -1.
    10030    2    1    2    0    0  0.00000000000E+00  0.00000000000E+00  0.47895260510E+03  0.38296346846E+04  0.37995665831E+04 0.  0.
        2    1    3    3  502    0 -0.68355401736E+03 -0.12915823213E+04  0.14630624297E+04  0.20678449315E+04  0.25500000920E-02 0.  1.
       -2    1    3    3    0  502  0.68355401736E+03  0.12915823213E+04 -0.98410982458E+03  0.17617897531E+04  0.25500000920E-02 0. -1.
</event>
<event>
 5   0  0.5140842E-08  0.3797556E+04  0.7818609E-02  0.8046680E-01
       -2   -1    0    0    0  501  0.00000000000E+00  0.00000000000E+00  0.14765774308E+04  0.14765774308E+04  0.25500000920E-02 0. -1.
        2   -1    0    0  501    0  0.00000000000E+00  0.00000000000E+00 -0.24416992819E+04  0.24416992819E+04  0.25500000920E-02 0.  1.
    10030    2    1    2    0    0  0.00000000000E+00  0.00000000000E+00 -0.96512185108E+03  0.39182767127E+04  0.37975560838E+04 0.  0.
        2    1    3    3  502    0 -0.14676689227E+03  0.91005848506E+03  0.12302123114E+04  0.15372603222E+04  0.25500000920E-02 0. -1.
       -2    1    3    3    0  502  0.14676689227E+03 -0.91005848506E+03 -0.21953341625E+04  0.23810163905E+04  0.25500000920E-02 0.  1.
</event>
<event>
 5   0  0.1628473E-08  0.3803356E+04  0.7818609E-02  0.8045435E-01
        1   -1    0    0  501    0  0.00000000000E+00  0.00000000000E+00  0.15509541541E+04  0.15509541541E+04  0.50400001928E-02 0. -1.
       -1   -1    0    0    0  501  0.00000000000E+00  0.00000000000E+00 -0.23317120933E+04  0.23317120933E+04  0.50400001928E-02 0.  1.
    10030    2    1    2    0    0  0.00000000000E+00  0.00000000000E+00 -0.78075793915E+03  0.38826662474E+04  0.38033556538E+04 0.  0.
        3    1    3    3  502    0  0.10475715830E+04  0.14927401710E+04 -0.94078726541E+03  0.20520136765E+04  0.10100000352E+00 0.  1.
       -3    1    3    3    0  502 -0.10475715830E+04 -0.14927401710E+04  0.16002932627E+03  0.18306525709E+04  0.10100000352E+00 0. -1.
</event>
<event>
 5   0  0.1666051E-08  0.3803126E+04  0.7818609E-02  0.8045484E-01
       -1   -1    0    0    0  501  0.00000000000E+00  0.00000000000E+00  0.25451253370E+04  0.25451253370E+04  0.50400001928E-02 0.  1.
        1   -1    0    0  501    0  0.00000000000E+00  0.00000000000E+00 -0.14207321680E+04  0.14207321680E+04  0.50400001928E-02 0. -1.
    10030    2    1    2    0    0  0.00000000000E+00  0.00000000000E+00  0.11243931690E+04  0.39658575050E+04  0.38031257870E+04 0.  0.
        2    1    3    3  502    0  0.80103217188E+03  0.10515865152E+04  0.19875996954E+04  0.23870566162E+04  0.25500000920E-02 0.  1.
       -2    1    3    3    0  502 -0.80103217188E+03 -0.10515865152E+04 -0.86320652641E+03  0.15788008889E+04  0.25500000920E-02 0. -1.
</event>
<event>
 5   0  0.5147582E-08  0.3805612E+04  0.7818609E-02  0.8044952E-01
       -2   -1    0    0    0  501  0.00000000000E+00  0.00000000000E+00  0.19930466251E+04  0.19930466251E+04  0.25500000920E-02 0.  1.
        2   -1    0    0  501    0  0.00000000000E+00  0.00000000000E+00 -0.18166514505E+04  0.18166514505E+04  0.25500000920E-02 0. -1.
    10030    2    1    2    0    0  0.00000000000E+00  0.00000000000E+00  0.17639517458E+03  0.38096980757E+04  0.38056121939E+04 0.  0.
        1    1    3    3  502    0  0.17274415268E+04 -0.94761860498E+02  0.88128361514E+03  0.19415702020E+04  0.50400001928E-02 0.  1.
       -1    1    3    3    0  502 -0.17274415268E+04  0.94761860498E+02 -0.70488844056E+03  0.18681278737E+04  0.50400001928E-02 0. -1.
</event>
<event>
 5   0  0.1628250E-08  0.3797546E+04  0.7818609E-02  0.8046682E-01
       -1   -1    0    0    0  501  0.00000000000E+00  0.00000000000E+00  0.18986772864E+04  0.18986772864E+04  0.50400001928E-02 0.  1.
        1   -1    0    0  501    0  0.00000000000E+00  0.00000000000E+00 -0.18988683701E+04  0.18988683701E+04  0.50400001928E-02 0. -1.
    10030    2    1    2    0    0  0.00000000000E+00  0.00000000000E+00 -0.19108377579E+00  0.37975456565E+04  0.37975456517E+04 0.  0.
        4    1    3    3  502    0 -0.57731179147E+03  0.10442697986E+04 -0.14771020822E+04  0.18988471478E+04  0.12699999809E+01 0. -1.
       -4    1    3    3    0  502  0.57731179147E+03 -0.10442697986E+04  0.14769109984E+04  0.18986985087E+04  0.12699999809E+01 0.  1.
</event>
<event>
 5   0  0.5147582E-08  0.3801185E+04  0.7818609E-02  0.8045901E-01
       -2   -1    0    0    0  501  0.00000000000E+00  0.00000000000E+00  0.22018804946E+04  0.22018804946E+04  0.25500000920E-02 0.  1.
        2   -1    0    0  501    0  0.00000000000E+00  0.00000000000E+00 -0.16405303691E+04  0.16405303691E+04  0.25500000920E-02 0. -1.
    10030    2    1    2    0    0  0.00000000000E+00  0.00000000000E+00  0.56135012553E+03  0.38424108636E+04  0.38011849839E+04 0.  0.
        1    1    3    3  502    0  0.68059205342E+03 -0.23627099827E+03 -0.14971554769E+04  0.16614764668E+04  0.50400001928E-02 0. -1.
       -1    1    3    3    0  502 -0.68059205342E+03  0.23627099827E+03  0.20585056025E+04  0.21809343968E+04  0.50400001928E-02 0.  1.
</event>
<event>
 5   0  0.1628250E-08  0.3789928E+04  0.7818609E-02  0.8048320E-01
       -1   -1    0    0    0  501  0.00000000000E+00  0.00000000000E+00  0.29017024691E+04  0.29017024691E+04  0.50400001928E-02 0.  1.
        1   -1    0    0  501    0  0.00000000000E+00  0.00000000000E+00 -0.12375111125E+04  0.12375111125E+04  0.50400001928E-02 0. -1.
    10030    2    1    2    0    0  0.00000000000E+00  0.00000000000E+00  0.16641913566E+04  0.41392135816E+04  0.37899282583E+04 0.  0.
        1    1    3    3  502    0  0.26760479025E+03 -0.16028154503E+04  0.18967482935E+04  0.24976556569E+04  0.50400001928E-02 0.  1.
       -1    1    3    3    0  502 -0.26760479025E+03  0.16028154503E+04 -0.23255693690E+03  0.16415579247E+04  0.50400001928E-02 0. -1.
</event>
<event>
 5   0  0.5207474E-08  0.3797418E+04  0.7818609E-02  0.8046709E-01
        2   -1    0    0  501    0  0.00000000000E+00  0.00000000000E+00  0.23658357796E+04  0.23658357796E+04  0.25500000920E-02 0.  1.
       -2   -1    0    0    0  501  0.00000000000E+00  0.00000000000E+00 -0.15238150943E+04  0.15238150943E+04  0.25500000920E-02 0. -1.
    10030    2    1    2    0    0  0.00000000000E+00  0.00000000000E+00  0.84202068534E+03  0.38896508739E+04  0.37974182132E+04 0.  0.
        4    1    3    3  502    0  0.12826115566E+04  0.74899327873E+03 -0.79051584871E+03  0.16825576533E+04  0.12699999809E+01 0. -1.
       -4    1    3    3    0  502 -0.12826115566E+04 -0.74899327873E+03  0.16325365340E+04  0.22070932206E+04  0.12699999809E+01 0.  1.
</event>
<event>
 5   0  0.5086209E-08  0.3802195E+04  0.7818609E-02  0.8045684E-01
        2   -1    0    0  501    0  0.00000000000E+00  0.00000000000E+00  0.11751868842E+04  0.11751868842E+04  0.25500000920E-02 0. -1.
       -2   -1    0    0    0  501  0.00000000000E+00  0.00000000000E+00 -0.30754008824E+04  0.30754008824E+04  0.25500000920E-02 0.  1.
    10030    2    1    2    0    0  0.00000000000E+00  0.00000000000E+00 -0.19002139982E+04  0.42505877666E+04  0.38021945140E+04 0.  0.
        3    1    3    3  502    0  0.31702232867E+03  0.95548777943E+03  0.85274751117E+03  0.13193325515E+04  0.10100000352E+00 0. -1.
       -3    1    3    3    0  502 -0.31702232867E+03 -0.95548777943E+03 -0.27529615094E+04  0.29312552151E+04  0.10100000352E+00 0.  1.
</event>
<event>
 5   0  0.5140842E-08  0.3802020E+04  0.7818609E-02  0.8045722E-01
        2   -1    0    0  501    0  0.00000000000E+00  0.00000000000E+00  0.21159570657E+04  0.21159570657E+04  0.25500000920E-02 0. -1.
       -2   -1    0    0    0  501  0.00000000000E+00  0.00000000000E+00 -0.17078981978E+04  0.17078981978E+04  0.25500000920E-02 0.  1.
    10030    2    1    2    0    0  0.00000000000E+00  0.00000000000E+00  0.40805886785E+03  0.38238552635E+04  0.38020201258E+04 0.  0.
        2    1    3    3  502    0 -0.84963410327E+03  0.16210396572E+04 -0.31291816175E+03  0.18567620891E+04  0.25500000920E-02 0.  1.
       -2    1    3    3    0  502  0.84963410327E+03 -0.16210396572E+04  0.72097702960E+03  0.19670931744E+04  0.25500000920E-02 0. -1.
</event>
<event>
 5   0  0.5147582E-08  0.3811796E+04  0.7818609E-02  0.8043628E-01
       -2   -1    0    0    0  501  0.00000000000E+00  0.00000000000E+00  0.14703390633E+04  0.14703390633E+04  0.25500000920E-02 0. -1.
        2   -1    0    0  501    0  0.00000000000E+00  0.00000000000E+00 -0.24704827221E+04  0.24704827221E+04  0.25500000920E-02 0.  1.
    10030    2    1    2    0    0  0.00000000000E+00  0.00000000000E+00 -0.10001436588E+04  0.39408217854E+04  0.38117960342E+04 0.  0.
        1    1    3    3  502    0 -0.51984091512E+03 -0.77973746560E+03  0.12156885133E+04  0.15349669878E+04  0.50400001928E-02 0. -1.
       -1    1    3    3    0  502  0.51984091512E+03  0.77973746560E+03 -0.22158321721E+04  0.24058547976E+04  0.50400001928E-02 0.  1.
</event>
<event>
 5   0  0.1628250E-08  0.3806460E+04  0.7818609E-02  0.8044770E-01
       -1   -1    0    0    0  501  0.00000000000E+00  0.00000000000E+00  0.17374211166E+04  0.17374211166E+04  0.50400001928E-02 0.  1.
        1   -1    0    0  501    0  0.00000000000E+00  0.00000000000E+00 -0.20848627264E+04  0.20848627264E+04  0.50400001928E-02 0. -1.
    10030    2    1    2    0    0  0.00000000000E+00  0.00000000000E+00 -0.34744160981E+03  0.38222838430E+04  0.38064600489E+04 0.  0.
        4    1    3    3  502    0 -0.30364009916E+03 -0.12361488508E+03  0.17088541391E+04  0.17400178250E+04  0.12699999809E+01 0.  1.
       -4    1    3    3    0  502  0.30364009916E+03  0.12361488508E+03 -0.20562957489E+04  0.20822660180E+04  0.12699999809E+01 0. -1.
</event>
<event>
 5   0  0.5140842E-08  0.3794536E+04  0.7818609E-02  0.8047328E-01
        2   -1    0    0  501    0  0.00000000000E+00  0.00000000000E+00  0.29176629608E+04  0.29176629608E+04  0.25500000920E-02 0. -1.
       -2   -1    0    0    0  501  0.00000000000E+00  0.00000000000E+00 -0.12337358972E+04  0.12337358973E+04  0.25500000920E-02 0.  1.
    10030    2    1    2    0    0  0.00000000000E+00  0.00000000000E+00  0.16839270635E+04  0.41513988580E+04  0.37945358245E+04 0.  0.
        2    1    3    3  502    0  0.90912644984E+03 -0.10869025170E+02  0.26638045015E+04  0.28146906508E+04  0.25500000920E-02 0. -1.
       -2    1    3    3    0  502 -0.90912644984E+03  0.10869025170E+02 -0.97987743804E+03  0.13367082072E+04  0.25500000920E-02 0.  1.
</event>
<event>
 5   0  0.1628250E-08  0.3797644E+04  0.7818609E-02  0.8046661E-01
        1   -1    0    0  501    0  0.00000000000E+00  0.00000000000E+00  0.20003696850E+04  0.20003696850E+04  0.50400001928E-02 0. -1.
       -1   -1    0    0    0  501  0.00000000000E+00  0.00000000000E+00 -0.18024296519E+04  0.18024296519E+04  0.50400001928E-02 0.  1.
    10030    2    1    2    0    0  0.00000000000E+00  0.00000000000E+00  0.19794003310E+03  0.38027993369E+04  0.37976443409E+04 0.  0.
        5    1    3    3  502    0  0.61377146166E+02 -0.62153680798E+03  0.18945656507E+04  0.19948624646E+04  0.46999998093E+01 0. -1.
       -5    1    3    3    0  502 -0.61377146166E+02  0.62153680798E+03 -0.16966256176E+04  0.18079368723E+04  0.46999998093E+01 0.  1.
</event>
<event>
 5   0  0.1628250E-08  0.3762443E+04  0.7818609E-02  0.8054263E-01
        1   -1    0    0  501    0  0.00000000000E+00  0.00000000000E+00  0.16820162873E+04  0.16820162873E+04  0.50400001928E-02 0.  1.
       -1   -1    0    0    0  501  0.00000000000E+00  0.00000000000E+00 -0.21040193321E+04  0.21040193321E+04  0.50400001928E-02 0. -1.
    10030    2    1    2    0    0  0.00000000000E+00  0.00000000000E+00 -0.42200304485E+03  0.37860356194E+04  0.37624432410E+04 0.  0.
        4    1    3    3  502    0 -0.12325942792E+04  0.12856269609E+04 -0.82049569224E+03  0.19609538836E+04  0.12699999809E+01 0. -1.
       -4    1    3    3    0  502  0.12325942792E+04 -0.12856269609E+04  0.39849264739E+03  0.18250817359E+04  0.12699999809E+01 0.  1.
</event>
<event>
 5   0  0.1666051E-08  0.3790402E+04  0.7818609E-02  0.8048218E-01
        1   -1    0    0  501    0  0.00000000000E+00  0.00000000000E+00  0.14813899023E+04  0.14813899023E+04  0.50400001928E-02 0. -1.
       -1   -1    0    0    0  501  0.00000000000E+00  0.00000000000E+00 -0.24246056508E+04  0.24246056508E+04  0.50400001928E-02 0.  1.
    10030    2    1    2    0    0  0.00000000000E+00  0.00000000000E+00 -0.94321574843E+03  0.39059955531E+04  0.37904017350E+04 0.  0.
        2    1    3    3  502    0  0.12615451261E+04  0.11729907841E+03 -0.19240344672E+04  0.23037282414E+04  0.25500000920E-02 0.  1.
       -2    1    3    3    0  502 -0.12615451261E+04 -0.11729907841E+03  0.98081871879E+03  0.16022673117E+04  0.25500000920E-02 0. -1.
</event>
<event>
 5   0  0.1628250E-08  0.3800705E+04  0.7818609E-02  0.8046004E-01
       -1   -1    0    0    0  501  0.00000000000E+00  0.00000000000E+00  0.31399027637E+04  0.31399027637E+04  0.50400001928E-02 0. -1.
        1   -1    0    0  501    0  0.00000000000E+00  0.00000000000E+00 -0.11501439465E+04  0.11501439465E+04  0.50400001928E-02 0.  1.
    10030    2    1    2    0    0  0.00000000000E+00  0.00000000000E+00  0.19897588172E+04  0.42900467102E+04  0.38007052799E+04 0.  0.
        5    1    3    3  502    0 -0.18250266527E+04 -0.51903474110E+03  0.11143282755E+04  0.22004247183E+04  0.46999998093E+01 0.  1.
       -5    1    3    3    0  502  0.18250266527E+04  0.51903474110E+03  0.87543054174E+03  0.20896219919E+04  0.46999998093E+01 0. -1.
</event>
<event>
 5   0  0.5147582E-08  0.3791110E+04  0.7818609E-02  0.8048065E-01
        2   -1    0    0  501    0  0.00000000000E+00  0.00000000000E+00  0.26603472198E+04  0.26603472198E+04  0.25500000920E-02 0. -1.
       -2   -1    0    0    0  501  0.00000000000E+00  0.00000000000E+00 -0.13506237416E+04  0.13506237416E+04  0.25500000920E-02 0.  1.
    10030    2    1    2    0    0  0.00000000000E+00  0.00000000000E+00  0.13097234782E+04  0.40109709614E+04  0.37911096613E+04 0.  0.
        1    1    3    3  502    0 -0.14410083729E+03 -0.95809334722E+03  0.23785868479E+04  0.25683425212E+04  0.50400001928E-02 0. -1.
       -1    1    3    3    0  502  0.14410083729E+03  0.95809334722E+03 -0.10688633697E+04  0.14426284402E+04  0.50400001928E-02 0.  1.
</event>
<event>
 5   0  0.5207474E-08  0.3800389E+04  0.7818609E-02  0.8046071E-01
        2   -1    0    0  501    0  0.00000000000E+00  0.00000000000E+00  0.14292180918E+04  0.14292180918E+04  0.25500000920E-02 0. -1.
       -2   -1    0    0    0  501  0.00000000000E+00  0.00000000000E+00 -0.25263741572E+04  0.25263741572E+04  0.25500000920E-02 0.  1.
    10030    2    1    2    0    0  0.00000000000E+00  0.00000000000E+00 -0.10971560655E+04  0.39555922490E+04  0.38003892707E+04 0.  0.
        4    1    3    3  502    0 -0.53926935405E+03 -0.67655822821E+02  0.13465915583E+04  0.14521360764E+04  0.12699999809E+01 0. -1.
       -4    1    3    3    0  502  0.53926935405E+03  0.67655822821E+02 -0.24437476238E+04  0.25034561726E+04  0.12699999809E+01 0.  1.
</event>
<event>
 5   0  0.5086209E-08  0.3792718E+04  0.7818609E-02  0.8047719E-01
        2   -1    0    0  501    0  0.00000000000E+00  0.00000000000E+00  0.16580643913E+04  0.16580643913E+04  0.25500000920E-02 0.  1.
       -2   -1    0    0    0  501  0.00000000000E+00  0.00000000000E+00 -0.21689004845E+04  0.21689004845E+04  0.25500000920E-02 0. -1.
    10030    2    1    2    0    0  0.00000000000E+00  0.00000000000E+00 -0.51083609329E+03  0.38269648758E+04  0.37927175806E+04 0.  0.
        3    1    3    3  502    0  0.29324824979E+03  0.85801866507E+02 -0.21439002281E+04  0.21655633666E+04  0.10100000352E+00 0. -1.
       -3    1    3    3    0  502 -0.29324824979E+03 -0.85801866507E+02  0.16330641348E+04  0.16614015092E+04  0.10100000352E+00 0.  1.
</event>
<event>
 5   0  0.1666051E-08  0.3800797E+04  0.7818609E-02  0.8045984E-01
       -1   -1    0    0    0  501  0.00000000000E+00  0.00000000000E+00  0.15216644981E+04  0.15216644981E+04  0.50400001928E-02 0. -1.
        1   -1    0    0  501    0  0.00000000000E+00  0.00000000000E+00 -0.23733973259E+04  0.23733973259E+04  0.50400001928E-02 0.  1.
    10030    2    1    2    0    0  0.00000000000E+00  0.00000000000E+00 -0.85173282773E+03  0.38950618240E+04  0.38007969958E+04 0.  0.
        2    1    3    3  502    0  0.12849099317E+04 -0.67356536911E+03  0.83210826194E+03  0.16724496999E+04  0.25500000920E-02 0. -1.
       -2    1    3    3    0  502 -0.12849099317E+04  0.67356536911E+03 -0.16838410897E+04  0.22226121241E+04  0.25500000920E-02 0.  1.
</event>
<event>
 5   0  0.1666051E-08  0.3796023E+04  0.7818609E-02  0.8047009E-01
        1   -1    0    0  501    0  0.00000000000E+00  0.00000000000E+00  0.22442623044E+04  0.22442623044E+04  0.50400001928E-02 0. -1.
       -1   -1    0    0    0  501  0.00000000000E+00  0.00000000000E+00 -0.16051814884E+04  0.16051814884E+04  0.50400001928E-02 0.  1.
    10030    2    1    2    0    0  0.00000000000E+00  0.00000000000E+00  0.63908081597E+03  0.38494437928E+04  0.37960233435E+04 0.  0.
        2    1    3    3  502    0  0.54660832944E+03  0.14057518376E+04  0.14879394281E+04  0.21186983354E+04  0.25500000920E-02 0. -1.
       -2    1    3    3    0  502 -0.54660832944E+03 -0.14057518376E+04 -0.84885861213E+03  0.17307454574E+04  0.25500000920E-02 0.  1.
</event>
<event>
 5   0  0.1628250E-08  0.3797475E+04  0.7818609E-02  0.8046697E-01
        1   -1    0    0  501    0  0.00000000000E+00  0.00000000000E+00  0.12168911889E+04  0.12168911889E+04  0.50400001928E-02 0. -1.
       -1   -1    0    0    0  501  0.00000000000E+00  0.00000000000E+00 -0.29626348688E+04  0.29626348688E+04  0.50400001928E-02 0.  1.
    10030    2    1    2    0    0  0.00000000000E+00  0.00000000000E+00 -0.17457436798E+04  0.41795260577E+04  0.37974750916E+04 0.  0.
        4    1    3    3  502    0  0.91950546905E+03 -0.84574071990E+03 -0.24465602816E+04  0.27470759905E+04  0.12699999809E+01 0.  1.
       -4    1    3    3    0  502 -0.91950546905E+03  0.84574071990E+03  0.70081660179E+03  0.14324500672E+04  0.12699999809E+01 0. -1.
</event>
<event>
 5   0  0.1628473E-08  0.3792439E+04  0.7818609E-02  0.8047779E-01
       -1   -1    0    0    0  501  0.00000000000E+00  0.00000000000E+00  0.11033803902E+04  0.11033803902E+04  0.50400001928E-02 0.  1.
        1   -1    0    0  501    0  0.00000000000E+00  0.00000000000E+00 -0.32587571239E+04  0.32587571239E+04  0.50400001928E-02 0. -1.
    10030    2    1    2    0    0  0.00000000000E+00  0.00000000000E+00 -0.21553767337E+04  0.43621375141E+04  0.37924391660E+04 0.  0.
        3    1    3    3  502    0 -0.15661818278E+04  0.53707523083E+03 -0.21408007208E+04  0.27063634379E+04  0.10100000352E+00 0. -1.
       -3    1    3    3    0  502  0.15661818278E+04 -0.53707523083E+03 -0.14576012829E+02  0.16557740762E+04  0.10100000352E+00 0.  1.
</event>
<event>
 5   0  0.5207474E-08  0.3812712E+04  0.7818609E-02  0.8043432E-01
       -2   -1    0    0    0  501  0.00000000000E+00  0.00000000000E+00  0.22003853228E+04  0.22003853228E+04  0.25500000920E-02 0.  1.
        2   -1    0    0  501    0  0.00000000000E+00  0.00000000000E+00 -0.16516166819E+04  0.16516166819E+04  0.25500000920E-02 0. -1.
    10030    2    1    2    0    0  0.00000000000E+00  0.00000000000E+00  0.54876864098E+03  0.38520020047E+04  0.38127119512E+04 0.  0.
        4    1    3    3  502    0  0.77458158363E+03  0.87149384688E+03 -0.12493731429E+04  0.17089215950E+04  0.12699999809E+01 0. -1.
       -4    1    3    3    0  502 -0.77458158363E+03 -0.87149384688E+03  0.17981417838E+04  0.21430804097E+04  0.12699999809E+01 0.  1.
</event>
<event>
 5   0  0.5159761E-08  0.3801012E+04  0.7818609E-02  0.8045938E-01
        2   -1    0    0  501    0  0.00000000000E+00  0.00000000000E+00  0.30123882067E+04  0.30123882067E+04  0.25500000920E-02 0.  1.
       -2   -1    0    0    0  501  0.00000000000E+00  0.00000000000E+00 -0.11990230563E+04  0.11990230563E+04  0.25500000920E-02 0. -1.
    10030    2    1    2    0    0  0.00000000000E+00  0.00000000000E+00  0.18133651505E+04  0.42114112630E+04  0.38010119254E+04 0.  0.
        5    1    3    3  502    0  0.86470607154E+03  0.37811406649E+03  0.27344030180E+04  0.28926923086E+04  0.46999998093E+01 0.  1.
       -5    1    3    3    0  502 -0.86470607154E+03 -0.37811406649E+03 -0.92103786748E+03  0.13187189544E+04  0.46999998093E+01 0. -1.
</event>
<event>
 5   0  0.1628250E-08  0.3794518E+04  0.7818609E-02  0.8047332E-01
       -1   -1    0    0    0  501  0.00000000000E+00  0.00000000000E+00  0.17322722058E+04  0.17322722058E+04  0.50400001928E-02 0. -1.
        1   -1    0    0  501    0  0.00000000000E+00  0.00000000000E+00 -0.20779595600E+04  0.20779595600E+04  0.50400001928E-02 0.  1.
    10030    2    1    2    0    0  0.00000000000E+00  0.00000000000E+00 -0.34568735421E+03  0.38102317659E+04  0.37945179355E+04 0.  0.
        5    1    3    3  502    0 -0.10301363225E+04 -0.10816171235E+04  0.10018268776E+04  0.17985426399E+04  0.46999998093E+01 0. -1.
       -5    1    3    3    0  502  0.10301363225E+04  0.10816171235E+04 -0.13475142318E+04  0.20116891260E+04  0.46999998093E+01 0.  1.
</event>
<event>
 5   0  0.5147582E-08  0.3799548E+04  0.7818609E-02  0.8046252E-01
        2   -1    0    0  501    0  0.00000000000E+00  0.00000000000E+00  0.15461263140E+04  0.15461263140E+04  0.25500000920E-02 0.  1.
       -2   -1    0    0    0  501  0.00000000000E+00  0.00000000000E+00 -0.23343115211E+04  0.23343115211E+04  0.25500000920E-02 0. -1.
    10030    2    1    2    0    0  0.00000000000E+00  0.00000000000E+00 -0.78818520709E+03  0.38804378351E+04  0.37995475878E+04 0.  0.
        1    1    3    3  502    0 -0.90306583933E+03  0.12943968684E+04 -0.14740304000E+04  0.21595732873E+04  0.50400001928E-02 0. -1.
       -1    1    3    3    0  502  0.90306583933E+03 -0.12943968684E+04  0.68584519294E+03  0.17208645478E+04  0.50400001928E-02 0.  1.
</event>
<event>
 5   0  0.5140842E-08  0.3835729E+04  0.7818609E-02  0.8038531E-01
        2   -1    0    0  501    0  0.00000000000E+00  0.00000000000E+00  0.28600281602E+04  0.28600281602E+04  0.25500000920E-02 0. -1.
       -2   -1    0    0    0  501  0.00000000000E+00  0.00000000000E+00 -0.12860728569E+04  0.12860728569E+04  0.25500000920E-02 0.  1.
    10030    2    1    2    0    0  0.00000000000E+00  0.00000000000E+00  0.15739553033E+04  0.41461010171E+04  0.38357291806E+04 0.  0.
        2    1    3    3  502    0  0.61410670008E+03  0.62247529942E+03 -0.10580677594E+04  0.13726288358E+04  0.25500000920E-02 0.  1.
       -2    1    3    3    0  502 -0.61410670008E+03 -0.62247529942E+03  0.26320230627E+04  0.27734721813E+04  0.25500000920E-02 0. -1.
</event>
<event>
 5   0  0.5140842E-08  0.3804645E+04  0.7818609E-02  0.8045159E-01
       -2   -1    0    0    0  501  0.00000000000E+00  0.00000000000E+00  0.12558413976E+04  0.12558413976E+04  0.25500000920E-02 0. -1.
        2   -1    0    0  501    0  0.00000000000E+00  0.00000000000E+00 -0.28815980807E+04  0.28815980807E+04  0.25500000920E-02 0.  1.
    10030    2    1    2    0    0  0.00000000000E+00  0.00000000000E+00 -0.16257566832E+04  0.41374394783E+04  0.38046446146E+04 0.  0.
        2    1    3    3  502    0 -0.22524020876E+03  0.15942329120E+04  0.28891700451E+03  0.16357826154E+04  0.25500000920E-02 0.  1.
       -2    1    3    3    0  502  0.22524020876E+03 -0.15942329120E+04 -0.19146736877E+04  0.25016568629E+04  0.25500000920E-02 0. -1.
</event>
<event>
 5   0  0.1628250E-08  0.3798536E+04  0.7818609E-02  0.8046469E-01
       -1   -1    0    0    0  501  0.00000000000E+00  0.00000000000E+00  0.21477002355E+04  0.21477002355E+04  0.50400001928E-02 0. -1.
        1   -1    0    0  501    0  0.00000000000E+00  0.00000000000E+00 -0.16795724649E+04  0.16795724649E+04  0.50400001928E-02 0.  1.
    10030    2    1    2    0    0  0.00000000000E+00  0.00000000000E+00  0.46812777065E+03  0.38272727004E+04  0.37985356012E+04 0.  0.
        4    1    3    3  502    0 -0.10090733034E+04 -0.14402952592E+04  0.95680306098E+03  0.20020372313E+04  0.12699999809E+01 0. -1.
       -4    1    3    3    0  502  0.10090733034E+04  0.14402952592E+04 -0.48867529034E+03  0.18252354691E+04  0.12699999809E+01 0.  1.
</event>
<event>
 5   0  0.1628250E-08  0.3799704E+04  0.7818609E-02  0.8046218E-01
        1   -1    0    0  501    0  0.00000000000E+00  0.00000000000E+00  0.12489363592E+04  0.12489363592E+04  0.50400001928E-02 0.  1.
       -1   -1    0    0    0  501  0.00000000000E+00  0.00000000000E+00 -0.28900093777E+04  0.28900093777E+04  0.50400001928E-02 0. -1.
    10030    2    1    2    0    0  0.00000000000E+00  0.00000000000E+00 -0.16410730185E+04  0.41389457370E+04  0.37997040887E+04 0.  0.
        1    1    3    3  502    0 -0.67253374648E+03  0.14833896359E+04  0.24489583651E+03  0.16470338256E+04  0.50400001928E-02 0.  1.
       -1    1    3    3    0  502  0.67253374648E+03 -0.14833896359E+04 -0.18859688550E+04  0.24919119114E+04  0.50400001928E-02 0. -1.
</event>
<event>
 5   0  0.5159761E-08  0.3798005E+04  0.7818609E-02  0.8046583E-01
       -2   -1    0    0    0  501  0.00000000000E+00  0.00000000000E+00  0.14841776594E+04  0.14841776594E+04  0.25500000920E-02 0. -1.
        2   -1    0    0  501    0  0.00000000000E+00  0.00000000000E+00 -0.24297702064E+04  0.24297702064E+04  0.25500000920E-02 0.  1.
    10030    2    1    2    0    0  0.00000000000E+00  0.00000000000E+00 -0.94559254707E+03  0.39139478658E+04  0.37980050857E+04 0.  0.
        5    1    3    3  502    0  0.18627822216E+03 -0.55803965038E+03  0.13878922228E+04  0.15074397963E+04  0.46999998093E+01 0. -1.
       -5    1    3    3    0  502 -0.18627822216E+03  0.55803965038E+03 -0.23334847699E+04  0.24065080695E+04  0.46999998093E+01 0.  1.
</event>
<event>
 5   0  0.1628250E-08  0.3800713E+04  0.7818609E-02  0.8046002E-01
       -1   -1    0    0    0  501  0.00000000000E+00  0.00000000000E+00  0.16655553460E+04  0.16655553460E+04  0.50400001928E-02 0. -1.
        1   -1    0    0  501    0  0.00000000000E+00  0.00000000000E+00 -0.21682582461E+04  0.21682582461E+04  0.50400001928E-02 0.  1.
    10030    2    1    2    0    0  0.00000000000E+00  0.00000000000E+00 -0.50270290014E+03  0.38338135921E+04  0.38007126244E+04 0.  0.
        5    1    3    3  502    0 -0.89082636386E+03  0.76464388887E+03  0.12560124619E+04  0.17192560256E+04  0.46999998093E+01 0. -1.
       -5    1    3    3    0  502  0.89082636386E+03 -0.76464388887E+03 -0.17587153620E+04  0.21145575665E+04  0.46999998093E+01 0.  1.
</event>
<event>
 5   0  0.5140842E-08  0.3804279E+04  0.7818609E-02  0.8045237E-01
       -2   -1    0    0    0  501  0.00000000000E+00  0.00000000000E+00  0.19725475822E+04  0.19725475822E+04  0.25500000920E-02 0.  1.
        2   -1    0    0  501    0  0.00000000000E+00  0.00000000000E+00 -0.18342450051E+04  0.18342450051E+04  0.25500000920E-02 0. -1.
    10030    2    1    2    0    0  0.00000000000E+00  0.00000000000E+00  0.13830257716E+03  0.38067925873E+04  0.38042794587E+04 0.  0.
        2    1    3    3  502    0 -0.12218334070E+04 -0.11513266519E+03  0.15233845811E+04  0.19562292777E+04  0.25500000920E-02 0.  1.
       -2    1    3    3    0  502  0.12218334070E+04  0.11513266519E+03 -0.13850820040E+04  0.18505633096E+04  0.25500000920E-02 0. -1.
</event>
<event>
 5   0  0.5207474E-08  0.3760521E+04  0.7818609E-02  0.8054680E-01
       -2   -1    0    0    0  501  0.00000000000E+00  0.00000000000E+00  0.27233930566E+04  0.27233930566E+04  0.25500000920E-02 0. -1.
        2   -1    0    0  501    0  0.00000000000E+00  0.00000000000E+00 -0.12981525890E+04  0.12981525890E+04  0.25500000920E-02 0.  1.
    10030    2    1    2    0    0  0.00000000000E+00  0.00000000000E+00  0.14252404676E+04  0.40215456456E+04  0.37605211061E+04 0.  0.
        4    1    3    3  502    0  0.19306493215E+03  0.16439436621E+04 -0.24122873223E+03  0.16727276367E+04  0.12699999809E+01 0.  1.
       -4    1    3    3    0  502 -0.19306493215E+03 -0.16439436621E+04  0.16664691998E+04  0.23488180089E+04  0.12699999809E+01 0. -1.
</event>
<event>
 5   0  0.1628250E-08  0.3797254E+04  0.7818609E-02  0.8046745E-01
        1   -1    0    0  501    0  0.00000000000E+00  0.00000000000E+00  0.21018054072E+04  0.21018054072E+04  0.50400001928E-02 0. -1.
       -1   -1    0    0    0  501  0.00000000000E+00  0.00000000000E+00 -0.17150891002E+04  0.17150891002E+04  0.50400001928E-02 0.  1.
    10030    2    1    2    0    0  0.00000000000E+00  0.00000000000E+00  0.38671630699E+03  0.38168945074E+04  0.37972535047E+04 0.  0.
        4    1    3    3  502    0  0.12246364491E+04  0.22873532733E+03 -0.12467868812E+04  0.17625360769E+04  0.12699999809E+01 0.  1.
       -4    1    3    3    0  502 -0.12246364491E+04 -0.22873532733E+03  0.16335031882E+04  0.20543584305E+04  0.12699999809E+01 0. -1.
</event>
<event>
 5   0  0.5159761E-08  0.3805606E+04  0.7818609E-02  0.8044953E-01
        2   -1    0    0  501    0  0.00000000000E+00  0.00000000000E+00  0.23308033945E+04  0.23308033945E+04  0.25500000920E-02 0.  1.
       -2   -1    0    0    0  501  0.00000000000E+00  0.00000000000E+00 -0.15533955385E+04  0.15533955385E+04  0.25500000920E-02 0. -1.
    10030    2    1    2    0    0  0.00000000000E+00  0.00000000000E+00  0.77740785599E+03  0.38841989330E+04  0.38056061773E+04 0.  0.
        5    1    3    3  502    0  0.78428502601E+03  0.74472200830E+03  0.19865778575E+04  0.22619079436E+04  0.46999998093E+01 0.  1.
       -5    1    3    3    0  502 -0.78428502601E+03 -0.74472200830E+03 -0.12091700015E+04  0.16222909894E+04  0.46999998093E+01 0. -1.
</event>
<event>
 5   0  0.5086209E-08  0.3797911E+04  0.7818609E-02  0.8046603E-01
        2   -1    0    0  501    0  0.00000000000E+00  0.00000000000E+00  0.12073925448E+04  0.12073925448E+04  0.25500000920E-02 0.  1.
       -2   -1    0    0    0  501  0.00000000000E+00  0.00000000000E+00 -0.29866272415E+04  0.29866272415E+04  0.25500000920E-02 0. -1.
    10030    2    1    2    0    0  0.00000000000E+00  0.00000000000E+00 -0.17792346967E+04  0.41940197863E+04  0.37979107233E+04 0.  0.
        3    1    3    3  502    0  0.10616556497E+04  0.15670657920E+04 -0.72133059315E+03  0.20256173750E+04  0.10100000352E+00 0.  1.
       -3    1    3    3    0  502 -0.10616556497E+04 -0.15670657920E+04 -0.10579041036E+04  0.21684024114E+04  0.10100000352E+00 0. -1.
</event>
<event>
 5   0  0.5207474E-08  0.3806761E+04  0.7818609E-02  0.8044706E-01
       -2   -1    0    0    0  501  0.00000000000E+00  0.00000000000E+00  0.29597874371E+04  0.29597874371E+04  0.25500000920E-02 0. -1.
        2   -1    0    0  501    0  0.00000000000E+00  0.00000000000E+00 -0.12240261827E+04  0.12240261827E+04  0.25500000920E-02 0.  1.
    10030    2    1    2    0    0  0.00000000000E+00  0.00000000000E+00  0.17357612543E+04  0.41838136198E+04  0.38067609950E+04 0.  0.
        4    1    3    3  502    0  0.91040216456E+03  0.66864447700E+03 -0.81583034675E+03  0.13933765842E+04  0.12699999809E+01 0.  1.
       -4    1    3    3    0  502 -0.91040216456E+03 -0.66864447700E+03  0.25515916011E+04  0.27904370356E+04  0.12699999809E+01 0. -1.
</event>
<event>
 5   0  0.1666051E-08  0.3805322E+04  0.7818609E-02  0.8045014E-01
        1   -1    0    0  501    0  0.00000000000E+00  0.00000000000E+00  0.24117064842E+04  0.24117064842E+04  0.50400001928E-02 0. -1.
       -1   -1    0    0    0  501  0.00000000000E+00  0.00000000000E+00 -0.15010607561E+04  0.15010607562E+04  0.50400001928E-02 0.  1.
    10030    2    1    2    0    0  0.00000000000E+00  0.00000000000E+00  0.91064572805E+03  0.39127672404E+04  0.38053215153E+04 0.  0.
        2    1    3    3  502    0  0.56638380525E+03 -0.12613041347E+04 -0.88865595377E+03  0.16435900156E+04  0.25500000920E-02 0.  1.
       -2    1    3    3    0  502 -0.56638380525E+03  0.12613041347E+04  0.17993016818E+04  0.22691772248E+04  0.25500000920E-02 0. -1.
</event>
<event>
 5   0  0.5086209E-08  0.3801856E+04  0.7818609E-02  0.8045757E-01
       -2   -1    0    0    0  501  0.00000000000E+00  0.00000000000E+00  0.17890283289E+04  0.17890283289E+04  0.25500000920E-02 0. -1.
        2   -1    0    0  501    0  0.00000000000E+00  0.00000000000E+00 -0.20198270698E+04  0.20198270698E+04  0.25500000920E-02 0.  1.
    10030    2    1    2    0    0  0.00000000000E+00  0.00000000000E+00 -0.23079874089E+03  0.38088553988E+04  0.38018563084E+04 0.  0.
        3    1    3    3  502    0 -0.87872271841E+03  0.51499564876E+02 -0.18033518644E+04  0.20067096895E+04  0.10100000352E+00 0.  1.
       -3    1    3    3    0  502  0.87872271841E+03 -0.51499564876E+02  0.15725531235E+04  0.18021457093E+04  0.10100000352E+00 0. -1.
</event>
<event>
 5   0  0.1628250E-08  0.3805407E+04  0.7818609E-02  0.8044995E-01
        1   -1    0    0  501    0  0.00000000000E+00  0.00000000000E+00  0.18499621247E+04  0.18499621247E+04  0.50400001928E-02 0. -1.
       -1   -1    0    0    0  501  0.00000000000E+00  0.00000000000E+00 -0.19569488791E+04  0.19569488791E+04  0.50400001928E-02 0.  1.
    10030    2    1    2    0    0  0.00000000000E+00  0.00000000000E+00 -0.10698675444E+03  0.38069110038E+04  0.38054073665E+04 0.  0.
        5    1    3    3  502    0  0.15809118490E+04  0.98090024050E+03  0.34517589410E+03  0.18922515806E+04  0.46999998093E+01 0. -1.
       -5    1    3    3    0  502 -0.15809118490E+04 -0.98090024050E+03 -0.45216264854E+03  0.19146594232E+04  0.46999998093E+01 0.  1.
</event>
<event>
 5   0  0.5207474E-08  0.3827159E+04  0.7818609E-02  0.8040352E-01
        2   -1    0    0  501    0  0.00000000000E+00  0.00000000000E+00  0.16001727065E+04  0.16001727065E+04  0.25500000920E-02 0.  1.
       -2   -1    0    0    0  501  0.00000000000E+00  0.00000000000E+00 -0.22883699164E+04  0.22883699164E+04  0.25500000920E-02 0. -1.
    10030    2    1    2    0    0  0.00000000000E+00  0.00000000000E+00 -0.68819720991E+03  0.38885426228E+04  0.38271593029E+04 0.  0.
        4    1    3    3  502    0  0.61082491995E+03 -0.13390236799E+04  0.89850238550E+03  0.17243548497E+04  0.12699999809E+01 0.  1.
       -4    1    3    3    0  502 -0.61082491995E+03  0.13390236799E+04 -0.15866995954E+04  0.21641877731E+04  0.12699999809E+01 0. -1.
</event>
<event>
 5   0  0.1628250E-08  0.3802221E+04  0.7818609E-02  0.8045678E-01
        1   -1    0    0  501    0  0.00000000000E+00  0.00000000000E+00  0.11093911985E+04  0.11093911985E+04  0.50400001928E-02 0. -1.
       -1   -1    0    0    0  501  0.00000000000E+00  0.00000000000E+00 -0.32578414989E+04  0.32578414989E+04  0.50400001928E-02 0.  1.
    10030    2    1    2    0    0  0.00000000000E+00  0.00000000000E+00 -0.21484503004E+04  0.43672326974E+04  0.38022207643E+04 0.  0.
        1    1    3    3  502    0  0.11500212115E+04 -0.67422363063E+02 -0.28112821147E+04  0.30381576145E+04  0.50400001928E-02 0.  1.
       -1    1    3    3    0  502 -0.11500212115E+04  0.67422363063E+02  0.66283181435E+03  0.13290750829E+04  0.50400001928E-02 0. -1.
</event>
<event>
 5   0  0.5159761E-08  0.3803302E+04  0.7818609E-02  0.8045447E-01
        2   -1    0    0  501    0  0.00000000000E+00  0.00000000000E+00  0.14984253567E+04  0.14984253567E+04  0.25500000920E-02 0. -1.
       -2   -1    0    0    0  501  0.00000000000E+00  0.00000000000E+00 -0.24133841781E+04  0.24133841781E+04  0.25500000920E-02 0.  1.
    10030    2    1    2    0    0  0.00000000000E+00  0.00000000000E+00 -0.91495882144E+03  0.39118095348E+04  0.38033017487E+04 0.  0.
        5    1    3    3  502    0  0.97864289527E+03 -0.31062897942E+03  0.11888180864E+04  0.15708414343E+04  0.46999998093E+01 0. -1.
       -5    1    3    3    0  502 -0.97864289527E+03  0.31062897942E+03 -0.21037769078E+04  0.23409681004E+04  0.46999998093E+01 0.  1.
</event>
<event>
 5   0  0.1628250E-08  0.3797321E+04  0.7818609E-02  0.8046730E-01
       -1   -1    0    0    0  501  0.00000000000E+00  0.00000000000E+00  0.13318855700E+04  0.13318855700E+04  0.50400001928E-02 0. -1.
        1   -1    0    0  501    0  0.00000000000E+00  0.00000000000E+00 -0.27066227254E+04  0.27066227254E+04  0.50400001928E-02 0.  1.
    10030    2    1    2    0    0  0.00000000000E+00  0.00000000000E+00 -0.13747371554E+04  0.40385082954E+04  0.37973210301E+04 0.  0.
        5    1    3    3  502    0  0.58607054110E+03  0.17197354169E+04 -0.10106293306E+03  0.18196715060E+04  0.46999998093E+01 0. -1.
       -5    1    3    3    0  502 -0.58607054110E+03 -0.17197354169E+04 -0.12736742223E+04  0.22188367894E+04  0.46999998093E+01 0.  1.
</event>
<event>
 5   0  0.1628250E-08  0.3799419E+04  0.7818609E-02  0.8046280E-01
       -1   -1    0    0    0  501  0.00000000000E+00  0.00000000000E+00  0.16209306998E+04  0.16209306998E+04  0.50400001928E-02 0. -1.
        1   -1    0    0  501    0  0.00000000000E+00  0.00000000000E+00 -0.22264344606E+04  0.22264344606E+04  0.50400001928E-02 0.  1.
    10030    2    1    2    0    0  0.00000000000E+00  0.00000000000E+00 -0.60550376076E+03  0.38473651604E+04  0.37994188862E+04 0.  0.
        5    1    3    3  502    0  0.70984951527E+03 -0.38099798335E+02 -0.20866687848E+04  0.22044379412E+04  0.46999998093E+01 0.  1.
       -5    1    3    3    0  502 -0.70984951527E+03  0.38099798335E+02  0.14811650241E+04  0.16429272192E+04  0.46999998093E+01 0. -1.
</event>
<event>
 5   0  0.5159761E-08  0.3913750E+04  0.7818609E-02  0.8022176E-01
       -2   -1    0    0    0  501  0.00000000000E+00  0.00000000000E+00  0.12287664032E+04  0.12287664032E+04  0.25500000920E-02 0. -1.
        2   -1    0    0  501    0  0.00000000000E+00  0.00000000000E+00 -0.31164257391E+04  0.31164257391E+04  0.25500000920E-02 0.  1.
    10030    2    1    2    0    0  0.00000000000E+00  0.00000000000E+00 -0.18876593359E+04  0.43451921424E+04  0.39137497347E+04 0.  0.
        5    1    3    3  502    0 -0.53606707371E+03  0.18810972618E+04 -0.87869040234E+03  0.21442979571E+04  0.46999998093E+01 0. -1.
       -5    1    3    3    0  502  0.53606707371E+03 -0.18810972618E+04 -0.10089689335E+04  0.22008941852E+04  0.46999998093E+01 0.  1.
</event>
<event>
 5   0  0.1628250E-08  0.3820277E+04  0.7818609E-02  0.8041818E-01
       -1   -1    0    0    0  501  0.00000000000E+00  0.00000000000E+00  0.19173160070E+04  0.19173160070E+04  0.50400001928E-02 0. -1.
        1   -1    0    0  501    0  0.00000000000E+00  0.00000000000E+00 -0.19029875607E+04  0.19029875607E+04  0.50400001928E-02 0.  1.
    10030    2    1    2    0    0  0.00000000000E+00  0.00000000000E+00  0.14328446370E+02  0.38203035677E+04  0.38202766975E+04 0.  0.
        1    1    3    3  502    0 -0.57612914791E+03 -0.12278367747E+04 -0.13378807650E+04  0.19051070526E+04  0.50400001928E-02 0.  1.
       -1    1    3    3    0  502  0.57612914791E+03  0.12278367747E+04  0.13522092113E+04  0.19151965152E+04  0.50400001928E-02 0. -1.
</event>
<event>
 5   0  0.1628250E-08  0.3805621E+04  0.7818609E-02  0.8044950E-01
        1   -1    0    0  501    0  0.00000000000E+00  0.00000000000E+00  0.12560284278E+04  0.12560284279E+04  0.50400001928E-02 0.  1.
       -1   -1    0    0    0  501  0.00000000000E+00  0.00000000000E+00 -0.28826475919E+04  0.28826475919E+04  0.50400001928E-02 0. -1.
    10030    2    1    2    0    0  0.00000000000E+00  0.00000000000E+00 -0.16266191640E+04  0.41386760197E+04  0.38056207498E+04 0.  0.
        4    1    3    3  502    0  0.30484392947E+03  0.18694507024E+04 -0.61602206742E+03  0.19917983207E+04  0.12699999809E+01 0. -1.
       -4    1    3    3    0  502 -0.30484392947E+03 -0.18694507024E+04 -0.10105970966E+04  0.21468776990E+04  0.12699999809E+01 0.  1.
</event>
<event>
 5   0  0.1628250E-08  0.3798979E+04  0.7818609E-02  0.8046374E-01
       -1   -1    0    0    0  501  0.00000000000E+00  0.00000000000E+00  0.23216580602E+04  0.23216580602E+04  0.50400001928E-02 0. -1.
        1   -1    0    0  501    0  0.00000000000E+00  0.00000000000E+00 -0.15540878990E+04  0.15540878990E+04  0.50400001928E-02 0.  1.
    10030    2    1    2    0    0  0.00000000000E+00  0.00000000000E+00  0.76757016120E+03  0.38757459592E+04  0.37989791771E+04 0.  0.
        5    1    3    3  502    0 -0.92459419364E+03 -0.88506472520E+03  0.18156503989E+04  0.22214460272E+04  0.46999998093E+01 0. -1.
       -5    1    3    3    0  502  0.92459419364E+03  0.88506472520E+03 -0.10480802377E+04  0.16542999321E+04  0.46999998093E+01 0.  1.
</event>
<event>
 5   0  0.1628250E-08  0.3757483E+04  0.7818609E-02  0.8055341E-01
        1   -1    0    0  501    0  0.00000000000E+00  0.00000000000E+00  0.21751746596E+04  0.21751746596E+04  0.50400001928E-02 0.  1.
       -1   -1    0    0    0  501  0.00000000000E+00  0.00000000000E+00 -0.16227059089E+04  0.16227059089E+04  0.50400001928E-02 0. -1.
    10030    2    1    2    0    0  0.00000000000E+00  0.00000000000E+00  0.55246875070E+03  0.37978805686E+04  0.37574825472E+04 0.  0.
        4    1    3    3  502    0 -0.11954139941E+04 -0.12361220998E+04  0.10411098665E+04  0.20102049224E+04  0.12699999809E+01 0.  1.
       -4    1    3    3    0  502  0.11954139941E+04  0.12361220998E+04 -0.48864111577E+03  0.17876756462E+04  0.12699999809E+01 0. -1.
</event>
<event>
 5   0  0.1628250E-08  0.3790420E+04  0.7818609E-02  0.8048214E-01
        1   -1    0    0  501    0  0.00000000000E+00  0.00000000000E+00  0.25799656933E+04  0.25799656934E+04  0.50400001928E-02 0.  1.
       -1   -1    0    0    0  501  0.00000000000E+00  0.00000000000E+00 -0.13921974575E+04  0.13921974575E+04  0.50400001928E-02 0. -1.
    10030    2    1    2    0    0  0.00000000000E+00  0.00000000000E+00  0.11877682359E+04  0.39721631508E+04  0.37904203876E+04 0.  0.
        4    1    3    3  502    0  0.14392087033E+04 -0.80084170321E+03 -0.38870380381E+03  0.16922651640E+04  0.12699999809E+01 0. -1.
       -4    1    3    3    0  502 -0.14392087033E+04  0.80084170321E+03  0.15764720397E+04  0.22798979868E+04  0.12699999809E+01 0.  1.
</event>
<event>
 5   0  0.1628250E-08  0.3797439E+04  0.7818609E-02  0.8046705E-01
       -1   -1    0    0    0  501  0.00000000000E+00  0.00000000000E+00  0.33972156984E+04  0.33972156984E+04  0.50400001928E-02 0. -1.
        1   -1    0    0  501    0  0.00000000000E+00  0.00000000000E+00 -0.10612030418E+04  0.10612030418E+04  0.50400001928E-02 0.  1.
    10030    2    1    2    0    0  0.00000000000E+00  0.00000000000E+00  0.23360126566E+04  0.44584187402E+04  0.37974389437E+04 0.  0.
        4    1    3    3  502    0  0.17312301203E+04 -0.41107135479E+03  0.39011192002E+03  0.18216273799E+04  0.12699999809E+01 0.  1.
       -4    1    3    3    0  502 -0.17312301203E+04  0.41107135479E+03  0.19459007366E+04  0.26367913603E+04  0.12699999809E+01 0. -1.
</event>
<event>
 5   0  0.1628473E-08  0.3799618E+04  0.7818609E-02  0.8046237E-01
       -1   -1    0    0    0  501  0.00000000000E+00  0.00000000000E+00  0.12769575798E+04  0.12769575798E+04  0.50400001928E-02 0. -1.
        1   -1    0    0  501    0  0.00000000000E+00  0.00000000000E+00 -0.28264638570E+04  0.28264638570E+04  0.50400001928E-02 0.  1.
    10030    2    1    2    0    0  0.00000000000E+00  0.00000000000E+00 -0.15495062772E+04  0.41034214367E+04  0.37996181103E+04 0.  0.
        3    1    3    3  502    0  0.85606364329E+02 -0.33501989061E+03 -0.27921934631E+04  0.28135229024E+04  0.10100000352E+00 0.  1.
       -3    1    3    3    0  502 -0.85606364329E+02  0.33501989061E+03  0.12426871859E+04  0.12898985344E+04  0.10100000352E+00 0. -1.
</event>
<event>
 5   0  0.5140842E-08  0.3803338E+04  0.7818609E-02  0.8045439E-01
        2   -1    0    0  501    0  0.00000000000E+00  0.00000000000E+00  0.12680456370E+04  0.12680456370E+04  0.25500000920E-02 0.  1.
       -2   -1    0    0    0  501  0.00000000000E+00  0.00000000000E+00 -0.28519037822E+04  0.28519037822E+04  0.25500000920E-02 0. -1.
    10030    2    1    2    0    0  0.00000000000E+00  0.00000000000E+00 -0.15838581452E+04  0.41199494193E+04  0.38033375597E+04 0.  0.
        2    1    3    3  502    0  0.17627636478E+04 -0.69369923486E+03 -0.61134890611E+03  0.19905531371E+04  0.25500000920E-02 0.  1.
       -2    1    3    3    0  502 -0.17627636478E+04  0.69369923486E+03 -0.97250923912E+03  0.21293962822E+04  0.25500000920E-02 0. -1.
</event>
<event>
 5   0  0.1628473E-08  0.3773961E+04  0.7818609E-02  0.8051766E-01
       -1   -1    0    0    0  501  0.00000000000E+00  0.00000000000E+00  0.22092514978E+04  0.22092514978E+04  0.50400001928E-02 0. -1.
        1   -1    0    0  501    0  0.00000000000E+00  0.00000000000E+00 -0.16117205652E+04  0.16117205653E+04  0.50400001928E-02 0.  1.
    10030    2    1    2    0    0  0.00000000000E+00  0.00000000000E+00  0.59753093255E+03  0.38209720631E+04  0.37739613527E+04 0.  0.
        3    1    3    3  502    0  0.14821108468E+04 -0.42969221593E+03 -0.80076803688E+03  0.17385388755E+04  0.10100000352E+00 0.  1.
       -3    1    3    3    0  502 -0.14821108468E+04  0.42969221593E+03  0.13982989694E+04  0.20824331876E+04  0.10100000352E+00 0. -1.
</event>
<event>
 5   0  0.1628250E-08  0.3810182E+04  0.7818609E-02  0.8043973E-01
       -1   -1    0    0    0  501  0.00000000000E+00  0.00000000000E+00  0.20097016984E+04  0.20097016984E+04  0.50400001928E-02 0.  1.
        1   -1    0    0  501    0  0.00000000000E+00  0.00000000000E+00 -0.18059252254E+04  0.18059252254E+04  0.50400001928E-02 0. -1.
    10030    2    1    2    0    0  0.00000000000E+00  0.00000000000E+00  0.20377647299E+03  0.38156269238E+04  0.38101816191E+04 0.  0.
        1    1    3    3  502    0  0.10330942396E+04  0.12550635350E+04  0.10967378128E+04  0.19609441641E+04  0.50400001928E-02 0.  1.
       -1    1    3    3    0  502 -0.10330942396E+04 -0.12550635350E+04 -0.89296133981E+03  0.18546827597E+04  0.50400001928E-02 0. -1.
</event>
<event>
 5   0  0.5159761E-08  0.3716519E+04  0.7818609E-02  0.8064311E-01
       -2   -1    0    0    0  501  0.00000000000E+00  0.00000000000E+00  0.13169544438E+04  0.13169544438E+04  0.25500000920E-02 0.  1.
        2   -1    0    0  501    0  0.00000000000E+00  0.00000000000E+00 -0.26220558712E+04  0.26220558712E+04  0.25500000920E-02 0. -1.
    10030    2    1    2    0    0  0.00000000000E+00  0.00000000000E+00 -0.13051014274E+04  0.39390103150E+04  0.37165188720E+04 0.  0.
        5    1    3    3  502    0  0.17557424201E+04  0.45624549554E+03 -0.10795524359E+04  0.21109824609E+04  0.46999998093E+01 0. -1.
       -5    1    3    3    0  502 -0.17557424201E+04 -0.45624549554E+03 -0.22554899141E+03  0.18280278542E+04  0.46999998093E+01 0.  1.
</event>
<event>
 5   0  0.5159761E-08  0.3803386E+04  0.7818609E-02  0.8045429E-01
       -2   -1    0    0    0  501  0.00000000000E+00  0.00000000000E+00  0.17361354723E+04  0.17361354723E+04  0.25500000920E-02 0.  1.
        2   -1    0    0  501    0  0.00000000000E+00  0.00000000000E+00 -0.20830382245E+04  0.20830382245E+04  0.25500000920E-02 0. -1.
    10030    2    1    2    0    0  0.00000000000E+00  0.00000000000E+00 -0.34690275215E+03  0.38191736968E+04  0.38033861501E+04 0.  0.
        5    1    3    3  502    0 -0.14743167853E+04 -0.76329244642E+03 -0.11047650133E+04  0.19941798231E+04  0.46999998093E+01 0. -1.
       -5    1    3    3    0  502  0.14743167853E+04  0.76329244642E+03  0.75786226118E+03  0.18249938737E+04  0.46999998093E+01 0.  1.
</event>
<event>
 5   0  0.1628250E-08  0.3807973E+04  0.7818609E-02  0.8044446E-01
       -1   -1    0    0    0  501  0.00000000000E+00  0.00000000000E+00  0.16053192396E+04  0.16053192396E+04  0.50400001928E-02 0. -1.
        1   -1    0    0  501    0  0.00000000000E+00  0.00000000000E+00 -0.22582207848E+04  0.22582207848E+04  0.50400001928E-02 0.  1.
    10030    2    1    2    0    0  0.00000000000E+00  0.00000000000E+00 -0.65290154522E+03  0.38635400245E+04  0.38079733577E+04 0.  0.
        5    1    3    3  502    0  0.11079009403E+04  0.73903260061E+03 -0.17070156901E+04  0.21650723625E+04  0.46999998093E+01 0.  1.
       -5    1    3    3    0  502 -0.11079009403E+04 -0.73903260061E+03  0.10541141449E+04  0.16984676620E+04  0.46999998093E+01 0. -1.
</event>
<event>
 5   0  0.1628250E-08  0.3793676E+04  0.7818609E-02  0.8047513E-01
        1   -1    0    0  501    0  0.00000000000E+00  0.00000000000E+00  0.25076697132E+04  0.25076697132E+04  0.50400001928E-02 0. -1.
       -1   -1    0    0    0  501  0.00000000000E+00  0.00000000000E+00 -0.14347960291E+04  0.14347960291E+04  0.50400001928E-02 0.  1.
    10030    2    1    2    0    0  0.00000000000E+00  0.00000000000E+00  0.10728736841E+04  0.39424657423E+04  0.37936760783E+04 0.  0.
        4    1    3    3  502    0  0.10828212154E+04  0.10061181478E+03  0.21515366793E+04  0.24107542838E+04  0.12699999809E+01 0. -1.
       -4    1    3    3    0  502 -0.10828212154E+04 -0.10061181478E+03 -0.10786629952E+04  0.15317114585E+04  0.12699999809E+01 0.  1.
</event>
<event>
 5   0  0.1628250E-08  0.3788346E+04  0.7818609E-02  0.8048660E-01
        1   -1    0    0  501    0  0.00000000000E+00  0.00000000000E+00  0.25383314023E+04  0.25383314023E+04  0.50400001928E-02 0. -1.
       -1   -1    0    0    0  501  0.00000000000E+00  0.00000000000E+00 -0.14134843210E+04  0.14134843210E+04  0.50400001928E-02 0.  1.
    10030    2    1    2    0    0  0.00000000000E+00  0.00000000000E+00  0.11248470814E+04  0.39518157233E+04  0.37883461503E+04 0.  0.
        4    1    3    3  502    0 -0.38646232507E+03  0.16598085704E+04 -0.30003711429E+03  0.17304165689E+04  0.12699999809E+01 0.  1.
       -4    1    3    3    0  502  0.38646232507E+03 -0.16598085704E+04  0.14248841957E+04  0.22213991544E+04  0.12699999809E+01 0. -1.
</event>
<event>
 5   0  0.5207474E-08  0.3799620E+04  0.7818609E-02  0.8046237E-01
       -2   -1    0    0    0  501  0.00000000000E+00  0.00000000000E+00  0.16762752061E+04  0.16762752061E+04  0.25500000920E-02 0. -1.
        2   -1    0    0  501    0  0.00000000000E+00  0.00000000000E+00 -0.21531531989E+04  0.21531531989E+04  0.25500000920E-02 0.  1.
    10030    2    1    2    0    0  0.00000000000E+00  0.00000000000E+00 -0.47687799283E+03  0.38294284050E+04  0.37996196243E+04 0.  0.
        4    1    3    3  502    0 -0.12336321658E+04 -0.96261152524E+03  0.84742075753E+03  0.17794922934E+04  0.12699999809E+01 0. -1.
       -4    1    3    3    0  502  0.12336321658E+04  0.96261152524E+03 -0.13242987504E+04  0.20499361117E+04  0.12699999809E+01 0.  1.
</event>
<event>
 5   0  0.1628473E-08  0.3791829E+04  0.7818609E-02  0.8047911E-01
       -1   -1    0    0    0  501  0.00000000000E+00  0.00000000000E+00  0.12298745275E+04  0.12298745275E+04  0.50400001928E-02 0.  1.
        1   -1    0    0  501    0  0.00000000000E+00  0.00000000000E+00 -0.29226499186E+04  0.29226499186E+04  0.50400001928E-02 0. -1.
    10030    2    1    2    0    0  0.00000000000E+00  0.00000000000E+00 -0.16927753911E+04  0.41525244461E+04  0.37918294728E+04 0.  0.
        3    1    3    3  502    0  0.13074870290E+04  0.94099201424E+03 -0.19412405369E+04  0.25225786676E+04  0.10100000352E+00 0. -1.
       -3    1    3    3    0  502 -0.13074870290E+04 -0.94099201424E+03  0.24846514588E+03  0.16299457785E+04  0.10100000352E+00 0.  1.
</event>
<event>
 5   0  0.5140842E-08  0.3804021E+04  0.7818609E-02  0.8045293E-01
        2   -1    0    0  501    0  0.00000000000E+00  0.00000000000E+00  0.21520447005E+04  0.21520447005E+04  0.25500000920E-02 0. -1.
       -2   -1    0    0    0  501  0.00000000000E+00  0.00000000000E+00 -0.16810263003E+04  0.16810263003E+04  0.25500000920E-02 0.  1.
    10030    2    1    2    0    0  0.00000000000E+00  0.00000000000E+00  0.47101840021E+03  0.38330710008E+04  0.38040208942E+04 0.  0.
        2    1    3    3  502    0  0.13062830116E+03  0.13421398105E+04  0.15871105146E+04  0.20826240202E+04  0.25500000920E-02 0. -1.
       -2    1    3    3    0  502 -0.13062830116E+03 -0.13421398105E+04 -0.11160921144E+04  0.17504469806E+04  0.25500000920E-02 0.  1.
</event>
<event>
 5   0  0.5159761E-08  0.3797765E+04  0.7818609E-02  0.8046635E-01
        2   -1    0    0  501    0  0.00000000000E+00  0.00000000000E+00  0.27487608067E+04  0.27487608067E+04  0.25500000920E-02 0. -1.
       -2   -1    0    0    0  501  0.00000000000E+00  0.00000000000E+00 -0.13117745418E+04  0.13117745418E+04  0.25500000920E-02 0.  1.
    10030    2    1    2    0    0  0.00000000000E+00  0.00000000000E+00  0.14369862650E+04  0.40605353485E+04  0.37977648415E+04 0.  0.
        5    1    3    3  502    0 -0.92859374531E+03  0.13235796911E+04  0.17831746666E+04  0.24070487166E+04  0.46999998093E+01 0. -1.
       -5    1    3    3    0  502  0.92859374531E+03 -0.13235796911E+04 -0.34618840165E+03  0.16534866319E+04  0.46999998093E+01 0.  1.
</event>
<event>
 5   0  0.5086209E-08  0.3801985E+04  0.7818609E-02  0.8045729E-01
       -2   -1    0    0    0  501  0.00000000000E+00  0.00000000000E+00  0.14527548373E+04  0.14527548373E+04  0.25500000920E-02 0. -1.
        2   -1    0    0  501    0  0.00000000000E+00  0.00000000000E+00 -0.24875311731E+04  0.24875311731E+04  0.25500000920E-02 0.  1.
    10030    2    1    2    0    0  0.00000000000E+00  0.00000000000E+00 -0.10347763359E+04  0.39402860104E+04  0.38019852417E+04 0.  0.
        3    1    3    3  502    0  0.11965601730E+04 -0.14771485736E+04 -0.51014997490E+03  0.19682421506E+04  0.10100000352E+00 0.  1.
       -3    1    3    3    0  502 -0.11965601730E+04  0.14771485736E+04 -0.52462636096E+03  0.19720438598E+04  0.10100000352E+00 0. -1.
</event>
<event>
 5   0  0.1666051E-08  0.3792852E+04  0.7818609E-02  0.8047690E-01
       -1   -1    0    0    0  501  0.00000000000E+00  0.00000000000E+00  0.14994772857E+04  0.14994772857E+04  0.50400001928E-02 0. -1.
        1   -1    0    0  501    0  0.00000000000E+00  0.00000000000E+00 -0.23984572744E+04  0.23984572745E+04  0.50400001928E-02 0.  1.
    10030    2    1    2    0    0  0.00000000000E+00  0.00000000000E+00 -0.89897998871E+03  0.38979345602E+04  0.37928523324E+04 0.  0.
        2    1    3    3  502    0 -0.84551525570E+03  0.15547583340E+02 -0.21939556712E+04  0.23512931043E+04  0.25500000920E-02 0.  1.
       -2    1    3    3    0  502  0.84551525570E+03 -0.15547583340E+02  0.12949756825E+04  0.15466414559E+04  0.25500000920E-02 0. -1.
</event>
<event>
 5   0  0.5086209E-08  0.3798045E+04  0.7818609E-02  0.8046575E-01
       -2   -1    0    0    0  501  0.00000000000E+00  0.00000000000E+00  0.14720059943E+04  0.14720059943E+04  0.25500000920E-02 0.  1.
        2   -1    0    0  501    0  0.00000000000E+00  0.00000000000E+00 -0.24499123438E+04  0.24499123438E+04  0.25500000920E-02 0. -1.
    10030    2    1    2    0    0  0.00000000000E+00  0.00000000000E+00 -0.97790634951E+03  0.39219183381E+04  0.37980445787E+04 0.  0.
        3    1    3    3  502    0  0.44776158543E+03  0.37699022139E+03  0.13765321919E+04  0.14958118030E+04  0.10100000352E+00 0.  1.
       -3    1    3    3    0  502 -0.44776158543E+03 -0.37699022139E+03 -0.23544385414E+04  0.24261065351E+04  0.10100000352E+00 0. -1.
</event>
<event>
 5   0  0.1628250E-08  0.3808324E+04  0.7818609E-02  0.8044371E-01
       -1   -1    0    0    0  501  0.00000000000E+00  0.00000000000E+00  0.23994214663E+04  0.23994214663E+04  0.50400001928E-02 0. -1.
        1   -1    0    0  501    0  0.00000000000E+00  0.00000000000E+00 -0.15111282906E+04  0.15111282906E+04  0.50400001928E-02 0.  1.
    10030    2    1    2    0    0  0.00000000000E+00  0.00000000000E+00  0.88829317569E+03  0.39105497569E+04  0.38083243868E+04 0.  0.
        5    1    3    3  502    0  0.29151252629E+02 -0.16209987206E+04  0.14696148365E+04  0.21882130850E+04  0.46999998093E+01 0.  1.
       -5    1    3    3    0  502 -0.29151252629E+02  0.16209987206E+04 -0.58132166082E+03  0.17223366718E+04  0.46999998093E+01 0. -1.
</event>
<event>
 5   0  0.1628473E-08  0.3794523E+04  0.7818609E-02  0.8047331E-01
        1   -1    0    0  501    0  0.00000000000E+00  0.00000000000E+00  0.25783633764E+04  0.25783633764E+04  0.50400001928E-02 0. -1.
       -1   -1    0    0    0  501  0.00000000000E+00  0.00000000000E+00 -0.13960795623E+04  0.13960795624E+04  0.50400001928E-02 0.  1.
    10030    2    1    2    0    0  0.00000000000E+00  0.00000000000E+00  0.11822838140E+04  0.39744429388E+04  0.37945225861E+04 0.  0.
        3    1    3    3  502    0  0.11579335210E+04 -0.90525611006E+03 -0.66545228823E+03  0.16134204108E+04  0.10100000352E+00 0.  1.
       -3    1    3    3    0  502 -0.11579335210E+04  0.90525611006E+03  0.18477361023E+04  0.23610225280E+04  0.10100000352E+00 0. -1.
</event>
<event>
 5   0  0.1628250E-08  0.3795573E+04  0.7818609E-02  0.8047105E-01
       -1   -1    0    0    0  501  0.00000000000E+00  0.00000000000E+00  0.14591573705E+04  0.14591573705E+04  0.50400001928E-02 0.  1.
        1   -1    0    0  501    0  0.00000000000E+00  0.00000000000E+00 -0.24682701078E+04  0.24682701078E+04  0.50400001928E-02 0. -1.
    10030    2    1    2    0    0  0.00000000000E+00  0.00000000000E+00 -0.10091127374E+04  0.39274274783E+04  0.37955734851E+04 0.  0.
        1    1    3    3  502    0  0.46909255192E+03  0.59526801130E+03  0.12957711536E+04  0.15011378051E+04  0.50400001928E-02 0.  1.
       -1    1    3    3    0  502 -0.46909255192E+03 -0.59526801130E+03 -0.23048838909E+04  0.24262896732E+04  0.50400001928E-02 0. -1.
</event>
<event>
 5   0  0.5207474E-08  0.3798180E+04  0.7818609E-02  0.8046546E-01
        2   -1    0    0  501    0  0.00000000000E+00  0.00000000000E+00  0.25681585241E+04  0.25681585241E+04  0.25500000920E-02 0. -1.
       -2   -1    0    0    0  501  0.00000000000E+00  0.00000000000E+00 -0.14043300461E+04  0.14043300461E+04  0.25500000920E-02 0.  1.
    10030    2    1    2    0    0  0.00000000000E+00  0.00000000000E+00  0.11638284780E+04  0.39724885702E+04  0.37981796580E+04 0.  0.
        4    1    3    3  502    0  0.28767288827E+03 -0.15920401145E+04 -0.45831175644E+03  0.16814870490E+04  0.12699999809E+01 0.  1.
       -4    1    3    3    0  502 -0.28767288827E+03  0.15920401145E+04  0.16221402345E+04  0.22910015212E+04  0.12699999809E+01 0. -1.
</event>
<event>
 5   0  0.1628250E-08  0.3803213E+04  0.7818609E-02  0.8045466E-01
        1   -1    0    0  501    0  0.00000000000E+00  0.00000000000E+00  0.22155934356E+04  0.22155934356E+04  0.50400001928E-02 0.  1.
       -1   -1    0    0    0  501  0.00000000000E+00  0.00000000000E+00 -0.16321167830E+04  0.16321167830E+04  0.50400001928E-02 0. -1.
    10030    2    1    2    0    0  0.00000000000E+00  0.00000000000E+00  0.58347665254E+03  0.38477102186E+04  0.38032129736E+04 0.  0.
        4    1    3    3  502    0 -0.12620775579E+04  0.95983277743E+03 -0.77029935478E+03  0.17628049897E+04  0.12699999809E+01 0. -1.
       -4    1    3    3    0  502  0.12620775579E+04 -0.95983277743E+03  0.13537760073E+04  0.20849052289E+04  0.12699999809E+01 0.  1.
</event>
<event>
 5   0  0.5159761E-08  0.3797652E+04  0.7818609E-02  0.8046659E-01
        2   -1    0    0  501    0  0.00000000000E+00  0.00000000000E+00  0.19912306304E+04  0.19912306304E+04  0.25500000920E-02 0. -1.
       -2   -1    0    0    0  501  0.00000000000E+00  0.00000000000E+00 -0.18107090944E+04  0.18107090944E+04  0.25500000920E-02 0.  1.
    10030    2    1    2    0    0  0.00000000000E+00  0.00000000000E+00  0.18052153595E+03  0.38019397248E+04  0.37976515962E+04 0.  0.
        5    1    3    3  502    0 -0.37075899253E+03 -0.21648879572E+03 -0.17614730523E+04  0.18130468921E+04  0.46999998093E+01 0.  1.
       -5    1    3    3    0  502  0.37075899253E+03  0.21648879572E+03  0.19419945882E+04  0.19888928327E+04  0.46999998093E+01 0. -1.
</event>
<event>
 5   0  0.1628250E-08  0.3772773E+04  0.7818609E-02  0.8052023E-01
       -1   -1    0    0    0  501  0.00000000000E+00  0.00000000000E+00  0.13408829044E+04  0.13408829045E+04  0.50400001928E-02 0.  1.
        1   -1    0    0  501    0  0.00000000000E+00  0.00000000000E+00 -0.26538138360E+04  0.26538138360E+04  0.50400001928E-02 0. -1.
    10030    2    1    2    0    0  0.00000000000E+00  0.00000000000E+00 -0.13129309315E+04  0.39946967404E+04  0.37727727757E+04 0.  0.
        5    1    3    3  502    0 -0.11288028324E+04 -0.76294521370E+03  0.72494300897E+03  0.15433229376E+04  0.46999998093E+01 0.  1.
       -5    1    3    3    0  502  0.11288028324E+04  0.76294521370E+03 -0.20378739405E+04  0.24513738028E+04  0.46999998093E+01 0. -1.
</event>
<event>
 5   0  0.5140842E-08  0.3803448E+04  0.7818609E-02  0.8045415E-01
        2   -1    0    0  501    0  0.00000000000E+00  0.00000000000E+00  0.13804106270E+04  0.13804106270E+04  0.25500000920E-02 0.  1.
       -2   -1    0    0    0  501  0.00000000000E+00  0.00000000000E+00 -0.26199113711E+04  0.26199113711E+04  0.25500000920E-02 0. -1.
    10030    2    1    2    0    0  0.00000000000E+00  0.00000000000E+00 -0.12395007442E+04  0.40003219981E+04  0.38034476457E+04 0.  0.
        2    1    3    3  502    0 -0.95441802585E+03 -0.15655888481E+03 -0.23419217482E+04  0.25337762188E+04  0.25500000920E-02 0. -1.
       -2    1    3    3    0  502  0.95441802585E+03  0.15655888481E+03  0.11024210040E+04  0.14665457792E+04  0.25500000920E-02 0.  1.
</event>
<event>
 5   0  0.5207474E-08  0.3798098E+04  0.7818609E-02  0.8046563E-01
       -2   -1    0    0    0  501  0.00000000000E+00  0.00000000000E+00  0.13216271460E+04  0.13216271460E+04  0.25500000920E-02 0. -1.
        2   -1    0    0  501    0  0.00000000000E+00  0.00000000000E+00 -0.27287470586E+04  0.27287470586E+04  0.25500000920E-02 0.  1.
    10030    2    1    2    0    0  0.00000000000E+00  0.00000000000E+00 -0.14071199126E+04  0.40503742046E+04  0.37980975170E+04 0.  0.
        4    1    3    3  502    0 -0.17167446212E+04 -0.63903652410E+03 -0.16949146081E+03  0.18396490812E+04  0.12699999809E+01 0. -1.
       -4    1    3    3    0  502  0.17167446212E+04  0.63903652410E+03 -0.12376284518E+04  0.22107251234E+04  0.12699999809E+01 0.  1.
</event>
<event>
 5   0  0.5140842E-08  0.3806964E+04  0.7818609E-02  0.8044662E-01
        2   -1    0    0  501    0  0.00000000000E+00  0.00000000000E+00  0.18384310181E+04  0.18384310181E+04  0.25500000920E-02 0. -1.
       -2   -1    0    0    0  501  0.00000000000E+00  0.00000000000E+00 -0.19708352456E+04  0.19708352456E+04  0.25500000920E-02 0.  1.
    10030    2    1    2    0    0  0.00000000000E+00  0.00000000000E+00 -0.13240422751E+03  0.38092662637E+04  0.38069644848E+04 0.  0.
        2    1    3    3  502    0 -0.15118931918E+04 -0.11467270470E+04 -0.21609490172E+03  0.19098431743E+04  0.25500000920E-02 0. -1.
       -2    1    3    3    0  502  0.15118931918E+04  0.11467270470E+04  0.83690674210E+02  0.18994230894E+04  0.25500000920E-02 0.  1.
</event>
<event>
 5   0  0.1628250E-08  0.3824639E+04  0.7818609E-02  0.8040888E-01
        1   -1    0    0  501    0  0.00000000000E+00  0.00000000000E+00  0.30230458402E+04  0.30230458402E+04  0.50400001928E-02 0.  1.
       -1   -1    0    0    0  501  0.00000000000E+00  0.00000000000E+00 -0.12096960147E+04  0.12096960147E+04  0.50400001928E-02 0. -1.
    10030    2    1    2    0    0  0.00000000000E+00  0.00000000000E+00  0.18133498255E+04  0.42327418549E+04  0.38246393321E+04 0.  0.
        4    1    3    3  502    0 -0.12418174354E+04  0.75876990580E+03  0.22796665768E+04  0.27045745741E+04  0.12699999809E+01 0.  1.
       -4    1    3    3    0  502  0.12418174354E+04 -0.75876990580E+03 -0.46631675127E+03  0.15281672808E+04  0.12699999809E+01 0. -1.
</event>
<event>
 5   0  0.5159761E-08  0.3799334E+04  0.7818609E-02  0.8046298E-01
       -2   -1    0    0    0  501  0.00000000000E+00  0.00000000000E+00  0.21830319471E+04  0.21830319471E+04  0.25500000920E-02 0. -1.
        2   -1    0    0  501    0  0.00000000000E+00  0.00000000000E+00 -0.16530840142E+04  0.16530840142E+04  0.25500000920E-02 0.  1.
    10030    2    1    2    0    0  0.00000000000E+00  0.00000000000E+00  0.52994793291E+03  0.38361159613E+04  0.37993342650E+04 0.  0.
        5    1    3    3  502    0 -0.13032003319E+04 -0.13567778637E+04 -0.12754100912E+01  0.18812764266E+04  0.46999998093E+01 0.  1.
       -5    1    3    3    0  502  0.13032003319E+04  0.13567778637E+04  0.53122334300E+03  0.19548395348E+04  0.46999998093E+01 0. -1.
</event>
<event>
 5   0  0.1666051E-08  0.3816446E+04  0.7818609E-02  0.8042635E-01
        1   -1    0    0  501    0  0.00000000000E+00  0.00000000000E+00  0.17912610918E+04  0.17912610918E+04  0.50400001928E-02 0.  1.
       -1   -1    0    0    0  501  0.00000000000E+00  0.00000000000E+00 -0.20328220601E+04  0.20328220601E+04  0.50400001928E-02 0. -1.
    10030    2    1    2    0    0  0.00000000000E+00  0.00000000000E+00 -0.24156096824E+03  0.38240831519E+04  0.38164460237E+04 0.  0.
        2    1    3    3  502    0  0.64233522558E+02  0.11995166601E+04 -0.16064305030E+04  0.20058876151E+04  0.25500000920E-02 0. -1.
       -2    1    3    3    0  502 -0.64233522558E+02 -0.11995166601E+04  0.13648695348E+04  0.18181955369E+04  0.25500000920E-02 0.  1.
</event>
<event>
 5   0  0.1628250E-08  0.3804948E+04  0.7818609E-02  0.8045094E-01
       -1   -1    0    0    0  501  0.00000000000E+00  0.00000000000E+00  0.14533183389E+04  0.14533183389E+04  0.50400001928E-02 0. -1.
        1   -1    0    0  501    0  0.00000000000E+00  0.00000000000E+00 -0.24904436757E+04  0.24904436758E+04  0.50400001928E-02 0.  1.
    10030    2    1    2    0    0  0.00000000000E+00  0.00000000000E+00 -0.10371253368E+04  0.39437620147E+04  0.38049480764E+04 0.  0.
        1    1    3    3  502    0  0.21562170189E+03  0.22674599464E+03  0.14264654010E+04  0.14603800892E+04  0.50400001928E-02 0. -1.
       -1    1    3    3    0  502 -0.21562170189E+03 -0.22674599464E+03 -0.24635907379E+04  0.24833819255E+04  0.50400001928E-02 0.  1.
</event>
<event>
 5   0  0.1628250E-08  0.3781417E+04  0.7818609E-02  0.8050155E-01
        1   -1    0    0  501    0  0.00000000000E+00  0.00000000000E+00  0.13472576930E+04  0.13472576930E+04  0.50400001928E-02 0.  1.
       -1   -1    0    0    0  501  0.00000000000E+00  0.00000000000E+00 -0.26533735535E+04  0.26533735535E+04  0.50400001928E-02 0. -1.
    10030    2    1    2    0    0  0.00000000000E+00  0.00000000000E+00 -0.13061158605E+04  0.40006312465E+04  0.37814166300E+04 0.  0.
        5    1    3    3  502    0  0.15324784527E+04 -0.11069067968E+04 -0.68689611329E+03  0.20113630267E+04  0.46999998093E+01 0. -1.
       -5    1    3    3    0  502 -0.15324784527E+04  0.11069067968E+04 -0.61921974721E+03  0.19892682198E+04  0.46999998093E+01 0.  1.
</event>
<event>
 5   0  0.1628250E-08  0.3876503E+04  0.7818609E-02  0.8029934E-01
        1   -1    0    0  501    0  0.00000000000E+00  0.00000000000E+00  0.22837583130E+04  0.22837583130E+04  0.50400001928E-02 0. -1.
       -1   -1    0    0    0  501  0.00000000000E+00  0.00000000000E+00 -0.16450160687E+04  0.16450160687E+04  0.50400001928E-02 0.  1.
    10030    2    1    2    0    0  0.00000000000E+00  0.00000000000E+00  0.63874224427E+03  0.39287743817E+04  0.38765031262E+04 0.  0.
        4    1    3    3  502    0  0.52735946388E+03 -0.22274045985E+03 -0.15573804343E+04  0.16592639171E+04  0.12699999809E+01 0.  1.
       -4    1    3    3    0  502 -0.52735946388E+03  0.22274045985E+03  0.21961226786E+04  0.22695104646E+04  0.12699999809E+01 0. -1.
</event>
<event>
 5   0  0.5147582E-08  0.3796078E+04  0.7818609E-02  0.8046997E-01
        2   -1    0    0  501    0  0.00000000000E+00  0.00000000000E+00  0.28286520442E+04  0.28286520442E+04  0.25500000920E-02 0.  1.
       -2   -1    0    0    0  501  0.00000000000E+00  0.00000000000E+00 -0.12735930630E+04  0.12735930630E+04  0.25500000920E-02 0. -1.
    10030    2    1    2    0    0  0.00000000000E+00  0.00000000000E+00  0.15550589812E+04  0.41022451072E+04  0.37960777764E+04 0.  0.
        1    1    3    3  502    0  0.17626950933E+04 -0.50422930050E+03  0.24678614765E+03  0.18499309669E+04  0.50400001928E-02 0.  1.
       -1    1    3    3    0  502 -0.17626950933E+04  0.50422930050E+03  0.13082728336E+04  0.22523141403E+04  0.50400001928E-02 0. -1.
</event>
<event>
 5   0  0.1628250E-08  0.3788733E+04  0.7818609E-02  0.8048577E-01
        1   -1    0    0  501    0  0.00000000000E+00  0.00000000000E+00  0.24301788974E+04  0.24301788974E+04  0.50400001928E-02 0. -1.
       -1   -1    0    0    0  501  0.00000000000E+00  0.00000000000E+00 -0.14766913891E+04  0.14766913891E+04  0.50400001928E-02 0.  1.
    10030    2    1    2    0    0  0.00000000000E+00  0.00000000000E+00  0.95348750830E+03  0.39068702865E+04  0.37887329026E+04 0.  0.
        1    1    3    3  502    0  0.44325794162E+03  0.15487676224E+04 -0.55106283582E+03  0.17025947844E+04  0.50400001928E-02 0.  1.
       -1    1    3    3    0  502 -0.44325794162E+03 -0.15487676224E+04  0.15045503441E+04  0.22042755021E+04  0.50400001928E-02 0. -1.
</event>
<event>
 5   0  0.5086209E-08  0.3803772E+04  0.7818609E-02  0.8045346E-01
        2   -1    0    0  501    0  0.00000000000E+00  0.00000000000E+00  0.26925935307E+04  0.26925935307E+04  0.25500000920E-02 0. -1.
       -2   -1    0    0    0  501  0.00000000000E+00  0.00000000000E+00 -0.13433778382E+04  0.13433778383E+04  0.25500000920E-02 0.  1.
    10030    2    1    2    0    0  0.00000000000E+00  0.00000000000E+00  0.13492156925E+04  0.40359713690E+04  0.38037720629E+04 0.  0.
        3    1    3    3  502    0 -0.16337533624E+04 -0.93773194336E+03  0.39654288423E+03  0.19250292247E+04  0.10100000352E+00 0. -1.
       -3    1    3    3    0  502  0.16337533624E+04  0.93773194336E+03  0.95267280826E+03  0.21109421443E+04  0.10100000352E+00 0.  1.
</event>
<event>
 5   0  0.5147582E-08  0.3815038E+04  0.7818609E-02  0.8042935E-01
        2   -1    0    0  501    0  0.00000000000E+00  0.00000000000E+00  0.23548380362E+04  0.23548380362E+04  0.25500000920E-02 0. -1.
       -2   -1    0    0    0  501  0.00000000000E+00  0.00000000000E+00 -0.15451715016E+04  0.15451715016E+04  0.25500000920E-02 0.  1.
    10030    2    1    2    0    0  0.00000000000E+00  0.00000000000E+00  0.80966653458E+03  0.39000095379E+04  0.38150379419E+04 0.  0.
        1    1    3    3  502    0  0.89263511606E+03  0.29725226484E+03 -0.12914843041E+04  0.15978385611E+04  0.50400001928E-02 0.  1.
       -1    1    3    3    0  502 -0.89263511606E+03 -0.29725226484E+03  0.21011508387E+04  0.23021709768E+04  0.50400001928E-02 0. -1.
</event>
<event>
 5   0  0.5147582E-08  0.3808572E+04  0.7818609E-02  0.8044318E-01
        2   -1    0    0  501    0  0.00000000000E+00  0.00000000000E+00  0.26277852721E+04  0.26277852721E+04  0.25500000920E-02 0.  1.
       -2   -1    0    0    0  501  0.00000000000E+00  0.00000000000E+00 -0.13799854926E+04  0.13799854926E+04  0.25500000920E-02 0. -1.
    10030    2    1    2    0    0  0.00000000000E+00  0.00000000000E+00  0.12477997795E+04  0.40077707646E+04  0.38085722013E+04 0.  0.
        1    1    3    3  502    0 -0.11759787662E+02  0.88823809235E+03 -0.11485978181E+04  0.14520269106E+04  0.50400001928E-02 0. -1.
       -1    1    3    3    0  502  0.11759787662E+02 -0.88823809235E+03  0.23963975976E+04  0.25557438540E+04  0.50400001928E-02 0.  1.
</event>
<event>
 5   0  0.5159761E-08  0.3803754E+04  0.7818609E-02  0.8045350E-01
       -2   -1    0    0    0  501  0.00000000000E+00  0.00000000000E+00  0.18679179429E+04  0.18679179429E+04  0.25500000920E-02 0. -1.
        2   -1    0    0  501    0  0.00000000000E+00  0.00000000000E+00 -0.19364535562E+04  0.19364535562E+04  0.25500000920E-02 0.  1.
    10030    2    1    2    0    0  0.00000000000E+00  0.00000000000E+00 -0.68535613324E+02  0.38043714992E+04  0.38037541158E+04 0.  0.
        5    1    3    3  502    0 -0.33828664018E+03 -0.13992155991E+04  0.12088627752E+04  0.18797907977E+04  0.46999998093E+01 0. -1.
       -5    1    3    3    0  502  0.33828664018E+03  0.13992155991E+04 -0.12773983885E+04  0.19245807015E+04  0.46999998093E+01 0.  1.
</event>
<event>
 5   0  0.1628250E-08  0.3778466E+04  0.7818609E-02  0.8050792E-01
        1   -1    0    0  501    0  0.00000000000E+00  0.00000000000E+00  0.28359074821E+04  0.28359074822E+04  0.50400001928E-02 0.  1.
       -1   -1    0    0    0  501  0.00000000000E+00  0.00000000000E+00 -0.12585744834E+04  0.12585744834E+04  0.50400001928E-02 0. -1.
    10030    2    1    2    0    0  0.00000000000E+00  0.00000000000E+00  0.15773329988E+04  0.40944819655E+04  0.37784657173E+04 0.  0.
        5    1    3    3  502    0  0.32456244749E+03 -0.68875410360E+02  0.28040823262E+04  0.28236473552E+04  0.46999998093E+01 0.  1.
       -5    1    3    3    0  502 -0.32456244749E+03  0.68875410360E+02 -0.12267493274E+04  0.12708346103E+04  0.46999998093E+01 0. -1.
</event>
<event>
 5   0  0.5086209E-08  0.3808419E+04  0.7818609E-02  0.8044351E-01
       -2   -1    0    0    0  501  0.00000000000E+00  0.00000000000E+00  0.19912818959E+04  0.19912818959E+04  0.25500000920E-02 0. -1.
        2   -1    0    0  501    0  0.00000000000E+00  0.00000000000E+00 -0.18209447124E+04  0.18209447124E+04  0.25500000920E-02 0.  1.
    10030    2    1    2    0    0  0.00000000000E+00  0.00000000000E+00  0.17033718345E+03  0.38122266083E+04  0.38084192202E+04 0.  0.
        3    1    3    3  502    0 -0.73667749516E+03 -0.13939322216E+04 -0.98373483135E+03  0.18583527649E+04  0.10100000352E+00 0.  1.
       -3    1    3    3    0  502  0.73667749516E+03  0.13939322216E+04  0.11540720148E+04  0.19538738434E+04  0.10100000352E+00 0. -1.
</event>
<event>
 5   0  0.1666051E-08  0.3800309E+04  0.7818609E-02  0.8046089E-01
        1   -1    0    0  501    0  0.00000000000E+00  0.00000000000E+00  0.15118101552E+04  0.15118101552E+04  0.50400001928E-02 0.  1.
       -1   -1    0    0    0  501  0.00000000000E+00  0.00000000000E+00 -0.23882547144E+04  0.23882547144E+04  0.50400001928E-02 0. -1.
    10030    2    1    2    0    0  0.00000000000E+00  0.00000000000E+00 -0.87644455926E+03  0.39000648696E+04  0.38003093192E+04 0.  0.
        2    1    3    3  502    0 -0.11977239219E+04  0.71412549803E+03 -0.17628672491E+04  0.22477141184E+04  0.25500000920E-02 0. -1.
       -2    1    3    3    0  502  0.11977239219E+04 -0.71412549803E+03  0.88642268984E+03  0.16523507512E+04  0.25500000920E-02 0.  1.
</event>
<event>
 5   0  0.1628250E-08  0.3792835E+04  0.7818609E-02  0.8047694E-01
       -1   -1    0    0    0  501  0.00000000000E+00  0.00000000000E+00  0.21221402795E+04  0.21221402795E+04  0.50400001928E-02 0. -1.
        1   -1    0    0  501    0  0.00000000000E+00  0.00000000000E+00 -0.16947034721E+04  0.16947034721E+04  0.50400001928E-02 0.  1.
    10030    2    1    2    0    0  0.00000000000E+00  0.00000000000E+00  0.42743680740E+03  0.38168437515E+04  0.37928345600E+04 0.  0.
        1    1    3    3  502    0  0.15311059991E+04 -0.82458380608E+02 -0.90928180337E+03  0.17826604733E+04  0.50400001928E-02 0.  1.
       -1    1    3    3    0  502 -0.15311059991E+04  0.82458380608E+02  0.13367186108E+04  0.20341832782E+04  0.50400001928E-02 0. -1.
</event>
<event>
 5   0  0.1628473E-08  0.3798241E+04  0.7818609E-02  0.8046532E-01
       -1   -1    0    0    0  501  0.00000000000E+00  0.00000000000E+00  0.14370788853E+04  0.14370788853E+04  0.50400001928E-02 0.  1.
        1   -1    0    0  501    0  0.00000000000E+00  0.00000000000E+00 -0.25097154819E+04  0.25097154819E+04  0.50400001928E-02 0. -1.
    10030    2    1    2    0    0  0.00000000000E+00  0.00000000000E+00 -0.10726365965E+04  0.39467943672E+04  0.37982412389E+04 0.  0.
        3    1    3    3  502    0  0.10946731683E+04  0.83039172755E+03  0.82598731280E+03  0.16031577644E+04  0.10100000352E+00 0.  1.
       -3    1    3    3    0  502 -0.10946731683E+04 -0.83039172755E+03 -0.18986239093E+04  0.23436366028E+04  0.10100000352E+00 0. -1.
</event>
<event>
 5   0  0.1628473E-08  0.3781370E+04  0.7818609E-02  0.8050165E-01
       -1   -1    0    0    0  501  0.00000000000E+00  0.00000000000E+00  0.12065474538E+04  0.12065474538E+04  0.50400001928E-02 0. -1.
        1   -1    0    0  501    0  0.00000000000E+00  0.00000000000E+00 -0.29627435285E+04  0.29627435285E+04  0.50400001928E-02 0.  1.
    10030    2    1    2    0    0  0.00000000000E+00  0.00000000000E+00 -0.17561960747E+04  0.41692909823E+04  0.37813704715E+04 0.  0.
        3    1    3    3  502    0  0.70556853307E+03 -0.29120766083E+03 -0.27853069043E+04  0.28880033619E+04  0.10100000352E+00 0.  1.
       -3    1    3    3    0  502 -0.70556853307E+03  0.29120766083E+03  0.10291108296E+04  0.12812876205E+04  0.10100000352E+00 0. -1.
</event>
<event>
 5   0  0.5140842E-08  0.3799027E+04  0.7818609E-02  0.8046364E-01
       -2   -1    0    0    0  501  0.00000000000E+00  0.00000000000E+00  0.13385905161E+04  0.13385905161E+04  0.25500000920E-02 0. -1.
        2   -1    0    0  501    0  0.00000000000E+00  0.00000000000E+00 -0.26954850205E+04  0.26954850205E+04  0.25500000920E-02 0.  1.
    10030    2    1    2    0    0  0.00000000000E+00  0.00000000000E+00 -0.13568945044E+04  0.40340755366E+04  0.37990265515E+04 0.  0.
        2    1    3    3  502    0 -0.77509608752E+03 -0.66204976451E+03 -0.23804466404E+04  0.25895192688E+04  0.25500000920E-02 0.  1.
       -2    1    3    3    0  502  0.77509608752E+03  0.66204976451E+03  0.10235521360E+04  0.14445562678E+04  0.25500000920E-02 0. -1.
</event>
<event>
 5   0  0.1628250E-08  0.3813682E+04  0.7818609E-02  0.8043225E-01
        1   -1    0    0  501    0  0.00000000000E+00  0.00000000000E+00  0.16774795354E+04  0.16774795354E+04  0.50400001928E-02 0.  1.
       -1   -1    0    0    0  501  0.00000000000E+00  0.00000000000E+00 -0.21675628639E+04  0.21675628639E+04  0.50400001928E-02 0. -1.
    10030    2    1    2    0    0  0.00000000000E+00  0.00000000000E+00 -0.49008332849E+03  0.38450423992E+04  0.38136818670E+04 0.  0.
        5    1    3    3  502    0 -0.50590697381E+02 -0.17424957099E+04 -0.10241637121E+04  0.20218269255E+04  0.46999998093E+01 0. -1.
       -5    1    3    3    0  502  0.50590697381E+02  0.17424957099E+04  0.53408038358E+03  0.18232154737E+04  0.46999998093E+01 0.  1.
</event>
<event>
 5   0  0.5159761E-08  0.3796015E+04  0.7818609E-02  0.8047011E-01
        2   -1    0    0  501    0  0.00000000000E+00  0.00000000000E+00  0.31091070634E+04  0.31091070634E+04  0.25500000920E-02 0. -1.
       -2   -1    0    0    0  501  0.00000000000E+00  0.00000000000E+00 -0.11586713419E+04  0.11586713419E+04  0.25500000920E-02 0.  1.
    10030    2    1    2    0    0  0.00000000000E+00  0.00000000000E+00  0.19504357215E+04  0.42677784053E+04  0.37960154127E+04 0.  0.
        5    1    3    3  502    0 -0.68189573631E+02 -0.92923365660E+03 -0.88385271147E+03  0.12842673834E+04  0.46999998093E+01 0.  1.
       -5    1    3    3    0  502  0.68189573631E+02  0.92923365660E+03  0.28342884330E+04  0.29835110219E+04  0.46999998093E+01 0. -1.
</event>
<event>
 5   0  0.1666051E-08  0.3801651E+04  0.7818609E-02  0.8045801E-01
       -1   -1    0    0    0  501  0.00000000000E+00  0.00000000000E+00  0.20575237347E+04  0.20575237347E+04  0.50400001928E-02 0. -1.
        1   -1    0    0  501    0  0.00000000000E+00  0.00000000000E+00 -0.17560613005E+04  0.17560613006E+04  0.50400001928E-02 0.  1.
    10030    2    1    2    0    0  0.00000000000E+00  0.00000000000E+00  0.30146243412E+03  0.38135850352E+04  0.38016511178E+04 0.  0.
        2    1    3    3  502    0  0.96225394935E+03 -0.10495264580E+04 -0.11124672823E+04  0.18069371608E+04  0.25500000920E-02 0.  1.
       -2    1    3    3    0  502 -0.96225394935E+03  0.10495264580E+04  0.14139297164E+04  0.20066478744E+04  0.25500000920E-02 0. -1.
</event>
<event>
 5   0  0.1666051E-08  0.3795082E+04  0.7818609E-02  0.8047211E-01
        1   -1    0    0  501    0  0.00000000000E+00  0.00000000000E+00  0.22193584632E+04  0.22193584632E+04  0.50400001928E-02 0.  1.
       -1   -1    0    0    0  501  0.00000000000E+00  0.00000000000E+00 -0.16223886236E+04  0.16223886237E+04  0.50400001928E-02 0. -1.
    10030    2    1    2    0    0  0.00000000000E+00  0.00000000000E+00  0.59696983956E+03  0.38417470869E+04  0.37950820400E+04 0.  0.
        2    1    3    3  502    0  0.10616139713E+04  0.15390957006E+04 -0.29258572841E+02  0.18699454173E+04  0.25500000920E-02 0. -1.
       -2    1    3    3    0  502 -0.10616139713E+04 -0.15390957006E+04  0.62622841240E+03  0.19718016696E+04  0.25500000920E-02 0.  1.
</event>
<event>
 5   0  0.1628250E-08  0.3797718E+04  0.7818609E-02  0.8046645E-01
       -1   -1    0    0    0  501  0.00000000000E+00  0.00000000000E+00  0.16151871794E+04  0.16151871794E+04  0.50400001928E-02 0.  1.
        1   -1    0    0  501    0  0.00000000000E+00  0.00000000000E+00 -0.22323516105E+04  0.22323516105E+04  0.50400001928E-02 0. -1.
    10030    2    1    2    0    0  0.00000000000E+00  0.00000000000E+00 -0.61716443111E+03  0.38475387899E+04  0.37977181050E+04 0.  0.
        1    1    3    3  502    0  0.18204699950E+04 -0.12303138269E+03 -0.84123404681E+03  0.20092094080E+04  0.50400001928E-02 0.  1.
       -1    1    3    3    0  502 -0.18204699950E+04  0.12303138269E+03  0.22406961570E+03  0.18383293819E+04  0.50400001928E-02 0. -1.
</event>
<event>
 5   0  0.1666051E-08  0.3799167E+04  0.7818609E-02  0.8046334E-01
        1   -1    0    0  501    0  0.00000000000E+00  0.00000000000E+00  0.23158068755E+04  0.23158068755E+04  0.50400001928E-02 0. -1.
       -1   -1    0    0    0  501  0.00000000000E+00  0.00000000000E+00 -0.15581681737E+04  0.15581681737E+04  0.50400001928E-02 0.  1.
    10030    2    1    2    0    0  0.00000000000E+00  0.00000000000E+00  0.75763870180E+03  0.38739750491E+04  0.37991665242E+04 0.  0.
        2    1    3    3  502    0  0.23461241397E+03 -0.39946235060E+02  0.23005450089E+04  0.23128220909E+04  0.25500000920E-02 0. -1.
       -2    1    3    3    0  502 -0.23461241397E+03  0.39946235060E+02 -0.15429063071E+04  0.15611529582E+04  0.25500000920E-02 0.  1.
</event>
<event>
 5   0  0.5147582E-08  0.3775553E+04  0.7818609E-02  0.8051421E-01
       -2   -1    0    0    0  501  0.00000000000E+00  0.00000000000E+00  0.20351164430E+04  0.20351164430E+04  0.25500000920E-02 0.  1.
        2   -1    0    0  501    0  0.00000000000E+00  0.00000000000E+00 -0.17511041150E+04  0.17511041150E+04  0.25500000920E-02 0. -1.
    10030    2    1    2    0    0  0.00000000000E+00  0.00000000000E+00  0.28401232803E+03  0.37862205579E+04  0.37755533516E+04 0.  0.
        1    1    3    3  502    0  0.25180521971E+03  0.17099553807E+04 -0.61931430475E+03  0.18360020373E+04  0.50400001928E-02 0. -1.
       -1    1    3    3    0  502 -0.25180521971E+03 -0.17099553807E+04  0.90332663278E+03  0.19502185207E+04  0.50400001928E-02 0.  1.
</event>
<event>
 5   0  0.5147582E-08  0.3801497E+04  0.7818609E-02  0.8045834E-01
        2   -1    0    0  501    0  0.00000000000E+00  0.00000000000E+00  0.15728311627E+04  0.15728311627E+04  0.25500000920E-02 0.  1.
       -2   -1    0    0    0  501  0.00000000000E+00  0.00000000000E+00 -0.22970333662E+04  0.22970333662E+04  0.25500000920E-02 0. -1.
    10030    2    1    2    0    0  0.00000000000E+00  0.00000000000E+00 -0.72420220351E+03  0.38698645289E+04  0.38014974208E+04 0.  0.
        1    1    3    3  502    0 -0.17477337074E+04  0.73918837023E+03 -0.47302449599E+03  0.19556903468E+04  0.50400001928E-02 0. -1.
       -1    1    3    3    0  502  0.17477337074E+04 -0.73918837023E+03 -0.25117770752E+03  0.19141741821E+04  0.50400001928E-02 0.  1.
</event>
<event>
 5   0  0.1628250E-08  0.3798635E+04  0.7818609E-02  0.8046448E-01
        1   -1    0    0  501    0  0.00000000000E+00  0.00000000000E+00  0.19479021893E+04  0.19479021893E+04  0.50400001928E-02 0.  1.
       -1   -1    0    0    0  501  0.00000000000E+00  0.00000000000E+00 -0.18519443688E+04  0.18519443688E+04  0.50400001928E-02 0. -1.
    10030    2    1    2    0    0  0.00000000000E+00  0.00000000000E+00  0.95957820500E+02  0.37998465580E+04  0.37986347496E+04 0.  0.
        4    1    3    3  502    0 -0.49655215928E+03  0.78077292139E+03  0.17071926116E+04  0.19418235316E+04  0.12699999809E+01 0.  1.
       -4    1    3    3    0  502  0.49655215928E+03 -0.78077292139E+03 -0.16112347911E+04  0.18580230264E+04  0.12699999809E+01 0. -1.
</event>
<event>
 5   0  0.5159761E-08  0.3745773E+04  0.7818609E-02  0.8057893E-01
        2   -1    0    0  501    0  0.00000000000E+00  0.00000000000E+00  0.28306278837E+04  0.28306278837E+04  0.25500000920E-02 0. -1.
       -2   -1    0    0    0  501  0.00000000000E+00  0.00000000000E+00 -0.12391962110E+04  0.12391962110E+04  0.25500000920E-02 0.  1.
    10030    2    1    2    0    0  0.00000000000E+00  0.00000000000E+00  0.15914316727E+04  0.40698240947E+04  0.37457727365E+04 0.  0.
        5    1    3    3  502    0  0.46910635074E+03  0.92915992343E+03  0.24874254293E+04  0.26964247232E+04  0.46999998093E+01 0. -1.
       -5    1    3    3    0  502 -0.46910635074E+03 -0.92915992343E+03 -0.89599375666E+03  0.13733993715E+04  0.46999998093E+01 0.  1.
</event>
<event>
 5   0  0.1628250E-08  0.3800860E+04  0.7818609E-02  0.8045970E-01
       -1   -1    0    0    0  501  0.00000000000E+00  0.00000000000E+00  0.19818714074E+04  0.19818714074E+04  0.50400001928E-02 0. -1.
        1   -1    0    0  501    0  0.00000000000E+00  0.00000000000E+00 -0.18223352929E+04  0.18223352929E+04  0.50400001928E-02 0.  1.
    10030    2    1    2    0    0  0.00000000000E+00  0.00000000000E+00  0.15953611450E+03  0.38042067003E+04  0.38008600141E+04 0.  0.
        5    1    3    3  502    0  0.10184550124E+04  0.16868301702E+03 -0.15172269036E+04  0.18351305511E+04  0.46999998093E+01 0.  1.
       -5    1    3    3    0  502 -0.10184550124E+04 -0.16868301702E+03  0.16767630181E+04  0.19690761492E+04  0.46999998093E+01 0. -1.
</event>
<event>
 5   0  0.1666051E-08  0.3799277E+04  0.7818609E-02  0.8046310E-01
       -1   -1    0    0    0  501  0.00000000000E+00  0.00000000000E+00  0.18458360857E+04  0.18458360857E+04  0.50400001928E-02 0. -1.
        1   -1    0    0  501    0  0.00000000000E+00  0.00000000000E+00 -0.19550090611E+04  0.19550090611E+04  0.50400001928E-02 0.  1.
    10030    2    1    2    0    0  0.00000000000E+00  0.00000000000E+00 -0.10917297546E+03  0.38008451468E+04  0.37992769169E+04 0.  0.
        2    1    3    3  502    0  0.12279493519E+04 -0.23624798825E+03 -0.14851954811E+04  0.19415144449E+04  0.25500000920E-02 0.  1.
       -2    1    3    3    0  502 -0.12279493519E+04  0.23624798825E+03  0.13760225057E+04  0.18593307019E+04  0.25500000920E-02 0. -1.
</event>
<event>
 5   0  0.5159761E-08  0.3804159E+04  0.7818609E-02  0.8045263E-01
        2   -1    0    0  501    0  0.00000000000E+00  0.00000000000E+00  0.21437052254E+04  0.21437052254E+04  0.25500000920E-02 0.  1.
       -2   -1    0    0    0  501  0.00000000000E+00  0.00000000000E+00 -0.16876881874E+04  0.16876881874E+04  0.25500000920E-02 0. -1.
    10030    2    1    2    0    0  0.00000000000E+00  0.00000000000E+00  0.45601703801E+03  0.38313934128E+04  0.38041587696E+04 0.  0.
        5    1    3    3  502    0 -0.10463789618E+04  0.91476802547E+02  0.18251124202E+04  0.21057859277E+04  0.46999998093E+01 0.  1.
       -5    1    3    3    0  502  0.10463789618E+04 -0.91476802547E+02 -0.13690953822E+04  0.17256074851E+04  0.46999998093E+01 0. -1.
</event>
<event>
 5   0  0.5147582E-08  0.3798113E+04  0.7818609E-02  0.8046560E-01
        2   -1    0    0  501    0  0.00000000000E+00  0.00000000000E+00  0.25947884015E+04  0.25947884015E+04  0.25500000920E-02 0. -1.
       -2   -1    0    0    0  501  0.00000000000E+00  0.00000000000E+00 -0.13898690868E+04  0.13898690869E+04  0.25500000920E-02 0.  1.
    10030    2    1    2    0    0  0.00000000000E+00  0.00000000000E+00  0.12049193146E+04  0.39846574883E+04  0.37981133138E+04 0.  0.
        1    1    3    3  502    0  0.29404590506E+03  0.19846868588E+03  0.25597166430E+04  0.25841830636E+04  0.50400001928E-02 0. -1.
       -1    1    3    3    0  502 -0.29404590506E+03 -0.19846868588E+03 -0.13547973283E+04  0.14004744248E+04  0.50400001928E-02 0.  1.
</event>
<event>
 5   0  0.1628250E-08  0.3795520E+04  0.7818609E-02  0.8047117E-01
       -1   -1    0    0    0  501  0.00000000000E+00  0.00000000000E+00  0.14296377929E+04  0.14296377929E+04  0.50400001928E-02 0.  1.
        1   -1    0    0  501    0  0.00000000000E+00  0.00000000000E+00 -0.25191648353E+04  0.25191648353E+04  0.50400001928E-02 0. -1.
    10030    2    1    2    0    0  0.00000000000E+00  0.00000000000E+00 -0.10895270425E+04  0.39488026282E+04  0.37955201251E+04 0.  0.
        4    1    3    3  502    0 -0.17858531236E+04 -0.26689025583E+03 -0.11522895048E+04  0.21420257943E+04  0.12699999809E+01 0. -1.
       -4    1    3    3    0  502  0.17858531236E+04  0.26689025583E+03  0.62762462351E+02  0.18067768339E+04  0.12699999809E+01 0.  1.
</event>
<event>
 5   0  0.1628250E-08  0.3800602E+04  0.7818609E-02  0.8046026E-01
       -3   -1    0    0    0  501  0.00000000000E+00  0.00000000000E+00  0.21617957531E+04  0.21617957554E+04  0.10100000352E+00 0. -1.
        3   -1    0    0  501    0  0.00000000000E+00  0.00000000000E+00 -0.16704370726E+04  0.16704370756E+04  0.10100000352E+00 0.  1.
    10030    2    1    2    0    0  0.00000000000E+00  0.00000000000E+00  0.49135868051E+03  0.38322328311E+04  0.38006019416E+04 0.  0.
        3    1    3    3  502    0  0.87274922063E+03 -0.16485756054E+04 -0.12017789593E+03  0.18692071757E+04  0.10100000352E+00 0.  1.
       -3    1    3    3    0  502 -0.87274922063E+03  0.16485756054E+04  0.61153657645E+03  0.19630256553E+04  0.10100000352E+00 0. -1.
</event>
<event>
 5   0  0.1628250E-08  0.3800779E+04  0.7818609E-02  0.8045988E-01
        1   -1    0    0  501    0  0.00000000000E+00  0.00000000000E+00  0.16210438283E+04  0.16210438283E+04  0.50400001928E-02 0. -1.
       -1   -1    0    0    0  501  0.00000000000E+00  0.00000000000E+00 -0.22278735110E+04  0.22278735110E+04  0.50400001928E-02 0.  1.
    10030    2    1    2    0    0  0.00000000000E+00  0.00000000000E+00 -0.60682968278E+03  0.38489173393E+04  0.38007791860E+04 0.  0.
        5    1    3    3  502    0  0.59431071293E+03  0.12089134595E+04  0.10540030948E+04  0.17104448515E+04  0.46999998093E+01 0. -1.
       -5    1    3    3    0  502 -0.59431071293E+03 -0.12089134595E+04 -0.16608327776E+04  0.21384724878E+04  0.46999998093E+01 0.  1.
</event>
<event>
 5   0  0.1628473E-08  0.3894528E+04  0.7818609E-02  0.8026168E-01
        1   -1    0    0  501    0  0.00000000000E+00  0.00000000000E+00  0.21309204274E+04  0.21309204274E+04  0.50400001928E-02 0.  1.
       -1   -1    0    0    0  501  0.00000000000E+00  0.00000000000E+00 -0.17794364855E+04  0.17794364855E+04  0.50400001928E-02 0. -1.
    10030    2    1    2    0    0  0.00000000000E+00  0.00000000000E+00  0.35148394195E+03  0.39103569129E+04  0.38945282416E+04 0.  0.
        3    1    3    3  502    0  0.18828964146E+04 -0.60269391524E+02  0.67060029003E+03  0.19996589877E+04  0.10100000352E+00 0.  1.
       -3    1    3    3    0  502 -0.18828964146E+04  0.60269391524E+02 -0.31911634808E+03  0.19106979253E+04  0.10100000352E+00 0. -1.
</event>
<event>
 5   0  0.1628250E-08  0.3800689E+04  0.7818609E-02  0.8046007E-01
       -3   -1    0    0    0  501  0.00000000000E+00  0.00000000000E+00  0.15184493312E+04  0.15184493346E+04  0.10100000352E+00 0. -1.
        3   -1    0    0  501    0  0.00000000000E+00  0.00000000000E+00 -0.23782879979E+04  0.23782880001E+04  0.10100000352E+00 0.  1.
    10030    2    1    2    0    0  0.00000000000E+00  0.00000000000E+00 -0.85983866669E+03  0.38967373347E+04  0.38006893220E+04 0.  0.
        2    1    3    3  502    0 -0.83957222703E+02  0.18454305535E+04  0.27042431146E+02  0.18475372896E+04  0.25500000920E-02 0. -1.
       -2    1    3    3    0  502  0.83957222703E+02 -0.18454305535E+04 -0.88688109784E+03  0.20492000451E+04  0.25500000920E-02 0.  1.
</event>
<event>
 5   0  0.1628250E-08  0.3796706E+04  0.7818609E-02  0.8046862E-01
       -1   -1    0    0    0  501  0.00000000000E+00  0.00000000000E+00  0.21453808951E+04  0.21453808951E+04  0.50400001928E-02 0.  1.
        1   -1    0    0  501    0  0.00000000000E+00  0.00000000000E+00 -0.16797689425E+04  0.16797689425E+04  0.50400001928E-02 0. -1.
    10030    2    1    2    0    0  0.00000000000E+00  0.00000000000E+00  0.46561195258E+03  0.38251498376E+04  0.37967060446E+04 0.  0.
        4    1    3    3  502    0 -0.14529347795E+04 -0.10320182404E+04  0.89166354068E+03  0.19927735960E+04  0.12699999809E+01 0.  1.
       -4    1    3    3    0  502  0.14529347795E+04  0.10320182404E+04 -0.42605158810E+03  0.18323762416E+04  0.12699999809E+01 0. -1.
</event>
<event>
 5   0  0.1628250E-08  0.3800621E+04  0.7818609E-02  0.8046022E-01
        1   -1    0    0  501    0  0.00000000000E+00  0.00000000000E+00  0.20006225245E+04  0.20006225245E+04  0.50400001928E-02 0.  1.
       -1   -1    0    0    0  501  0.00000000000E+00  0.00000000000E+00 -0.18050282719E+04  0.18050282719E+04  0.50400001928E-02 0. -1.
    10030    2    1    2    0    0  0.00000000000E+00  0.00000000000E+00  0.19559425257E+03  0.38056507964E+04  0.38006211167E+04 0.  0.
        5    1    3    3  502    0 -0.15709478353E+04  0.72695700556E+03 -0.68734164288E+03  0.18624726073E+04  0.46999998093E+01 0. -1.
       -5    1    3    3    0  502  0.15709478353E+04 -0.72695700556E+03  0.88293589545E+03  0.19431781891E+04  0.46999998093E+01 0.  1.
</event>
<event>
 5   0  0.5207474E-08  0.3793370E+04  0.7818609E-02  0.8047579E-01
        2   -1    0    0  501    0  0.00000000000E+00  0.00000000000E+00  0.11656800495E+04  0.11656800495E+04  0.25500000920E-02 0.  1.
       -2   -1    0    0    0  501  0.00000000000E+00  0.00000000000E+00 -0.30861080330E+04  0.30861080330E+04  0.25500000920E-02 0. -1.
    10030    2    1    2    0    0  0.00000000000E+00  0.00000000000E+00 -0.19204279835E+04  0.42517880825E+04  0.37933703034E+04 0.  0.
        4    1    3    3  502    0  0.27031249795E+03 -0.14063777763E+04  0.43362850556E+03  0.14963297063E+04  0.12699999809E+01 0.  1.
       -4    1    3    3    0  502 -0.27031249795E+03  0.14063777763E+04 -0.23540564891E+04  0.27554583762E+04  0.12699999809E+01 0. -1.
</event>
<event>
 5   0  0.1628250E-08  0.3800698E+04  0.7818609E-02  0.8046005E-01
       -1   -1    0    0    0  501  0.00000000000E+00  0.00000000000E+00  0.19013998890E+04  0.19013998890E+04  0.50400001928E-02 0. -1.
        1   -1    0    0  501    0  0.00000000000E+00  0.00000000000E+00 -0.18992984756E+04  0.18992984756E+04  0.50400001928E-02 0.  1.
    10030    2    1    2    0    0  0.00000000000E+00  0.00000000000E+00  0.21014134890E+01  0.38006983646E+04  0.38006977837E+04 0.  0.
        5    1    3    3  502    0 -0.97718711817E+03  0.16287808866E+04  0.60059020972E+02  0.19003818081E+04  0.46999998093E+01 0.  1.
       -5    1    3    3    0  502  0.97718711817E+03 -0.16287808866E+04 -0.57957607483E+02  0.19003165565E+04  0.46999998093E+01 0. -1.
</event>
<event>
 5   0  0.5086209E-08  0.3806023E+04  0.7818609E-02  0.8044864E-01
       -2   -1    0    0    0  501  0.00000000000E+00  0.00000000000E+00  0.18185585921E+04  0.18185585921E+04  0.25500000920E-02 0.  1.
        2   -1    0    0  501    0  0.00000000000E+00  0.00000000000E+00 -0.19913863000E+04  0.19913863000E+04  0.25500000920E-02 0. -1.
    10030    2    1    2    0    0  0.00000000000E+00  0.00000000000E+00 -0.17282770788E+03  0.38099448922E+04  0.38060229459E+04 0.  0.
        3    1    3    3  502    0  0.59219844600E+03 -0.81967936999E+03  0.15273513762E+04  0.18317684094E+04  0.10100000352E+00 0.  1.
       -3    1    3    3    0  502 -0.59219844600E+03  0.81967936999E+03 -0.17001790841E+04  0.19781764828E+04  0.10100000352E+00 0. -1.
</event>
<event>
 5   0  0.5086209E-08  0.3798779E+04  0.7818609E-02  0.8046417E-01
       -2   -1    0    0    0  501  0.00000000000E+00  0.00000000000E+00  0.31442988145E+04  0.31442988145E+04  0.25500000920E-02 0. -1.
        2   -1    0    0  501    0  0.00000000000E+00  0.00000000000E+00 -0.11473718418E+04  0.11473718418E+04  0.25500000920E-02 0.  1.
    10030    2    1    2    0    0  0.00000000000E+00  0.00000000000E+00  0.19969269727E+04  0.42916706564E+04  0.37987787101E+04 0.  0.
        3    1    3    3  502    0  0.62349363667E+03 -0.69775150706E+03  0.28658274464E+04  0.30147252683E+04  0.10100000352E+00 0. -1.
       -3    1    3    3    0  502 -0.62349363667E+03  0.69775150706E+03 -0.86890047373E+03  0.12769453880E+04  0.10100000352E+00 0.  1.
</event>
<event>
 5   0  0.1666051E-08  0.3803234E+04  0.7818609E-02  0.8045461E-01
        1   -1    0    0  501    0  0.00000000000E+00  0.00000000000E+00  0.18421292163E+04  0.18421292163E+04  0.50400001928E-02 0. -1.
       -1   -1    0    0    0  501  0.00000000000E+00  0.00000000000E+00 -0.19630260256E+04  0.19630260256E+04  0.50400001928E-02 0.  1.
    10030    2    1    2    0    0  0.00000000000E+00  0.00000000000E+00 -0.12089680937E+03  0.38051552419E+04  0.38032341995E+04 0.  0.
        2    1    3    3  502    0 -0.92209865508E+03 -0.12008773289E+04 -0.12115839054E+04  0.19391513217E+04  0.25500000920E-02 0.  1.
       -2    1    3    3    0  502  0.92209865508E+03  0.12008773289E+04  0.10906870960E+04  0.18660039202E+04  0.25500000920E-02 0. -1.
</event>
<event>
 5   0  0.5159761E-08  0.3793923E+04  0.7818609E-02  0.8047460E-01
       -2   -1    0    0    0  501  0.00000000000E+00  0.00000000000E+00  0.14642020757E+04  0.14642020757E+04  0.25500000920E-02 0.  1.
        2   -1    0    0  501    0  0.00000000000E+00  0.00000000000E+00 -0.24576266677E+04  0.24576266677E+04  0.25500000920E-02 0. -1.
    10030    2    1    2    0    0  0.00000000000E+00  0.00000000000E+00 -0.99342459205E+03  0.39218287434E+04  0.37939225443E+04 0.  0.
        5    1    3    3  502    0 -0.14892392959E+04 -0.74390895258E+03  0.44345890084E+03  0.17227629253E+04  0.46999998093E+01 0.  1.
       -5    1    3    3    0  502  0.14892392959E+04  0.74390895258E+03 -0.14368834929E+04  0.21990658181E+04  0.46999998093E+01 0. -1.
</event>
<event>
 5   0  0.1628250E-08  0.3796039E+04  0.7818609E-02  0.8047005E-01
       -1   -1    0    0    0  501  0.00000000000E+00  0.00000000000E+00  0.17972964242E+04  0.17972964242E+04  0.50400001928E-02 0.  1.
        1   -1    0    0  501    0  0.00000000000E+00  0.00000000000E+00 -0.20043871163E+04  0.20043871163E+04  0.50400001928E-02 0. -1.
    10030    2    1    2    0    0  0.00000000000E+00  0.00000000000E+00 -0.20709069208E+03  0.38016835405E+04  0.37960388812E+04 0.  0.
        5    1    3    3  502    0  0.23146356312E+03 -0.43910139636E+03  0.17311367992E+04  0.18009003651E+04  0.46999998093E+01 0.  1.
       -5    1    3    3    0  502 -0.23146356312E+03  0.43910139636E+03 -0.19382274913E+04  0.20007831755E+04  0.46999998093E+01 0. -1.
</event>
<event>
 5   0  0.1666051E-08  0.3802969E+04  0.7818609E-02  0.8045518E-01
       -1   -1    0    0    0  501  0.00000000000E+00  0.00000000000E+00  0.20859263136E+04  0.20859263136E+04  0.50400001928E-02 0.  1.
        1   -1    0    0  501    0  0.00000000000E+00  0.00000000000E+00 -0.17333513947E+04  0.17333513947E+04  0.50400001928E-02 0. -1.
    10030    2    1    2    0    0  0.00000000000E+00  0.00000000000E+00  0.35257491888E+03  0.38192777082E+04  0.38029689900E+04 0.  0.
        2    1    3    3  502    0 -0.99525831050E+03 -0.14606451794E+04  0.88045038334E+03  0.19746433405E+04  0.25500000920E-02 0.  1.
       -2    1    3    3    0  502  0.99525831050E+03  0.14606451794E+04 -0.52787546446E+03  0.18446343677E+04  0.25500000920E-02 0. -1.
</event>
<event>
 5   0  0.5159761E-08  0.3792906E+04  0.7818609E-02  0.8047679E-01
       -2   -1    0    0    0  501  0.00000000000E+00  0.00000000000E+00  0.12278688891E+04  0.12278688891E+04  0.25500000920E-02 0.  1.
        2   -1    0    0  501    0  0.00000000000E+00  0.00000000000E+00 -0.29290856947E+04  0.29290856947E+04  0.25500000920E-02 0. -1.
    10030    2    1    2    0    0  0.00000000000E+00  0.00000000000E+00 -0.17012168056E+04  0.41569545838E+04  0.37929055871E+04 0.  0.
        5    1    3    3  502    0  0.88305507670E+03 -0.14777252224E+04 -0.17226220569E+04  0.24353453436E+04  0.46999998093E+01 0. -1.
       -5    1    3    3    0  502 -0.88305507670E+03  0.14777252224E+04  0.21405251287E+02  0.17216092403E+04  0.46999998093E+01 0.  1.
</event>
<event>
 5   0  0.5147582E-08  0.3860659E+04  0.7818609E-02  0.8033261E-01
        2   -1    0    0  501    0  0.00000000000E+00  0.00000000000E+00  0.17886101415E+04  0.17886101415E+04  0.25500000920E-02 0.  1.
       -2   -1    0    0    0  501  0.00000000000E+00  0.00000000000E+00 -0.20832778913E+04  0.20832778913E+04  0.25500000920E-02 0. -1.
    10030    2    1    2    0    0  0.00000000000E+00  0.00000000000E+00 -0.29466774987E+03  0.38718880328E+04  0.38606589924E+04 0.  0.
        1    1    3    3  502    0 -0.54139559414E+02 -0.49974155051E+03  0.17218195563E+04  0.17936931995E+04  0.50400001928E-02 0.  1.
       -1    1    3    3    0  502  0.54139559414E+02  0.49974155051E+03 -0.20164873062E+04  0.20781948333E+04  0.50400001928E-02 0. -1.
</event>
<event>
 5   0  0.1666051E-08  0.3797319E+04  0.7818609E-02  0.8046731E-01
       -1   -1    0    0    0  501  0.00000000000E+00  0.00000000000E+00  0.16140589069E+04  0.16140589069E+04  0.50400001928E-02 0.  1.
        1   -1    0    0  501    0  0.00000000000E+00  0.00000000000E+00 -0.22334421695E+04  0.22334421695E+04  0.50400001928E-02 0. -1.
    10030    2    1    2    0    0  0.00000000000E+00  0.00000000000E+00 -0.61938326264E+03  0.38475010764E+04  0.37973186470E+04 0.  0.
        2    1    3    3  502    0  0.84040287399E+03 -0.17021437333E+04 -0.27264413653E+03  0.19177865118E+04  0.25500000920E-02 0.  1.
       -2    1    3    3    0  502 -0.84040287399E+03  0.17021437333E+04 -0.34673912612E+03  0.19297145647E+04  0.25500000920E-02 0. -1.
</event>
<event>
 5   0  0.5147582E-08  0.3805331E+04  0.7818609E-02  0.8045012E-01
        2   -1    0    0  501    0  0.00000000000E+00  0.00000000000E+00  0.21452351065E+04  0.21452351065E+04  0.25500000920E-02 0. -1.
       -2   -1    0    0    0  501  0.00000000000E+00  0.00000000000E+00 -0.16875242584E+04  0.16875242584E+04  0.25500000920E-02 0.  1.
    10030    2    1    2    0    0  0.00000000000E+00  0.00000000000E+00  0.45771084817E+03  0.38327593649E+04  0.38053311457E+04 0.  0.
        1    1    3    3  502    0 -0.84273184122E+03 -0.10438020001E+04 -0.11300977879E+04  0.17540925238E+04  0.50400001928E-02 0.  1.
       -1    1    3    3    0  502  0.84273184122E+03  0.10438020001E+04  0.15878086360E+04  0.20786668411E+04  0.50400001928E-02 0. -1.
</event>
<event>
 5   0  0.1628250E-08  0.3800502E+04  0.7818609E-02  0.8046047E-01
       -1   -1    0    0    0  501  0.00000000000E+00  0.00000000000E+00  0.35477158459E+04  0.35477158459E+04  0.50400001928E-02 0. -1.
        1   -1    0    0  501    0  0.00000000000E+00  0.00000000000E+00 -0.10178247378E+04  0.10178247378E+04  0.50400001928E-02 0.  1.
    10030    2    1    2    0    0  0.00000000000E+00  0.00000000000E+00  0.25298911081E+04  0.45655405838E+04  0.38005015200E+04 0.  0.
        4    1    3    3  502    0 -0.53566678395E+03 -0.31132737716E+03 -0.89308048689E+03  0.10869489446E+04  0.12699999809E+01 0.  1.
       -4    1    3    3    0  502  0.53566678395E+03  0.31132737716E+03  0.34229715950E+04  0.34785916392E+04  0.12699999809E+01 0. -1.
</event>
<event>
 5   0  0.5086209E-08  0.3798749E+04  0.7818609E-02  0.8046423E-01
       -2   -1    0    0    0  501  0.00000000000E+00  0.00000000000E+00  0.12283541282E+04  0.12283541282E+04  0.25500000920E-02 0. -1.
        2   -1    0    0  501    0  0.00000000000E+00  0.00000000000E+00 -0.29369578052E+04  0.29369578052E+04  0.25500000920E-02 0.  1.
    10030    2    1    2    0    0  0.00000000000E+00  0.00000000000E+00 -0.17086036770E+04  0.41653119334E+04  0.37987493966E+04 0.  0.
        3    1    3    3  502    0 -0.10288896870E+04  0.92345188519E+03 -0.22823781494E+04  0.26684503741E+04  0.10100000352E+00 0.  1.
       -3    1    3    3    0  502  0.10288896870E+04 -0.92345188519E+03  0.57377447241E+03  0.14968615593E+04  0.10100000352E+00 0. -1.
</event>
<event>
 5   0  0.1628250E-08  0.3758505E+04  0.7818609E-02  0.8055119E-01
        1   -1    0    0  501    0  0.00000000000E+00  0.00000000000E+00  0.29957686769E+04  0.29957686769E+04  0.50400001928E-02 0. -1.
       -1   -1    0    0    0  501  0.00000000000E+00  0.00000000000E+00 -0.11788596319E+04  0.11788596319E+04  0.50400001928E-02 0.  1.
    10030    2    1    2    0    0  0.00000000000E+00  0.00000000000E+00  0.18169090450E+04  0.41746283088E+04  0.37585054263E+04 0.  0.
        4    1    3    3  502    0  0.12947253459E+04 -0.40424210433E+03  0.23531799763E+04  0.27160970185E+04  0.12699999809E+01 0. -1.
       -4    1    3    3    0  502 -0.12947253459E+04  0.40424210433E+03 -0.53627093134E+03  0.14585312903E+04  0.12699999809E+01 0.  1.
</event>
<event>
 5   0  0.5086209E-08  0.3799779E+04  0.7818609E-02  0.8046202E-01
        2   -1    0    0  501    0  0.00000000000E+00  0.00000000000E+00  0.26710453412E+04  0.26710453412E+04  0.25500000920E-02 0. -1.
       -2   -1    0    0    0  501  0.00000000000E+00  0.00000000000E+00 -0.13513734704E+04  0.13513734704E+04  0.25500000920E-02 0.  1.
    10030    2    1    2    0    0  0.00000000000E+00  0.00000000000E+00  0.13196718708E+04  0.40224188116E+04  0.37997788421E+04 0.  0.
        3    1    3    3  502    0 -0.40381475222E+03 -0.17601606729E+04  0.35043825952E+02  0.18062281220E+04  0.10100000352E+00 0.  1.
       -3    1    3    3    0  502  0.40381475222E+03  0.17601606729E+04  0.12846280449E+04  0.22161906896E+04  0.10100000352E+00 0. -1.
</event>
<event>
 5   0  0.5207474E-08  0.3802651E+04  0.7818609E-02  0.8045586E-01
        2   -1    0    0  501    0  0.00000000000E+00  0.00000000000E+00  0.30361801640E+04  0.30361801640E+04  0.25500000920E-02 0.  1.
       -2   -1    0    0    0  501  0.00000000000E+00  0.00000000000E+00 -0.11906536547E+04  0.11906536547E+04  0.25500000920E-02 0. -1.
    10030    2    1    2    0    0  0.00000000000E+00  0.00000000000E+00  0.18455265093E+04  0.42268338187E+04  0.38026511849E+04 0.  0.
        4    1    3    3  502    0 -0.30165987858E+03  0.44792371067E+03 -0.11036134856E+04  0.12286572636E+04  0.12699999809E+01 0. -1.
       -4    1    3    3    0  502  0.30165987858E+03 -0.44792371067E+03  0.29491399949E+04  0.29981765551E+04  0.12699999809E+01 0.  1.
</event>
<event>
 5   0  0.5140842E-08  0.3793753E+04  0.7818609E-02  0.8047497E-01
       -2   -1    0    0    0  501  0.00000000000E+00  0.00000000000E+00  0.12910769118E+04  0.12910769118E+04  0.25500000920E-02 0.  1.
        2   -1    0    0  501    0  0.00000000000E+00  0.00000000000E+00 -0.27869301588E+04  0.27869301588E+04  0.25500000920E-02 0. -1.
    10030    2    1    2    0    0  0.00000000000E+00  0.00000000000E+00 -0.14958532470E+04  0.40780070706E+04  0.37937533831E+04 0.  0.
        2    1    3    3  502    0  0.15388909170E+04  0.10342717590E+04 -0.31763643558E+03  0.18811688470E+04  0.25500000920E-02 0.  1.
       -2    1    3    3    0  502 -0.15388909170E+04 -0.10342717590E+04 -0.11782168114E+04  0.21968382236E+04  0.25500000920E-02 0. -1.
</event>
<event>
 5   0  0.5140842E-08  0.3792595E+04  0.7818609E-02  0.8047746E-01
        2   -1    0    0  501    0  0.00000000000E+00  0.00000000000E+00  0.15940883218E+04  0.15940883218E+04  0.25500000920E-02 0. -1.
       -2   -1    0    0    0  501  0.00000000000E+00  0.00000000000E+00 -0.22557993415E+04  0.22557993415E+04  0.25500000920E-02 0.  1.
    10030    2    1    2    0    0  0.00000000000E+00  0.00000000000E+00 -0.66171101970E+03  0.38498876632E+04  0.37925945665E+04 0.  0.
        2    1    3    3  502    0  0.62507442799E+03  0.37002015172E+02  0.14861161196E+04  0.16126463687E+04  0.25500000920E-02 0. -1.
       -2    1    3    3    0  502 -0.62507442799E+03 -0.37002015172E+02 -0.21478271393E+04  0.22372412945E+04  0.25500000920E-02 0.  1.
</event>
<event>
 5   0  0.1628250E-08  0.3807486E+04  0.7818609E-02  0.8044550E-01
        1   -1    0    0  501    0  0.00000000000E+00  0.00000000000E+00  0.20015567417E+04  0.20015567417E+04  0.50400001928E-02 0.  1.
       -1   -1    0    0    0  501  0.00000000000E+00  0.00000000000E+00 -0.18107088600E+04  0.18107088600E+04  0.50400001928E-02 0. -1.
    10030    2    1    2    0    0  0.00000000000E+00  0.00000000000E+00  0.19084788176E+03  0.38122656017E+04  0.38074855356E+04 0.  0.
        4    1    3    3  502    0 -0.64092629935E+03 -0.10819031810E+04 -0.13356828604E+04  0.18344893924E+04  0.12699999809E+01 0. -1.
       -4    1    3    3    0  502  0.64092629935E+03  0.10819031810E+04  0.15265307422E+04  0.19777762093E+04  0.12699999809E+01 0.  1.
</event>
<event>
 5   0  0.5140842E-08  0.3807645E+04  0.7818609E-02  0.8044516E-01
        2   -1    0    0  501    0  0.00000000000E+00  0.00000000000E+00  0.25860281805E+04  0.25860281805E+04  0.25500000920E-02 0. -1.
       -2   -1    0    0    0  501  0.00000000000E+00  0.00000000000E+00 -0.14015860241E+04  0.14015860241E+04  0.25500000920E-02 0.  1.
    10030    2    1    2    0    0  0.00000000000E+00  0.00000000000E+00  0.11844421564E+04  0.39876142045E+04  0.38076454433E+04 0.  0.
        2    1    3    3  502    0 -0.13065881848E+04  0.13124354846E+04  0.10545401340E+04  0.21311298600E+04  0.25500000920E-02 0. -1.
       -2    1    3    3    0  502  0.13065881848E+04 -0.13124354846E+04  0.12990202244E+03  0.18564843445E+04  0.25500000920E-02 0.  1.
</event>
<event>
 5   0  0.5159761E-08  0.3801232E+04  0.7818609E-02  0.8045891E-01
       -2   -1    0    0    0  501  0.00000000000E+00  0.00000000000E+00  0.23386317188E+04  0.23386317188E+04  0.25500000920E-02 0.  1.
        2   -1    0    0  501    0  0.00000000000E+00  0.00000000000E+00 -0.15446385046E+04  0.15446385046E+04  0.25500000920E-02 0. -1.
    10030    2    1    2    0    0  0.00000000000E+00  0.00000000000E+00  0.79399321420E+03  0.38832702234E+04  0.38012316956E+04 0.  0.
        5    1    3    3  502    0 -0.32047601998E+03  0.54396472356E+03  0.22283705009E+04  0.23160871484E+04  0.46999998093E+01 0.  1.
       -5    1    3    3    0  502  0.32047601998E+03 -0.54396472356E+03 -0.14343772867E+04  0.15671830750E+04  0.46999998093E+01 0. -1.
</event>
<event>
 5   0  0.5159761E-08  0.3802186E+04  0.7818609E-02  0.8045686E-01
        2   -1    0    0  501    0  0.00000000000E+00  0.00000000000E+00  0.15556824503E+04  0.15556824503E+04  0.25500000920E-02 0. -1.
       -2   -1    0    0    0  501  0.00000000000E+00  0.00000000000E+00 -0.23231951571E+04  0.23231951571E+04  0.25500000920E-02 0.  1.
    10030    2    1    2    0    0  0.00000000000E+00  0.00000000000E+00 -0.76751270682E+03  0.38788776073E+04  0.38021856527E+04 0.  0.
        5    1    3    3  502    0 -0.98994758857E+03  0.86548492165E+03  0.10169163574E+04  0.16622879852E+04  0.46999998093E+01 0. -1.
       -5    1    3    3    0  502  0.98994758857E+03 -0.86548492165E+03 -0.17844290642E+04  0.22165896222E+04  0.46999998093E+01 0.  1.
</event>
<event>
 5   0  0.5086209E-08  0.3803032E+04  0.7818609E-02  0.8045505E-01
       -2   -1    0    0    0  501  0.00000000000E+00  0.00000000000E+00  0.13258879602E+04  0.13258879602E+04  0.25500000920E-02 0. -1.
        2   -1    0    0  501    0  0.00000000000E+00  0.00000000000E+00 -0.27270497791E+04  0.27270497791E+04  0.25500000920E-02 0.  1.
    10030    2    1    2    0    0  0.00000000000E+00  0.00000000000E+00 -0.14011618188E+04  0.40529377393E+04  0.38030316691E+04 0.  0.
        3    1    3    3  502    0  0.55166367276E+03 -0.49384342383E+03  0.11659521945E+04  0.13811801712E+04  0.10100000352E+00 0. -1.
       -3    1    3    3    0  502 -0.55166367276E+03  0.49384342383E+03 -0.25671140134E+04  0.26717575681E+04  0.10100000352E+00 0.  1.
</event>
<event>
 5   0  0.1628250E-08  0.3792997E+04  0.7818609E-02  0.8047659E-01
        1   -1    0    0  501    0  0.00000000000E+00  0.00000000000E+00  0.23355519572E+04  0.23355519572E+04  0.50400001928E-02 0. -1.
       -1   -1    0    0    0  501  0.00000000000E+00  0.00000000000E+00 -0.15399813436E+04  0.15399813436E+04  0.50400001928E-02 0.  1.
    10030    2    1    2    0    0  0.00000000000E+00  0.00000000000E+00  0.79557061362E+03  0.38755333008E+04  0.37929969370E+04 0.  0.
        5    1    3    3  502    0 -0.44659819381E+03  0.33295655310E+03  0.22500689699E+04  0.23180039845E+04  0.46999998093E+01 0. -1.
       -5    1    3    3    0  502  0.44659819381E+03 -0.33295655310E+03 -0.14544983562E+04  0.15575293163E+04  0.46999998093E+01 0.  1.
</event>
<event>
 5   0  0.1628250E-08  0.3799187E+04  0.7818609E-02  0.8046329E-01
       -1   -1    0    0    0  501  0.00000000000E+00  0.00000000000E+00  0.26438479026E+04  0.26438479026E+04  0.50400001928E-02 0. -1.
        1   -1    0    0  501    0  0.00000000000E+00  0.00000000000E+00 -0.13648500926E+04  0.13648500926E+04  0.50400001928E-02 0.  1.
    10030    2    1    2    0    0  0.00000000000E+00  0.00000000000E+00  0.12789978100E+04  0.40086979953E+04  0.37991873104E+04 0.  0.
        1    1    3    3  502    0 -0.10625036717E+04  0.54179855705E+03 -0.92054688827E+03  0.15066075476E+04  0.50400001928E-02 0.  1.
       -1    1    3    3    0  502  0.10625036717E+04 -0.54179855705E+03  0.21995446983E+04  0.25020904477E+04  0.50400001928E-02 0. -1.
</event>
<event>
 5   0  0.5086209E-08  0.3794186E+04  0.7818609E-02  0.8047404E-01
        2   -1    0    0  501    0  0.00000000000E+00  0.00000000000E+00  0.26194838867E+04  0.26194838867E+04  0.25500000920E-02 0.  1.
       -2   -1    0    0    0  501  0.00000000000E+00  0.00000000000E+00 -0.13739204491E+04  0.13739204491E+04  0.25500000920E-02 0. -1.
    10030    2    1    2    0    0  0.00000000000E+00  0.00000000000E+00  0.12455634376E+04  0.39934043358E+04  0.37941863307E+04 0.  0.
        3    1    3    3  502    0 -0.10931173037E+04 -0.96311571901E+03 -0.65611722535E+03  0.15978069819E+04  0.10100000352E+00 0. -1.
       -3    1    3    3    0  502  0.10931173037E+04  0.96311571901E+03  0.19016806630E+04  0.23955973539E+04  0.10100000352E+00 0.  1.
</event>
<event>
 5   0  0.1666051E-08  0.3817533E+04  0.7818609E-02  0.8042403E-01
       -1   -1    0    0    0  501  0.00000000000E+00  0.00000000000E+00  0.23431515991E+04  0.23431515991E+04  0.50400001928E-02 0. -1.
        1   -1    0    0  501    0  0.00000000000E+00  0.00000000000E+00 -0.15549101614E+04  0.15549101614E+04  0.50400001928E-02 0.  1.
    10030    2    1    2    0    0  0.00000000000E+00  0.00000000000E+00  0.78824143774E+03  0.38980617606E+04  0.38175333561E+04 0.  0.
        2    1    3    3  502    0 -0.11539913876E+04  0.11840779114E+04  0.13679972465E+04  0.21459620429E+04  0.25500000920E-02 0.  1.
       -2    1    3    3    0  502  0.11539913876E+04 -0.11840779114E+04 -0.57975580876E+03  0.17520997177E+04  0.25500000920E-02 0. -1.
</event>
<event>
 5   0  0.5207474E-08  0.3788641E+04  0.7818609E-02  0.8048597E-01
        2   -1    0    0  501    0  0.00000000000E+00  0.00000000000E+00  0.13779980157E+04  0.13779980157E+04  0.25500000920E-02 0. -1.
       -2   -1    0    0    0  501  0.00000000000E+00  0.00000000000E+00 -0.26041037906E+04  0.26041037906E+04  0.25500000920E-02 0.  1.
    10030    2    1    2    0    0  0.00000000000E+00  0.00000000000E+00 -0.12261057749E+04  0.39821018063E+04  0.37886408413E+04 0.  0.
        4    1    3    3  502    0  0.47878166797E+03  0.18285799554E+04 -0.48214714954E+03  0.19507444798E+04  0.12699999809E+01 0. -1.
       -4    1    3    3    0  502 -0.47878166797E+03 -0.18285799554E+04 -0.74395862533E+03  0.20313573265E+04  0.12699999809E+01 0.  1.
</event>
<event>
 5   0  0.1628250E-08  0.3795373E+04  0.7818609E-02  0.8047148E-01
       -1   -1    0    0    0  501  0.00000000000E+00  0.00000000000E+00  0.18910224034E+04  0.18910224035E+04  0.50400001928E-02 0.  1.
        1   -1    0    0  501    0  0.00000000000E+00  0.00000000000E+00 -0.19043743266E+04  0.19043743266E+04  0.50400001928E-02 0. -1.
    10030    2    1    2    0    0  0.00000000000E+00  0.00000000000E+00 -0.13351923146E+02  0.37953967301E+04  0.37953732444E+04 0.  0.
        4    1    3    3  502    0  0.10638579071E+03 -0.14777010033E+04  0.11792043511E+04  0.18935265264E+04  0.12699999809E+01 0.  1.
       -4    1    3    3    0  502 -0.10638579071E+03  0.14777010033E+04 -0.11925562743E+04  0.19018702037E+04  0.12699999809E+01 0. -1.
</event>
<event>
 5   0  0.5207474E-08  0.3799405E+04  0.7818609E-02  0.8046283E-01
       -2   -1    0    0    0  501  0.00000000000E+00  0.00000000000E+00  0.18689868712E+04  0.18689868712E+04  0.25500000920E-02 0. -1.
        2   -1    0    0  501    0  0.00000000000E+00  0.00000000000E+00 -0.19309231438E+04  0.19309231438E+04  0.25500000920E-02 0.  1.
    10030    2    1    2    0    0  0.00000000000E+00  0.00000000000E+00 -0.61936272615E+02  0.37999100150E+04  0.37994052192E+04 0.  0.
        4    1    3    3  502    0  0.24746686109E+03 -0.12069682799E+04 -0.14771395448E+04  0.19235267411E+04  0.12699999809E+01 0.  1.
       -4    1    3    3    0  502 -0.24746686109E+03  0.12069682799E+04  0.14152032722E+04  0.18763832739E+04  0.12699999809E+01 0. -1.
</event>
<event>
 5   0  0.5147582E-08  0.3804818E+04  0.7818609E-02  0.8045122E-01
        2   -1    0    0  501    0  0.00000000000E+00  0.00000000000E+00  0.18844323902E+04  0.18844323902E+04  0.25500000920E-02 0. -1.
       -2   -1    0    0    0  501  0.00000000000E+00  0.00000000000E+00 -0.19205572215E+04  0.19205572215E+04  0.25500000920E-02 0.  1.
    10030    2    1    2    0    0  0.00000000000E+00  0.00000000000E+00 -0.36124831233E+02  0.38049896117E+04  0.38048181220E+04 0.  0.
        1    1    3    3  502    0  0.12133004974E+04  0.12817584317E+04  0.69201005157E+03  0.18957533293E+04  0.50400001928E-02 0.  1.
       -1    1    3    3    0  502 -0.12133004974E+04 -0.12817584317E+04 -0.72813488280E+03  0.19092362823E+04  0.50400001928E-02 0. -1.
</event>
<event>
 5   0  0.5140842E-08  0.3804302E+04  0.7818609E-02  0.8045232E-01
       -2   -1    0    0    0  501  0.00000000000E+00  0.00000000000E+00  0.12662715668E+04  0.12662715668E+04  0.25500000920E-02 0.  1.
        2   -1    0    0  501    0  0.00000000000E+00  0.00000000000E+00 -0.28573482208E+04  0.28573482208E+04  0.25500000920E-02 0. -1.
    10030    2    1    2    0    0  0.00000000000E+00  0.00000000000E+00 -0.15910766540E+04  0.41236197876E+04  0.38043022007E+04 0.  0.
        2    1    3    3  502    0  0.55145730991E+03 -0.17852786253E+04 -0.11815989203E+04  0.22107693102E+04  0.25500000920E-02 0. -1.
       -2    1    3    3    0  502 -0.55145730991E+03  0.17852786253E+04 -0.40947773369E+03  0.19128504774E+04  0.25500000920E-02 0.  1.
</event>
<event>
 5   0  0.1628473E-08  0.3793884E+04  0.7818609E-02  0.8047469E-01
       -1   -1    0    0    0  501  0.00000000000E+00  0.00000000000E+00  0.19995160918E+04  0.19995160918E+04  0.50400001928E-02 0. -1.
        1   -1    0    0  501    0  0.00000000000E+00  0.00000000000E+00 -0.17996303324E+04  0.17996303324E+04  0.50400001928E-02 0.  1.
    10030    2    1    2    0    0  0.00000000000E+00  0.00000000000E+00  0.19988575945E+03  0.37991464242E+04  0.37938844521E+04 0.  0.
        3    1    3    3  502    0 -0.15532677676E+04 -0.66963430240E+03  0.95981826728E+03  0.19448141230E+04  0.10100000352E+00 0. -1.
       -3    1    3    3    0  502  0.15532677676E+04  0.66963430240E+03 -0.75993250784E+03  0.18543323012E+04  0.10100000352E+00 0.  1.
</event>
<event>
 5   0  0.1628250E-08  0.3804592E+04  0.7818609E-02  0.8045170E-01
       -1   -1    0    0    0  501  0.00000000000E+00  0.00000000000E+00  0.18833214023E+04  0.18833214024E+04  0.50400001928E-02 0. -1.
        1   -1    0    0  501    0  0.00000000000E+00  0.00000000000E+00 -0.19214621788E+04  0.19214621788E+04  0.50400001928E-02 0.  1.
    10030    2    1    2    0    0  0.00000000000E+00  0.00000000000E+00 -0.38140776415E+02  0.38047835811E+04  0.38045924066E+04 0.  0.
        1    1    3    3  502    0 -0.52569774624E+02  0.15796640950E+04 -0.10777210545E+04  0.19130041572E+04  0.50400001928E-02 0. -1.
       -1    1    3    3    0  502  0.52569774624E+02 -0.15796640950E+04  0.10395802781E+04  0.18917794239E+04  0.50400001928E-02 0.  1.
</event>
<event>
 5   0  0.1666051E-08  0.3782148E+04  0.7818609E-02  0.8049997E-01
       -1   -1    0    0    0  501  0.00000000000E+00  0.00000000000E+00  0.17617649175E+04  0.17617649175E+04  0.50400001928E-02 0. -1.
        1   -1    0    0  501    0  0.00000000000E+00  0.00000000000E+00 -0.20298740318E+04  0.20298740318E+04  0.50400001928E-02 0.  1.
    10030    2    1    2    0    0  0.00000000000E+00  0.00000000000E+00 -0.26810911431E+03  0.37916389493E+04  0.37821479909E+04 0.  0.
        2    1    3    3  502    0  0.44926482481E+03 -0.16124344413E+04  0.74814070527E+03  0.18334389069E+04  0.25500000920E-02 0. -1.
       -2    1    3    3    0  502 -0.44926482481E+03  0.16124344413E+04 -0.10162498196E+04  0.19582000424E+04  0.25500000920E-02 0.  1.
</event>
<event>
 5   0  0.5140842E-08  0.3798432E+04  0.7818609E-02  0.8046491E-01
       -2   -1    0    0    0  501  0.00000000000E+00  0.00000000000E+00  0.24609009009E+04  0.24609009009E+04  0.25500000920E-02 0. -1.
        2   -1    0    0  501    0  0.00000000000E+00  0.00000000000E+00 -0.14657320358E+04  0.14657320358E+04  0.25500000920E-02 0.  1.
    10030    2    1    2    0    0  0.00000000000E+00  0.00000000000E+00  0.99516886516E+03  0.39266329367E+04  0.37984319329E+04 0.  0.
        2    1    3    3  502    0  0.38911845460E+03 -0.79807733591E+03 -0.12379726262E+04  0.15234555553E+04  0.25500000920E-02 0.  1.
       -2    1    3    3    0  502 -0.38911845460E+03  0.79807733591E+03  0.22331414914E+04  0.24031773813E+04  0.25500000920E-02 0. -1.
</event>
<event>
 5   0  0.5159761E-08  0.3810909E+04  0.7818609E-02  0.8043818E-01
       -2   -1    0    0    0  501  0.00000000000E+00  0.00000000000E+00  0.12616709137E+04  0.12616709137E+04  0.25500000920E-02 0.  1.
        2   -1    0    0  501    0  0.00000000000E+00  0.00000000000E+00 -0.28777366801E+04  0.28777366801E+04  0.25500000920E-02 0. -1.
    10030    2    1    2    0    0  0.00000000000E+00  0.00000000000E+00 -0.16160657664E+04  0.41394075937E+04  0.38109089029E+04 0.  0.
        5    1    3    3  502    0 -0.16888092639E+03 -0.99063223029E+03 -0.25664895395E+04  0.27562227104E+04  0.46999998093E+01 0. -1.
       -5    1    3    3    0  502  0.16888092639E+03  0.99063223029E+03  0.95042377312E+03  0.13831848833E+04  0.46999998093E+01 0.  1.
</event>
<event>
 5   0  0.1628250E-08  0.3802674E+04  0.7818609E-02  0.8045581E-01
       -1   -1    0    0    0  501  0.00000000000E+00  0.00000000000E+00  0.18742358491E+04  0.18742358491E+04  0.50400001928E-02 0.  1.
        1   -1    0    0  501    0  0.00000000000E+00  0.00000000000E+00 -0.19288299708E+04  0.19288299708E+04  0.50400001928E-02 0. -1.
    10030    2    1    2    0    0  0.00000000000E+00  0.00000000000E+00 -0.54594121685E+02  0.38030658200E+04  0.38026739425E+04 0.  0.
        1    1    3    3  502    0 -0.11075136648E+04 -0.66912079795E+03 -0.14205569592E+04  0.19215335632E+04  0.50400001928E-02 0. -1.
       -1    1    3    3    0  502  0.11075136648E+04  0.66912079795E+03  0.13659628375E+04  0.18815322568E+04  0.50400001928E-02 0.  1.
</event>
<event>
 5   0  0.5147582E-08  0.3789697E+04  0.7818609E-02  0.8048370E-01
       -2   -1    0    0    0  501  0.00000000000E+00  0.00000000000E+00  0.21947609542E+04  0.21947609542E+04  0.25500000920E-02 0. -1.
        2   -1    0    0  501    0  0.00000000000E+00  0.00000000000E+00 -0.16359185406E+04  0.16359185406E+04  0.25500000920E-02 0.  1.
    10030    2    1    2    0    0  0.00000000000E+00  0.00000000000E+00  0.55884241354E+03  0.38306794948E+04  0.37896966302E+04 0.  0.
        1    1    3    3  502    0 -0.21458016837E+03  0.12775829560E+04 -0.11183515891E+04  0.17114243001E+04  0.50400001928E-02 0.  1.
       -1    1    3    3    0  502  0.21458016837E+03 -0.12775829560E+04  0.16771940026E+04  0.21192551947E+04  0.50400001928E-02 0. -1.
</event>
<event>
 5   0  0.1628250E-08  0.3793958E+04  0.7818609E-02  0.8047453E-01
       -1   -1    0    0    0  501  0.00000000000E+00  0.00000000000E+00  0.15937457351E+04  0.15937457351E+04  0.50400001928E-02 0. -1.
        1   -1    0    0  501    0  0.00000000000E+00  0.00000000000E+00 -0.22579065164E+04  0.22579065164E+04  0.50400001928E-02 0.  1.
    10030    2    1    2    0    0  0.00000000000E+00  0.00000000000E+00 -0.66416078131E+03  0.38516522515E+04  0.37939577650E+04 0.  0.
        1    1    3    3  502    0 -0.13072842879E+04 -0.90078211374E+03  0.72203897430E+03  0.17440587451E+04  0.50400001928E-02 0. -1.
       -1    1    3    3    0  502  0.13072842879E+04  0.90078211374E+03 -0.13861997556E+04  0.21075935064E+04  0.50400001928E-02 0.  1.
</event>
<event>
 5   0  0.5159761E-08  0.3829757E+04  0.7818609E-02  0.8039799E-01
        2   -1    0    0  501    0  0.00000000000E+00  0.00000000000E+00  0.19247829253E+04  0.19247829253E+04  0.25500000920E-02 0. -1.
       -2   -1    0    0    0  501  0.00000000000E+00  0.00000000000E+00 -0.19050248402E+04  0.19050248402E+04  0.25500000920E-02 0.  1.
    10030    2    1    2    0    0  0.00000000000E+00  0.00000000000E+00  0.19758085050E+02  0.38298077655E+04  0.38297567989E+04 0.  0.
        5    1    3    3  502    0 -0.14769693737E+04  0.67842114613E+02  0.12267338087E+04  0.19211816704E+04  0.46999998093E+01 0. -1.
       -5    1    3    3    0  502  0.14769693737E+04 -0.67842114613E+02 -0.12069757237E+04  0.19086260951E+04  0.46999998093E+01 0.  1.
</event>
<event>
 5   0  0.5147582E-08  0.3796861E+04  0.7818609E-02  0.8046829E-01
       -2   -1    0    0    0  501  0.00000000000E+00  0.00000000000E+00  0.29828057447E+04  0.29828057447E+04  0.25500000920E-02 0.  1.
        2   -1    0    0  501    0  0.00000000000E+00  0.00000000000E+00 -0.12082711792E+04  0.12082711792E+04  0.25500000920E-02 0. -1.
    10030    2    1    2    0    0  0.00000000000E+00  0.00000000000E+00  0.17745345656E+04  0.41910769239E+04  0.37968609216E+04 0.  0.
        1    1    3    3  502    0 -0.11297264515E+04  0.13299587920E+04  0.17125326640E+04  0.24449622428E+04  0.50400001928E-02 0.  1.
       -1    1    3    3    0  502  0.11297264515E+04 -0.13299587920E+04  0.62001901579E+02  0.17461146811E+04  0.50400001928E-02 0. -1.
</event>
<event>
 5   0  0.5159761E-08  0.3798456E+04  0.7818609E-02  0.8046486E-01
       -2   -1    0    0    0  501  0.00000000000E+00  0.00000000000E+00  0.23326235109E+04  0.23326235109E+04  0.25500000920E-02 0. -1.
        2   -1    0    0  501    0  0.00000000000E+00  0.00000000000E+00 -0.15463561787E+04  0.15463561787E+04  0.25500000920E-02 0.  1.
    10030    2    1    2    0    0  0.00000000000E+00  0.00000000000E+00  0.78626733220E+03  0.38789796897E+04  0.37984558856E+04 0.  0.
        5    1    3    3  502    0  0.18273553966E+03 -0.30135097613E+03  0.22989330425E+04  0.23257944691E+04  0.46999998093E+01 0. -1.
       -5    1    3    3    0  502 -0.18273553966E+03  0.30135097613E+03 -0.15126657103E+04  0.15531852206E+04  0.46999998093E+01 0.  1.
</event>
<event>
 5   0  0.5159761E-08  0.3797750E+04  0.7818609E-02  0.8046638E-01
        2   -1    0    0  501    0  0.00000000000E+00  0.00000000000E+00  0.16876842047E+04  0.16876842047E+04  0.25500000920E-02 0.  1.
       -2   -1    0    0    0  501  0.00000000000E+00  0.00000000000E+00 -0.21364930710E+04  0.21364930710E+04  0.25500000920E-02 0. -1.
    10030    2    1    2    0    0  0.00000000000E+00  0.00000000000E+00 -0.44880886624E+03  0.38241772757E+04  0.37977496544E+04 0.  0.
        5    1    3    3  502    0  0.15286381536E+04 -0.33033637457E+03  0.86005171893E+03  0.17848158937E+04  0.46999998093E+01 0.  1.
       -5    1    3    3    0  502 -0.15286381536E+04  0.33033637457E+03 -0.13088605852E+04  0.20393613820E+04  0.46999998093E+01 0. -1.
</event>
<event>
 5   0  0.1666051E-08  0.3795811E+04  0.7818609E-02  0.8047054E-01
       -1   -1    0    0    0  501  0.00000000000E+00  0.00000000000E+00  0.20664639408E+04  0.20664639408E+04  0.50400001928E-02 0. -1.
        1   -1    0    0  501    0  0.00000000000E+00  0.00000000000E+00 -0.17430965018E+04  0.17430965018E+04  0.50400001928E-02 0.  1.
    10030    2    1    2    0    0  0.00000000000E+00  0.00000000000E+00  0.32336743897E+03  0.38095604426E+04  0.37958114107E+04 0.  0.
        2    1    3    3  502    0  0.20845693477E+03 -0.97664437759E+03 -0.14580883009E+04  0.17672888918E+04  0.25500000920E-02 0.  1.
       -2    1    3    3    0  502 -0.20845693477E+03  0.97664437759E+03  0.17814557399E+04  0.20422715508E+04  0.25500000920E-02 0. -1.
</event>
<event>
 5   0  0.5147582E-08  0.3798099E+04  0.7818609E-02  0.8046563E-01
        2   -1    0    0  501    0  0.00000000000E+00  0.00000000000E+00  0.14644146746E+04  0.14644146746E+04  0.25500000920E-02 0. -1.
       -2   -1    0    0    0  501  0.00000000000E+00  0.00000000000E+00 -0.24626825587E+04  0.24626825587E+04  0.25500000920E-02 0.  1.
    10030    2    1    2    0    0  0.00000000000E+00  0.00000000000E+00 -0.99826788411E+03  0.39270972333E+04  0.37980987232E+04 0.  0.
        1    1    3    3  502    0  0.13446854721E+04 -0.45402195125E+03 -0.18037627549E+04  0.22951851836E+04  0.50400001928E-02 0.  1.
       -1    1    3    3    0  502 -0.13446854721E+04  0.45402195125E+03  0.80549487080E+03  0.16319120497E+04  0.50400001928E-02 0. -1.
</event>
<event>
 5   0  0.1666051E-08  0.3797588E+04  0.7818609E-02  0.8046673E-01
       -1   -1    0    0    0  501  0.00000000000E+00  0.00000000000E+00  0.19526727719E+04  0.19526727719E+04  0.50400001928E-02 0.  1.
        1   -1    0    0  501    0  0.00000000000E+00  0.00000000000E+00 -0.18464018540E+04  0.18464018540E+04  0.50400001928E-02 0. -1.
    10030    2    1    2    0    0  0.00000000000E+00  0.00000000000E+00  0.10627091791E+03  0.37990746259E+04  0.37975879852E+04 0.  0.
        2    1    3    3  502    0  0.15891439684E+03  0.18158694107E+04  0.58511719667E+03  0.19144183545E+04  0.25500000920E-02 0.  1.
       -2    1    3    3    0  502 -0.15891439684E+03 -0.18158694107E+04 -0.47884627876E+03  0.18846562713E+04  0.25500000920E-02 0. -1.
</event>
<event>
 5   0  0.5207474E-08  0.3789284E+04  0.7818609E-02  0.8048458E-01
        2   -1    0    0  501    0  0.00000000000E+00  0.00000000000E+00  0.16646149316E+04  0.16646149316E+04  0.25500000920E-02 0. -1.
       -2   -1    0    0    0  501  0.00000000000E+00  0.00000000000E+00 -0.21564554455E+04  0.21564554455E+04  0.25500000920E-02 0.  1.
    10030    2    1    2    0    0  0.00000000000E+00  0.00000000000E+00 -0.49184051388E+03  0.38210703770E+04  0.37892838024E+04 0.  0.
        4    1    3    3  502    0 -0.63566624480E+03 -0.14281944786E+04 -0.13253460413E+04  0.20494767102E+04  0.12699999809E+01 0.  1.
       -4    1    3    3    0  502  0.63566624480E+03  0.14281944786E+04  0.83350552742E+03  0.17715936669E+04  0.12699999809E+01 0. -1.
</event>
<event>
 5   0  0.1628473E-08  0.3801067E+04  0.7818609E-02  0.8045926E-01
       -1   -1    0    0    0  501  0.00000000000E+00  0.00000000000E+00  0.18474809727E+04  0.18474809727E+04  0.50400001928E-02 0. -1.
        1   -1    0    0  501    0  0.00000000000E+00  0.00000000000E+00 -0.19551095821E+04  0.19551095821E+04  0.50400001928E-02 0.  1.
    10030    2    1    2    0    0  0.00000000000E+00  0.00000000000E+00 -0.10762860934E+03  0.38025905548E+04  0.38010670883E+04 0.  0.
        3    1    3    3  502    0 -0.18910967533E+04 -0.17676459020E+03 -0.12118438403E+03  0.19032021217E+04  0.10100000352E+00 0.  1.
       -3    1    3    3    0  502  0.18910967533E+04  0.17676459020E+03  0.13555774696E+02  0.18993884332E+04  0.10100000352E+00 0. -1.
</event>
<event>
 5   0  0.5086209E-08  0.3846377E+04  0.7818609E-02  0.8036275E-01
       -2   -1    0    0    0  501  0.00000000000E+00  0.00000000000E+00  0.22527489382E+04  0.22527489382E+04  0.25500000920E-02 0.  1.
        2   -1    0    0  501    0  0.00000000000E+00  0.00000000000E+00 -0.16418406174E+04  0.16418406174E+04  0.25500000920E-02 0. -1.
    10030    2    1    2    0    0  0.00000000000E+00  0.00000000000E+00  0.61090832082E+03  0.38945895556E+04  0.38463773645E+04 0.  0.
        3    1    3    3  502    0 -0.10813442365E+04  0.71823247504E+03  0.17422157189E+04  0.21726663038E+04  0.10100000352E+00 0.  1.
       -3    1    3    3    0  502  0.10813442365E+04 -0.71823247504E+03 -0.11313073981E+04  0.17219232518E+04  0.10100000352E+00 0. -1.
</event>
<event>
 5   0  0.1628250E-08  0.3798218E+04  0.7818609E-02  0.8046537E-01
       -1   -1    0    0    0  501  0.00000000000E+00  0.00000000000E+00  0.10793572057E+04  0.10793572057E+04  0.50400001928E-02 0.  1.
        1   -1    0    0  501    0  0.00000000000E+00  0.00000000000E+00 -0.33414463790E+04  0.33414463790E+04  0.50400001928E-02 0. -1.
    10030    2    1    2    0    0  0.00000000000E+00  0.00000000000E+00 -0.22620891733E+04  0.44208035847E+04  0.37982175960E+04 0.  0.
        4    1    3    3  502    0 -0.32608988186E+03  0.36692066307E+03 -0.32663287303E+04  0.33030092902E+04  0.12699999809E+01 0. -1.
       -4    1    3    3    0  502  0.32608988186E+03 -0.36692066307E+03  0.10042395570E+04  0.11177942945E+04  0.12699999809E+01 0.  1.
</event>
<event>
 5   0  0.5147582E-08  0.3834293E+04  0.7818609E-02  0.8038836E-01
        2   -1    0    0  501    0  0.00000000000E+00  0.00000000000E+00  0.21694680997E+04  0.21694680997E+04  0.25500000920E-02 0. -1.
       -2   -1    0    0    0  501  0.00000000000E+00  0.00000000000E+00 -0.16941712866E+04  0.16941712866E+04  0.25500000920E-02 0.  1.
    10030    2    1    2    0    0  0.00000000000E+00  0.00000000000E+00  0.47529681315E+03  0.38636393863E+04  0.38342929266E+04 0.  0.
        1    1    3    3  502    0 -0.17955980861E+04 -0.50901438569E+02 -0.43731945866E+03  0.18487865621E+04  0.50400001928E-02 0.  1.
       -1    1    3    3    0  502  0.17955980861E+04  0.50901438569E+02  0.91261627181E+03  0.20148528241E+04  0.50400001928E-02 0. -1.
</event>
<event>
 5   0  0.1628250E-08  0.3810925E+04  0.7818609E-02  0.8043815E-01
       -1   -1    0    0    0  501  0.00000000000E+00  0.00000000000E+00  0.19731429536E+04  0.19731429536E+04  0.50400001928E-02 0.  1.
        1   -1    0    0  501    0  0.00000000000E+00  0.00000000000E+00 -0.18401030893E+04  0.18401030893E+04  0.50400001928E-02 0. -1.
    10030    2    1    2    0    0  0.00000000000E+00  0.00000000000E+00  0.13303986431E+03  0.38132460429E+04  0.38109245307E+04 0.  0.
        5    1    3    3  502    0  0.39923860553E+02  0.17803256873E+04 -0.61183913401E+03  0.18829558368E+04  0.46999998093E+01 0. -1.
       -5    1    3    3    0  502 -0.39923860553E+02 -0.17803256873E+04  0.74487899833E+03  0.19302902061E+04  0.46999998093E+01 0.  1.
</event>
<event>
 5   0  0.1628250E-08  0.3819222E+04  0.7818609E-02  0.8042042E-01
        1   -1    0    0  501    0  0.00000000000E+00  0.00000000000E+00  0.30305235604E+04  0.30305235604E+04  0.50400001928E-02 0.  1.
       -1   -1    0    0    0  501  0.00000000000E+00  0.00000000000E+00 -0.12032953177E+04  0.12032953177E+04  0.50400001928E-02 0. -1.
    10030    2    1    2    0    0  0.00000000000E+00  0.00000000000E+00  0.18272282427E+04  0.42338188781E+04  0.38192223347E+04 0.  0.
        4    1    3    3  502    0 -0.65238645156E+03  0.56952567388E+03 -0.97309529478E+03  0.13026448637E+04  0.12699999809E+01 0. -1.
       -4    1    3    3    0  502  0.65238645156E+03 -0.56952567388E+03  0.28003235375E+04  0.29311740144E+04  0.12699999809E+01 0.  1.
</event>
<event>
 5   0  0.5086209E-08  0.3825252E+04  0.7818609E-02  0.8040758E-01
       -2   -1    0    0    0  501  0.00000000000E+00  0.00000000000E+00  0.21370342772E+04  0.21370342772E+04  0.25500000920E-02 0.  1.
        2   -1    0    0  501    0  0.00000000000E+00  0.00000000000E+00 -0.17117825578E+04  0.17117825578E+04  0.25500000920E-02 0. -1.
    10030    2    1    2    0    0  0.00000000000E+00  0.00000000000E+00  0.42525171936E+03  0.38488168350E+04  0.38252518877E+04 0.  0.
        3    1    3    3  502    0  0.17150315365E+02 -0.16881109467E+04 -0.69186993953E+03  0.18244716291E+04  0.10100000352E+00 0.  1.
       -3    1    3    3    0  502 -0.17150315365E+02  0.16881109467E+04  0.11171216589E+04  0.20243452059E+04  0.10100000352E+00 0. -1.
</event>
<event>
 5   0  0.1628250E-08  0.3800637E+04  0.7818609E-02  0.8046018E-01
       -3   -1    0    0    0  501  0.00000000000E+00  0.00000000000E+00  0.27382232447E+04  0.27382232465E+04  0.10100000352E+00 0. -1.
        3   -1    0    0  501    0  0.00000000000E+00  0.00000000000E+00 -0.13188151049E+04  0.13188151088E+04  0.10100000352E+00 0.  1.
    10030    2    1    2    0    0  0.00000000000E+00  0.00000000000E+00  0.14194081397E+04  0.40570383553E+04  0.38006368873E+04 0.  0.
        4    1    3    3  502    0 -0.63397330327E+03 -0.12315843286E+04 -0.67901799794E+03  0.15426565276E+04  0.12699999809E+01 0.  1.
       -4    1    3    3    0  502  0.63397330327E+03  0.12315843286E+04  0.20984261377E+04  0.25143818277E+04  0.12699999809E+01 0. -1.
</event>
<event>
 5   0  0.1628473E-08  0.3803588E+04  0.7818609E-02  0.8045385E-01
        1   -1    0    0  501    0  0.00000000000E+00  0.00000000000E+00  0.27032372545E+04  0.27032372545E+04  0.50400001928E-02 0.  1.
       -1   -1    0    0    0  501  0.00000000000E+00  0.00000000000E+00 -0.13379586830E+04  0.13379586830E+04  0.50400001928E-02 0. -1.
    10030    2    1    2    0    0  0.00000000000E+00  0.00000000000E+00  0.13652785715E+04  0.40411959375E+04  0.38035876521E+04 0.  0.
        3    1    3    3  502    0  0.10327387073E+04 -0.21471868445E+03  0.23639503483E+04  0.25886124875E+04  0.10100000352E+00 0.  1.
       -3    1    3    3    0  502 -0.10327387073E+04  0.21471868445E+03 -0.99867177681E+03  0.14525834499E+04  0.10100000352E+00 0. -1.
</event>
<event>
 5   0  0.1666051E-08  0.3769475E+04  0.7818609E-02  0.8052737E-01
        1   -1    0    0  501    0  0.00000000000E+00  0.00000000000E+00  0.18483607230E+04  0.18483607230E+04  0.50400001928E-02 0. -1.
       -1   -1    0    0    0  501  0.00000000000E+00  0.00000000000E+00 -0.19218306208E+04  0.19218306208E+04  0.50400001928E-02 0.  1.
    10030    2    1    2    0    0  0.00000000000E+00  0.00000000000E+00 -0.73469897713E+02  0.37701913438E+04  0.37694754201E+04 0.  0.
        2    1    3    3  502    0 -0.12186818806E+04  0.13488839201E+04  0.46091646172E+03  0.18753979152E+04  0.25500000920E-02 0.  1.
       -2    1    3    3    0  502  0.12186818806E+04 -0.13488839201E+04 -0.53438635943E+03  0.18947934286E+04  0.25500000920E-02 0. -1.
</event>
<event>
 5   0  0.5140842E-08  0.3802873E+04  0.7818609E-02  0.8045539E-01
       -2   -1    0    0    0  501  0.00000000000E+00  0.00000000000E+00  0.16454954281E+04  0.16454954281E+04  0.25500000920E-02 0. -1.
        2   -1    0    0  501    0  0.00000000000E+00  0.00000000000E+00 -0.21971871027E+04  0.21971871027E+04  0.25500000920E-02 0.  1.
    10030    2    1    2    0    0  0.00000000000E+00  0.00000000000E+00 -0.55169167466E+03  0.38426825308E+04  0.38028732990E+04 0.  0.
        2    1    3    3  502    0  0.21451568143E+03  0.89299994412E+03  0.14065140571E+04  0.16798058432E+04  0.25500000920E-02 0. -1.
       -2    1    3    3    0  502 -0.21451568143E+03 -0.89299994412E+03 -0.19582057318E+04  0.21628766876E+04  0.25500000920E-02 0.  1.
</event>
<event>
 5   0  0.1628250E-08  0.3800098E+04  0.7818609E-02  0.8046134E-01
        1   -1    0    0  501    0  0.00000000000E+00  0.00000000000E+00  0.24432333191E+04  0.24432333191E+04  0.50400001928E-02 0. -1.
       -1   -1    0    0    0  501  0.00000000000E+00  0.00000000000E+00 -0.14776267715E+04  0.14776267715E+04  0.50400001928E-02 0.  1.
    10030    2    1    2    0    0  0.00000000000E+00  0.00000000000E+00  0.96560654761E+03  0.39208600905E+04  0.38000983993E+04 0.  0.
        4    1    3    3  502    0 -0.38673555986E+03  0.17055149352E+04 -0.28366290788E+03  0.17716692258E+04  0.12699999809E+01 0.  1.
       -4    1    3    3    0  502  0.38673555986E+03 -0.17055149352E+04  0.12492694555E+04  0.21491908647E+04  0.12699999809E+01 0. -1.
</event>
<event>
 5   0  0.1666051E-08  0.3801871E+04  0.7818609E-02  0.8045754E-01
       -1   -1    0    0    0  501  0.00000000000E+00  0.00000000000E+00  0.21911335994E+04  0.21911335994E+04  0.50400001928E-02 0. -1.
        1   -1    0    0  501    0  0.00000000000E+00  0.00000000000E+00 -0.16491714580E+04  0.16491714580E+04  0.50400001928E-02 0.  1.
    10030    2    1    2    0    0  0.00000000000E+00  0.00000000000E+00  0.54196214139E+03  0.38403050574E+04  0.38018705885E+04 0.  0.
        2    1    3    3  502    0 -0.98754477537E+03  0.11564173651E+04  0.14231298819E+04  0.20827492567E+04  0.25500000920E-02 0. -1.
       -2    1    3    3    0  502  0.98754477537E+03 -0.11564173651E+04 -0.88116774052E+03  0.17575558007E+04  0.25500000920E-02 0.  1.
</event>
<event>
 5   0  0.1628473E-08  0.3799730E+04  0.7818609E-02  0.8046213E-01
       -1   -1    0    0    0  501  0.00000000000E+00  0.00000000000E+00  0.13056113728E+04  0.13056113728E+04  0.50400001928E-02 0. -1.
        1   -1    0    0  501    0  0.00000000000E+00  0.00000000000E+00 -0.27645955122E+04  0.27645955122E+04  0.50400001928E-02 0.  1.
    10030    2    1    2    0    0  0.00000000000E+00  0.00000000000E+00 -0.14589841394E+04  0.40702068850E+04  0.37997301703E+04 0.  0.
        3    1    3    3  502    0 -0.13074051665E+04  0.76778446843E+03 -0.19558382130E+04  0.24746927860E+04  0.10100000352E+00 0.  1.
       -3    1    3    3    0  502  0.13074051665E+04 -0.76778446843E+03  0.49685407357E+03  0.15955140990E+04  0.10100000352E+00 0. -1.
</event>
<event>
 5   0  0.5147582E-08  0.3804896E+04  0.7818609E-02  0.8045105E-01
       -2   -1    0    0    0  501  0.00000000000E+00  0.00000000000E+00  0.25392230179E+04  0.25392230180E+04  0.25500000920E-02 0.  1.
        2   -1    0    0  501    0  0.00000000000E+00  0.00000000000E+00 -0.14253602163E+04  0.14253602163E+04  0.25500000920E-02 0. -1.
    10030    2    1    2    0    0  0.00000000000E+00  0.00000000000E+00  0.11138628016E+04  0.39645832343E+04  0.38048955151E+04 0.  0.
        1    1    3    3  502    0  0.95042640802E+03 -0.93689940317E+03  0.19696418230E+04  0.23791972932E+04  0.50400001928E-02 0.  1.
       -1    1    3    3    0  502 -0.95042640802E+03  0.93689940317E+03 -0.85577902140E+03  0.15853859411E+04  0.50400001928E-02 0. -1.
</event>
<event>
 5   0  0.5207474E-08  0.3798904E+04  0.7818609E-02  0.8046390E-01
       -2   -1    0    0    0  501  0.00000000000E+00  0.00000000000E+00  0.17917959635E+04  0.17917959635E+04  0.25500000920E-02 0. -1.
        2   -1    0    0  501    0  0.00000000000E+00  0.00000000000E+00 -0.20135760541E+04  0.20135760541E+04  0.25500000920E-02 0.  1.
    10030    2    1    2    0    0  0.00000000000E+00  0.00000000000E+00 -0.22178009059E+03  0.38053720176E+04  0.37989037608E+04 0.  0.
        4    1    3    3  502    0 -0.12754801279E+04 -0.13619967740E+04  0.24472295583E+03  0.18819606019E+04  0.12699999809E+01 0. -1.
       -4    1    3    3    0  502  0.12754801279E+04  0.13619967740E+04 -0.46650304642E+03  0.19234114158E+04  0.12699999809E+01 0.  1.
</event>
<event>
 5   0  0.1628250E-08  0.3784105E+04  0.7818609E-02  0.8049575E-01
       -1   -1    0    0    0  501  0.00000000000E+00  0.00000000000E+00  0.17266225639E+04  0.17266225639E+04  0.50400001928E-02 0. -1.
        1   -1    0    0  501    0  0.00000000000E+00  0.00000000000E+00 -0.20733320329E+04  0.20733320329E+04  0.50400001928E-02 0.  1.
    10030    2    1    2    0    0  0.00000000000E+00  0.00000000000E+00 -0.34670946902E+03  0.37999545968E+04  0.37841045812E+04 0.  0.
        1    1    3    3  502    0  0.41372587458E+01  0.84652308258E+02  0.17247154180E+04  0.17267965727E+04  0.50400001928E-02 0. -1.
       -1    1    3    3    0  502 -0.41372587458E+01 -0.84652308258E+02 -0.20714248870E+04  0.20731580241E+04  0.50400001928E-02 0.  1.
</event>
<event>
 5   0  0.5147582E-08  0.3793243E+04  0.7818609E-02  0.8047606E-01
        2   -1    0    0  501    0  0.00000000000E+00  0.00000000000E+00  0.22972769724E+04  0.22972769724E+04  0.25500000920E-02 0. -1.
       -2   -1    0    0    0  501  0.00000000000E+00  0.00000000000E+00 -0.15658423929E+04  0.15658423929E+04  0.25500000920E-02 0.  1.
    10030    2    1    2    0    0  0.00000000000E+00  0.00000000000E+00  0.73143457945E+03  0.38631193653E+04  0.37932432939E+04 0.  0.
        1    1    3    3  502    0  0.83330838991E+03 -0.71776093272E+03  0.19393642539E+04  0.22295105603E+04  0.50400001928E-02 0. -1.
       -1    1    3    3    0  502 -0.83330838991E+03  0.71776093272E+03 -0.12079296745E+04  0.16336088050E+04  0.50400001928E-02 0.  1.
</event>
<event>
 5   0  0.5207474E-08  0.3794826E+04  0.7818609E-02  0.8047266E-01
        2   -1    0    0  501    0  0.00000000000E+00  0.00000000000E+00  0.28547207738E+04  0.28547207738E+04  0.25500000920E-02 0.  1.
       -2   -1    0    0    0  501  0.00000000000E+00  0.00000000000E+00 -0.12611309427E+04  0.12611309427E+04  0.25500000920E-02 0. -1.
    10030    2    1    2    0    0  0.00000000000E+00  0.00000000000E+00  0.15935898311E+04  0.41158517165E+04  0.37948263204E+04 0.  0.
        4    1    3    3  502    0  0.15643779857E+04  0.83478280104E+03  0.64364179582E+02  0.17743407698E+04  0.12699999809E+01 0. -1.
       -4    1    3    3    0  502 -0.15643779857E+04 -0.83478280104E+03  0.15292256516E+04  0.23415109466E+04  0.12699999809E+01 0.  1.
</event>
<event>
 5   0  0.5159761E-08  0.3777878E+04  0.7818609E-02  0.8050919E-01
       -2   -1    0    0    0  501  0.00000000000E+00  0.00000000000E+00  0.13830301916E+04  0.13830301916E+04  0.25500000920E-02 0. -1.
        2   -1    0    0  501    0  0.00000000000E+00  0.00000000000E+00 -0.25799074023E+04  0.25799074023E+04  0.25500000920E-02 0.  1.
    10030    2    1    2    0    0  0.00000000000E+00  0.00000000000E+00 -0.11968772107E+04  0.39629375939E+04  0.37778776205E+04 0.  0.
        5    1    3    3  502    0  0.10964511147E+03  0.55886373740E+03  0.12908174688E+04  0.14108800641E+04  0.46999998093E+01 0. -1.
       -5    1    3    3    0  502 -0.10964511147E+03 -0.55886373740E+03 -0.24876946795E+04  0.25520575298E+04  0.46999998093E+01 0.  1.
</event>
<event>
 5   0  0.5147582E-08  0.3802823E+04  0.7818609E-02  0.8045549E-01
       -2   -1    0    0    0  501  0.00000000000E+00  0.00000000000E+00  0.16553066136E+04  0.16553066137E+04  0.25500000920E-02 0.  1.
        2   -1    0    0  501    0  0.00000000000E+00  0.00000000000E+00 -0.21841062963E+04  0.21841062963E+04  0.25500000920E-02 0. -1.
    10030    2    1    2    0    0  0.00000000000E+00  0.00000000000E+00 -0.52879968267E+03  0.38394129100E+04  0.38028229500E+04 0.  0.
        1    1    3    3  502    0 -0.10055118053E+04  0.23445160321E+03 -0.18764291738E+04  0.21417301392E+04  0.50400001928E-02 0. -1.
       -1    1    3    3    0  502  0.10055118053E+04 -0.23445160321E+03  0.13476294911E+04  0.16976827708E+04  0.50400001928E-02 0.  1.
</event>
<event>
 5   0  0.5159761E-08  0.3802079E+04  0.7818609E-02  0.8045709E-01
       -2   -1    0    0    0  501  0.00000000000E+00  0.00000000000E+00  0.15068014846E+04  0.15068014846E+04  0.25500000920E-02 0.  1.
        2   -1    0    0  501    0  0.00000000000E+00  0.00000000000E+00 -0.23984250251E+04  0.23984250251E+04  0.25500000920E-02 0. -1.
    10030    2    1    2    0    0  0.00000000000E+00  0.00000000000E+00 -0.89162354047E+03  0.39052265096E+04  0.38020785833E+04 0.  0.
        5    1    3    3  502    0  0.37201712834E+03  0.13310706548E+04  0.89489009084E+03  0.16465103087E+04  0.46999998093E+01 0.  1.
       -5    1    3    3    0  502 -0.37201712834E+03 -0.13310706548E+04 -0.17865136313E+04  0.22587162010E+04  0.46999998093E+01 0. -1.
</event>
<event>
 5   0  0.5147582E-08  0.3806903E+04  0.7818609E-02  0.8044675E-01
       -2   -1    0    0    0  501  0.00000000000E+00  0.00000000000E+00  0.27896510951E+04  0.27896510951E+04  0.25500000920E-02 0. -1.
        2   -1    0    0  501    0  0.00000000000E+00  0.00000000000E+00 -0.12987743459E+04  0.12987743459E+04  0.25500000920E-02 0.  1.
    10030    2    1    2    0    0  0.00000000000E+00  0.00000000000E+00  0.14908767492E+04  0.40884254410E+04  0.38069028232E+04 0.  0.
        1    1    3    3  502    0 -0.17624002012E+04 -0.41266137260E+03  0.13778697981E+04  0.22748338529E+04  0.50400001928E-02 0.  1.
       -1    1    3    3    0  502  0.17624002012E+04  0.41266137260E+03  0.11300695114E+03  0.18135915882E+04  0.50400001928E-02 0. -1.
</event>
<event>
 5   0  0.1628250E-08  0.3796114E+04  0.7818609E-02  0.8046989E-01
        1   -1    0    0  501    0  0.00000000000E+00  0.00000000000E+00  0.19790969878E+04  0.19790969878E+04  0.50400001928E-02 0.  1.
       -1   -1    0    0    0  501  0.00000000000E+00  0.00000000000E+00 -0.18203350263E+04  0.18203350263E+04  0.50400001928E-02 0. -1.
    10030    2    1    2    0    0  0.00000000000E+00  0.00000000000E+00  0.15876196146E+03  0.37994320141E+04  0.37961135744E+04 0.  0.
        4    1    3    3  502    0 -0.59957700555E+02  0.15018073740E+04  0.12395308529E+04  0.19481936923E+04  0.12699999809E+01 0.  1.
       -4    1    3    3    0  502  0.59957700555E+02 -0.15018073740E+04 -0.10807688914E+04  0.18512383218E+04  0.12699999809E+01 0. -1.
</event>
<event>
 5   0  0.1628473E-08  0.3802475E+04  0.7818609E-02  0.8045624E-01
       -1   -1    0    0    0  501  0.00000000000E+00  0.00000000000E+00  0.17558190556E+04  0.17558190556E+04  0.50400001928E-02 0.  1.
        1   -1    0    0  501    0  0.00000000000E+00  0.00000000000E+00 -0.20586997472E+04  0.20586997472E+04  0.50400001928E-02 0. -1.
    10030    2    1    2    0    0  0.00000000000E+00  0.00000000000E+00 -0.30288069166E+03  0.38145188028E+04  0.38024751128E+04 0.  0.
        3    1    3    3  502    0  0.16549579383E+04 -0.55483832061E+03 -0.90746713640E+03  0.19672894941E+04  0.10100000352E+00 0. -1.
       -3    1    3    3    0  502 -0.16549579383E+04  0.55483832061E+03  0.60458644474E+03  0.18472293087E+04  0.10100000352E+00 0.  1.
</event>
<event>
 5   0  0.5147582E-08  0.3800452E+04  0.7818609E-02  0.8046058E-01
       -2   -1    0    0    0  501  0.00000000000E+00  0.00000000000E+00  0.15619289717E+04  0.15619289717E+04  0.25500000920E-02 0.  1.
        2   -1    0    0  501    0  0.00000000000E+00  0.00000000000E+00 -0.23117940247E+04  0.23117940247E+04  0.25500000920E-02 0. -1.
    10030    2    1    2    0    0  0.00000000000E+00  0.00000000000E+00 -0.74986505298E+03  0.38737229964E+04  0.38004515857E+04 0.  0.
        1    1    3    3  502    0  0.92495498577E+02  0.18487810840E+04 -0.81252431326E+03  0.20215693590E+04  0.50400001928E-02 0. -1.
       -1    1    3    3    0  502 -0.92495498577E+02 -0.18487810840E+04  0.62659260286E+02  0.18521536374E+04  0.50400001928E-02 0.  1.
</event>
<event>
 5   0  0.1666051E-08  0.3788510E+04  0.7818609E-02  0.8048625E-01
        1   -1    0    0  501    0  0.00000000000E+00  0.00000000000E+00  0.23447347464E+04  0.23447347464E+04  0.50400001928E-02 0.  1.
       -1   -1    0    0    0  501  0.00000000000E+00  0.00000000000E+00 -0.15303235762E+04  0.15303235762E+04  0.50400001928E-02 0. -1.
    10030    2    1    2    0    0  0.00000000000E+00  0.00000000000E+00  0.81441117017E+03  0.38750583226E+04  0.37885104526E+04 0.  0.
        2    1    3    3  502    0 -0.18830249457E+04 -0.52212097062E+02  0.61099009301E+03  0.19803580340E+04  0.25500000920E-02 0.  1.
       -2    1    3    3    0  502  0.18830249457E+04  0.52212097062E+02  0.20342107716E+03  0.18947002886E+04  0.25500000920E-02 0. -1.
</event>
<event>
 5   0  0.5140842E-08  0.3790989E+04  0.7818609E-02  0.8048091E-01
        2   -1    0    0  501    0  0.00000000000E+00  0.00000000000E+00  0.18339193827E+04  0.18339193827E+04  0.25500000920E-02 0.  1.
       -2   -1    0    0    0  501  0.00000000000E+00  0.00000000000E+00 -0.19591374343E+04  0.19591374343E+04  0.25500000920E-02 0. -1.
    10030    2    1    2    0    0  0.00000000000E+00  0.00000000000E+00 -0.12521805162E+03  0.37930568170E+04  0.37909893770E+04 0.  0.
        2    1    3    3  502    0 -0.22163040335E+03 -0.93066412798E+03 -0.16998523480E+04  0.19505778015E+04  0.25500000920E-02 0. -1.
       -2    1    3    3    0  502  0.22163040335E+03  0.93066412798E+03  0.15746342964E+04  0.18424790154E+04  0.25500000920E-02 0.  1.
</event>
<event>
 5   0  0.1628250E-08  0.3806345E+04  0.7818609E-02  0.8044795E-01
       -1   -1    0    0    0  501  0.00000000000E+00  0.00000000000E+00  0.26309102905E+04  0.26309102905E+04  0.50400001928E-02 0.  1.
        1   -1    0    0  501    0  0.00000000000E+00  0.00000000000E+00 -0.13767349219E+04  0.13767349219E+04  0.50400001928E-02 0. -1.
    10030    2    1    2    0    0  0.00000000000E+00  0.00000000000E+00  0.12541753686E+04  0.40076452124E+04  0.38063452672E+04 0.  0.
        4    1    3    3  502    0  0.54736725818E+03 -0.77789608416E+03  0.23626986184E+04  0.25469745988E+04  0.12699999809E+01 0.  1.
       -4    1    3    3    0  502 -0.54736725818E+03  0.77789608416E+03 -0.11085232498E+04  0.14606706136E+04  0.12699999809E+01 0. -1.
</event>
<event>
 5   0  0.5159761E-08  0.3831822E+04  0.7818609E-02  0.8039360E-01
       -2   -1    0    0    0  501  0.00000000000E+00  0.00000000000E+00  0.29989635761E+04  0.29989635761E+04  0.25500000920E-02 0. -1.
        2   -1    0    0  501    0  0.00000000000E+00  0.00000000000E+00 -0.12239945731E+04  0.12239945731E+04  0.25500000920E-02 0.  1.
    10030    2    1    2    0    0  0.00000000000E+00  0.00000000000E+00  0.17749690030E+04  0.42229581491E+04  0.38318220950E+04 0.  0.
        5    1    3    3  502    0 -0.10647024425E+04  0.21631141889E+03 -0.85167031965E+03  0.13804877197E+04  0.46999998093E+01 0.  1.
       -5    1    3    3    0  502  0.10647024425E+04 -0.21631141889E+03  0.26266393226E+04  0.28424704294E+04  0.46999998093E+01 0. -1.
</event>
<event>
 5   0  0.1628250E-08  0.3801880E+04  0.7818609E-02  0.8045751E-01
       -1   -1    0    0    0  501  0.00000000000E+00  0.00000000000E+00  0.15242960946E+04  0.15242960946E+04  0.50400001928E-02 0.  1.
        1   -1    0    0  501    0  0.00000000000E+00  0.00000000000E+00 -0.23706508264E+04  0.23706508264E+04  0.50400001928E-02 0. -1.
    10030    2    1    2    0    0  0.00000000000E+00  0.00000000000E+00 -0.84635473185E+03  0.38949469210E+04  0.38018804801E+04 0.  0.
        1    1    3    3  502    0  0.95750571621E+03  0.12292903232E+04 -0.15386849500E+04  0.21898683227E+04  0.50400001928E-02 0. -1.
       -1    1    3    3    0  502 -0.95750571621E+03 -0.12292903232E+04  0.69233021813E+03  0.17050785983E+04  0.50400001928E-02 0.  1.
</event>
<event>
 5   0  0.5147582E-08  0.3762577E+04  0.7818609E-02  0.8054234E-01
        2   -1    0    0  501    0  0.00000000000E+00  0.00000000000E+00  0.24805951677E+04  0.24805951677E+04  0.25500000920E-02 0. -1.
       -2   -1    0    0    0  501  0.00000000000E+00  0.00000000000E+00 -0.14267730969E+04  0.14267730970E+04  0.25500000920E-02 0.  1.
    10030    2    1    2    0    0  0.00000000000E+00  0.00000000000E+00  0.10538220707E+04  0.39073682646E+04  0.37625770156E+04 0.  0.
        1    1    3    3  502    0 -0.15030550454E+04 -0.93643787060E+03  0.11862907185E+04  0.21315196513E+04  0.50400001928E-02 0. -1.
       -1    1    3    3    0  502  0.15030550454E+04  0.93643787060E+03 -0.13246864781E+03  0.17758486133E+04  0.50400001928E-02 0.  1.
</event>
<event>
 5   0  0.1666051E-08  0.3802723E+04  0.7818609E-02  0.8045571E-01
       -1   -1    0    0    0  501  0.00000000000E+00  0.00000000000E+00  0.16438440988E+04  0.16438440988E+04  0.50400001928E-02 0. -1.
        1   -1    0    0  501    0  0.00000000000E+00  0.00000000000E+00 -0.21992199196E+04  0.21992199196E+04  0.50400001928E-02 0.  1.
    10030    2    1    2    0    0  0.00000000000E+00  0.00000000000E+00 -0.55537582081E+03  0.38430640184E+04  0.38027225441E+04 0.  0.
        2    1    3    3  502    0  0.77323043523E+03  0.80276603689E+03  0.12790613850E+04  0.16965602384E+04  0.25500000920E-02 0. -1.
       -2    1    3    3    0  502 -0.77323043523E+03 -0.80276603689E+03 -0.18344372058E+04  0.21465037801E+04  0.25500000920E-02 0.  1.
</event>
<event>
 5   0  0.1666051E-08  0.3798643E+04  0.7818609E-02  0.8046446E-01
       -1   -1    0    0    0  501  0.00000000000E+00  0.00000000000E+00  0.11675961520E+04  0.11675961520E+04  0.50400001928E-02 0. -1.
        1   -1    0    0  501    0  0.00000000000E+00  0.00000000000E+00 -0.30896143184E+04  0.30896143184E+04  0.50400001928E-02 0.  1.
    10030    2    1    2    0    0  0.00000000000E+00  0.00000000000E+00 -0.19220181664E+04  0.42572104704E+04  0.37986428047E+04 0.  0.
        2    1    3    3  502    0 -0.10385033467E+04  0.64826215615E+03 -0.25884412883E+04  0.28633479228E+04  0.25500000920E-02 0.  1.
       -2    1    3    3    0  502  0.10385033467E+04 -0.64826215615E+03  0.66642312191E+03  0.13938625476E+04  0.25500000920E-02 0. -1.
</event>
<event>
 5   0  0.1628250E-08  0.3806201E+04  0.7818609E-02  0.8044825E-01
       -1   -1    0    0    0  501  0.00000000000E+00  0.00000000000E+00  0.15132112939E+04  0.15132112939E+04  0.50400001928E-02 0. -1.
        1   -1    0    0  501    0  0.00000000000E+00  0.00000000000E+00 -0.23934478704E+04  0.23934478704E+04  0.50400001928E-02 0.  1.
    10030    2    1    2    0    0  0.00000000000E+00  0.00000000000E+00 -0.88023657653E+03  0.39066591643E+04  0.38062014392E+04 0.  0.
        5    1    3    3  502    0 -0.64679902962E+03 -0.17526703417E+04 -0.67821916865E+02  0.18694448946E+04  0.46999998093E+01 0. -1.
       -5    1    3    3    0  502  0.64679902962E+03  0.17526703417E+04 -0.81241465966E+03  0.20372142697E+04  0.46999998093E+01 0.  1.
</event>
<event>
 5   0  0.1628250E-08  0.3802987E+04  0.7818609E-02  0.8045514E-01
       -1   -1    0    0    0  501  0.00000000000E+00  0.00000000000E+00  0.15328911760E+04  0.15328911760E+04  0.50400001928E-02 0.  1.
        1   -1    0    0  501    0  0.00000000000E+00  0.00000000000E+00 -0.23587303638E+04  0.23587303638E+04  0.50400001928E-02 0. -1.
    10030    2    1    2    0    0  0.00000000000E+00  0.00000000000E+00 -0.82583918780E+03  0.38916215398E+04  0.38029867006E+04 0.  0.
        5    1    3    3  502    0  0.68809802265E+03  0.12980439816E+04  0.82238480179E+03  0.16836674016E+04  0.46999998093E+01 0.  1.
       -5    1    3    3    0  502 -0.68809802265E+03 -0.12980439816E+04 -0.16482239896E+04  0.22079541383E+04  0.46999998093E+01 0. -1.
</event>
<event>
 5   0  0.1628250E-08  0.3798092E+04  0.7818609E-02  0.8046564E-01
        1   -1    0    0  501    0  0.00000000000E+00  0.00000000000E+00  0.22604133737E+04  0.22604133737E+04  0.50400001928E-02 0. -1.
       -1   -1    0    0    0  501  0.00000000000E+00  0.00000000000E+00 -0.15954497941E+04  0.15954497941E+04  0.50400001928E-02 0.  1.
    10030    2    1    2    0    0  0.00000000000E+00  0.00000000000E+00  0.66496357957E+03  0.38558631678E+04  0.37980921799E+04 0.  0.
        4    1    3    3  502    0 -0.38475955783E+03  0.55837113506E+03  0.21333165262E+04  0.22384948639E+04  0.12699999809E+01 0. -1.
       -4    1    3    3    0  502  0.38475955783E+03 -0.55837113506E+03 -0.14683529466E+04  0.16173683039E+04  0.12699999809E+01 0.  1.
</event>
<event>
 5   0  0.5207474E-08  0.3813572E+04  0.7818609E-02  0.8043249E-01
        2   -1    0    0  501    0  0.00000000000E+00  0.00000000000E+00  0.29172209519E+04  0.29172209519E+04  0.25500000920E-02 0. -1.
       -2   -1    0    0    0  501  0.00000000000E+00  0.00000000000E+00 -0.12463341522E+04  0.12463341522E+04  0.25500000920E-02 0.  1.
    10030    2    1    2    0    0  0.00000000000E+00  0.00000000000E+00  0.16708867997E+04  0.41635551040E+04  0.38135716077E+04 0.  0.
        4    1    3    3  502    0  0.10911079200E+04  0.29761094547E+03 -0.84061214182E+03  0.14091554754E+04  0.12699999809E+01 0.  1.
       -4    1    3    3    0  502 -0.10911079200E+04 -0.29761094547E+03  0.25114989415E+04  0.27543996286E+04  0.12699999809E+01 0. -1.
</event>
<event>
 5   0  0.5147582E-08  0.3778158E+04  0.7818609E-02  0.8050858E-01
       -2   -1    0    0    0  501  0.00000000000E+00  0.00000000000E+00  0.26318279791E+04  0.26318279791E+04  0.25500000920E-02 0.  1.
        2   -1    0    0  501    0  0.00000000000E+00  0.00000000000E+00 -0.13559473295E+04  0.13559473295E+04  0.25500000920E-02 0. -1.
    10030    2    1    2    0    0  0.00000000000E+00  0.00000000000E+00  0.12758806496E+04  0.39877753086E+04  0.37781583450E+04 0.  0.
        1    1    3    3  502    0  0.19632977474E+03 -0.47956607312E+03 -0.12794630626E+04  0.13804183161E+04  0.50400001928E-02 0. -1.
       -1    1    3    3    0  502 -0.19632977474E+03  0.47956607312E+03  0.25553437122E+04  0.26073569925E+04  0.50400001928E-02 0.  1.
</event>
<event>
 5   0  0.5159761E-08  0.3804758E+04  0.7818609E-02  0.8045135E-01
        2   -1    0    0  501    0  0.00000000000E+00  0.00000000000E+00  0.34882283622E+04  0.34882283622E+04  0.25500000920E-02 0. -1.
       -2   -1    0    0    0  501  0.00000000000E+00  0.00000000000E+00 -0.10375026743E+04  0.10375026743E+04  0.25500000920E-02 0.  1.
    10030    2    1    2    0    0  0.00000000000E+00  0.00000000000E+00  0.24507256879E+04  0.45257310365E+04  0.38047582075E+04 0.  0.
        5    1    3    3  502    0  0.13588759460E+04  0.48382837595E+03  0.27007125097E+04  0.30617811620E+04  0.46999998093E+01 0. -1.
       -5    1    3    3    0  502 -0.13588759460E+04 -0.48382837595E+03 -0.24998682180E+03  0.14639498745E+04  0.46999998093E+01 0.  1.
</event>
<event>
 5   0  0.5140842E-08  0.3796845E+04  0.7818609E-02  0.8046832E-01
        2   -1    0    0  501    0  0.00000000000E+00  0.00000000000E+00  0.24665227064E+04  0.24665227064E+04  0.25500000920E-02 0.  1.
       -2   -1    0    0    0  501  0.00000000000E+00  0.00000000000E+00 -0.14611694396E+04  0.14611694396E+04  0.25500000920E-02 0. -1.
    10030    2    1    2    0    0  0.00000000000E+00  0.00000000000E+00  0.10053532668E+04  0.39276921460E+04  0.37968447957E+04 0.  0.
        2    1    3    3  502    0  0.55604415638E+02 -0.13020188046E+04 -0.92535432161E+03  0.15983195673E+04  0.25500000920E-02 0. -1.
       -2    1    3    3    0  502 -0.55604415638E+02  0.13020188046E+04  0.19307075884E+04  0.23293725787E+04  0.25500000920E-02 0.  1.
</event>
<event>
 5   0  0.1666051E-08  0.3829890E+04  0.7818609E-02  0.8039771E-01
       -1   -1    0    0    0  501  0.00000000000E+00  0.00000000000E+00  0.15366417593E+04  0.15366417593E+04  0.50400001928E-02 0.  1.
        1   -1    0    0  501    0  0.00000000000E+00  0.00000000000E+00 -0.23863825127E+04  0.23863825128E+04  0.50400001928E-02 0. -1.
    10030    2    1    2    0    0  0.00000000000E+00  0.00000000000E+00 -0.84974075342E+03  0.39230242721E+04  0.38298903498E+04 0.  0.
        2    1    3    3  502    0 -0.28650903923E+03  0.69320561965E+03 -0.22296452751E+04  0.23524326799E+04  0.25500000920E-02 0. -1.
       -2    1    3    3    0  502  0.28650903923E+03 -0.69320561965E+03  0.13799045216E+04  0.15705915922E+04  0.25500000920E-02 0.  1.
</event>
<event>
 5   0  0.1628250E-08  0.3857393E+04  0.7818609E-02  0.8033949E-01
        1   -1    0    0  501    0  0.00000000000E+00  0.00000000000E+00  0.26640502760E+04  0.26640502760E+04  0.50400001928E-02 0.  1.
       -1   -1    0    0    0  501  0.00000000000E+00  0.00000000000E+00 -0.13963213966E+04  0.13963213966E+04  0.50400001928E-02 0. -1.
    10030    2    1    2    0    0  0.00000000000E+00  0.00000000000E+00  0.12677288794E+04  0.40603716727E+04  0.38573931104E+04 0.  0.
        1    1    3    3  502    0  0.21245168395E+03  0.81075458477E+03 -0.11946111753E+04  0.14592993438E+04  0.50400001928E-02 0. -1.
       -1    1    3    3    0  502 -0.21245168395E+03 -0.81075458477E+03  0.24623400547E+04  0.26010723288E+04  0.50400001928E-02 0.  1.
</event>
<event>
 5   0  0.5159761E-08  0.3797470E+04  0.7818609E-02  0.8046698E-01
        2   -1    0    0  501    0  0.00000000000E+00  0.00000000000E+00  0.19225906135E+04  0.19225906135E+04  0.25500000920E-02 0. -1.
       -2   -1    0    0    0  501  0.00000000000E+00  0.00000000000E+00 -0.18751758145E+04  0.18751758145E+04  0.25500000920E-02 0.  1.
    10030    2    1    2    0    0  0.00000000000E+00  0.00000000000E+00  0.47414799003E+02  0.37977664281E+04  0.37974704316E+04 0.  0.
        5    1    3    3  502    0  0.56806976777E+03 -0.11771386027E+04  0.14010637395E+04  0.19160793937E+04  0.46999998093E+01 0. -1.
       -5    1    3    3    0  502 -0.56806976777E+03  0.11771386027E+04 -0.13536489405E+04  0.18816870343E+04  0.46999998093E+01 0.  1.
</event>
<event>
 5   0  0.5147582E-08  0.3786189E+04  0.7818609E-02  0.8049125E-01
       -2   -1    0    0    0  501  0.00000000000E+00  0.00000000000E+00  0.26532312594E+04  0.26532312594E+04  0.25500000920E-02 0.  1.
        2   -1    0    0  501    0  0.00000000000E+00  0.00000000000E+00 -0.13507332202E+04  0.13507332202E+04  0.25500000920E-02 0. -1.
    10030    2    1    2    0    0  0.00000000000E+00  0.00000000000E+00  0.13024980392E+04  0.40039644796E+04  0.37861894316E+04 0.  0.
        1    1    3    3  502    0  0.11952180498E+03 -0.18262149187E+04  0.13918603890E+03  0.18354070787E+04  0.50400001928E-02 0. -1.
       -1    1    3    3    0  502 -0.11952180498E+03  0.18262149187E+04  0.11633120003E+04  0.21685574009E+04  0.50400001928E-02 0.  1.
</event>
<event>
 5   0  0.1628250E-08  0.3800503E+04  0.7818609E-02  0.8046047E-01
        3   -1    0    0  501    0  0.00000000000E+00  0.00000000000E+00  0.20402216554E+04  0.20402216579E+04  0.10100000352E+00 0. -1.
       -3   -1    0    0    0  501  0.00000000000E+00  0.00000000000E+00 -0.17698842647E+04  0.17698842676E+04  0.10100000352E+00 0.  1.
    10030    2    1    2    0    0  0.00000000000E+00  0.00000000000E+00  0.27033739068E+03  0.38101059256E+04  0.38005032376E+04 0.  0.
        4    1    3    3  502    0  0.17137866074E+04 -0.71534524547E+03  0.53889111687E+03  0.19336981680E+04  0.12699999809E+01 0. -1.
       -4    1    3    3    0  502 -0.17137866074E+04  0.71534524547E+03 -0.26855372619E+03  0.18764077576E+04  0.12699999809E+01 0.  1.
</event>
<event>
 5   0  0.1628473E-08  0.3805274E+04  0.7818609E-02  0.8045024E-01
       -1   -1    0    0    0  501  0.00000000000E+00  0.00000000000E+00  0.25481016756E+04  0.25481016756E+04  0.50400001928E-02 0.  1.
        1   -1    0    0  501    0  0.00000000000E+00  0.00000000000E+00 -0.14206765498E+04  0.14206765498E+04  0.50400001928E-02 0. -1.
    10030    2    1    2    0    0  0.00000000000E+00  0.00000000000E+00  0.11274251258E+04  0.39687782254E+04  0.38052743906E+04 0.  0.
        3    1    3    3  502    0  0.45489132158E+03 -0.15751939312E+04  0.15705228510E+04  0.22703973377E+04  0.10100000352E+00 0.  1.
       -3    1    3    3    0  502 -0.45489132158E+03  0.15751939312E+04 -0.44309772519E+03  0.16983808877E+04  0.10100000352E+00 0. -1.
</event>
<event>
 5   0  0.5159761E-08  0.3799917E+04  0.7818609E-02  0.8046173E-01
       -2   -1    0    0    0  501  0.00000000000E+00  0.00000000000E+00  0.16775715616E+04  0.16775715616E+04  0.25500000920E-02 0. -1.
        2   -1    0    0  501    0  0.00000000000E+00  0.00000000000E+00 -0.21518263138E+04  0.21518263138E+04  0.25500000920E-02 0.  1.
    10030    2    1    2    0    0  0.00000000000E+00  0.00000000000E+00 -0.47425475223E+03  0.38293978755E+04  0.37999171726E+04 0.  0.
        5    1    3    3  502    0  0.33126178815E+03  0.68755894612E+03 -0.19905540018E+04  0.21318534192E+04  0.46999998093E+01 0.  1.
       -5    1    3    3    0  502 -0.33126178815E+03 -0.68755894612E+03  0.15162992496E+04  0.16975444563E+04  0.46999998093E+01 0. -1.
</event>
<event>
 5   0  0.1628473E-08  0.3811608E+04  0.7818609E-02  0.8043668E-01
       -1   -1    0    0    0  501  0.00000000000E+00  0.00000000000E+00  0.13269915873E+04  0.13269915874E+04  0.50400001928E-02 0. -1.
        1   -1    0    0  501    0  0.00000000000E+00  0.00000000000E+00 -0.27370846481E+04  0.27370846481E+04  0.50400001928E-02 0.  1.
    10030    2    1    2    0    0  0.00000000000E+00  0.00000000000E+00 -0.14100930608E+04  0.40640762355E+04  0.38116076933E+04 0.  0.
        3    1    3    3  502    0  0.94285309563E+03  0.16558147841E+04 -0.66524100445E+03  0.20182269851E+04  0.10100000352E+00 0. -1.
       -3    1    3    3    0  502 -0.94285309563E+03 -0.16558147841E+04 -0.74485205631E+03  0.20458492504E+04  0.10100000352E+00 0.  1.
</event>
<event>
 5   0  0.5086209E-08  0.3802287E+04  0.7818609E-02  0.8045664E-01
       -2   -1    0    0    0  501  0.00000000000E+00  0.00000000000E+00  0.16568259972E+04  0.16568259972E+04  0.25500000920E-02 0. -1.
        2   -1    0    0  501    0  0.00000000000E+00  0.00000000000E+00 -0.21814886355E+04  0.21814886355E+04  0.25500000920E-02 0.  1.
    10030    2    1    2    0    0  0.00000000000E+00  0.00000000000E+00 -0.52466263827E+03  0.38383146327E+04  0.38022872506E+04 0.  0.
        3    1    3    3  502    0  0.71019544531E+03 -0.14862318909E+04 -0.12205802701E+04  0.20501412171E+04  0.10100000352E+00 0.  1.
       -3    1    3    3    0  502 -0.71019544531E+03  0.14862318909E+04  0.69591763182E+03  0.17881734157E+04  0.10100000352E+00 0. -1.
</event>
<event>
 5   0  0.1666051E-08  0.3798376E+04  0.7818609E-02  0.8046503E-01
        1   -1    0    0  501    0  0.00000000000E+00  0.00000000000E+00  0.20180508666E+04  0.20180508666E+04  0.50400001928E-02 0. -1.
       -1   -1    0    0    0  501  0.00000000000E+00  0.00000000000E+00 -0.17873265825E+04  0.17873265825E+04  0.50400001928E-02 0.  1.
    10030    2    1    2    0    0  0.00000000000E+00  0.00000000000E+00  0.23072428409E+03  0.38053774492E+04  0.37983764736E+04 0.  0.
        2    1    3    3  502    0  0.17085339256E+04 -0.47908719463E+03 -0.56286661256E+03  0.18615669578E+04  0.25500000920E-02 0.  1.
       -2    1    3    3    0  502 -0.17085339256E+04  0.47908719463E+03  0.79359089664E+03  0.19438104913E+04  0.25500000920E-02 0. -1.
</event>
<event>
 5   0  0.5147582E-08  0.3803862E+04  0.7818609E-02  0.8045327E-01
       -2   -1    0    0    0  501  0.00000000000E+00  0.00000000000E+00  0.31650816447E+04  0.31650816447E+04  0.25500000920E-02 0. -1.
        2   -1    0    0  501    0  0.00000000000E+00  0.00000000000E+00 -0.11428902553E+04  0.11428902553E+04  0.25500000920E-02 0.  1.
    10030    2    1    2    0    0  0.00000000000E+00  0.00000000000E+00  0.20221913894E+04  0.43079719000E+04  0.38038617057E+04 0.  0.
        1    1    3    3  502    0 -0.46240588065E+03  0.62127982004E+03  0.29784118936E+04  0.30774575905E+04  0.50400001928E-02 0. -1.
       -1    1    3    3    0  502  0.46240588065E+03 -0.62127982004E+03 -0.95622050421E+03  0.12305143095E+04  0.50400001928E-02 0.  1.
</event>
<event>
 5   0  0.1666051E-08  0.3799302E+04  0.7818609E-02  0.8046305E-01
        1   -1    0    0  501    0  0.00000000000E+00  0.00000000000E+00  0.20663065541E+04  0.20663065541E+04  0.50400001928E-02 0. -1.
       -1   -1    0    0    0  501  0.00000000000E+00  0.00000000000E+00 -0.17464372047E+04  0.17464372047E+04  0.50400001928E-02 0.  1.
    10030    2    1    2    0    0  0.00000000000E+00  0.00000000000E+00  0.31986934936E+03  0.38127437588E+04  0.37993023793E+04 0.  0.
        2    1    3    3  502    0  0.86450528351E+03  0.16717742246E+04 -0.98807277015E+02  0.18846647768E+04  0.25500000920E-02 0.  1.
       -2    1    3    3    0  502 -0.86450528351E+03 -0.16717742246E+04  0.41867662638E+03  0.19280789819E+04  0.25500000920E-02 0. -1.
</event>
<event>
 5   0  0.5207474E-08  0.3807208E+04  0.7818609E-02  0.8044610E-01
       -2   -1    0    0    0  501  0.00000000000E+00  0.00000000000E+00  0.27065954107E+04  0.27065954107E+04  0.25500000920E-02 0. -1.
        2   -1    0    0  501    0  0.00000000000E+00  0.00000000000E+00 -0.13388440177E+04  0.13388440177E+04  0.25500000920E-02 0.  1.
    10030    2    1    2    0    0  0.00000000000E+00  0.00000000000E+00  0.13677513930E+04  0.40454394284E+04  0.38072084650E+04 0.  0.
        4    1    3    3  502    0  0.30053408327E+03  0.63056589583E+03  0.25654933536E+04  0.26588892125E+04  0.12699999809E+01 0. -1.
       -4    1    3    3    0  502 -0.30053408327E+03 -0.63056589583E+03 -0.11977419606E+04  0.13865502159E+04  0.12699999809E+01 0.  1.
</event>
<event>
 5   0  0.1628250E-08  0.3794279E+04  0.7818609E-02  0.8047384E-01
        1   -1    0    0  501    0  0.00000000000E+00  0.00000000000E+00  0.20389854866E+04  0.20389854866E+04  0.50400001928E-02 0. -1.
       -1   -1    0    0    0  501  0.00000000000E+00  0.00000000000E+00 -0.17651612599E+04  0.17651612599E+04  0.50400001928E-02 0.  1.
    10030    2    1    2    0    0  0.00000000000E+00  0.00000000000E+00  0.27382422675E+03  0.38041467465E+04  0.37942789515E+04 0.  0.
        4    1    3    3  502    0 -0.91672144363E+03  0.26969835196E+02 -0.15281390261E+04  0.17822222289E+04  0.12699999809E+01 0.  1.
       -4    1    3    3    0  502  0.91672144363E+03 -0.26969835196E+02  0.18019632528E+04  0.20219245176E+04  0.12699999809E+01 0. -1.
</event>
<event>
 5   0  0.1666051E-08  0.3799601E+04  0.7818609E-02  0.8046241E-01
        1   -1    0    0  501    0  0.00000000000E+00  0.00000000000E+00  0.25341429397E+04  0.25341429397E+04  0.50400001928E-02 0.  1.
       -1   -1    0    0    0  501  0.00000000000E+00  0.00000000000E+00 -0.14242453533E+04  0.14242453533E+04  0.50400001928E-02 0. -1.
    10030    2    1    2    0    0  0.00000000000E+00  0.00000000000E+00  0.11098975864E+04  0.39583882931E+04  0.37996006667E+04 0.  0.
        2    1    3    3  502    0  0.16671809525E+04  0.64888203820E+03 -0.11106516375E+03  0.17924496362E+04  0.25500000920E-02 0. -1.
       -2    1    3    3    0  502 -0.16671809525E+04 -0.64888203820E+03  0.12209627502E+04  0.21659386568E+04  0.25500000920E-02 0.  1.
</event>
<event>
 5   0  0.1628250E-08  0.3803022E+04  0.7818609E-02  0.8045507E-01
        1   -1    0    0  501    0  0.00000000000E+00  0.00000000000E+00  0.12517376644E+04  0.12517376644E+04  0.50400001928E-02 0. -1.
       -1   -1    0    0    0  501  0.00000000000E+00  0.00000000000E+00 -0.28885790184E+04  0.28885790185E+04  0.50400001928E-02 0.  1.
    10030    2    1    2    0    0  0.00000000000E+00  0.00000000000E+00 -0.16368413541E+04  0.41403166828E+04  0.38030215113E+04 0.  0.
        5    1    3    3  502    0  0.16208977398E+04  0.78734206070E+03 -0.14793057113E+04  0.23314339967E+04  0.46999998093E+01 0.  1.
       -5    1    3    3    0  502 -0.16208977398E+04 -0.78734206070E+03 -0.15753564282E+03  0.18088826861E+04  0.46999998093E+01 0. -1.
</event>
<event>
 5   0  0.1666051E-08  0.3795317E+04  0.7818609E-02  0.8047161E-01
       -1   -1    0    0    0  501  0.00000000000E+00  0.00000000000E+00  0.24713868830E+04  0.24713868830E+04  0.50400001928E-02 0.  1.
        1   -1    0    0  501    0  0.00000000000E+00  0.00000000000E+00 -0.14571202052E+04  0.14571202052E+04  0.50400001928E-02 0. -1.
    10030    2    1    2    0    0  0.00000000000E+00  0.00000000000E+00  0.10142666778E+04  0.39285070882E+04  0.37953169892E+04 0.  0.
        2    1    3    3  502    0 -0.77924285651E+03  0.67093748671E+03  0.21580117827E+04  0.23904793233E+04  0.25500000920E-02 0.  1.
       -2    1    3    3    0  502  0.77924285651E+03 -0.67093748671E+03 -0.11437451050E+04  0.15380277649E+04  0.25500000920E-02 0. -1.
</event>
<event>
 5   0  0.1628473E-08  0.3802687E+04  0.7818609E-02  0.8045579E-01
       -1   -1    0    0    0  501  0.00000000000E+00  0.00000000000E+00  0.18705322656E+04  0.18705322656E+04  0.50400001928E-02 0. -1.
        1   -1    0    0  501    0  0.00000000000E+00  0.00000000000E+00 -0.19326622559E+04  0.19326622559E+04  0.50400001928E-02 0.  1.
    10030    2    1    2    0    0  0.00000000000E+00  0.00000000000E+00 -0.62129990334E+02  0.38031945215E+04  0.38026870017E+04 0.  0.
        3    1    3    3  502    0 -0.11929193006E+04  0.61474628275E+03  0.13160140384E+04  0.18795910218E+04  0.10100000352E+00 0. -1.
       -3    1    3    3    0  502  0.11929193006E+04 -0.61474628275E+03 -0.13781440288E+04  0.19236034997E+04  0.10100000352E+00 0.  1.
</event>
<event>
 5   0  0.1628250E-08  0.3815679E+04  0.7818609E-02  0.8042799E-01
        1   -1    0    0  501    0  0.00000000000E+00  0.00000000000E+00  0.11930006119E+04  0.11930006119E+04  0.50400001928E-02 0. -1.
       -1   -1    0    0    0  501  0.00000000000E+00  0.00000000000E+00 -0.30510052910E+04  0.30510052910E+04  0.50400001928E-02 0.  1.
    10030    2    1    2    0    0  0.00000000000E+00  0.00000000000E+00 -0.18580046791E+04  0.42440059029E+04  0.38156788016E+04 0.  0.
        5    1    3    3  502    0  0.13185920726E+04  0.13096204646E+04 -0.44926301321E+03  0.19119754601E+04  0.46999998093E+01 0.  1.
       -5    1    3    3    0  502 -0.13185920726E+04 -0.13096204646E+04 -0.14087416659E+04  0.23320304428E+04  0.46999998093E+01 0. -1.
</event>
<event>
 5   0  0.1628250E-08  0.3796131E+04  0.7818609E-02  0.8046986E-01
       -1   -1    0    0    0  501  0.00000000000E+00  0.00000000000E+00  0.18377821858E+04  0.18377821858E+04  0.50400001928E-02 0. -1.
        1   -1    0    0  501    0  0.00000000000E+00  0.00000000000E+00 -0.19603261982E+04  0.19603261982E+04  0.50400001928E-02 0.  1.
    10030    2    1    2    0    0  0.00000000000E+00  0.00000000000E+00 -0.12254401244E+03  0.37981083840E+04  0.37961309595E+04 0.  0.
        5    1    3    3  502    0  0.17625186308E+04 -0.35512912624E+03  0.54735552292E+03  0.18794171380E+04  0.46999998093E+01 0. -1.
       -5    1    3    3    0  502 -0.17625186308E+04  0.35512912624E+03 -0.66989953535E+03  0.19186912460E+04  0.46999998093E+01 0.  1.
</event>
<event>
 5   0  0.1628250E-08  0.3799067E+04  0.7818609E-02  0.8046355E-01
       -1   -1    0    0    0  501  0.00000000000E+00  0.00000000000E+00  0.23419265392E+04  0.23419265392E+04  0.50400001928E-02 0. -1.
        1   -1    0    0  501    0  0.00000000000E+00  0.00000000000E+00 -0.15407094138E+04  0.15407094138E+04  0.50400001928E-02 0.  1.
    10030    2    1    2    0    0  0.00000000000E+00  0.00000000000E+00  0.80121712541E+03  0.38826359530E+04  0.37990673937E+04 0.  0.
        5    1    3    3  502    0 -0.41531119820E+03 -0.16638637858E+04  0.12354495368E+04  0.21135949794E+04  0.46999998093E+01 0. -1.
       -5    1    3    3    0  502  0.41531119820E+03  0.16638637858E+04 -0.43423241134E+03  0.17690409736E+04  0.46999998093E+01 0.  1.
</event>
<event>
 5   0  0.5207474E-08  0.3806650E+04  0.7818609E-02  0.8044729E-01
       -2   -1    0    0    0  501  0.00000000000E+00  0.00000000000E+00  0.36551974970E+04  0.36551974970E+04  0.25500000920E-02 0. -1.
        2   -1    0    0  501    0  0.00000000000E+00  0.00000000000E+00 -0.99109426752E+03  0.99109426752E+03  0.25500000920E-02 0.  1.
    10030    2    1    2    0    0  0.00000000000E+00  0.00000000000E+00  0.26641032295E+04  0.46462917645E+04  0.38066495956E+04 0.  0.
        4    1    3    3  502    0 -0.33393753453E+03 -0.56857645010E+02 -0.95400493007E+03  0.10123606513E+04  0.12699999809E+01 0.  1.
       -4    1    3    3    0  502  0.33393753453E+03  0.56857645010E+02  0.36181081596E+04  0.36339311133E+04  0.12699999809E+01 0. -1.
</event>
<event>
 5   0  0.1628250E-08  0.3792168E+04  0.7818609E-02  0.8047838E-01
       -1   -1    0    0    0  501  0.00000000000E+00  0.00000000000E+00  0.21788143738E+04  0.21788143738E+04  0.50400001928E-02 0. -1.
        1   -1    0    0  501    0  0.00000000000E+00  0.00000000000E+00 -0.16500420553E+04  0.16500420553E+04  0.50400001928E-02 0.  1.
    10030    2    1    2    0    0  0.00000000000E+00  0.00000000000E+00  0.52877231853E+03  0.38288564291E+04  0.37921684284E+04 0.  0.
        4    1    3    3  502    0 -0.14351312355E+04 -0.11689734315E+04 -0.15072791138E+03  0.18571001758E+04  0.12699999809E+01 0.  1.
       -4    1    3    3    0  502  0.14351312355E+04  0.11689734315E+04  0.67950022991E+03  0.19717562532E+04  0.12699999809E+01 0. -1.
</event>
<event>
 5   0  0.5086209E-08  0.3814417E+04  0.7818609E-02  0.8043068E-01
        2   -1    0    0  501    0  0.00000000000E+00  0.00000000000E+00  0.27625914450E+04  0.27625914450E+04  0.25500000920E-02 0.  1.
       -2   -1    0    0    0  501  0.00000000000E+00  0.00000000000E+00 -0.13166785597E+04  0.13166785597E+04  0.25500000920E-02 0. -1.
    10030    2    1    2    0    0  0.00000000000E+00  0.00000000000E+00  0.14459128852E+04  0.40792700047E+04  0.38144173473E+04 0.  0.
        3    1    3    3  502    0 -0.47308192052E+03 -0.13562883359E+04 -0.61879852368E+03  0.15640448129E+04  0.10100000352E+00 0. -1.
       -3    1    3    3    0  502  0.47308192052E+03  0.13562883359E+04  0.20647114089E+04  0.25152251919E+04  0.10100000352E+00 0.  1.
</event>
<event>
 5   0  0.5147582E-08  0.3801527E+04  0.7818609E-02  0.8045827E-01
        2   -1    0    0  501    0  0.00000000000E+00  0.00000000000E+00  0.22451036084E+04  0.22451036084E+04  0.25500000920E-02 0. -1.
       -2   -1    0    0    0  501  0.00000000000E+00  0.00000000000E+00 -0.16092359888E+04  0.16092359888E+04  0.25500000920E-02 0.  1.
    10030    2    1    2    0    0  0.00000000000E+00  0.00000000000E+00  0.63586761955E+03  0.38543395972E+04  0.38015268118E+04 0.  0.
        1    1    3    3  502    0  0.13045996056E+04 -0.12160272049E+04 -0.34861800292E+03  0.18172057688E+04  0.50400001928E-02 0.  1.
       -1    1    3    3    0  502 -0.13045996056E+04  0.12160272049E+04  0.98448562247E+03  0.20371338284E+04  0.50400001928E-02 0. -1.
</event>
<event>
 5   0  0.1628250E-08  0.3798262E+04  0.7818609E-02  0.8046528E-01
        1   -1    0    0  501    0  0.00000000000E+00  0.00000000000E+00  0.21189394788E+04  0.21189394788E+04  0.50400001928E-02 0. -1.
       -1   -1    0    0    0  501  0.00000000000E+00  0.00000000000E+00 -0.17021248181E+04  0.17021248181E+04  0.50400001928E-02 0.  1.
    10030    2    1    2    0    0  0.00000000000E+00  0.00000000000E+00  0.41681466066E+03  0.38210642970E+04  0.37982624844E+04 0.  0.
        4    1    3    3  502    0 -0.14243849921E+04  0.83639562145E+03  0.11511926416E+04  0.20133743697E+04  0.12699999809E+01 0. -1.
       -4    1    3    3    0  502  0.14243849921E+04 -0.83639562145E+03 -0.73437798097E+03  0.18076899273E+04  0.12699999809E+01 0.  1.
</event>
<event>
 5   0  0.5147582E-08  0.3802638E+04  0.7818609E-02  0.8045589E-01
       -2   -1    0    0    0  501  0.00000000000E+00  0.00000000000E+00  0.28022348875E+04  0.28022348875E+04  0.25500000920E-02 0. -1.
        2   -1    0    0  501    0  0.00000000000E+00  0.00000000000E+00 -0.12900464368E+04  0.12900464368E+04  0.25500000920E-02 0.  1.
    10030    2    1    2    0    0  0.00000000000E+00  0.00000000000E+00  0.15121884507E+04  0.40922813243E+04  0.38026375750E+04 0.  0.
        1    1    3    3  502    0  0.32536781125E+03  0.18344125302E+04  0.34760389931E+03  0.18951944529E+04  0.50400001928E-02 0. -1.
       -1    1    3    3    0  502 -0.32536781125E+03 -0.18344125302E+04  0.11645845513E+04  0.21970868714E+04  0.50400001928E-02 0.  1.
</event>
<event>
 5   0  0.5086209E-08  0.3758420E+04  0.7818609E-02  0.8055137E-01
       -2   -1    0    0    0  501  0.00000000000E+00  0.00000000000E+00  0.12010276778E+04  0.12010276778E+04  0.25500000920E-02 0. -1.
        2   -1    0    0  501    0  0.00000000000E+00  0.00000000000E+00 -0.29403398003E+04  0.29403398003E+04  0.25500000920E-02 0.  1.
    10030    2    1    2    0    0  0.00000000000E+00  0.00000000000E+00 -0.17393121226E+04  0.41413674781E+04  0.37584196053E+04 0.  0.
        3    1    3    3  502    0 -0.46611886627E+03  0.96145873897E+03  0.83373995223E+03  0.13552830045E+04  0.10100000352E+00 0. -1.
       -3    1    3    3    0  502  0.46611886627E+03 -0.96145873897E+03 -0.25730520748E+04  0.27860844736E+04  0.10100000352E+00 0.  1.
</event>
<event>
 5   0  0.1666051E-08  0.3798520E+04  0.7818609E-02  0.8046472E-01
       -1   -1    0    0    0  501  0.00000000000E+00  0.00000000000E+00  0.22298740547E+04  0.22298740547E+04  0.50400001928E-02 0.  1.
        1   -1    0    0  501    0  0.00000000000E+00  0.00000000000E+00 -0.16176650563E+04  0.16176650563E+04  0.50400001928E-02 0. -1.
    10030    2    1    2    0    0  0.00000000000E+00  0.00000000000E+00  0.61220899842E+03  0.38475391110E+04  0.37985204163E+04 0.  0.
        2    1    3    3  502    0  0.41898472013E+03  0.72296419410E+03 -0.14214738209E+04  0.16488824231E+04  0.25500000920E-02 0. -1.
       -2    1    3    3    0  502 -0.41898472013E+03 -0.72296419410E+03  0.20336828193E+04  0.21986566879E+04  0.25500000920E-02 0.  1.
</event>
<event>
 5   0  0.5086209E-08  0.3801187E+04  0.7818609E-02  0.8045900E-01
        2   -1    0    0  501    0  0.00000000000E+00  0.00000000000E+00  0.13881703213E+04  0.13881703213E+04  0.25500000920E-02 0. -1.
       -2   -1    0    0    0  501  0.00000000000E+00  0.00000000000E+00 -0.26021707423E+04  0.26021707423E+04  0.25500000920E-02 0.  1.
    10030    2    1    2    0    0  0.00000000000E+00  0.00000000000E+00 -0.12140004210E+04  0.39903410635E+04  0.38011872857E+04 0.  0.
        3    1    3    3  502    0  0.56997887188E+03 -0.17450096759E+04 -0.11237576355E+04  0.21523860984E+04  0.10100000352E+00 0.  1.
       -3    1    3    3    0  502 -0.56997887188E+03  0.17450096759E+04 -0.90242785545E+02  0.18379549651E+04  0.10100000352E+00 0. -1.
</event>
<event>
 5   0  0.1628250E-08  0.3798302E+04  0.7818609E-02  0.8046519E-01
       -1   -1    0    0    0  501  0.00000000000E+00  0.00000000000E+00  0.31891152848E+04  0.31891152848E+04  0.50400001928E-02 0.  1.
        1   -1    0    0  501    0  0.00000000000E+00  0.00000000000E+00 -0.11309640289E+04  0.11309640290E+04  0.50400001928E-02 0. -1.
    10030    2    1    2    0    0  0.00000000000E+00  0.00000000000E+00  0.20581512558E+04  0.43200793137E+04  0.37983020792E+04 0.  0.
        1    1    3    3  502    0 -0.86758288233E+03  0.16708411487E+04  0.74504129776E+03  0.20247213974E+04  0.50400001928E-02 0. -1.
       -1    1    3    3    0  502  0.86758288233E+03 -0.16708411487E+04  0.13131099581E+04  0.22953579163E+04  0.50400001928E-02 0.  1.
</event>
<event>
 5   0  0.1666051E-08  0.3784568E+04  0.7818609E-02  0.8049475E-01
        1   -1    0    0  501    0  0.00000000000E+00  0.00000000000E+00  0.21925116095E+04  0.21925116095E+04  0.50400001928E-02 0.  1.
       -1   -1    0    0    0  501  0.00000000000E+00  0.00000000000E+00 -0.16331675509E+04  0.16331675509E+04  0.50400001928E-02 0. -1.
    10030    2    1    2    0    0  0.00000000000E+00  0.00000000000E+00  0.55934405864E+03  0.38256791604E+04  0.37845680418E+04 0.  0.
        2    1    3    3  502    0 -0.12033091720E+04  0.74005484988E+03  0.15523578351E+04  0.20989161471E+04  0.25500000920E-02 0.  1.
       -2    1    3    3    0  502  0.12033091720E+04 -0.74005484988E+03 -0.99301377647E+03  0.17267630134E+04  0.25500000920E-02 0. -1.
</event>
<event>
 5   0  0.1628250E-08  0.3798686E+04  0.7818609E-02  0.8046437E-01
       -1   -1    0    0    0  501  0.00000000000E+00  0.00000000000E+00  0.22875039749E+04  0.22875039749E+04  0.50400001928E-02 0. -1.
        1   -1    0    0  501    0  0.00000000000E+00  0.00000000000E+00 -0.15770484796E+04  0.15770484797E+04  0.50400001928E-02 0.  1.
    10030    2    1    2    0    0  0.00000000000E+00  0.00000000000E+00  0.71045549525E+03  0.38645524546E+04  0.37986864392E+04 0.  0.
        1    1    3    3  502    0 -0.17211701367E+04 -0.77090464223E+03  0.12596712691E+03  0.18901291819E+04  0.50400001928E-02 0. -1.
       -1    1    3    3    0  502  0.17211701367E+04  0.77090464223E+03  0.58448836834E+03  0.19744232727E+04  0.50400001928E-02 0.  1.
</event>
<event>
 5   0  0.5147582E-08  0.3803007E+04  0.7818609E-02  0.8045510E-01
       -2   -1    0    0    0  501  0.00000000000E+00  0.00000000000E+00  0.18301938837E+04  0.18301938837E+04  0.25500000920E-02 0.  1.
        2   -1    0    0  501    0  0.00000000000E+00  0.00000000000E+00 -0.19755917368E+04  0.19755917368E+04  0.25500000920E-02 0. -1.
    10030    2    1    2    0    0  0.00000000000E+00  0.00000000000E+00 -0.14539785312E+03  0.38057856205E+04  0.38030071855E+04 0.  0.
        1    1    3    3  502    0 -0.14829852660E+03  0.18341525504E+04 -0.55222317260E+03  0.19212127586E+04  0.50400001928E-02 0. -1.
       -1    1    3    3    0  502  0.14829852660E+03 -0.18341525504E+04  0.40682531948E+03  0.18845728619E+04  0.50400001928E-02 0.  1.
</event>
<event>
 5   0  0.1628250E-08  0.3795846E+04  0.7818609E-02  0.8047047E-01
       -1   -1    0    0    0  501  0.00000000000E+00  0.00000000000E+00  0.15250141000E+04  0.15250141000E+04  0.50400001928E-02 0. -1.
        1   -1    0    0  501    0  0.00000000000E+00  0.00000000000E+00 -0.23620187851E+04  0.23620187851E+04  0.50400001928E-02 0.  1.
    10030    2    1    2    0    0  0.00000000000E+00  0.00000000000E+00 -0.83700468510E+03  0.38870328851E+04  0.37958461253E+04 0.  0.
        1    1    3    3  502    0 -0.63760767698E+02  0.12662988044E+04 -0.18647088858E+04  0.22549317787E+04  0.50400001928E-02 0.  1.
       -1    1    3    3    0  502  0.63760767698E+02 -0.12662988044E+04  0.10277042007E+04  0.16321011065E+04  0.50400001928E-02 0. -1.
</event>
<event>
 5   0  0.1628250E-08  0.3795775E+04  0.7818609E-02  0.8047062E-01
       -1   -1    0    0    0  501  0.00000000000E+00  0.00000000000E+00  0.13160979781E+04  0.13160979781E+04  0.50400001928E-02 0.  1.
        1   -1    0    0  501    0  0.00000000000E+00  0.00000000000E+00 -0.27368601370E+04  0.27368601370E+04  0.50400001928E-02 0. -1.
    10030    2    1    2    0    0  0.00000000000E+00  0.00000000000E+00 -0.14207621589E+04  0.40529581152E+04  0.37957745417E+04 0.  0.
        4    1    3    3  502    0 -0.31641507398E+03  0.91310323679E+02  0.12853555335E+04  0.13268747246E+04  0.12699999809E+01 0.  1.
       -4    1    3    3    0  502  0.31641507398E+03 -0.91310323679E+02 -0.27061176924E+04  0.27260833906E+04  0.12699999809E+01 0. -1.
</event>
<event>
 5   0  0.5140842E-08  0.3795106E+04  0.7818609E-02  0.8047206E-01
       -2   -1    0    0    0  501  0.00000000000E+00  0.00000000000E+00  0.12426627418E+04  0.12426627418E+04  0.25500000920E-02 0.  1.
        2   -1    0    0  501    0  0.00000000000E+00  0.00000000000E+00 -0.28975736730E+04  0.28975736730E+04  0.25500000920E-02 0. -1.
    10030    2    1    2    0    0  0.00000000000E+00  0.00000000000E+00 -0.16549109312E+04  0.41402364148E+04  0.37951057139E+04 0.  0.
        2    1    3    3  502    0 -0.13254722855E+03  0.66276607559E+03 -0.27618015943E+04  0.28433036568E+04  0.25500000920E-02 0. -1.
       -2    1    3    3    0  502  0.13254722855E+03 -0.66276607559E+03  0.11068906630E+04  0.12969327580E+04  0.25500000920E-02 0.  1.
</event>
<event>
 5   0  0.5140842E-08  0.3819786E+04  0.7818609E-02  0.8041922E-01
        2   -1    0    0  501    0  0.00000000000E+00  0.00000000000E+00  0.17090073889E+04  0.17090073889E+04  0.25500000920E-02 0.  1.
       -2   -1    0    0    0  501  0.00000000000E+00  0.00000000000E+00 -0.21343922160E+04  0.21343922160E+04  0.25500000920E-02 0. -1.
    10030    2    1    2    0    0  0.00000000000E+00  0.00000000000E+00 -0.42538482707E+03  0.38433996049E+04  0.38197864171E+04 0.  0.
        2    1    3    3  502    0  0.53627303741E+03  0.72336548412E+03  0.14820133887E+04  0.17341309289E+04  0.25500000920E-02 0.  1.
       -2    1    3    3    0  502 -0.53627303741E+03 -0.72336548412E+03 -0.19073982158E+04  0.21092686760E+04  0.25500000920E-02 0. -1.
</event>
<event>
 5   0  0.5159761E-08  0.3802278E+04  0.7818609E-02  0.8045666E-01
       -2   -1    0    0    0  501  0.00000000000E+00  0.00000000000E+00  0.18713159417E+04  0.18713159418E+04  0.25500000920E-02 0. -1.
        2   -1    0    0  501    0  0.00000000000E+00  0.00000000000E+00 -0.19314377079E+04  0.19314377079E+04  0.25500000920E-02 0.  1.
    10030    2    1    2    0    0  0.00000000000E+00  0.00000000000E+00 -0.60121766130E+02  0.38027536496E+04  0.38022783555E+04 0.  0.
        5    1    3    3  502    0  0.10963572265E+04  0.10847603701E+04 -0.11417770253E+04  0.19189531245E+04  0.46999998093E+01 0.  1.
       -5    1    3    3    0  502 -0.10963572265E+04 -0.10847603701E+04  0.10816552592E+04  0.18838005251E+04  0.46999998093E+01 0. -1.
</event>
<event>
 5   0  0.5147582E-08  0.3806404E+04  0.7818609E-02  0.8044782E-01
        2   -1    0    0  501    0  0.00000000000E+00  0.00000000000E+00  0.12594659623E+04  0.12594659623E+04  0.25500000920E-02 0.  1.
       -2   -1    0    0    0  501  0.00000000000E+00  0.00000000000E+00 -0.28759635844E+04  0.28759635844E+04  0.25500000920E-02 0. -1.
    10030    2    1    2    0    0  0.00000000000E+00  0.00000000000E+00 -0.16164976221E+04  0.41354295467E+04  0.38064042053E+04 0.  0.
        1    1    3    3  502    0 -0.18145304896E+04  0.44146269489E+03 -0.40940838653E+03  0.19118120816E+04  0.50400001928E-02 0.  1.
       -1    1    3    3    0  502  0.18145304896E+04 -0.44146269489E+03 -0.12070892355E+04  0.22236174651E+04  0.50400001928E-02 0. -1.
</event>
<event>
 5   0  0.1628473E-08  0.3800075E+04  0.7818609E-02  0.8046139E-01
        1   -1    0    0  501    0  0.00000000000E+00  0.00000000000E+00  0.29078684418E+04  0.29078684418E+04  0.50400001928E-02 0.  1.
       -1   -1    0    0    0  501  0.00000000000E+00  0.00000000000E+00 -0.12415079571E+04  0.12415079571E+04  0.50400001928E-02 0. -1.
    10030    2    1    2    0    0  0.00000000000E+00  0.00000000000E+00  0.16663604847E+04  0.41493763989E+04  0.38000746355E+04 0.  0.
        3    1    3    3  502    0 -0.58175808537E+03  0.14027267000E+04  0.20801014617E+04  0.25754430232E+04  0.10100000352E+00 0.  1.
       -3    1    3    3    0  502  0.58175808537E+03 -0.14027267000E+04 -0.41374097706E+03  0.15739333757E+04  0.10100000352E+00 0. -1.
</event>
<event>
 5   0  0.5207474E-08  0.3801692E+04  0.7818609E-02  0.8045792E-01
       -2   -1    0    0    0  501  0.00000000000E+00  0.00000000000E+00  0.14926964934E+04  0.14926964934E+04  0.25500000920E-02 0.  1.
        2   -1    0    0  501    0  0.00000000000E+00  0.00000000000E+00 -0.24205962566E+04  0.24205962566E+04  0.25500000920E-02 0. -1.
    10030    2    1    2    0    0  0.00000000000E+00  0.00000000000E+00 -0.92789976322E+03  0.39132927500E+04  0.38016920149E+04 0.  0.
        4    1    3    3  502    0 -0.19008145374E+04 -0.93494142071E+01 -0.45825446783E+03  0.19552959079E+04  0.12699999809E+01 0. -1.
       -4    1    3    3    0  502  0.19008145374E+04  0.93494142071E+01 -0.46964529539E+03  0.19579968421E+04  0.12699999809E+01 0.  1.
</event>
<event>
 5   0  0.5159761E-08  0.3798308E+04  0.7818609E-02  0.8046518E-01
        2   -1    0    0  501    0  0.00000000000E+00  0.00000000000E+00  0.23605287535E+04  0.23605287535E+04  0.25500000920E-02 0.  1.
       -2   -1    0    0    0  501  0.00000000000E+00  0.00000000000E+00 -0.15279571106E+04  0.15279571107E+04  0.25500000920E-02 0. -1.
    10030    2    1    2    0    0  0.00000000000E+00  0.00000000000E+00  0.83257164290E+03  0.38884858642E+04  0.37983084097E+04 0.  0.
        5    1    3    3  502    0 -0.56158504510E+03  0.10544677139E+04  0.19276433367E+04  0.22678427736E+04  0.46999998093E+01 0.  1.
       -5    1    3    3    0  502  0.56158504510E+03 -0.10544677139E+04 -0.10950716938E+04  0.16206430906E+04  0.46999998093E+01 0. -1.
</event>
<event>
 5   0  0.5086209E-08  0.3794043E+04  0.7818609E-02  0.8047434E-01
        2   -1    0    0  501    0  0.00000000000E+00  0.00000000000E+00  0.15221304769E+04  0.15221304769E+04  0.25500000920E-02 0. -1.
       -2   -1    0    0    0  501  0.00000000000E+00  0.00000000000E+00 -0.23642461731E+04  0.23642461731E+04  0.25500000920E-02 0.  1.
    10030    2    1    2    0    0  0.00000000000E+00  0.00000000000E+00 -0.84211569621E+03  0.38863766500E+04  0.37940433076E+04 0.  0.
        3    1    3    3  502    0 -0.23303451193E+03  0.16502437008E+04  0.50712986291E+03  0.17420648851E+04  0.10100000352E+00 0. -1.
       -3    1    3    3    0  502  0.23303451193E+03 -0.16502437008E+04 -0.13492455591E+04  0.21443117649E+04  0.10100000352E+00 0.  1.
</event>
<event>
 5   0  0.1628250E-08  0.3801626E+04  0.7818609E-02  0.8045806E-01
        1   -1    0    0  501    0  0.00000000000E+00  0.00000000000E+00  0.21673619519E+04  0.21673619519E+04  0.50400001928E-02 0.  1.
       -1   -1    0    0    0  501  0.00000000000E+00  0.00000000000E+00 -0.16670448487E+04  0.16670448487E+04  0.50400001928E-02 0. -1.
    10030    2    1    2    0    0  0.00000000000E+00  0.00000000000E+00  0.50031710314E+03  0.38344068006E+04  0.38016257455E+04 0.  0.
        1    1    3    3  502    0 -0.15945819769E+04 -0.72882453092E+03 -0.49048437936E+03  0.18205635952E+04  0.50400001928E-02 0. -1.
       -1    1    3    3    0  502  0.15945819769E+04  0.72882453092E+03  0.99080148249E+03  0.20138432053E+04  0.50400001928E-02 0.  1.
</event>
<event>
 5   0  0.1666051E-08  0.3793696E+04  0.7818609E-02  0.8047509E-01
       -1   -1    0    0    0  501  0.00000000000E+00  0.00000000000E+00  0.21102892447E+04  0.21102892448E+04  0.50400001928E-02 0.  1.
        1   -1    0    0  501    0  0.00000000000E+00  0.00000000000E+00 -0.17049951662E+04  0.17049951662E+04  0.50400001928E-02 0. -1.
    10030    2    1    2    0    0  0.00000000000E+00  0.00000000000E+00  0.40529407855E+03  0.38152844110E+04  0.37936963303E+04 0.  0.
        2    1    3    3  502    0 -0.25784236908E+03  0.17266291385E+04 -0.54339780885E+03  0.18283905622E+04  0.25500000920E-02 0. -1.
       -2    1    3    3    0  502  0.25784236908E+03 -0.17266291385E+04  0.94869188740E+03  0.19868938488E+04  0.25500000920E-02 0.  1.
</event>
<event>
 5   0  0.1666051E-08  0.3801618E+04  0.7818609E-02  0.8045808E-01
       -1   -1    0    0    0  501  0.00000000000E+00  0.00000000000E+00  0.15087345196E+04  0.15087345197E+04  0.50400001928E-02 0.  1.
        1   -1    0    0  501    0  0.00000000000E+00  0.00000000000E+00 -0.23947719816E+04  0.23947719816E+04  0.50400001928E-02 0. -1.
    10030    2    1    2    0    0  0.00000000000E+00  0.00000000000E+00 -0.88603746199E+03  0.39035065013E+04  0.38016181583E+04 0.  0.
        2    1    3    3  502    0 -0.66083913353E+03  0.44484405868E+03 -0.22151006667E+04  0.23539892864E+04  0.25500000920E-02 0. -1.
       -2    1    3    3    0  502  0.66083913353E+03 -0.44484405868E+03  0.13290632047E+04  0.15495172149E+04  0.25500000920E-02 0.  1.
</event>
<event>
 5   0  0.5140842E-08  0.3809858E+04  0.7818609E-02  0.8044043E-01
       -2   -1    0    0    0  501  0.00000000000E+00  0.00000000000E+00  0.12491866871E+04  0.12491866871E+04  0.25500000920E-02 0. -1.
        2   -1    0    0  501    0  0.00000000000E+00  0.00000000000E+00 -0.29048935712E+04  0.29048935712E+04  0.25500000920E-02 0.  1.
    10030    2    1    2    0    0  0.00000000000E+00  0.00000000000E+00 -0.16557068841E+04  0.41540802583E+04  0.38098579379E+04 0.  0.
        2    1    3    3  502    0 -0.10837405698E+03  0.16353139846E+04 -0.18865368942E+04  0.24990034450E+04  0.25500000920E-02 0.  1.
       -2    1    3    3    0  502  0.10837405698E+03 -0.16353139846E+04  0.23083001012E+03  0.16550768134E+04  0.25500000920E-02 0. -1.
</event>
<event>
 5   0  0.5207474E-08  0.3800205E+04  0.7818609E-02  0.8046111E-01
        2   -1    0    0  501    0  0.00000000000E+00  0.00000000000E+00  0.18675868813E+04  0.18675868813E+04  0.25500000920E-02 0. -1.
       -2   -1    0    0    0  501  0.00000000000E+00  0.00000000000E+00 -0.19331845848E+04  0.19331845848E+04  0.25500000920E-02 0.  1.
    10030    2    1    2    0    0  0.00000000000E+00  0.00000000000E+00 -0.65597703450E+02  0.38007714661E+04  0.38002053469E+04 0.  0.
        4    1    3    3  502    0  0.12975312977E+04 -0.11681388953E+04 -0.78274561010E+03  0.19133291014E+04  0.12699999809E+01 0.  1.
       -4    1    3    3    0  502 -0.12975312977E+04  0.11681388953E+04  0.71714790665E+03  0.18874423647E+04  0.12699999809E+01 0. -1.
</event>
<event>
 5   0  0.5159761E-08  0.3786732E+04  0.7818609E-02  0.8049008E-01
       -2   -1    0    0    0  501  0.00000000000E+00  0.00000000000E+00  0.19676196914E+04  0.19676196914E+04  0.25500000920E-02 0. -1.
        2   -1    0    0  501    0  0.00000000000E+00  0.00000000000E+00 -0.18219147133E+04  0.18219147133E+04  0.25500000920E-02 0.  1.
    10030    2    1    2    0    0  0.00000000000E+00  0.00000000000E+00  0.14570497808E+03  0.37895344047E+04  0.37867322408E+04 0.  0.
        5    1    3    3  502    0  0.40093714076E+03 -0.36894915411E+03  0.18874618205E+04  0.19645376767E+04  0.46999998093E+01 0. -1.
       -5    1    3    3    0  502 -0.40093714076E+03  0.36894915411E+03 -0.17417568424E+04  0.18249967280E+04  0.46999998093E+01 0.  1.
</event>
<event>
 5   0  0.1628250E-08  0.3792607E+04  0.7818609E-02  0.8047743E-01
       -1   -1    0    0    0  501  0.00000000000E+00  0.00000000000E+00  0.15913771596E+04  0.15913771596E+04  0.50400001928E-02 0.  1.
        1   -1    0    0  501    0  0.00000000000E+00  0.00000000000E+00 -0.22596575703E+04  0.22596575703E+04  0.50400001928E-02 0. -1.
    10030    2    1    2    0    0  0.00000000000E+00  0.00000000000E+00 -0.66828041068E+03  0.38510347300E+04  0.37926072541E+04 0.  0.
        1    1    3    3  502    0 -0.10898442257E+04 -0.63991236481E+03 -0.17696807181E+04  0.21746305698E+04  0.50400001928E-02 0. -1.
       -1    1    3    3    0  502  0.10898442257E+04  0.63991236481E+03  0.11014003074E+04  0.16764041602E+04  0.50400001928E-02 0.  1.
</event>
<event>
 5   0  0.1628250E-08  0.3801438E+04  0.7818609E-02  0.8045846E-01
        1   -1    0    0  501    0  0.00000000000E+00  0.00000000000E+00  0.13019518786E+04  0.13019518786E+04  0.50400001928E-02 0.  1.
       -1   -1    0    0    0  501  0.00000000000E+00  0.00000000000E+00 -0.27748585208E+04  0.27748585208E+04  0.50400001928E-02 0. -1.
    10030    2    1    2    0    0  0.00000000000E+00  0.00000000000E+00 -0.14729066422E+04  0.40768103994E+04  0.38014377617E+04 0.  0.
        4    1    3    3  502    0  0.13193312856E+04 -0.99146063717E+03 -0.17476794445E+04  0.24037500473E+04  0.12699999809E+01 0. -1.
       -4    1    3    3    0  502 -0.13193312856E+04  0.99146063717E+03  0.27477280226E+03  0.16730603521E+04  0.12699999809E+01 0.  1.
</event>
<event>
 5   0  0.5140842E-08  0.3806206E+04  0.7818609E-02  0.8044824E-01
        2   -1    0    0  501    0  0.00000000000E+00  0.00000000000E+00  0.24083364336E+04  0.24083364336E+04  0.25500000920E-02 0. -1.
       -2   -1    0    0    0  501  0.00000000000E+00  0.00000000000E+00 -0.15038602680E+04  0.15038602680E+04  0.25500000920E-02 0.  1.
    10030    2    1    2    0    0  0.00000000000E+00  0.00000000000E+00  0.90447616564E+03  0.39121967016E+04  0.38062062342E+04 0.  0.
        2    1    3    3  502    0 -0.22236278725E+01 -0.14618743005E+04 -0.80018382084E+03  0.16665459976E+04  0.25500000920E-02 0.  1.
       -2    1    3    3    0  502  0.22236278725E+01  0.14618743005E+04  0.17046599865E+04  0.22456507040E+04  0.25500000920E-02 0. -1.
</event>
<event>
 5   0  0.5147582E-08  0.3782250E+04  0.7818609E-02  0.8049975E-01
       -2   -1    0    0    0  501  0.00000000000E+00  0.00000000000E+00  0.14480881835E+04  0.14480881835E+04  0.25500000920E-02 0. -1.
        2   -1    0    0  501    0  0.00000000000E+00  0.00000000000E+00 -0.24697067668E+04  0.24697067668E+04  0.25500000920E-02 0.  1.
    10030    2    1    2    0    0  0.00000000000E+00  0.00000000000E+00 -0.10216185833E+04  0.39177949503E+04  0.37822496934E+04 0.  0.
        1    1    3    3  502    0 -0.10985966784E+03 -0.13190374038E+04 -0.19099275939E+04  0.23237366962E+04  0.50400001928E-02 0.  1.
       -1    1    3    3    0  502  0.10985966784E+03  0.13190374038E+04  0.88830901065E+03  0.15940582541E+04  0.50400001928E-02 0. -1.
</event>
<event>
 5   0  0.5147582E-08  0.3815653E+04  0.7818609E-02  0.8042804E-01
        2   -1    0    0  501    0  0.00000000000E+00  0.00000000000E+00  0.27301379220E+04  0.27301379220E+04  0.25500000920E-02 0.  1.
       -2   -1    0    0    0  501  0.00000000000E+00  0.00000000000E+00 -0.13331935264E+04  0.13331935264E+04  0.25500000920E-02 0. -1.
    10030    2    1    2    0    0  0.00000000000E+00  0.00000000000E+00  0.13969443956E+04  0.40633314484E+04  0.38156531309E+04 0.  0.
        1    1    3    3  502    0  0.17100824300E+04  0.83757815332E+03  0.82394712559E+03  0.20748031102E+04  0.50400001928E-02 0. -1.
       -1    1    3    3    0  502 -0.17100824300E+04 -0.83757815332E+03  0.57299726997E+03  0.19885283382E+04  0.50400001928E-02 0.  1.
</event>
<event>
 5   0  0.1666051E-08  0.3823955E+04  0.7818609E-02  0.8041034E-01
        1   -1    0    0  501    0  0.00000000000E+00  0.00000000000E+00  0.13629233359E+04  0.13629233359E+04  0.50400001928E-02 0.  1.
       -1   -1    0    0    0  501  0.00000000000E+00  0.00000000000E+00 -0.26822189923E+04  0.26822189924E+04  0.50400001928E-02 0. -1.
    10030    2    1    2    0    0  0.00000000000E+00  0.00000000000E+00 -0.13192956564E+04  0.40451423283E+04  0.38239554687E+04 0.  0.
        2    1    3    3  502    0  0.14228853787E+04 -0.11569200539E+04 -0.12318536048E+04  0.22091921862E+04  0.25500000920E-02 0.  1.
       -2    1    3    3    0  502 -0.14228853787E+04  0.11569200539E+04 -0.87442051639E+02  0.18359501421E+04  0.25500000920E-02 0. -1.
</event>
<event>
 5   0  0.5159761E-08  0.3791103E+04  0.7818609E-02  0.8048067E-01
       -2   -1    0    0    0  501  0.00000000000E+00  0.00000000000E+00  0.19594880310E+04  0.19594880310E+04  0.25500000920E-02 0.  1.
        2   -1    0    0  501    0  0.00000000000E+00  0.00000000000E+00 -0.18337015635E+04  0.18337015635E+04  0.25500000920E-02 0. -1.
    10030    2    1    2    0    0  0.00000000000E+00  0.00000000000E+00  0.12578646756E+03  0.37931895945E+04  0.37911034099E+04 0.  0.
        5    1    3    3  502    0  0.13762113509E+04 -0.75451389444E+03  0.11264199571E+04  0.19318625492E+04  0.46999998093E+01 0.  1.
       -5    1    3    3    0  502 -0.13762113509E+04  0.75451389444E+03 -0.10006334895E+04  0.18613270453E+04  0.46999998093E+01 0. -1.
</event>
<event>
 5   0  0.1628250E-08  0.3805179E+04  0.7818609E-02  0.8045044E-01
        1   -1    0    0  501    0  0.00000000000E+00  0.00000000000E+00  0.18360615813E+04  0.18360615813E+04  0.50400001928E-02 0.  1.
       -1   -1    0    0    0  501  0.00000000000E+00  0.00000000000E+00 -0.19715280217E+04  0.19715280217E+04  0.50400001928E-02 0. -1.
    10030    2    1    2    0    0  0.00000000000E+00  0.00000000000E+00 -0.13546644034E+03  0.38075896030E+04  0.38051790271E+04 0.  0.
        4    1    3    3  502    0  0.10292620210E+04  0.14391003114E+04  0.63232075265E+03  0.18788882780E+04  0.12699999809E+01 0.  1.
       -4    1    3    3    0  502 -0.10292620210E+04 -0.14391003114E+04 -0.76778719299E+03  0.19287013249E+04  0.12699999809E+01 0. -1.
</event>
<event>
 5   0  0.1628250E-08  0.3797724E+04  0.7818609E-02  0.8046643E-01
       -1   -1    0    0    0  501  0.00000000000E+00  0.00000000000E+00  0.19214439199E+04  0.19214439199E+04  0.50400001928E-02 0. -1.
        1   -1    0    0  501    0  0.00000000000E+00  0.00000000000E+00 -0.18765457443E+04  0.18765457443E+04  0.50400001928E-02 0.  1.
    10030    2    1    2    0    0  0.00000000000E+00  0.00000000000E+00  0.44898175531E+02  0.37979896642E+04  0.37977242716E+04 0.  0.
        1    1    3    3  502    0 -0.20386680240E+03 -0.15493930405E+04  0.11011796215E+04  0.19117471135E+04  0.50400001928E-02 0. -1.
       -1    1    3    3    0  502  0.20386680240E+03  0.15493930405E+04 -0.10562814460E+04  0.18862425507E+04  0.50400001928E-02 0.  1.
</event>
<event>
 5   0  0.1628250E-08  0.3798677E+04  0.7818609E-02  0.8046439E-01
       -1   -1    0    0    0  501  0.00000000000E+00  0.00000000000E+00  0.19991872212E+04  0.19991872212E+04  0.50400001928E-02 0.  1.
        1   -1    0    0  501    0  0.00000000000E+00  0.00000000000E+00 -0.18044766347E+04  0.18044766347E+04  0.50400001928E-02 0. -1.
    10030    2    1    2    0    0  0.00000000000E+00  0.00000000000E+00  0.19471058656E+03  0.38036638559E+04  0.37986769429E+04 0.  0.
        1    1    3    3  502    0 -0.10864166637E+04 -0.20846746664E+03  0.16433144166E+04  0.19809699956E+04  0.50400001928E-02 0.  1.
       -1    1    3    3    0  502  0.10864166637E+04  0.20846746664E+03 -0.14486038300E+04  0.18226938603E+04  0.50400001928E-02 0. -1.
</event>
<event>
 5   0  0.1666051E-08  0.3801430E+04  0.7818609E-02  0.8045848E-01
        1   -1    0    0  501    0  0.00000000000E+00  0.00000000000E+00  0.15676792530E+04  0.15676792530E+04  0.50400001928E-02 0.  1.
       -1   -1    0    0    0  501  0.00000000000E+00  0.00000000000E+00 -0.23045008560E+04  0.23045008560E+04  0.50400001928E-02 0. -1.
    10030    2    1    2    0    0  0.00000000000E+00  0.00000000000E+00 -0.73682160306E+03  0.38721801090E+04  0.38014303521E+04 0.  0.
        2    1    3    3  502    0  0.52662666048E+03 -0.45446873822E+03 -0.21701844808E+04  0.22789423324E+04  0.25500000920E-02 0. -1.
       -2    1    3    3    0  502 -0.52662666048E+03  0.45446873822E+03  0.14333628778E+04  0.15932377766E+04  0.25500000920E-02 0.  1.
</event>
<event>
 5   0  0.1628473E-08  0.3801631E+04  0.7818609E-02  0.8045805E-01
       -1   -1    0    0    0  501  0.00000000000E+00  0.00000000000E+00  0.14847661377E+04  0.14847661377E+04  0.50400001928E-02 0. -1.
        1   -1    0    0  501    0  0.00000000000E+00  0.00000000000E+00 -0.24334469619E+04  0.24334469619E+04  0.50400001928E-02 0.  1.
    10030    2    1    2    0    0  0.00000000000E+00  0.00000000000E+00 -0.94868082422E+03  0.39182130996E+04  0.38016310431E+04 0.  0.
        3    1    3    3  502    0  0.12811733518E+04  0.78295960407E+03 -0.16757051437E+04  0.22499819194E+04  0.10100000352E+00 0.  1.
       -3    1    3    3    0  502 -0.12811733518E+04 -0.78295960407E+03  0.72702431946E+03  0.16682311801E+04  0.10100000352E+00 0. -1.
</event>
<event>
 5   0  0.5086209E-08  0.3798590E+04  0.7818609E-02  0.8046458E-01
       -2   -1    0    0    0  501  0.00000000000E+00  0.00000000000E+00  0.15842310013E+04  0.15842310013E+04  0.25500000920E-02 0.  1.
        2   -1    0    0  501    0  0.00000000000E+00  0.00000000000E+00 -0.22770173792E+04  0.22770173792E+04  0.25500000920E-02 0. -1.
    10030    2    1    2    0    0  0.00000000000E+00  0.00000000000E+00 -0.69278637795E+03  0.38612483805E+04  0.37985900134E+04 0.  0.
        3    1    3    3  502    0 -0.57686912164E+03  0.12408670047E+04  0.99244810280E+03  0.16904088718E+04  0.10100000352E+00 0.  1.
       -3    1    3    3    0  502  0.57686912164E+03 -0.12408670047E+04 -0.16852344807E+04  0.21708395086E+04  0.10100000352E+00 0. -1.
</event>
<event>
 5   0  0.1628473E-08  0.3800517E+04  0.7818609E-02  0.8046044E-01
       -1   -1    0    0    0  501  0.00000000000E+00  0.00000000000E+00  0.12399953658E+04  0.12399953658E+04  0.50400001928E-02 0.  1.
        1   -1    0    0  501    0  0.00000000000E+00  0.00000000000E+00 -0.29120939091E+04  0.29120939091E+04  0.50400001928E-02 0. -1.
    10030    2    1    2    0    0  0.00000000000E+00  0.00000000000E+00 -0.16720985433E+04  0.41520892749E+04  0.38005173080E+04 0.  0.
        3    1    3    3  502    0 -0.17287264432E+03  0.13033307866E+04 -0.23349850385E+04  0.26796849126E+04  0.10100000352E+00 0. -1.
       -3    1    3    3    0  502  0.17287264432E+03 -0.13033307866E+04  0.66288649522E+03  0.14724043624E+04  0.10100000352E+00 0.  1.
</event>
<event>
 5   0  0.5207474E-08  0.3800119E+04  0.7818609E-02  0.8046129E-01
        2   -1    0    0  501    0  0.00000000000E+00  0.00000000000E+00  0.23735476048E+04  0.23735476048E+04  0.25500000920E-02 0. -1.
       -2   -1    0    0    0  501  0.00000000000E+00  0.00000000000E+00 -0.15210252666E+04  0.15210252666E+04  0.25500000920E-02 0.  1.
    10030    2    1    2    0    0  0.00000000000E+00  0.00000000000E+00  0.85252233817E+03  0.38945728714E+04  0.38001188815E+04 0.  0.
        4    1    3    3  502    0  0.73313111849E+03  0.81822832825E+03  0.20150336686E+04  0.22950688732E+04  0.12699999809E+01 0. -1.
       -4    1    3    3    0  502 -0.73313111849E+03 -0.81822832825E+03 -0.11625113304E+04  0.15995039982E+04  0.12699999809E+01 0.  1.
</event>
<event>
 5   0  0.5086209E-08  0.3795359E+04  0.7818609E-02  0.8047152E-01
        2   -1    0    0  501    0  0.00000000000E+00  0.00000000000E+00  0.21940108288E+04  0.21940108288E+04  0.25500000920E-02 0. -1.
       -2   -1    0    0    0  501  0.00000000000E+00  0.00000000000E+00 -0.16413719463E+04  0.16413719463E+04  0.25500000920E-02 0.  1.
    10030    2    1    2    0    0  0.00000000000E+00  0.00000000000E+00  0.55263888249E+03  0.38353827751E+04  0.37953591789E+04 0.  0.
        3    1    3    3  502    0 -0.62808855674E+03 -0.17659188913E+04  0.57647532498E+03  0.19609407376E+04  0.10100000352E+00 0. -1.
       -3    1    3    3    0  502  0.62808855674E+03  0.17659188913E+04 -0.23836442486E+02  0.18744420375E+04  0.10100000352E+00 0.  1.
</event>
<event>
 5   0  0.5140842E-08  0.3802730E+04  0.7818609E-02  0.8045569E-01
        2   -1    0    0  501    0  0.00000000000E+00  0.00000000000E+00  0.15512085215E+04  0.15512085215E+04  0.25500000920E-02 0.  1.
       -2   -1    0    0    0  501  0.00000000000E+00  0.00000000000E+00 -0.23305631878E+04  0.23305631878E+04  0.25500000920E-02 0. -1.
    10030    2    1    2    0    0  0.00000000000E+00  0.00000000000E+00 -0.77935466626E+03  0.38817717093E+04  0.38027303227E+04 0.  0.
        2    1    3    3  502    0  0.11163863533E+04  0.85661524474E+03  0.91560403806E+03  0.16788206938E+04  0.25500000920E-02 0.  1.
       -2    1    3    3    0  502 -0.11163863533E+04 -0.85661524474E+03 -0.16949587043E+04  0.22029510155E+04  0.25500000920E-02 0. -1.
</event>
<event>
 5   0  0.1628250E-08  0.3795929E+04  0.7818609E-02  0.8047029E-01
       -1   -1    0    0    0  501  0.00000000000E+00  0.00000000000E+00  0.12677164190E+04  0.12677164190E+04  0.50400001928E-02 0. -1.
        1   -1    0    0  501    0  0.00000000000E+00  0.00000000000E+00 -0.28415425015E+04  0.28415425015E+04  0.50400001928E-02 0.  1.
    10030    2    1    2    0    0  0.00000000000E+00  0.00000000000E+00 -0.15738260826E+04  0.41092589205E+04  0.37959294432E+04 0.  0.
        5    1    3    3  502    0  0.32236237257E+03 -0.48123933781E+03 -0.27435155538E+04  0.28039986597E+04  0.46999998093E+01 0.  1.
       -5    1    3    3    0  502 -0.32236237257E+03  0.48123933781E+03  0.11696894712E+04  0.13052602608E+04  0.46999998093E+01 0. -1.
</event>
<event>
 5   0  0.1628250E-08  0.3789095E+04  0.7818609E-02  0.8048499E-01
       -1   -1    0    0    0  501  0.00000000000E+00  0.00000000000E+00  0.21132441829E+04  0.21132441829E+04  0.50400001928E-02 0.  1.
        1   -1    0    0  501    0  0.00000000000E+00  0.00000000000E+00 -0.16984836202E+04  0.16984836202E+04  0.50400001928E-02 0. -1.
    10030    2    1    2    0    0  0.00000000000E+00  0.00000000000E+00  0.41476056270E+03  0.38117278030E+04  0.37890952113E+04 0.  0.
        1    1    3    3  502    0  0.15806260530E+04 -0.79411633809E+03 -0.47513457657E+03  0.18315983030E+04  0.50400001928E-02 0. -1.
       -1    1    3    3    0  502 -0.15806260530E+04  0.79411633809E+03  0.88989513926E+03  0.19801295000E+04  0.50400001928E-02 0.  1.
</event>
<event>
 5   0  0.5207474E-08  0.3792430E+04  0.7818609E-02  0.8047781E-01
        2   -1    0    0  501    0  0.00000000000E+00  0.00000000000E+00  0.20136855747E+04  0.20136855747E+04  0.25500000920E-02 0. -1.
       -2   -1    0    0    0  501  0.00000000000E+00  0.00000000000E+00 -0.17855974275E+04  0.17855974275E+04  0.25500000920E-02 0.  1.
    10030    2    1    2    0    0  0.00000000000E+00  0.00000000000E+00  0.22808814716E+03  0.37992830022E+04  0.37924302403E+04 0.  0.
        4    1    3    3  502    0 -0.16076861233E+04 -0.77331805424E+03 -0.52973260874E+03  0.18609926743E+04  0.12699999809E+01 0.  1.
       -4    1    3    3    0  502  0.16076861233E+04  0.77331805424E+03  0.75782075590E+03  0.19382903279E+04  0.12699999809E+01 0. -1.
</event>
<event>
 5   0  0.5207474E-08  0.3790176E+04  0.7818609E-02  0.8048266E-01
       -2   -1    0    0    0  501  0.00000000000E+00  0.00000000000E+00  0.17705274522E+04  0.17705274522E+04  0.25500000920E-02 0.  1.
        2   -1    0    0  501    0  0.00000000000E+00  0.00000000000E+00 -0.20284116164E+04  0.20284116164E+04  0.25500000920E-02 0. -1.
    10030    2    1    2    0    0  0.00000000000E+00  0.00000000000E+00 -0.25788416418E+03  0.37989390685E+04  0.37901759595E+04 0.  0.
        4    1    3    3  502    0  0.15655280685E+04  0.48215488474E+03  0.82615422158E+03  0.18346345349E+04  0.12699999809E+01 0.  1.
       -4    1    3    3    0  502 -0.15655280685E+04 -0.48215488474E+03 -0.10840383858E+04  0.19643045336E+04  0.12699999809E+01 0. -1.
</event>
<event>
 5   0  0.5159761E-08  0.3809351E+04  0.7818609E-02  0.8044151E-01
        2   -1    0    0  501    0  0.00000000000E+00  0.00000000000E+00  0.16960196630E+04  0.16960196630E+04  0.25500000920E-02 0. -1.
       -2   -1    0    0    0  501  0.00000000000E+00  0.00000000000E+00 -0.21390017707E+04  0.21390017708E+04  0.25500000920E-02 0.  1.
    10030    2    1    2    0    0  0.00000000000E+00  0.00000000000E+00 -0.44298210779E+03  0.38350214337E+04  0.38093511586E+04 0.  0.
        5    1    3    3  502    0 -0.12432795929E+04  0.81108240618E+03  0.97993604040E+03  0.17787342548E+04  0.46999998093E+01 0. -1.
       -5    1    3    3    0  502  0.12432795929E+04 -0.81108240618E+03 -0.14229181482E+04  0.20562871789E+04  0.46999998093E+01 0.  1.
</event>
<event>
 5   0  0.5086209E-08  0.3821904E+04  0.7818609E-02  0.8041471E-01
        2   -1    0    0  501    0  0.00000000000E+00  0.00000000000E+00  0.26562194005E+04  0.26562194005E+04  0.25500000920E-02 0. -1.
       -2   -1    0    0    0  501  0.00000000000E+00  0.00000000000E+00 -0.13747877116E+04  0.13747877116E+04  0.25500000920E-02 0.  1.
    10030    2    1    2    0    0  0.00000000000E+00  0.00000000000E+00  0.12814316889E+04  0.40310071120E+04  0.38219041281E+04 0.  0.
        3    1    3    3  502    0 -0.70049015055E+03  0.11480550294E+04  0.20725704316E+04  0.24706810814E+04  0.10100000352E+00 0. -1.
       -3    1    3    3    0  502  0.70049015055E+03 -0.11480550294E+04 -0.79113874278E+03  0.15603260307E+04  0.10100000352E+00 0.  1.
</event>
<event>
 5   0  0.5207474E-08  0.3802545E+04  0.7818609E-02  0.8045609E-01
       -2   -1    0    0    0  501  0.00000000000E+00  0.00000000000E+00  0.16050370117E+04  0.16050370117E+04  0.25500000920E-02 0. -1.
        2   -1    0    0  501    0  0.00000000000E+00  0.00000000000E+00 -0.22521829422E+04  0.22521829422E+04  0.25500000920E-02 0.  1.
    10030    2    1    2    0    0  0.00000000000E+00  0.00000000000E+00 -0.64714593051E+03  0.38572199540E+04  0.38025449265E+04 0.  0.
        4    1    3    3  502    0  0.93391305747E+03  0.16420661273E+04 -0.54174831837E+03  0.19652143951E+04  0.12699999809E+01 0.  1.
       -4    1    3    3    0  502 -0.93391305747E+03 -0.16420661273E+04 -0.10539761213E+03  0.18920055589E+04  0.12699999809E+01 0. -1.
</event>
<event>
 5   0  0.1628250E-08  0.3808180E+04  0.7818609E-02  0.8044402E-01
        1   -1    0    0  501    0  0.00000000000E+00  0.00000000000E+00  0.16780395049E+04  0.16780395049E+04  0.50400001928E-02 0.  1.
       -1   -1    0    0    0  501  0.00000000000E+00  0.00000000000E+00 -0.21605923346E+04  0.21605923346E+04  0.50400001928E-02 0. -1.
    10030    2    1    2    0    0  0.00000000000E+00  0.00000000000E+00 -0.48255282970E+03  0.38386318396E+04  0.38081802959E+04 0.  0.
        5    1    3    3  502    0  0.13637098001E+04  0.10593818470E+04 -0.10499024240E+04  0.20209679628E+04  0.46999998093E+01 0. -1.
       -5    1    3    3    0  502 -0.13637098001E+04 -0.10593818470E+04  0.56734959433E+03  0.18176638768E+04  0.46999998093E+01 0.  1.
</event>
<event>
 5   0  0.1666051E-08  0.3801566E+04  0.7818609E-02  0.8045819E-01
        1   -1    0    0  501    0  0.00000000000E+00  0.00000000000E+00  0.23260601573E+04  0.23260601573E+04  0.50400001928E-02 0. -1.
       -1   -1    0    0    0  501  0.00000000000E+00  0.00000000000E+00 -0.15532596830E+04  0.15532596831E+04  0.50400001928E-02 0.  1.
    10030    2    1    2    0    0  0.00000000000E+00  0.00000000000E+00  0.77280047429E+03  0.38793198404E+04  0.38015657105E+04 0.  0.
        2    1    3    3  502    0  0.32366540592E+03 -0.56658002169E+03 -0.14353883014E+04  0.15767408765E+04  0.25500000920E-02 0.  1.
       -2    1    3    3    0  502 -0.32366540592E+03  0.56658002169E+03  0.22081887757E+04  0.23025789639E+04  0.25500000920E-02 0. -1.
</event>
<event>
 5   0  0.5207474E-08  0.3801031E+04  0.7818609E-02  0.8045934E-01
       -2   -1    0    0    0  501  0.00000000000E+00  0.00000000000E+00  0.17125937366E+04  0.17125937366E+04  0.25500000920E-02 0.  1.
        2   -1    0    0  501    0  0.00000000000E+00  0.00000000000E+00 -0.21090577389E+04  0.21090577389E+04  0.25500000920E-02 0. -1.
    10030    2    1    2    0    0  0.00000000000E+00  0.00000000000E+00 -0.39646400227E+03  0.38216514755E+04  0.38010309516E+04 0.  0.
        4    1    3    3  502    0  0.60989455169E+03 -0.38005371364E+03 -0.19671929754E+04  0.20943404701E+04  0.12699999809E+01 0. -1.
       -4    1    3    3    0  502 -0.60989455169E+03  0.38005371364E+03  0.15707289731E+04  0.17273110054E+04  0.12699999809E+01 0.  1.
</event>
<event>
 5   0  0.5086209E-08  0.3796650E+04  0.7818609E-02  0.8046874E-01
       -2   -1    0    0    0  501  0.00000000000E+00  0.00000000000E+00  0.20197194332E+04  0.20197194332E+04  0.25500000920E-02 0.  1.
        2   -1    0    0  501    0  0.00000000000E+00  0.00000000000E+00 -0.17842270610E+04  0.17842270610E+04  0.25500000920E-02 0. -1.
    10030    2    1    2    0    0  0.00000000000E+00  0.00000000000E+00  0.23549237218E+03  0.38039464942E+04  0.37966501384E+04 0.  0.
        3    1    3    3  502    0  0.12373794577E+04 -0.11325505405E+02 -0.13246043107E+04  0.18126811026E+04  0.10100000352E+00 0. -1.
       -3    1    3    3    0  502 -0.12373794577E+04  0.11325505405E+02  0.15600966829E+04  0.19912653916E+04  0.10100000352E+00 0.  1.
</event>
<event>
 5   0  0.5140842E-08  0.3800727E+04  0.7818609E-02  0.8045999E-01
        2   -1    0    0  501    0  0.00000000000E+00  0.00000000000E+00  0.24392091881E+04  0.24392091881E+04  0.25500000920E-02 0. -1.
       -2   -1    0    0    0  501  0.00000000000E+00  0.00000000000E+00 -0.14805541598E+04  0.14805541598E+04  0.25500000920E-02 0.  1.
    10030    2    1    2    0    0  0.00000000000E+00  0.00000000000E+00  0.95865502825E+03  0.39197633479E+04  0.38007269358E+04 0.  0.
        2    1    3    3  502    0  0.12399265842E+04  0.11690361945E+04 -0.38803461873E+03  0.17477512476E+04  0.25500000920E-02 0. -1.
       -2    1    3    3    0  502 -0.12399265842E+04 -0.11690361945E+04  0.13466896470E+04  0.21720121002E+04  0.25500000920E-02 0.  1.
</event>
<event>
 5   0  0.5207474E-08  0.3798137E+04  0.7818609E-02  0.8046555E-01
       -2   -1    0    0    0  501  0.00000000000E+00  0.00000000000E+00  0.23386060705E+04  0.23386060705E+04  0.25500000920E-02 0.  1.
        2   -1    0    0  501    0  0.00000000000E+00  0.00000000000E+00 -0.15421414876E+04  0.15421414876E+04  0.25500000920E-02 0. -1.
    10030    2    1    2    0    0  0.00000000000E+00  0.00000000000E+00  0.79646458289E+03  0.38807475582E+04  0.37981371458E+04 0.  0.
        4    1    3    3  502    0  0.46435389751E+03 -0.40004081984E+03 -0.14383059014E+04  0.15634521670E+04  0.12699999809E+01 0. -1.
       -4    1    3    3    0  502 -0.46435389751E+03  0.40004081984E+03  0.22347704843E+04  0.23172953912E+04  0.12699999809E+01 0.  1.
</event>
<event>
 5   0  0.1628250E-08  0.3784196E+04  0.7818609E-02  0.8049555E-01
        1   -1    0    0  501    0  0.00000000000E+00  0.00000000000E+00  0.22137458428E+04  0.22137458428E+04  0.50400001928E-02 0.  1.
       -1   -1    0    0    0  501  0.00000000000E+00  0.00000000000E+00 -0.16171840012E+04  0.16171840012E+04  0.50400001928E-02 0. -1.
    10030    2    1    2    0    0  0.00000000000E+00  0.00000000000E+00  0.59656184154E+03  0.38309298440E+04  0.37841957453E+04 0.  0.
        1    1    3    3  502    0 -0.13817522355E+04  0.90139024984E+03  0.12361620948E+04  0.20615140910E+04  0.50400001928E-02 0.  1.
       -1    1    3    3    0  502  0.13817522355E+04 -0.90139024984E+03 -0.63960025321E+03  0.17694157530E+04  0.50400001928E-02 0. -1.
</event>
<event>
 5   0  0.5140842E-08  0.3801389E+04  0.7818609E-02  0.8045857E-01
       -2   -1    0    0    0  501  0.00000000000E+00  0.00000000000E+00  0.16768771759E+04  0.16768771759E+04  0.25500000920E-02 0. -1.
        2   -1    0    0  501    0  0.00000000000E+00  0.00000000000E+00 -0.21543849305E+04  0.21543849305E+04  0.25500000920E-02 0.  1.
    10030    2    1    2    0    0  0.00000000000E+00  0.00000000000E+00 -0.47750775461E+03  0.38312621065E+04  0.38013886506E+04 0.  0.
        2    1    3    3  502    0 -0.13504579200E+04 -0.11282271021E+04  0.48522673621E+03  0.18253980314E+04  0.25500000920E-02 0. -1.
       -2    1    3    3    0  502  0.13504579200E+04  0.11282271021E+04 -0.96273449082E+03  0.20058640750E+04  0.25500000920E-02 0.  1.
</event>
<event>
 5   0  0.1628250E-08  0.3773359E+04  0.7818609E-02  0.8051896E-01
        1   -1    0    0  501    0  0.00000000000E+00  0.00000000000E+00  0.25669281299E+04  0.25669281299E+04  0.50400001928E-02 0.  1.
       -1   -1    0    0    0  501  0.00000000000E+00  0.00000000000E+00 -0.13867002810E+04  0.13867002810E+04  0.50400001928E-02 0. -1.
    10030    2    1    2    0    0  0.00000000000E+00  0.00000000000E+00  0.11802278489E+04  0.39536284109E+04  0.37733592244E+04 0.  0.
        5    1    3    3  502    0  0.93844214183E+03 -0.88384863631E+03  0.20334873561E+04  0.24076866455E+04  0.46999998093E+01 0.  1.
       -5    1    3    3    0  502 -0.93844214183E+03  0.88384863631E+03 -0.85325950723E+03  0.15459417654E+04  0.46999998093E+01 0. -1.
</event>
<event>
 5   0  0.1628473E-08  0.3799006E+04  0.7818609E-02  0.8046368E-01
       -1   -1    0    0    0  501  0.00000000000E+00  0.00000000000E+00  0.23719042992E+04  0.23719042992E+04  0.50400001928E-02 0. -1.
        1   -1    0    0  501    0  0.00000000000E+00  0.00000000000E+00 -0.15211876477E+04  0.15211876477E+04  0.50400001928E-02 0.  1.
    10030    2    1    2    0    0  0.00000000000E+00  0.00000000000E+00  0.85071665144E+03  0.38930919469E+04  0.37990059339E+04 0.  0.
        3    1    3    3  502    0  0.14697642469E+04  0.38305500938E+03 -0.74358184165E+03  0.16911097088E+04  0.10100000352E+00 0.  1.
       -3    1    3    3    0  502 -0.14697642469E+04 -0.38305500938E+03  0.15942984931E+04  0.22019822381E+04  0.10100000352E+00 0. -1.
</event>
<event>
 5   0  0.5159761E-08  0.3799564E+04  0.7818609E-02  0.8046249E-01
       -2   -1    0    0    0  501  0.00000000000E+00  0.00000000000E+00  0.15823664837E+04  0.15823664837E+04  0.25500000920E-02 0.  1.
        2   -1    0    0  501    0  0.00000000000E+00  0.00000000000E+00 -0.22808692695E+04  0.22808692695E+04  0.25500000920E-02 0. -1.
    10030    2    1    2    0    0  0.00000000000E+00  0.00000000000E+00 -0.69850278586E+03  0.38632357532E+04  0.37995637043E+04 0.  0.
        5    1    3    3  502    0  0.16655896476E+04 -0.81614265620E+03 -0.76707732133E+03  0.20071640233E+04  0.46999998093E+01 0. -1.
       -5    1    3    3    0  502 -0.16655896476E+04  0.81614265620E+03  0.68574535470E+02  0.18560717299E+04  0.46999998093E+01 0.  1.
</event>
<event>
 5   0  0.1628250E-08  0.3797340E+04  0.7818609E-02  0.8046726E-01
        1   -1    0    0  501    0  0.00000000000E+00  0.00000000000E+00  0.18310501170E+04  0.18310501170E+04  0.50400001928E-02 0.  1.
       -1   -1    0    0    0  501  0.00000000000E+00  0.00000000000E+00 -0.19687872831E+04  0.19687872831E+04  0.50400001928E-02 0. -1.
    10030    2    1    2    0    0  0.00000000000E+00  0.00000000000E+00 -0.13773716609E+03  0.37998374001E+04  0.37973402192E+04 0.  0.
        5    1    3    3  502    0  0.67373347668E+03 -0.15612323989E+04  0.77641332213E+03  0.18692787747E+04  0.46999998093E+01 0.  1.
       -5    1    3    3    0  502 -0.67373347668E+03  0.15612323989E+04 -0.91415048823E+03  0.19305586254E+04  0.46999998093E+01 0. -1.
</event>
<event>
 5   0  0.5086209E-08  0.3786695E+04  0.7818609E-02  0.8049016E-01
        2   -1    0    0  501    0  0.00000000000E+00  0.00000000000E+00  0.24063463906E+04  0.24063463906E+04  0.25500000920E-02 0. -1.
       -2   -1    0    0    0  501  0.00000000000E+00  0.00000000000E+00 -0.14897124539E+04  0.14897124539E+04  0.25500000920E-02 0.  1.
    10030    2    1    2    0    0  0.00000000000E+00  0.00000000000E+00  0.91663393666E+03  0.38960588445E+04  0.37866946993E+04 0.  0.
        3    1    3    3  502    0 -0.12550240992E+04  0.75074529377E+03  0.16955696423E+04  0.22391204541E+04  0.10100000352E+00 0. -1.
       -3    1    3    3    0  502  0.12550240992E+04 -0.75074529377E+03 -0.77893570565E+03  0.16569383904E+04  0.10100000352E+00 0.  1.
</event>
<event>
 5   0  0.1628250E-08  0.3775780E+04  0.7818609E-02  0.8051372E-01
       -1   -1    0    0    0  501  0.00000000000E+00  0.00000000000E+00  0.15127878004E+04  0.15127878004E+04  0.50400001928E-02 0. -1.
        1   -1    0    0  501    0  0.00000000000E+00  0.00000000000E+00 -0.23560006746E+04  0.23560006746E+04  0.50400001928E-02 0.  1.
    10030    2    1    2    0    0  0.00000000000E+00  0.00000000000E+00 -0.84321287421E+03  0.38687884749E+04  0.37757802257E+04 0.  0.
        1    1    3    3  502    0  0.20999233009E+03 -0.13446730726E+04 -0.17622266943E+04  0.22265860354E+04  0.50400001928E-02 0.  1.
       -1    1    3    3    0  502 -0.20999233009E+03  0.13446730726E+04  0.91901382006E+03  0.16422024396E+04  0.50400001928E-02 0. -1.
</event>
<event>
 5   0  0.1628250E-08  0.3802490E+04  0.7818609E-02  0.8045621E-01
        1   -1    0    0  501    0  0.00000000000E+00  0.00000000000E+00  0.12523604356E+04  0.12523604356E+04  0.50400001928E-02 0.  1.
       -1   -1    0    0    0  501  0.00000000000E+00  0.00000000000E+00 -0.28863363187E+04  0.28863363187E+04  0.50400001928E-02 0. -1.
    10030    2    1    2    0    0  0.00000000000E+00  0.00000000000E+00 -0.16339758831E+04  0.41386967544E+04  0.38024904521E+04 0.  0.
        5    1    3    3  502    0  0.10283815623E+04 -0.14628936317E+04 -0.11406501256E+03  0.17918312790E+04  0.46999998093E+01 0.  1.
       -5    1    3    3    0  502 -0.10283815623E+04  0.14628936317E+04 -0.15199108705E+04  0.23468654754E+04  0.46999998093E+01 0. -1.
</event>
<event>
 5   0  0.5086209E-08  0.3802633E+04  0.7818609E-02  0.8045590E-01
        2   -1    0    0  501    0  0.00000000000E+00  0.00000000000E+00  0.26505824685E+04  0.26505824685E+04  0.25500000920E-02 0.  1.
       -2   -1    0    0    0  501  0.00000000000E+00  0.00000000000E+00 -0.13638526716E+04  0.13638526716E+04  0.25500000920E-02 0. -1.
    10030    2    1    2    0    0  0.00000000000E+00  0.00000000000E+00  0.12867297968E+04  0.40144351401E+04  0.38026327622E+04 0.  0.
        3    1    3    3  502    0  0.13013415783E+04  0.61627016254E+03  0.19541863472E+04  0.24273695859E+04  0.10100000352E+00 0.  1.
       -3    1    3    3    0  502 -0.13013415783E+04 -0.61627016254E+03 -0.66745655038E+03  0.15870655542E+04  0.10100000352E+00 0. -1.
</event>
<event>
 5   0  0.5159761E-08  0.3796333E+04  0.7818609E-02  0.8046942E-01
       -2   -1    0    0    0  501  0.00000000000E+00  0.00000000000E+00  0.14251890830E+04  0.14251890830E+04  0.25500000920E-02 0.  1.
        2   -1    0    0  501    0  0.00000000000E+00  0.00000000000E+00 -0.25281113094E+04  0.25281113094E+04  0.25500000920E-02 0. -1.
    10030    2    1    2    0    0  0.00000000000E+00  0.00000000000E+00 -0.11029222264E+04  0.39533003923E+04  0.37963333040E+04 0.  0.
        5    1    3    3  502    0  0.10873973417E+04 -0.13495455910E+04 -0.13576199431E+04  0.22015586026E+04  0.46999998093E+01 0. -1.
       -5    1    3    3    0  502 -0.10873973417E+04  0.13495455910E+04  0.25469771668E+03  0.17517417897E+04  0.46999998093E+01 0.  1.
</event>
<event>
 5   0  0.5159761E-08  0.3798075E+04  0.7818609E-02  0.8046568E-01
        2   -1    0    0  501    0  0.00000000000E+00  0.00000000000E+00  0.18306094684E+04  0.18306094684E+04  0.25500000920E-02 0.  1.
       -2   -1    0    0    0  501  0.00000000000E+00  0.00000000000E+00 -0.19700233120E+04  0.19700233120E+04  0.25500000920E-02 0. -1.
    10030    2    1    2    0    0  0.00000000000E+00  0.00000000000E+00 -0.13941384358E+03  0.38006327803E+04  0.37980749481E+04 0.  0.
        5    1    3    3  502    0  0.16261899674E+03 -0.18376772969E+04 -0.52036391147E+03  0.19168472751E+04  0.46999998093E+01 0.  1.
       -5    1    3    3    0  502 -0.16261899674E+03  0.18376772969E+04  0.38095006788E+03  0.18837855053E+04  0.46999998093E+01 0. -1.
</event>
<event>
 5   0  0.1628250E-08  0.3807829E+04  0.7818609E-02  0.8044477E-01
       -1   -1    0    0    0  501  0.00000000000E+00  0.00000000000E+00  0.16106699894E+04  0.16106699894E+04  0.50400001928E-02 0. -1.
        1   -1    0    0  501    0  0.00000000000E+00  0.00000000000E+00 -0.22505482148E+04  0.22505482149E+04  0.50400001928E-02 0.  1.
    10030    2    1    2    0    0  0.00000000000E+00  0.00000000000E+00 -0.63987822546E+03  0.38612182043E+04  0.38078290242E+04 0.  0.
        4    1    3    3  502    0 -0.10147025262E+04  0.71878698509E+03 -0.17818931380E+04  0.21728830421E+04  0.12699999809E+01 0.  1.
       -4    1    3    3    0  502  0.10147025262E+04 -0.71878698509E+03  0.11420149125E+04  0.16883351622E+04  0.12699999809E+01 0. -1.
</event>
<event>
 5   0  0.1628250E-08  0.3800237E+04  0.7818609E-02  0.8046104E-01
        1   -1    0    0  501    0  0.00000000000E+00  0.00000000000E+00  0.15104707313E+04  0.15104707313E+04  0.50400001928E-02 0. -1.
       -1   -1    0    0    0  501  0.00000000000E+00  0.00000000000E+00 -0.23902816028E+04  0.23902816028E+04  0.50400001928E-02 0.  1.
    10030    2    1    2    0    0  0.00000000000E+00  0.00000000000E+00 -0.87981087145E+03  0.39007523341E+04  0.38002370455E+04 0.  0.
        4    1    3    3  502    0 -0.75478510677E+03 -0.50851969181E+03  0.12721917962E+04  0.15642143119E+04  0.12699999809E+01 0. -1.
       -4    1    3    3    0  502  0.75478510677E+03  0.50851969181E+03 -0.21520026677E+04  0.23365380222E+04  0.12699999809E+01 0.  1.
</event>
<event>
 5   0  0.1628473E-08  0.3799263E+04  0.7818609E-02  0.8046313E-01
       -1   -1    0    0    0  501  0.00000000000E+00  0.00000000000E+00  0.19183649129E+04  0.19183649129E+04  0.50400001928E-02 0. -1.
        1   -1    0    0  501    0  0.00000000000E+00  0.00000000000E+00 -0.18810810309E+04  0.18810810309E+04  0.50400001928E-02 0.  1.
    10030    2    1    2    0    0  0.00000000000E+00  0.00000000000E+00  0.37283881962E+02  0.37994459438E+04  0.37992630065E+04 0.  0.
        3    1    3    3  502    0  0.17059385216E+04 -0.53887958788E+03  0.65740768713E+03  0.19059911666E+04  0.10100000352E+00 0. -1.
       -3    1    3    3    0  502 -0.17059385216E+04  0.53887958788E+03 -0.62012380516E+03  0.18934547773E+04  0.10100000352E+00 0.  1.
</event>
<event>
 5   0  0.1628250E-08  0.3752053E+04  0.7818609E-02  0.8056523E-01
       -1   -1    0    0    0  501  0.00000000000E+00  0.00000000000E+00  0.17212845667E+04  0.17212845667E+04  0.50400001928E-02 0. -1.
        1   -1    0    0  501    0  0.00000000000E+00  0.00000000000E+00 -0.20446796668E+04  0.20446796668E+04  0.50400001928E-02 0.  1.
    10030    2    1    2    0    0  0.00000000000E+00  0.00000000000E+00 -0.32339510016E+03  0.37659642335E+04  0.37520530670E+04 0.  0.
        1    1    3    3  502    0  0.19017555315E+03 -0.33861972302E+03  0.16804943730E+04  0.17247873479E+04  0.50400001928E-02 0. -1.
       -1    1    3    3    0  502 -0.19017555315E+03  0.33861972302E+03 -0.20038894731E+04  0.20411768856E+04  0.50400001928E-02 0.  1.
</event>
<event>
 5   0  0.5086209E-08  0.3801746E+04  0.7818609E-02  0.8045780E-01
       -2   -1    0    0    0  501  0.00000000000E+00  0.00000000000E+00  0.22588111234E+04  0.22588111234E+04  0.25500000920E-02 0. -1.
        2   -1    0    0  501    0  0.00000000000E+00  0.00000000000E+00 -0.15996549001E+04  0.15996549001E+04  0.25500000920E-02 0.  1.
    10030    2    1    2    0    0  0.00000000000E+00  0.00000000000E+00  0.65915622335E+03  0.38584660235E+04  0.38017460631E+04 0.  0.
        3    1    3    3  502    0 -0.13684266440E+04 -0.11826429021E+04 -0.26402619216E+03  0.18278253620E+04  0.10100000352E+00 0.  1.
       -3    1    3    3    0  502  0.13684266440E+04  0.11826429021E+04  0.92318241551E+03  0.20306406615E+04  0.10100000352E+00 0. -1.
</event>
<event>
 5   0  0.5159761E-08  0.3806121E+04  0.7818609E-02  0.8044843E-01
        2   -1    0    0  501    0  0.00000000000E+00  0.00000000000E+00  0.18671876193E+04  0.18671876193E+04  0.25500000920E-02 0.  1.
       -2   -1    0    0    0  501  0.00000000000E+00  0.00000000000E+00 -0.19396221659E+04  0.19396221659E+04  0.25500000920E-02 0. -1.
    10030    2    1    2    0    0  0.00000000000E+00  0.00000000000E+00 -0.72434546533E+02  0.38068097852E+04  0.38061205941E+04 0.  0.
        5    1    3    3  502    0  0.60787066458E+03  0.25169560947E+03  0.17498157302E+04  0.18694209275E+04  0.46999998093E+01 0.  1.
       -5    1    3    3    0  502 -0.60787066458E+03 -0.25169560947E+03 -0.18222502767E+04  0.19373888576E+04  0.46999998093E+01 0. -1.
</event>
<event>
 5   0  0.5159761E-08  0.3810973E+04  0.7818609E-02  0.8043804E-01
        2   -1    0    0  501    0  0.00000000000E+00  0.00000000000E+00  0.23799487137E+04  0.23799487137E+04  0.25500000920E-02 0. -1.
       -2   -1    0    0    0  501  0.00000000000E+00  0.00000000000E+00 -0.15256123536E+04  0.15256123536E+04  0.25500000920E-02 0.  1.
    10030    2    1    2    0    0  0.00000000000E+00  0.00000000000E+00  0.85433636018E+03  0.39055610673E+04  0.38109731873E+04 0.  0.
        5    1    3    3  502    0  0.17495931117E+04  0.62439554639E+03 -0.75188239481E+01  0.18576933217E+04  0.46999998093E+01 0. -1.
       -5    1    3    3    0  502 -0.17495931117E+04 -0.62439554639E+03  0.86185518413E+03  0.20478677456E+04  0.46999998093E+01 0.  1.
</event>
<event>
 5   0  0.1628250E-08  0.3799646E+04  0.7818609E-02  0.8046231E-01
        1   -1    0    0  501    0  0.00000000000E+00  0.00000000000E+00  0.24037683361E+04  0.24037683361E+04  0.50400001928E-02 0. -1.
       -1   -1    0    0    0  501  0.00000000000E+00  0.00000000000E+00 -0.15015286671E+04  0.15015286671E+04  0.50400001928E-02 0.  1.
    10030    2    1    2    0    0  0.00000000000E+00  0.00000000000E+00  0.90223966900E+03  0.39052970031E+04  0.37996458075E+04 0.  0.
        1    1    3    3  502    0  0.34659228899E+03 -0.15434360814E+04  0.15325187353E+04  0.22024837857E+04  0.50400001928E-02 0. -1.
       -1    1    3    3    0  502 -0.34659228899E+03  0.15434360814E+04 -0.63027906629E+03  0.17028132175E+04  0.50400001928E-02 0.  1.
</event>
<event>
 5   0  0.5147582E-08  0.3802708E+04  0.7818609E-02  0.8045574E-01
        2   -1    0    0  501    0  0.00000000000E+00  0.00000000000E+00  0.22826537009E+04  0.22826537009E+04  0.25500000920E-02 0.  1.
       -2   -1    0    0    0  501  0.00000000000E+00  0.00000000000E+00 -0.15837474630E+04  0.15837474630E+04  0.25500000920E-02 0. -1.
    10030    2    1    2    0    0  0.00000000000E+00  0.00000000000E+00  0.69890623781E+03  0.38664011639E+04  0.38027079865E+04 0.  0.
        1    1    3    3  502    0 -0.17863271164E+04  0.25149948305E+03 -0.26138439117E+03  0.18227831348E+04  0.50400001928E-02 0. -1.
       -1    1    3    3    0  502  0.17863271164E+04 -0.25149948305E+03  0.96029062898E+03  0.20436180291E+04  0.50400001928E-02 0.  1.
</event>
<event>
 5   0  0.5147582E-08  0.3802617E+04  0.7818609E-02  0.8045594E-01
       -2   -1    0    0    0  501  0.00000000000E+00  0.00000000000E+00  0.19087050581E+04  0.19087050581E+04  0.25500000920E-02 0. -1.
        2   -1    0    0  501    0  0.00000000000E+00  0.00000000000E+00 -0.18939405994E+04  0.18939405994E+04  0.25500000920E-02 0.  1.
    10030    2    1    2    0    0  0.00000000000E+00  0.00000000000E+00  0.14764458682E+02  0.38026456574E+04  0.38026169945E+04 0.  0.
        1    1    3    3  502    0 -0.44154405653E+03 -0.10450336707E+04 -0.15183807173E+04  0.18953987785E+04  0.50400001928E-02 0.  1.
       -1    1    3    3    0  502  0.44154405653E+03  0.10450336707E+04  0.15331451760E+04  0.19072468790E+04  0.50400001928E-02 0. -1.
</event>
<event>
 5   0  0.1628473E-08  0.3807447E+04  0.7818609E-02  0.8044559E-01
       -1   -1    0    0    0  501  0.00000000000E+00  0.00000000000E+00  0.18534571036E+04  0.18534571036E+04  0.50400001928E-02 0. -1.
        1   -1    0    0  501    0  0.00000000000E+00  0.00000000000E+00 -0.19553529277E+04  0.19553529277E+04  0.50400001928E-02 0.  1.
    10030    2    1    2    0    0  0.00000000000E+00  0.00000000000E+00 -0.10189582416E+03  0.38088100313E+04  0.38074467948E+04 0.  0.
        3    1    3    3  502    0  0.81624606297E+03  0.42695403981E+03  0.16156664168E+04  0.18598186385E+04  0.10100000352E+00 0. -1.
       -3    1    3    3    0  502 -0.81624606297E+03 -0.42695403981E+03 -0.17175622410E+04  0.19489913928E+04  0.10100000352E+00 0.  1.
</event>
<event>
 5   0  0.5207474E-08  0.3795735E+04  0.7818609E-02  0.8047071E-01
        2   -1    0    0  501    0  0.00000000000E+00  0.00000000000E+00  0.14280258452E+04  0.14280258452E+04  0.25500000920E-02 0. -1.
       -2   -1    0    0    0  501  0.00000000000E+00  0.00000000000E+00 -0.25222936333E+04  0.25222936333E+04  0.25500000920E-02 0.  1.
    10030    2    1    2    0    0  0.00000000000E+00  0.00000000000E+00 -0.10942677880E+04  0.39503194785E+04  0.37957347102E+04 0.  0.
        4    1    3    3  502    0 -0.96411939761E+03  0.81368034232E+03 -0.20227265267E+04  0.23839098403E+04  0.12699999809E+01 0.  1.
       -4    1    3    3    0  502  0.96411939761E+03 -0.81368034232E+03  0.92845873863E+03  0.15664096382E+04  0.12699999809E+01 0. -1.
</event>
<event>
 5   0  0.1666051E-08  0.3798439E+04  0.7818609E-02  0.8046490E-01
       -1   -1    0    0    0  501  0.00000000000E+00  0.00000000000E+00  0.17058420195E+04  0.17058420195E+04  0.50400001928E-02 0.  1.
        1   -1    0    0  501    0  0.00000000000E+00  0.00000000000E+00 -0.21145184098E+04  0.21145184098E+04  0.50400001928E-02 0. -1.
    10030    2    1    2    0    0  0.00000000000E+00  0.00000000000E+00 -0.40867639037E+03  0.38203604293E+04  0.37984388132E+04 0.  0.
        2    1    3    3  502    0  0.17181295684E+04 -0.41459666757E+03 -0.90345753402E+03  0.19849672860E+04  0.25500000920E-02 0. -1.
       -2    1    3    3    0  502 -0.17181295684E+04  0.41459666757E+03  0.49478114365E+03  0.18353931433E+04  0.25500000920E-02 0.  1.
</event>
<event>
 5   0  0.5140842E-08  0.3790239E+04  0.7818609E-02  0.8048253E-01
       -2   -1    0    0    0  501  0.00000000000E+00  0.00000000000E+00  0.10963066290E+04  0.10963066290E+04  0.25500000920E-02 0. -1.
        2   -1    0    0  501    0  0.00000000000E+00  0.00000000000E+00 -0.32759786287E+04  0.32759786287E+04  0.25500000920E-02 0.  1.
    10030    2    1    2    0    0  0.00000000000E+00  0.00000000000E+00 -0.21796719997E+04  0.43722852578E+04  0.37902385610E+04 0.  0.
        2    1    3    3  502    0  0.92604079565E+03  0.22690950470E+03 -0.29791613751E+04  0.31280092675E+04  0.25500000920E-02 0.  1.
       -2    1    3    3    0  502 -0.92604079565E+03 -0.22690950470E+03  0.79948937542E+03  0.12442759903E+04  0.25500000920E-02 0. -1.
</event>
<event>
 5   0  0.1628473E-08  0.3788622E+04  0.7818609E-02  0.8048601E-01
       -1   -1    0    0    0  501  0.00000000000E+00  0.00000000000E+00  0.16438257233E+04  0.16438257234E+04  0.50400001928E-02 0. -1.
        1   -1    0    0  501    0  0.00000000000E+00  0.00000000000E+00 -0.21829652829E+04  0.21829652829E+04  0.50400001928E-02 0.  1.
    10030    2    1    2    0    0  0.00000000000E+00  0.00000000000E+00 -0.53913955957E+03  0.38267910063E+04  0.37886221692E+04 0.  0.
        3    1    3    3  502    0  0.13950097807E+04 -0.87712446313E+03 -0.12133356488E+04  0.20463584776E+04  0.10100000352E+00 0.  1.
       -3    1    3    3    0  502 -0.13950097807E+04  0.87712446313E+03  0.67419608919E+03  0.17804325286E+04  0.10100000352E+00 0. -1.
</event>
<event>
 5   0  0.5140842E-08  0.3806258E+04  0.7818609E-02  0.8044813E-01
       -2   -1    0    0    0  501  0.00000000000E+00  0.00000000000E+00  0.19751199276E+04  0.19751199276E+04  0.25500000920E-02 0.  1.
        2   -1    0    0  501    0  0.00000000000E+00  0.00000000000E+00 -0.18337619226E+04  0.18337619226E+04  0.25500000920E-02 0. -1.
    10030    2    1    2    0    0  0.00000000000E+00  0.00000000000E+00  0.14135800496E+03  0.38088818502E+04  0.38062578556E+04 0.  0.
        2    1    3    3  502    0 -0.71468683312E+03 -0.17599105045E+04 -0.47034835697E+02  0.19000722432E+04  0.25500000920E-02 0.  1.
       -2    1    3    3    0  502  0.71468683312E+03  0.17599105045E+04  0.18839284065E+03  0.19088096070E+04  0.25500000920E-02 0. -1.
</event>
<event>
 5   0  0.5159761E-08  0.3786230E+04  0.7818609E-02  0.8049116E-01
       -2   -1    0    0    0  501  0.00000000000E+00  0.00000000000E+00  0.22655392216E+04  0.22655392216E+04  0.25500000920E-02 0.  1.
        2   -1    0    0  501    0  0.00000000000E+00  0.00000000000E+00 -0.15819126682E+04  0.15819126682E+04  0.25500000920E-02 0. -1.
    10030    2    1    2    0    0  0.00000000000E+00  0.00000000000E+00  0.68362655336E+03  0.38474518898E+04  0.37862304182E+04 0.  0.
        5    1    3    3  502    0 -0.17469017536E+04  0.67465609539E+03  0.59770819843E+02  0.18736118127E+04  0.46999998093E+01 0. -1.
       -5    1    3    3    0  502  0.17469017536E+04 -0.67465609539E+03  0.62385573352E+03  0.19738400771E+04  0.46999998093E+01 0.  1.
</event>
<event>
 5   0  0.5159761E-08  0.3799478E+04  0.7818609E-02  0.8046267E-01
        2   -1    0    0  501    0  0.00000000000E+00  0.00000000000E+00  0.20213402886E+04  0.20213402886E+04  0.25500000920E-02 0.  1.
       -2   -1    0    0    0  501  0.00000000000E+00  0.00000000000E+00 -0.17854530044E+04  0.17854530044E+04  0.25500000920E-02 0. -1.
    10030    2    1    2    0    0  0.00000000000E+00  0.00000000000E+00  0.23588728421E+03  0.38067932930E+04  0.37994779069E+04 0.  0.
        5    1    3    3  502    0  0.35642317988E+03 -0.79172737088E+02 -0.17499634739E+04  0.17876521070E+04  0.46999998093E+01 0. -1.
       -5    1    3    3    0  502 -0.35642317988E+03  0.79172737088E+02  0.19858507581E+04  0.20191411860E+04  0.46999998093E+01 0.  1.
</event>
<event>
 5   0  0.5159761E-08  0.3797255E+04  0.7818609E-02  0.8046744E-01
       -2   -1    0    0    0  501  0.00000000000E+00  0.00000000000E+00  0.22877933766E+04  0.22877933766E+04  0.25500000920E-02 0. -1.
        2   -1    0    0  501    0  0.00000000000E+00  0.00000000000E+00 -0.15756612104E+04  0.15756612104E+04  0.25500000920E-02 0.  1.
    10030    2    1    2    0    0  0.00000000000E+00  0.00000000000E+00  0.71213216627E+03  0.38634545870E+04  0.37972554725E+04 0.  0.
        5    1    3    3  502    0  0.13868183233E+04  0.84422170949E+03  0.13574965074E+04  0.21163161896E+04  0.46999998093E+01 0. -1.
       -5    1    3    3    0  502 -0.13868183233E+04 -0.84422170949E+03 -0.64536434117E+03  0.17471383974E+04  0.46999998093E+01 0.  1.
</event>
<event>
 5   0  0.1628473E-08  0.3797928E+04  0.7818609E-02  0.8046600E-01
        1   -1    0    0  501    0  0.00000000000E+00  0.00000000000E+00  0.17297379455E+04  0.17297379455E+04  0.50400001928E-02 0. -1.
       -1   -1    0    0    0  501  0.00000000000E+00  0.00000000000E+00 -0.20847463319E+04  0.20847463319E+04  0.50400001928E-02 0.  1.
    10030    2    1    2    0    0  0.00000000000E+00  0.00000000000E+00 -0.35500838643E+03  0.38144842774E+04  0.37979282969E+04 0.  0.
        3    1    3    3  502    0  0.11849284315E+04  0.10465845023E+04  0.87906562120E+03  0.18089087553E+04  0.10100000352E+00 0. -1.
       -3    1    3    3    0  502 -0.11849284315E+04 -0.10465845023E+04 -0.12340740076E+04  0.20055755221E+04  0.10100000352E+00 0.  1.
</event>
<event>
 5   0  0.1628473E-08  0.3797959E+04  0.7818609E-02  0.8046593E-01
       -1   -1    0    0    0  501  0.00000000000E+00  0.00000000000E+00  0.18241219386E+04  0.18241219386E+04  0.50400001928E-02 0. -1.
        1   -1    0    0  501    0  0.00000000000E+00  0.00000000000E+00 -0.19769091307E+04  0.19769091307E+04  0.50400001928E-02 0.  1.
    10030    2    1    2    0    0  0.00000000000E+00  0.00000000000E+00 -0.15278719215E+03  0.38010310693E+04  0.37979590919E+04 0.  0.
        3    1    3    3  502    0 -0.48973569251E+03 -0.13239330960E+04  0.11948634985E+04  0.18494157677E+04  0.10100000352E+00 0. -1.
       -3    1    3    3    0  502  0.48973569251E+03  0.13239330960E+04 -0.13476506907E+04  0.19516153016E+04  0.10100000352E+00 0.  1.
</event>
<event>
 5   0  0.1628250E-08  0.3779964E+04  0.7818609E-02  0.8050468E-01
       -1   -1    0    0    0  501  0.00000000000E+00  0.00000000000E+00  0.21020695089E+04  0.21020695089E+04  0.50400001928E-02 0.  1.
        1   -1    0    0  501    0  0.00000000000E+00  0.00000000000E+00 -0.16992925669E+04  0.16992925669E+04  0.50400001928E-02 0. -1.
    10030    2    1    2    0    0  0.00000000000E+00  0.00000000000E+00  0.40277694198E+03  0.38013620758E+04  0.37799635404E+04 0.  0.
        5    1    3    3  502    0  0.87547687484E+02  0.14766217249E+04  0.13844548434E+04  0.20260339630E+04  0.46999998093E+01 0. -1.
       -5    1    3    3    0  502 -0.87547687484E+02 -0.14766217249E+04 -0.98167790139E+03  0.17753281128E+04  0.46999998093E+01 0.  1.
</event>
<event>
 5   0  0.5147582E-08  0.3807973E+04  0.7818609E-02  0.8044446E-01
        2   -1    0    0  501    0  0.00000000000E+00  0.00000000000E+00  0.20685799324E+04  0.20685799324E+04  0.25500000920E-02 0.  1.
       -2   -1    0    0    0  501  0.00000000000E+00  0.00000000000E+00 -0.17524893948E+04  0.17524893948E+04  0.25500000920E-02 0. -1.
    10030    2    1    2    0    0  0.00000000000E+00  0.00000000000E+00  0.31609053761E+03  0.38210693272E+04  0.38079728958E+04 0.  0.
        1    1    3    3  502    0 -0.30318941872E+03  0.37728753544E+02  0.20438215630E+04  0.20665318444E+04  0.50400001928E-02 0.  1.
       -1    1    3    3    0  502  0.30318941872E+03 -0.37728753544E+02 -0.17277310254E+04  0.17545374828E+04  0.50400001928E-02 0. -1.
</event>
<event>
 5   0  0.1628250E-08  0.3794131E+04  0.7818609E-02  0.8047416E-01
        1   -1    0    0  501    0  0.00000000000E+00  0.00000000000E+00  0.24689168771E+04  0.24689168771E+04  0.50400001928E-02 0.  1.
       -1   -1    0    0    0  501  0.00000000000E+00  0.00000000000E+00 -0.14576661615E+04  0.14576661615E+04  0.50400001928E-02 0. -1.
    10030    2    1    2    0    0  0.00000000000E+00  0.00000000000E+00  0.10112507156E+04  0.39265830386E+04  0.37941305129E+04 0.  0.
        5    1    3    3  502    0 -0.41308210304E+03 -0.61776306415E+02 -0.14094840186E+04  0.14700749724E+04  0.46999998093E+01 0. -1.
       -5    1    3    3    0  502  0.41308210304E+03  0.61776306415E+02  0.24207347342E+04  0.24565080661E+04  0.46999998093E+01 0.  1.
</event>
<event>
 5   0  0.5147582E-08  0.3799752E+04  0.7818609E-02  0.8046208E-01
       -2   -1    0    0    0  501  0.00000000000E+00  0.00000000000E+00  0.14611207920E+04  0.14611207920E+04  0.25500000920E-02 0.  1.
        2   -1    0    0  501    0  0.00000000000E+00  0.00000000000E+00 -0.24703838425E+04  0.24703838425E+04  0.25500000920E-02 0. -1.
    10030    2    1    2    0    0  0.00000000000E+00  0.00000000000E+00 -0.10092630505E+04  0.39315046345E+04  0.37997522006E+04 0.  0.
        1    1    3    3  502    0 -0.43703533145E+02  0.40649403454E+03  0.14150670169E+04  0.14729433327E+04  0.50400001928E-02 0.  1.
       -1    1    3    3    0  502  0.43703533145E+02 -0.40649403454E+03 -0.24243300674E+04  0.24585613018E+04  0.50400001928E-02 0. -1.
</event>
<event>
 5   0  0.5086209E-08  0.3799207E+04  0.7818609E-02  0.8046325E-01
       -2   -1    0    0    0  501  0.00000000000E+00  0.00000000000E+00  0.16361809552E+04  0.16361809552E+04  0.25500000920E-02 0. -1.
        2   -1    0    0  501    0  0.00000000000E+00  0.00000000000E+00 -0.22054365992E+04  0.22054365992E+04  0.25500000920E-02 0.  1.
    10030    2    1    2    0    0  0.00000000000E+00  0.00000000000E+00 -0.56925564405E+03  0.38416175544E+04  0.37992069496E+04 0.  0.
        3    1    3    3  502    0 -0.13129606901E+04  0.77081546875E+03 -0.14332979213E+04  0.20910201343E+04  0.10100000352E+00 0.  1.
       -3    1    3    3    0  502  0.13129606901E+04 -0.77081546875E+03  0.86404227721E+03  0.17505974202E+04  0.10100000352E+00 0. -1.
</event>
<event>
 5   0  0.5140842E-08  0.3842021E+04  0.7818609E-02  0.8037197E-01
        2   -1    0    0  501    0  0.00000000000E+00  0.00000000000E+00  0.15242514342E+04  0.15242514342E+04  0.25500000920E-02 0.  1.
       -2   -1    0    0    0  501  0.00000000000E+00  0.00000000000E+00 -0.24210455266E+04  0.24210455266E+04  0.25500000920E-02 0. -1.
    10030    2    1    2    0    0  0.00000000000E+00  0.00000000000E+00 -0.89679409242E+03  0.39452969608E+04  0.38420214034E+04 0.  0.
        2    1    3    3  502    0 -0.16686976673E+04  0.62960760225E+03 -0.11812505904E+04  0.21392313094E+04  0.25500000920E-02 0.  1.
       -2    1    3    3    0  502  0.16686976673E+04 -0.62960760225E+03  0.28445649802E+03  0.18060656514E+04  0.25500000920E-02 0. -1.
</event>
<event>
 5   0  0.1666051E-08  0.3800576E+04  0.7818609E-02  0.8046031E-01
       -1   -1    0    0    0  501  0.00000000000E+00  0.00000000000E+00  0.13571482030E+04  0.13571482030E+04  0.50400001928E-02 0. -1.
        1   -1    0    0  501    0  0.00000000000E+00  0.00000000000E+00 -0.26607954185E+04  0.26607954185E+04  0.50400001928E-02 0.  1.
    10030    2    1    2    0    0  0.00000000000E+00  0.00000000000E+00 -0.13036472154E+04  0.40179436215E+04  0.38005755990E+04 0.  0.
        2    1    3    3  502    0  0.75060341293E+03  0.45939749477E+03  0.11287369180E+04  0.14312576888E+04  0.25500000920E-02 0. -1.
       -2    1    3    3    0  502 -0.75060341293E+03 -0.45939749477E+03 -0.24323841334E+04  0.25866859327E+04  0.25500000920E-02 0.  1.
</event>
<event>
 5   0  0.5159761E-08  0.3796314E+04  0.7818609E-02  0.8046946E-01
       -2   -1    0    0    0  501  0.00000000000E+00  0.00000000000E+00  0.28118386672E+04  0.28118386672E+04  0.25500000920E-02 0.  1.
        2   -1    0    0  501    0  0.00000000000E+00  0.00000000000E+00 -0.12813680186E+04  0.12813680186E+04  0.25500000920E-02 0. -1.
    10030    2    1    2    0    0  0.00000000000E+00  0.00000000000E+00  0.15304706486E+04  0.40932066857E+04  0.37963140763E+04 0.  0.
        5    1    3    3  502    0  0.11621705601E+04 -0.98016736799E+03  0.19906051080E+04  0.25047752925E+04  0.46999998093E+01 0.  1.
       -5    1    3    3    0  502 -0.11621705601E+04  0.98016736799E+03 -0.46013445943E+03  0.15884313932E+04  0.46999998093E+01 0. -1.
</event>
<event>
 5   0  0.5159761E-08  0.3782163E+04  0.7818609E-02  0.8049994E-01
        2   -1    0    0  501    0  0.00000000000E+00  0.00000000000E+00  0.11906539717E+04  0.11906539717E+04  0.25500000920E-02 0. -1.
       -2   -1    0    0    0  501  0.00000000000E+00  0.00000000000E+00 -0.30035499884E+04  0.30035499884E+04  0.25500000920E-02 0.  1.
    10030    2    1    2    0    0  0.00000000000E+00  0.00000000000E+00 -0.18128960167E+04  0.41942039601E+04  0.37821627268E+04 0.  0.
        5    1    3    3  502    0  0.13433141948E+04  0.44834249495E+03 -0.22962431491E+04  0.26978248106E+04  0.46999998093E+01 0.  1.
       -5    1    3    3    0  502 -0.13433141948E+04 -0.44834249495E+03  0.48334713238E+03  0.14963791495E+04  0.46999998093E+01 0. -1.
</event>
<event>
 5   0  0.5147582E-08  0.3794875E+04  0.7818609E-02  0.8047256E-01
       -2   -1    0    0    0  501  0.00000000000E+00  0.00000000000E+00  0.15890124261E+04  0.15890124261E+04  0.25500000920E-02 0. -1.
        2   -1    0    0  501    0  0.00000000000E+00  0.00000000000E+00 -0.22657271168E+04  0.22657271168E+04  0.25500000920E-02 0.  1.
    10030    2    1    2    0    0  0.00000000000E+00  0.00000000000E+00 -0.67671469062E+03  0.38547395429E+04  0.37948747240E+04 0.  0.
        1    1    3    3  502    0  0.11033027158E+04  0.15105805324E+04 -0.66139639428E+03  0.19840805473E+04  0.50400001928E-02 0. -1.
       -1    1    3    3    0  502 -0.11033027158E+04 -0.15105805324E+04 -0.15318296344E+02  0.18706589956E+04  0.50400001928E-02 0.  1.
</event>
<event>
 5   0  0.5207474E-08  0.3796892E+04  0.7818609E-02  0.8046822E-01
       -2   -1    0    0    0  501  0.00000000000E+00  0.00000000000E+00  0.11448391724E+04  0.11448391724E+04  0.25500000920E-02 0. -1.
        2   -1    0    0  501    0  0.00000000000E+00  0.00000000000E+00 -0.31481253370E+04  0.31481253370E+04  0.25500000920E-02 0.  1.
    10030    2    1    2    0    0  0.00000000000E+00  0.00000000000E+00 -0.20032861646E+04  0.42929645094E+04  0.37968919950E+04 0.  0.
        4    1    3    3  502    0  0.16152474176E+03 -0.18259345225E+04 -0.15601080121E+04  0.24070865678E+04  0.12699999809E+01 0.  1.
       -4    1    3    3    0  502 -0.16152474176E+03  0.18259345225E+04 -0.44317815252E+03  0.18858779416E+04  0.12699999809E+01 0. -1.
</event>
<event>
 5   0  0.1666051E-08  0.3802416E+04  0.7818609E-02  0.8045637E-01
       -1   -1    0    0    0  501  0.00000000000E+00  0.00000000000E+00  0.14016189711E+04  0.14016189711E+04  0.50400001928E-02 0. -1.
        1   -1    0    0  501    0  0.00000000000E+00  0.00000000000E+00 -0.25788696500E+04  0.25788696500E+04  0.50400001928E-02 0.  1.
    10030    2    1    2    0    0  0.00000000000E+00  0.00000000000E+00 -0.11772506789E+04  0.39804886211E+04  0.38024164029E+04 0.  0.
        2    1    3    3  502    0 -0.11083527906E+04  0.67248919576E+03 -0.20444004164E+04  0.24207975317E+04  0.25500000920E-02 0.  1.
       -2    1    3    3    0  502  0.11083527906E+04 -0.67248919576E+03  0.86714973751E+03  0.15596910893E+04  0.25500000920E-02 0. -1.
</event>
<event>
 5   0  0.1666051E-08  0.3800300E+04  0.7818609E-02  0.8046091E-01
       -1   -1    0    0    0  501  0.00000000000E+00  0.00000000000E+00  0.16684892915E+04  0.16684892915E+04  0.50400001928E-02 0. -1.
        1   -1    0    0  501    0  0.00000000000E+00  0.00000000000E+00 -0.21639752137E+04  0.21639752137E+04  0.50400001928E-02 0.  1.
    10030    2    1    2    0    0  0.00000000000E+00  0.00000000000E+00 -0.49548592224E+03  0.38324645052E+04  0.38002997099E+04 0.  0.
        2    1    3    3  502    0  0.13327601137E+04  0.50625458075E+03  0.10190843114E+04  0.17524485884E+04  0.25500000920E-02 0. -1.
       -2    1    3    3    0  502 -0.13327601137E+04 -0.50625458075E+03 -0.15145702337E+04  0.20800159168E+04  0.25500000920E-02 0.  1.
</event>
<event>
 5   0  0.5159761E-08  0.3815398E+04  0.7818609E-02  0.8042859E-01
        2   -1    0    0  501    0  0.00000000000E+00  0.00000000000E+00  0.30114284740E+04  0.30114284740E+04  0.25500000920E-02 0. -1.
       -2   -1    0    0    0  501  0.00000000000E+00  0.00000000000E+00 -0.12085011299E+04  0.12085011299E+04  0.25500000920E-02 0.  1.
    10030    2    1    2    0    0  0.00000000000E+00  0.00000000000E+00  0.18029273441E+04  0.42199296039E+04  0.38153976010E+04 0.  0.
        5    1    3    3  502    0  0.25035053418E+03  0.10891245108E+04 -0.80856332958E+03  0.13793709936E+04  0.46999998093E+01 0.  1.
       -5    1    3    3    0  502 -0.25035053418E+03 -0.10891245108E+04  0.26114906737E+04  0.28405586103E+04  0.46999998093E+01 0. -1.
</event>
<event>
 5   0  0.5086209E-08  0.3797526E+04  0.7818609E-02  0.8046686E-01
        2   -1    0    0  501    0  0.00000000000E+00  0.00000000000E+00  0.16751974117E+04  0.16751974117E+04  0.25500000920E-02 0. -1.
       -2   -1    0    0    0  501  0.00000000000E+00  0.00000000000E+00 -0.21521650241E+04  0.21521650241E+04  0.25500000920E-02 0.  1.
    10030    2    1    2    0    0  0.00000000000E+00  0.00000000000E+00 -0.47696761241E+03  0.38273624357E+04  0.37975261831E+04 0.  0.
        3    1    3    3  502    0 -0.18484382717E+04  0.36902251624E+03 -0.46919189607E+03  0.19424321628E+04  0.10100000352E+00 0.  1.
       -3    1    3    3    0  502  0.18484382717E+04 -0.36902251624E+03 -0.77757163329E+01  0.18849302729E+04  0.10100000352E+00 0. -1.
</event>
<event>
 5   0  0.1666051E-08  0.3790433E+04  0.7818609E-02  0.8048211E-01
       -1   -1    0    0    0  501  0.00000000000E+00  0.00000000000E+00  0.27266313045E+04  0.27266313045E+04  0.50400001928E-02 0.  1.
        1   -1    0    0  501    0  0.00000000000E+00  0.00000000000E+00 -0.13173199666E+04  0.13173199666E+04  0.50400001928E-02 0. -1.
    10030    2    1    2    0    0  0.00000000000E+00  0.00000000000E+00  0.14093113379E+04  0.40439512712E+04  0.37904331463E+04 0.  0.
        2    1    3    3  502    0 -0.17850649219E+04 -0.53445918596E+03  0.10738382186E+04  0.21506352356E+04  0.25500000920E-02 0.  1.
       -2    1    3    3    0  502  0.17850649219E+04  0.53445918596E+03  0.33547311928E+03  0.18933160356E+04  0.25500000920E-02 0. -1.
</event>
<event>
 5   0  0.5207474E-08  0.3810703E+04  0.7818609E-02  0.8043862E-01
        2   -1    0    0  501    0  0.00000000000E+00  0.00000000000E+00  0.23218872913E+04  0.23218872913E+04  0.25500000920E-02 0. -1.
       -2   -1    0    0    0  501  0.00000000000E+00  0.00000000000E+00 -0.15635402783E+04  0.15635402783E+04  0.25500000920E-02 0.  1.
    10030    2    1    2    0    0  0.00000000000E+00  0.00000000000E+00  0.75834701302E+03  0.38854275696E+04  0.38107029806E+04 0.  0.
        4    1    3    3  502    0 -0.70577887142E+03  0.49455034379E+02 -0.14246395672E+04  0.15906505352E+04  0.12699999809E+01 0.  1.
       -4    1    3    3    0  502  0.70577887142E+03 -0.49455034379E+02  0.21829865802E+04  0.22947770345E+04  0.12699999809E+01 0. -1.
</event>
<event>
 5   0  0.1628250E-08  0.3799104E+04  0.7818609E-02  0.8046347E-01
        1   -1    0    0  501    0  0.00000000000E+00  0.00000000000E+00  0.24073741229E+04  0.24073741229E+04  0.50400001928E-02 0. -1.
       -1   -1    0    0    0  501  0.00000000000E+00  0.00000000000E+00 -0.14988517930E+04  0.14988517930E+04  0.50400001928E-02 0.  1.
    10030    2    1    2    0    0  0.00000000000E+00  0.00000000000E+00  0.90852232985E+03  0.39062259159E+04  0.37991035893E+04 0.  0.
        4    1    3    3  502    0  0.52561670074E+03 -0.18075770174E+04  0.71577066573E+03  0.20139356615E+04  0.12699999809E+01 0. -1.
       -4    1    3    3    0  502 -0.52561670074E+03  0.18075770174E+04  0.19275166411E+03  0.18922902544E+04  0.12699999809E+01 0.  1.
</event>
<event>
 5   0  0.1628473E-08  0.3798845E+04  0.7818609E-02  0.8046403E-01
        1   -1    0    0  501    0  0.00000000000E+00  0.00000000000E+00  0.20814456956E+04  0.20814456956E+04  0.50400001928E-02 0.  1.
       -1   -1    0    0    0  501  0.00000000000E+00  0.00000000000E+00 -0.17333168830E+04  0.17333168830E+04  0.50400001928E-02 0. -1.
    10030    2    1    2    0    0  0.00000000000E+00  0.00000000000E+00  0.34812881259E+03  0.38147625786E+04  0.37988445428E+04 0.  0.
        3    1    3    3  502    0  0.14051563520E+04 -0.12600276584E+04  0.38866735703E+03  0.19269655934E+04  0.10100000352E+00 0.  1.
       -3    1    3    3    0  502 -0.14051563520E+04  0.12600276584E+04 -0.40538544443E+02  0.18877969852E+04  0.10100000352E+00 0. -1.
</event>
<event>
 5   0  0.5147582E-08  0.3792297E+04  0.7818609E-02  0.8047810E-01
       -2   -1    0    0    0  501  0.00000000000E+00  0.00000000000E+00  0.14268488294E+04  0.14268488294E+04  0.25500000920E-02 0.  1.
        2   -1    0    0  501    0  0.00000000000E+00  0.00000000000E+00 -0.25198031720E+04  0.25198031720E+04  0.25500000920E-02 0. -1.
    10030    2    1    2    0    0  0.00000000000E+00  0.00000000000E+00 -0.10929543426E+04  0.39466520014E+04  0.37922965107E+04 0.  0.
        1    1    3    3  502    0 -0.78467504092E+03  0.61606454031E+03 -0.22246005669E+04  0.24380521159E+04  0.50400001928E-02 0. -1.
       -1    1    3    3    0  502  0.78467504092E+03 -0.61606454031E+03  0.11316462243E+04  0.15085998855E+04  0.50400001928E-02 0.  1.
</event>
<event>
 5   0  0.1666051E-08  0.3803153E+04  0.7818609E-02  0.8045479E-01
       -1   -1    0    0    0  501  0.00000000000E+00  0.00000000000E+00  0.31263361131E+04  0.31263361131E+04  0.50400001928E-02 0.  1.
        1   -1    0    0  501    0  0.00000000000E+00  0.00000000000E+00 -0.11566235648E+04  0.11566235648E+04  0.50400001928E-02 0. -1.
    10030    2    1    2    0    0  0.00000000000E+00  0.00000000000E+00  0.19697125483E+04  0.42829596778E+04  0.38031534388E+04 0.  0.
        2    1    3    3  502    0 -0.10438219695E+04  0.92026471992E+03  0.24443278631E+04  0.28126838004E+04  0.25500000920E-02 0.  1.
       -2    1    3    3    0  502  0.10438219695E+04 -0.92026471992E+03 -0.47461531480E+03  0.14702758774E+04  0.25500000920E-02 0. -1.
</event>
<event>
 5   0  0.5147582E-08  0.3802828E+04  0.7818609E-02  0.8045548E-01
        2   -1    0    0  501    0  0.00000000000E+00  0.00000000000E+00  0.20577229476E+04  0.20577229476E+04  0.25500000920E-02 0.  1.
       -2   -1    0    0    0  501  0.00000000000E+00  0.00000000000E+00 -0.17569785207E+04  0.17569785207E+04  0.25500000920E-02 0. -1.
    10030    2    1    2    0    0  0.00000000000E+00  0.00000000000E+00  0.30074442691E+03  0.38147014683E+04  0.38028279059E+04 0.  0.
        1    1    3    3  502    0  0.66549474697E+03 -0.13580933635E+04 -0.10056469959E+04  0.18162121909E+04  0.50400001928E-02 0.  1.
       -1    1    3    3    0  502 -0.66549474697E+03  0.13580933635E+04  0.13063914228E+04  0.19984892774E+04  0.50400001928E-02 0. -1.
</event>
<event>
 5   0  0.5086209E-08  0.3805823E+04  0.7818609E-02  0.8044906E-01
        2   -1    0    0  501    0  0.00000000000E+00  0.00000000000E+00  0.14706806468E+04  0.14706806468E+04  0.25500000920E-02 0. -1.
       -2   -1    0    0    0  501  0.00000000000E+00  0.00000000000E+00 -0.24621745651E+04  0.24621745651E+04  0.25500000920E-02 0.  1.
    10030    2    1    2    0    0  0.00000000000E+00  0.00000000000E+00 -0.99149391829E+03  0.39328552120E+04  0.38058231604E+04 0.  0.
        3    1    3    3  502    0  0.23562715082E+03  0.67779662757E+03  0.13255054939E+04  0.15072800825E+04  0.10100000352E+00 0. -1.
       -3    1    3    3    0  502 -0.23562715082E+03 -0.67779662757E+03 -0.23169994122E+04  0.24255751295E+04  0.10100000352E+00 0.  1.
</event>
<event>
 5   0  0.1628473E-08  0.3798342E+04  0.7818609E-02  0.8046511E-01
        1   -1    0    0  501    0  0.00000000000E+00  0.00000000000E+00  0.19574959870E+04  0.19574959870E+04  0.50400001928E-02 0.  1.
       -1   -1    0    0    0  501  0.00000000000E+00  0.00000000000E+00 -0.18425834759E+04  0.18425834759E+04  0.50400001928E-02 0. -1.
    10030    2    1    2    0    0  0.00000000000E+00  0.00000000000E+00  0.11491251117E+03  0.38000794629E+04  0.37983416170E+04 0.  0.
        3    1    3    3  502    0  0.14363743714E+03 -0.15493428696E+04 -0.10319656038E+04  0.18670961568E+04  0.10100000352E+00 0. -1.
       -3    1    3    3    0  502 -0.14363743714E+03  0.15493428696E+04  0.11468781150E+04  0.19329833061E+04  0.10100000352E+00 0.  1.
</event>
<event>
 5   0  0.1628250E-08  0.3799053E+04  0.7818609E-02  0.8046358E-01
       -1   -1    0    0    0  501  0.00000000000E+00  0.00000000000E+00  0.32607324075E+04  0.32607324075E+04  0.50400001928E-02 0.  1.
        1   -1    0    0  501    0  0.00000000000E+00  0.00000000000E+00 -0.11065612366E+04  0.11065612366E+04  0.50400001928E-02 0. -1.
    10030    2    1    2    0    0  0.00000000000E+00  0.00000000000E+00  0.21541711709E+04  0.43672936441E+04  0.37990525583E+04 0.  0.
        1    1    3    3  502    0  0.11507208088E+04  0.21682378373E+03  0.27964697143E+04  0.30317344534E+04  0.50400001928E-02 0.  1.
       -1    1    3    3    0  502 -0.11507208088E+04 -0.21682378373E+03 -0.64229854339E+03  0.13355591907E+04  0.50400001928E-02 0. -1.
</event>
<event>
 5   0  0.5147582E-08  0.3796843E+04  0.7818609E-02  0.8046833E-01
        2   -1    0    0  501    0  0.00000000000E+00  0.00000000000E+00  0.24581442798E+04  0.24581442798E+04  0.25500000920E-02 0.  1.
       -2   -1    0    0    0  501  0.00000000000E+00  0.00000000000E+00 -0.14661480016E+04  0.14661480016E+04  0.25500000920E-02 0. -1.
    10030    2    1    2    0    0  0.00000000000E+00  0.00000000000E+00  0.99199627814E+03  0.39242922814E+04  0.37968425427E+04 0.  0.
        1    1    3    3  502    0  0.10329547882E+02  0.18101103472E+04 -0.95394901508E+02  0.18126517470E+04  0.50400001928E-02 0. -1.
       -1    1    3    3    0  502 -0.10329547882E+02 -0.18101103472E+04  0.10873911797E+04  0.21116405344E+04  0.50400001928E-02 0.  1.
</event>
<event>
 5   0  0.1666051E-08  0.3793905E+04  0.7818609E-02  0.8047464E-01
        1   -1    0    0  501    0  0.00000000000E+00  0.00000000000E+00  0.15519499841E+04  0.15519499841E+04  0.50400001928E-02 0. -1.
       -1   -1    0    0    0  501  0.00000000000E+00  0.00000000000E+00 -0.23186501812E+04  0.23186501812E+04  0.50400001928E-02 0.  1.
    10030    2    1    2    0    0  0.00000000000E+00  0.00000000000E+00 -0.76670019703E+03  0.38706001653E+04  0.37939051711E+04 0.  0.
        2    1    3    3  502    0  0.18471146004E+04 -0.39252190819E+03 -0.19936220338E+03  0.18988552034E+04  0.25500000920E-02 0.  1.
       -2    1    3    3    0  502 -0.18471146004E+04  0.39252190819E+03 -0.56733799365E+03  0.19717449618E+04  0.25500000920E-02 0. -1.
</event>
<event>
 5   0  0.1628250E-08  0.3799518E+04  0.7818609E-02  0.8046258E-01
       -1   -1    0    0    0  501  0.00000000000E+00  0.00000000000E+00  0.25080274999E+04  0.25080274999E+04  0.50400001928E-02 0. -1.
        1   -1    0    0  501    0  0.00000000000E+00  0.00000000000E+00 -0.14390127358E+04  0.14390127358E+04  0.50400001928E-02 0.  1.
    10030    2    1    2    0    0  0.00000000000E+00  0.00000000000E+00  0.10690147641E+04  0.39470402356E+04  0.37995176083E+04 0.  0.
        1    1    3    3  502    0  0.63846594891E+03  0.62052681184E+03  0.22778774411E+04  0.24456937520E+04  0.50400001928E-02 0. -1.
       -1    1    3    3    0  502 -0.63846594891E+03 -0.62052681184E+03 -0.12088626769E+04  0.15013464836E+04  0.50400001928E-02 0.  1.
</event>
<event>
 5   0  0.5086209E-08  0.3771907E+04  0.7818609E-02  0.8052211E-01
        2   -1    0    0  501    0  0.00000000000E+00  0.00000000000E+00  0.29962656696E+04  0.29962656696E+04  0.25500000920E-02 0. -1.
       -2   -1    0    0    0  501  0.00000000000E+00  0.00000000000E+00 -0.11870842923E+04  0.11870842923E+04  0.25500000920E-02 0.  1.
    10030    2    1    2    0    0  0.00000000000E+00  0.00000000000E+00  0.18091813773E+04  0.41833499618E+04  0.37719066329E+04 0.  0.
        3    1    3    3  502    0  0.15697375566E+03  0.18419198316E+04  0.13188446527E+04  0.22708281868E+04  0.10100000352E+00 0.  1.
       -3    1    3    3    0  502 -0.15697375566E+03 -0.18419198316E+04  0.49033672463E+03  0.19125217750E+04  0.10100000352E+00 0. -1.
</event>
<event>
 5   0  0.1628250E-08  0.3783451E+04  0.7818609E-02  0.8049716E-01
        1   -1    0    0  501    0  0.00000000000E+00  0.00000000000E+00  0.28096318096E+04  0.28096318097E+04  0.50400001928E-02 0. -1.
       -1   -1    0    0    0  501  0.00000000000E+00  0.00000000000E+00 -0.12736993114E+04  0.12736993114E+04  0.50400001928E-02 0.  1.
    10030    2    1    2    0    0  0.00000000000E+00  0.00000000000E+00  0.15359324983E+04  0.40833311210E+04  0.37834513879E+04 0.  0.
        4    1    3    3  502    0  0.73732806415E+03  0.17056786622E+04  0.11505061813E+04  0.21855567847E+04  0.12699999809E+01 0. -1.
       -4    1    3    3    0  502 -0.73732806415E+03 -0.17056786622E+04  0.38542631694E+03  0.18977743363E+04  0.12699999809E+01 0.  1.
</event>
<event>
 5   0  0.1628250E-08  0.3800859E+04  0.7818609E-02  0.8045971E-01
       -1   -1    0    0    0  501  0.00000000000E+00  0.00000000000E+00  0.14415832770E+04  0.14415832770E+04  0.50400001928E-02 0. -1.
        1   -1    0    0  501    0  0.00000000000E+00  0.00000000000E+00 -0.25053235787E+04  0.25053235787E+04  0.50400001928E-02 0.  1.
    10030    2    1    2    0    0  0.00000000000E+00  0.00000000000E+00 -0.10637403017E+04  0.39469068557E+04  0.38008591526E+04 0.  0.
        1    1    3    3  502    0 -0.53259209549E+03 -0.15721247741E+04 -0.14928492002E+04  0.22324491887E+04  0.50400001928E-02 0.  1.
       -1    1    3    3    0  502  0.53259209549E+03  0.15721247741E+04  0.42910889843E+03  0.17144576671E+04  0.50400001928E-02 0. -1.
</event>
<event>
 5   0  0.1628250E-08  0.3827988E+04  0.7818609E-02  0.8040175E-01
        1   -1    0    0  501    0  0.00000000000E+00  0.00000000000E+00  0.18578827064E+04  0.18578827064E+04  0.50400001928E-02 0. -1.
       -1   -1    0    0    0  501  0.00000000000E+00  0.00000000000E+00 -0.19717997261E+04  0.19717997261E+04  0.50400001928E-02 0.  1.
    10030    2    1    2    0    0  0.00000000000E+00  0.00000000000E+00 -0.11391701962E+03  0.38296824325E+04  0.38279877803E+04 0.  0.
        1    1    3    3  502    0  0.79664667849E+03 -0.86291737854E+02  0.16819940641E+04  0.18631146572E+04  0.50400001928E-02 0. -1.
       -1    1    3    3    0  502 -0.79664667849E+03  0.86291737854E+02 -0.17959110837E+04  0.19665677753E+04  0.50400001928E-02 0.  1.
</event>
<event>
 5   0  0.5140842E-08  0.3784340E+04  0.7818609E-02  0.8049524E-01
       -2   -1    0    0    0  501  0.00000000000E+00  0.00000000000E+00  0.24596326106E+04  0.24596326106E+04  0.25500000920E-02 0. -1.
        2   -1    0    0  501    0  0.00000000000E+00  0.00000000000E+00 -0.14556265174E+04  0.14556265174E+04  0.25500000920E-02 0.  1.
    10030    2    1    2    0    0  0.00000000000E+00  0.00000000000E+00  0.10040060932E+04  0.39152591280E+04  0.37843395466E+04 0.  0.
        2    1    3    3  502    0  0.18403431815E+04  0.14339848265E+03  0.71830026338E+02  0.18473185170E+04  0.25500000920E-02 0.  1.
       -2    1    3    3    0  502 -0.18403431815E+04 -0.14339848265E+03  0.93217606688E+03  0.20679406109E+04  0.25500000920E-02 0. -1.
</event>
<event>
 5   0  0.5207474E-08  0.3799445E+04  0.7818609E-02  0.8046274E-01
        2   -1    0    0  501    0  0.00000000000E+00  0.00000000000E+00  0.21143236687E+04  0.21143236687E+04  0.25500000920E-02 0. -1.
       -2   -1    0    0    0  501  0.00000000000E+00  0.00000000000E+00 -0.17069032383E+04  0.17069032383E+04  0.25500000920E-02 0.  1.
    10030    2    1    2    0    0  0.00000000000E+00  0.00000000000E+00  0.40742043043E+03  0.38212269071E+04  0.37994451790E+04 0.  0.
        4    1    3    3  502    0  0.47713067291E+02 -0.15430376529E+04  0.13171716836E+04  0.20293310701E+04  0.12699999809E+01 0. -1.
       -4    1    3    3    0  502 -0.47713067291E+02  0.15430376529E+04 -0.90975125322E+03  0.17918958370E+04  0.12699999809E+01 0.  1.
</event>
<event>
 5   0  0.5086209E-08  0.3801022E+04  0.7818609E-02  0.8045936E-01
       -2   -1    0    0    0  501  0.00000000000E+00  0.00000000000E+00  0.14652503103E+04  0.14652503103E+04  0.25500000920E-02 0. -1.
        2   -1    0    0  501    0  0.00000000000E+00  0.00000000000E+00 -0.24650688742E+04  0.24650688742E+04  0.25500000920E-02 0.  1.
    10030    2    1    2    0    0  0.00000000000E+00  0.00000000000E+00 -0.99981856392E+03  0.39303191845E+04  0.38010224587E+04 0.  0.
        3    1    3    3  502    0  0.54013936106E+03 -0.63547140450E+03  0.12659194703E+04  0.15159573050E+04  0.10100000352E+00 0. -1.
       -3    1    3    3    0  502 -0.54013936106E+03  0.63547140450E+03 -0.22657380342E+04  0.24143618795E+04  0.10100000352E+00 0.  1.
</event>
<event>
 5   0  0.1628473E-08  0.3807027E+04  0.7818609E-02  0.8044649E-01
       -1   -1    0    0    0  501  0.00000000000E+00  0.00000000000E+00  0.32442041290E+04  0.32442041290E+04  0.50400001928E-02 0. -1.
        1   -1    0    0  501    0  0.00000000000E+00  0.00000000000E+00 -0.11168727280E+04  0.11168727281E+04  0.50400001928E-02 0.  1.
    10030    2    1    2    0    0  0.00000000000E+00  0.00000000000E+00  0.21273314009E+04  0.43610768570E+04  0.38070267222E+04 0.  0.
        3    1    3    3  502    0 -0.10278262989E+04  0.10594159928E+04  0.24404874127E+04  0.28521514631E+04  0.10100000352E+00 0. -1.
       -3    1    3    3    0  502  0.10278262989E+04 -0.10594159928E+04 -0.31315601181E+03  0.15089253939E+04  0.10100000352E+00 0.  1.
</event>
<event>
 5   0  0.5086209E-08  0.3796441E+04  0.7818609E-02  0.8046919E-01
       -2   -1    0    0    0  501  0.00000000000E+00  0.00000000000E+00  0.22538704532E+04  0.22538704532E+04  0.25500000920E-02 0.  1.
        2   -1    0    0  501    0  0.00000000000E+00  0.00000000000E+00 -0.15986906510E+04  0.15986906510E+04  0.25500000920E-02 0. -1.
    10030    2    1    2    0    0  0.00000000000E+00  0.00000000000E+00  0.65517980220E+03  0.38525611042E+04  0.37964412927E+04 0.  0.
        3    1    3    3  502    0 -0.16275877725E+03 -0.10265883285E+04  0.19394230254E+04  0.22003944413E+04  0.10100000352E+00 0.  1.
       -3    1    3    3    0  502  0.16275877725E+03  0.10265883285E+04 -0.12842432232E+04  0.16521666629E+04  0.10100000352E+00 0. -1.
</event>
<event>
 5   0  0.5140842E-08  0.3807502E+04  0.7818609E-02  0.8044547E-01
        2   -1    0    0  501    0  0.00000000000E+00  0.00000000000E+00  0.30526757456E+04  0.30526757456E+04  0.25500000920E-02 0.  1.
       -2   -1    0    0    0  501  0.00000000000E+00  0.00000000000E+00 -0.11872427106E+04  0.11872427106E+04  0.25500000920E-02 0. -1.
    10030    2    1    2    0    0  0.00000000000E+00  0.00000000000E+00  0.18654330351E+04  0.42399184562E+04  0.38075015571E+04 0.  0.
        2    1    3    3  502    0 -0.74116676081E+03 -0.65704016647E+03  0.27431620915E+04  0.29164993071E+04  0.25500000920E-02 0.  1.
       -2    1    3    3    0  502  0.74116676081E+03  0.65704016647E+03 -0.87772905649E+03  0.13234191491E+04  0.25500000920E-02 0. -1.
</event>
<event>
 5   0  0.1628473E-08  0.3810468E+04  0.7818609E-02  0.8043912E-01
        1   -1    0    0  501    0  0.00000000000E+00  0.00000000000E+00  0.35198445682E+04  0.35198445682E+04  0.50400001928E-02 0.  1.
       -1   -1    0    0    0  501  0.00000000000E+00  0.00000000000E+00 -0.10312717937E+04  0.10312717937E+04  0.50400001928E-02 0. -1.
    10030    2    1    2    0    0  0.00000000000E+00  0.00000000000E+00  0.24885727745E+04  0.45511163619E+04  0.38104679091E+04 0.  0.
        3    1    3    3  502    0 -0.70531711328E+03  0.15103491163E+04  0.23462780977E+04  0.28781326595E+04  0.10100000352E+00 0. -1.
       -3    1    3    3    0  502  0.70531711328E+03 -0.15103491163E+04  0.14229467673E+03  0.16729837025E+04  0.10100000352E+00 0.  1.
</event>
<event>
 5   0  0.5159761E-08  0.3805156E+04  0.7818609E-02  0.8045049E-01
       -2   -1    0    0    0  501  0.00000000000E+00  0.00000000000E+00  0.15405279730E+04  0.15405279730E+04  0.25500000920E-02 0. -1.
        2   -1    0    0  501    0  0.00000000000E+00  0.00000000000E+00 -0.23497155349E+04  0.23497155349E+04  0.25500000920E-02 0.  1.
    10030    2    1    2    0    0  0.00000000000E+00  0.00000000000E+00 -0.80918756194E+03  0.38902435079E+04  0.38051557183E+04 0.  0.
        5    1    3    3  502    0  0.14984958503E+04 -0.69859046647E+03 -0.13670598079E+04  0.21453188718E+04  0.46999998093E+01 0.  1.
       -5    1    3    3    0  502 -0.14984958503E+04  0.69859046647E+03  0.55787224596E+03  0.17449246362E+04  0.46999998093E+01 0. -1.
</event>
<event>
 5   0  0.5159761E-08  0.3702216E+04  0.7818609E-02  0.8067471E-01
       -2   -1    0    0    0  501  0.00000000000E+00  0.00000000000E+00  0.14698674385E+04  0.14698674385E+04  0.25500000920E-02 0.  1.
        2   -1    0    0  501    0  0.00000000000E+00  0.00000000000E+00 -0.23312311821E+04  0.23312311821E+04  0.25500000920E-02 0. -1.
    10030    2    1    2    0    0  0.00000000000E+00  0.00000000000E+00 -0.86136374355E+03  0.38010986206E+04  0.37022159884E+04 0.  0.
        5    1    3    3  502    0  0.18270830692E+04 -0.29639672440E+03 -0.45352831155E+03  0.19057265227E+04  0.46999998093E+01 0.  1.
       -5    1    3    3    0  502 -0.18270830692E+04  0.29639672440E+03 -0.40783543200E+03  0.18953720979E+04  0.46999998093E+01 0. -1.
</event>
<event>
 5   0  0.5147582E-08  0.3798835E+04  0.7818609E-02  0.8046405E-01
       -2   -1    0    0    0  501  0.00000000000E+00  0.00000000000E+00  0.23220840888E+04  0.23220840888E+04  0.25500000920E-02 0. -1.
        2   -1    0    0  501    0  0.00000000000E+00  0.00000000000E+00 -0.15536852451E+04  0.15536852451E+04  0.25500000920E-02 0.  1.
    10030    2    1    2    0    0  0.00000000000E+00  0.00000000000E+00  0.76839884365E+03  0.38757693339E+04  0.37988354988E+04 0.  0.
        1    1    3    3  502    0  0.62704213080E+03  0.14880613953E+04  0.14045938100E+04  0.21401851137E+04  0.50400001928E-02 0. -1.
       -1    1    3    3    0  502 -0.62704213080E+03 -0.14880613953E+04 -0.63619496638E+03  0.17355842201E+04  0.50400001928E-02 0.  1.
</event>
<event>
 5   0  0.5207474E-08  0.3803869E+04  0.7818609E-02  0.8045325E-01
        2   -1    0    0  501    0  0.00000000000E+00  0.00000000000E+00  0.25232676343E+04  0.25232676344E+04  0.25500000920E-02 0. -1.
       -2   -1    0    0    0  501  0.00000000000E+00  0.00000000000E+00 -0.14335990548E+04  0.14335990548E+04  0.25500000920E-02 0.  1.
    10030    2    1    2    0    0  0.00000000000E+00  0.00000000000E+00  0.10896685796E+04  0.39568666891E+04  0.38038686074E+04 0.  0.
        4    1    3    3  502    0 -0.28857655621E+03  0.16045951378E+04 -0.47402583150E+03  0.16978527872E+04  0.12699999809E+01 0.  1.
       -4    1    3    3    0  502  0.28857655621E+03 -0.16045951378E+04  0.15636944111E+04  0.22590139020E+04  0.12699999809E+01 0. -1.
</event>
<event>
 5   0  0.1628473E-08  0.3803434E+04  0.7818609E-02  0.8045418E-01
       -1   -1    0    0    0  501  0.00000000000E+00  0.00000000000E+00  0.14620911109E+04  0.14620911109E+04  0.50400001928E-02 0. -1.
        1   -1    0    0  501    0  0.00000000000E+00  0.00000000000E+00 -0.24735309067E+04  0.24735309067E+04  0.50400001928E-02 0.  1.
    10030    2    1    2    0    0  0.00000000000E+00  0.00000000000E+00 -0.10114397958E+04  0.39356220176E+04  0.38034340016E+04 0.  0.
        3    1    3    3  502    0  0.10633581435E+04 -0.12496775230E+04  0.48899290478E+03  0.17121736255E+04  0.10100000352E+00 0. -1.
       -3    1    3    3    0  502 -0.10633581435E+04  0.12496775230E+04 -0.15004327006E+04  0.22234483920E+04  0.10100000352E+00 0.  1.
</event>
<event>
 5   0  0.1628250E-08  0.3794421E+04  0.7818609E-02  0.8047353E-01
       -1   -1    0    0    0  501  0.00000000000E+00  0.00000000000E+00  0.19480570246E+04  0.19480570246E+04  0.50400001928E-02 0. -1.
        1   -1    0    0  501    0  0.00000000000E+00  0.00000000000E+00 -0.18476911014E+04  0.18476911014E+04  0.50400001928E-02 0.  1.
    10030    2    1    2    0    0  0.00000000000E+00  0.00000000000E+00  0.10036592318E+03  0.37957481261E+04  0.37944209727E+04 0.  0.
        4    1    3    3  502    0 -0.21463711727E+02 -0.18960092182E+04  0.11419260923E+03  0.18995665851E+04  0.12699999809E+01 0.  1.
       -4    1    3    3    0  502  0.21463711727E+02  0.18960092182E+04 -0.13826686043E+02  0.18961815410E+04  0.12699999809E+01 0. -1.
</event>
<event>
 5   0  0.5147582E-08  0.3799885E+04  0.7818609E-02  0.8046180E-01
        2   -1    0    0  501    0  0.00000000000E+00  0.00000000000E+00  0.17736770350E+04  0.17736770350E+04  0.25500000920E-02 0.  1.
       -2   -1    0    0    0  501  0.00000000000E+00  0.00000000000E+00 -0.20351969057E+04  0.20351969057E+04  0.25500000920E-02 0. -1.
    10030    2    1    2    0    0  0.00000000000E+00  0.00000000000E+00 -0.26151987072E+03  0.38088739407E+04  0.37998852685E+04 0.  0.
        1    1    3    3  502    0  0.15694184305E+04 -0.38186197908E+03 -0.11335710157E+04  0.19732906600E+04  0.50400001928E-02 0. -1.
       -1    1    3    3    0  502 -0.15694184305E+04  0.38186197908E+03  0.87205114498E+03  0.18355832807E+04  0.50400001928E-02 0.  1.
</event>
<event>
 5   0  0.1628250E-08  0.3800338E+04  0.7818609E-02  0.8046082E-01
       -1   -1    0    0    0  501  0.00000000000E+00  0.00000000000E+00  0.21763267299E+04  0.21763267299E+04  0.50400001928E-02 0.  1.
        1   -1    0    0  501    0  0.00000000000E+00  0.00000000000E+00 -0.16590532100E+04  0.16590532100E+04  0.50400001928E-02 0. -1.
    10030    2    1    2    0    0  0.00000000000E+00  0.00000000000E+00  0.51727351996E+03  0.38353799399E+04  0.38003377993E+04 0.  0.
        1    1    3    3  502    0  0.37905723431E+03 -0.10180997527E+04 -0.13147220684E+04  0.17054927764E+04  0.50400001928E-02 0. -1.
       -1    1    3    3    0  502 -0.37905723431E+03  0.10180997527E+04  0.18319955883E+04  0.21298871635E+04  0.50400001928E-02 0.  1.
</event>
<event>
 5   0  0.5207474E-08  0.3799496E+04  0.7818609E-02  0.8046263E-01
       -2   -1    0    0    0  501  0.00000000000E+00  0.00000000000E+00  0.11400011828E+04  0.11400011828E+04  0.25500000920E-02 0.  1.
        2   -1    0    0  501    0  0.00000000000E+00  0.00000000000E+00 -0.31658242690E+04  0.31658242690E+04  0.25500000920E-02 0. -1.
    10030    2    1    2    0    0  0.00000000000E+00  0.00000000000E+00 -0.20258230862E+04  0.43058254518E+04  0.37994964988E+04 0.  0.
        4    1    3    3  502    0  0.46337439149E+03  0.63091987895E+03 -0.29745571980E+04  0.30758361233E+04  0.12699999809E+01 0. -1.
       -4    1    3    3    0  502 -0.46337439149E+03 -0.63091987895E+03  0.94873411179E+03  0.12299893285E+04  0.12699999809E+01 0.  1.
</event>
<event>
 5   0  0.5159761E-08  0.3720942E+04  0.7818609E-02  0.8063337E-01
       -2   -1    0    0    0  501  0.00000000000E+00  0.00000000000E+00  0.13163771982E+04  0.13163771982E+04  0.25500000920E-02 0.  1.
        2   -1    0    0  501    0  0.00000000000E+00  0.00000000000E+00 -0.26294536726E+04  0.26294536726E+04  0.25500000920E-02 0. -1.
    10030    2    1    2    0    0  0.00000000000E+00  0.00000000000E+00 -0.13130764743E+04  0.39458308708E+04  0.37209422776E+04 0.  0.
        5    1    3    3  502    0  0.47306909449E+03 -0.13423435724E+04 -0.19271411342E+04  0.23957411537E+04  0.46999998093E+01 0. -1.
       -5    1    3    3    0  502 -0.47306909449E+03  0.13423435724E+04  0.61406465989E+03  0.15500897171E+04  0.46999998093E+01 0.  1.
</event>
<event>
 5   0  0.5159761E-08  0.3770163E+04  0.7818609E-02  0.8052588E-01
       -2   -1    0    0    0  501  0.00000000000E+00  0.00000000000E+00  0.12717800212E+04  0.12717800212E+04  0.25500000920E-02 0. -1.
        2   -1    0    0  501    0  0.00000000000E+00  0.00000000000E+00 -0.27941412293E+04  0.27941412293E+04  0.25500000920E-02 0.  1.
    10030    2    1    2    0    0  0.00000000000E+00  0.00000000000E+00 -0.15223612080E+04  0.40659212505E+04  0.37701633874E+04 0.  0.
        5    1    3    3  502    0  0.11376736610E+04  0.72458685875E+02  0.85791250491E+03  0.14267401922E+04  0.46999998093E+01 0. -1.
       -5    1    3    3    0  502 -0.11376736610E+04 -0.72458685875E+02 -0.23802737129E+04  0.26391810583E+04  0.46999998093E+01 0.  1.
</event>
<event>
 5   0  0.1628250E-08  0.3795509E+04  0.7818609E-02  0.8047119E-01
        1   -1    0    0  501    0  0.00000000000E+00  0.00000000000E+00  0.24863023309E+04  0.24863023310E+04  0.50400001928E-02 0. -1.
       -1   -1    0    0    0  501  0.00000000000E+00  0.00000000000E+00 -0.14485251348E+04  0.14485251348E+04  0.50400001928E-02 0.  1.
    10030    2    1    2    0    0  0.00000000000E+00  0.00000000000E+00  0.10377771962E+04  0.39348274658E+04  0.37955086189E+04 0.  0.
        4    1    3    3  502    0  0.16289163656E+04 -0.97253891196E+03  0.56827483813E+03  0.19804389326E+04  0.12699999809E+01 0. -1.
       -4    1    3    3    0  502 -0.16289163656E+04  0.97253891196E+03  0.46950235803E+03  0.19543885331E+04  0.12699999809E+01 0.  1.
</event>
<event>
 5   0  0.1628250E-08  0.3803324E+04  0.7818609E-02  0.8045442E-01
        1   -1    0    0  501    0  0.00000000000E+00  0.00000000000E+00  0.14706986228E+04  0.14706986228E+04  0.50400001928E-02 0.  1.
       -1   -1    0    0    0  501  0.00000000000E+00  0.00000000000E+00 -0.24589113617E+04  0.24589113617E+04  0.50400001928E-02 0. -1.
    10030    2    1    2    0    0  0.00000000000E+00  0.00000000000E+00 -0.98821273887E+03  0.39296099845E+04  0.38033235745E+04 0.  0.
        4    1    3    3  502    0  0.58317367157E+03  0.13972295132E+04  0.69474049681E+03  0.16658354705E+04  0.12699999809E+01 0.  1.
       -4    1    3    3    0  502 -0.58317367157E+03 -0.13972295132E+04 -0.16829532357E+04  0.22637745140E+04  0.12699999809E+01 0. -1.
</event>
<event>
 5   0  0.1628250E-08  0.3797040E+04  0.7818609E-02  0.8046790E-01
        1   -1    0    0  501    0  0.00000000000E+00  0.00000000000E+00  0.18753258814E+04  0.18753258815E+04  0.50400001928E-02 0. -1.
       -1   -1    0    0    0  501  0.00000000000E+00  0.00000000000E+00 -0.19220011350E+04  0.19220011350E+04  0.50400001928E-02 0.  1.
    10030    2    1    2    0    0  0.00000000000E+00  0.00000000000E+00 -0.46675253579E+02  0.37973270165E+04  0.37970401487E+04 0.  0.
        1    1    3    3  502    0 -0.96367166118E+03  0.78549694595E+03 -0.14582665569E+04  0.19163010916E+04  0.50400001928E-02 0.  1.
       -1    1    3    3    0  502  0.96367166118E+03 -0.78549694595E+03  0.14115913033E+04  0.18810259249E+04  0.50400001928E-02 0. -1.
</event>
<event>
 5   0  0.5159761E-08  0.3800688E+04  0.7818609E-02  0.8046007E-01
        2   -1    0    0  501    0  0.00000000000E+00  0.00000000000E+00  0.20606433693E+04  0.20606433693E+04  0.25500000920E-02 0. -1.
       -2   -1    0    0    0  501  0.00000000000E+00  0.00000000000E+00 -0.17525149159E+04  0.17525149159E+04  0.25500000920E-02 0.  1.
    10030    2    1    2    0    0  0.00000000000E+00  0.00000000000E+00  0.30812845344E+03  0.38131582852E+04  0.38006884856E+04 0.  0.
        5    1    3    3  502    0 -0.57543608928E+03 -0.52632684542E+03 -0.15845783556E+04  0.17660853026E+04  0.46999998093E+01 0.  1.
       -5    1    3    3    0  502  0.57543608928E+03  0.52632684542E+03  0.18927068091E+04  0.20470729826E+04  0.46999998093E+01 0. -1.
</event>
<event>
 5   0  0.5207474E-08  0.3800014E+04  0.7818609E-02  0.8046152E-01
        2   -1    0    0  501    0  0.00000000000E+00  0.00000000000E+00  0.22886316015E+04  0.22886316015E+04  0.25500000920E-02 0.  1.
       -2   -1    0    0    0  501  0.00000000000E+00  0.00000000000E+00 -0.15773736934E+04  0.15773736934E+04  0.25500000920E-02 0. -1.
    10030    2    1    2    0    0  0.00000000000E+00  0.00000000000E+00  0.71125790815E+03  0.38660052949E+04  0.38000143590E+04 0.  0.
        4    1    3    3  502    0 -0.18717856319E+03 -0.88428676578E+02  0.22771233577E+04  0.22865143438E+04  0.12699999809E+01 0.  1.
       -4    1    3    3    0  502  0.18717856319E+03  0.88428676578E+02 -0.15658654496E+04  0.15794909511E+04  0.12699999809E+01 0. -1.
</event>
<event>
 5   0  0.5147582E-08  0.3799576E+04  0.7818609E-02  0.8046246E-01
       -2   -1    0    0    0  501  0.00000000000E+00  0.00000000000E+00  0.15601314457E+04  0.15601314457E+04  0.25500000920E-02 0. -1.
        2   -1    0    0  501    0  0.00000000000E+00  0.00000000000E+00 -0.23133912157E+04  0.23133912157E+04  0.25500000920E-02 0.  1.
    10030    2    1    2    0    0  0.00000000000E+00  0.00000000000E+00 -0.75325977001E+03  0.38735226614E+04  0.37995759667E+04 0.  0.
        1    1    3    3  502    0  0.28280874078E+03  0.16970017077E+04  0.44490632595E+03  0.17770023125E+04  0.50400001928E-02 0. -1.
       -1    1    3    3    0  502 -0.28280874078E+03 -0.16970017077E+04 -0.11981660960E+04  0.20965203489E+04  0.50400001928E-02 0.  1.
</event>
<event>
 5   0  0.5147582E-08  0.3806434E+04  0.7818609E-02  0.8044776E-01
       -2   -1    0    0    0  501  0.00000000000E+00  0.00000000000E+00  0.16788959290E+04  0.16788959290E+04  0.25500000920E-02 0.  1.
        2   -1    0    0  501    0  0.00000000000E+00  0.00000000000E+00 -0.21575099885E+04  0.21575099885E+04  0.25500000920E-02 0. -1.
    10030    2    1    2    0    0  0.00000000000E+00  0.00000000000E+00 -0.47861405951E+03  0.38364059175E+04  0.38064338883E+04 0.  0.
        1    1    3    3  502    0  0.13796290612E+04  0.12875596893E+04 -0.48833236501E+03  0.19492703247E+04  0.50400001928E-02 0. -1.
       -1    1    3    3    0  502 -0.13796290612E+04 -0.12875596893E+04  0.97183054934E+01  0.18871355928E+04  0.50400001928E-02 0.  1.
</event>
<event>
 5   0  0.1666051E-08  0.3796480E+04  0.7818609E-02  0.8046911E-01
       -1   -1    0    0    0  501  0.00000000000E+00  0.00000000000E+00  0.14305478967E+04  0.14305478968E+04  0.50400001928E-02 0. -1.
        1   -1    0    0  501    0  0.00000000000E+00  0.00000000000E+00 -0.25188359722E+04  0.25188359722E+04  0.50400001928E-02 0.  1.
    10030    2    1    2    0    0  0.00000000000E+00  0.00000000000E+00 -0.10882880755E+04  0.39493838690E+04  0.37964802132E+04 0.  0.
        2    1    3    3  502    0 -0.11836576198E+04  0.24800951954E+03  0.97791795706E+03  0.15552741281E+04  0.25500000920E-02 0. -1.
       -2    1    3    3    0  502  0.11836576198E+04 -0.24800951954E+03 -0.20662060325E+04  0.23941097409E+04  0.25500000920E-02 0.  1.
</event>
<event>
 5   0  0.1628250E-08  0.3800675E+04  0.7818609E-02  0.8046010E-01
        3   -1    0    0  501    0  0.00000000000E+00  0.00000000000E+00  0.19148376946E+04  0.19148376972E+04  0.10100000352E+00 0. -1.
       -3   -1    0    0    0  501  0.00000000000E+00  0.00000000000E+00 -0.18859471148E+04  0.18859471175E+04  0.10100000352E+00 0.  1.
    10030    2    1    2    0    0  0.00000000000E+00  0.00000000000E+00  0.28890579771E+02  0.38007848147E+04  0.38006750114E+04 0.  0.
        2    1    3    3  502    0 -0.61625619387E+03 -0.15753067909E+04 -0.85155862766E+03  0.18938097260E+04  0.25500000920E-02 0.  1.
       -2    1    3    3    0  502  0.61625619387E+03  0.15753067909E+04  0.88044920743E+03  0.19069750887E+04  0.25500000920E-02 0. -1.
</event>
<event>
 5   0  0.5159761E-08  0.3827277E+04  0.7818609E-02  0.8040326E-01
       -2   -1    0    0    0  501  0.00000000000E+00  0.00000000000E+00  0.17924406035E+04  0.17924406035E+04  0.25500000920E-02 0.  1.
        2   -1    0    0  501    0  0.00000000000E+00  0.00000000000E+00 -0.20430317000E+04  0.20430317000E+04  0.25500000920E-02 0. -1.
    10030    2    1    2    0    0  0.00000000000E+00  0.00000000000E+00 -0.25059109654E+03  0.38354723035E+04  0.38272773473E+04 0.  0.
        5    1    3    3  502    0 -0.21413853334E+03  0.15530579177E+04  0.97439023780E+03  0.18458880337E+04  0.46999998093E+01 0.  1.
       -5    1    3    3    0  502  0.21413853334E+03 -0.15530579177E+04 -0.12249813343E+04  0.19895842698E+04  0.46999998093E+01 0. -1.
</event>
<event>
 5   0  0.1628250E-08  0.3811667E+04  0.7818609E-02  0.8043656E-01
        1   -1    0    0  501    0  0.00000000000E+00  0.00000000000E+00  0.19513222468E+04  0.19513222468E+04  0.50400001928E-02 0.  1.
       -1   -1    0    0    0  501  0.00000000000E+00  0.00000000000E+00 -0.18614049571E+04  0.18614049571E+04  0.50400001928E-02 0. -1.
    10030    2    1    2    0    0  0.00000000000E+00  0.00000000000E+00  0.89917289716E+02  0.38127272039E+04  0.38116667761E+04 0.  0.
        4    1    3    3  502    0  0.11823224623E+04  0.14291600150E+04 -0.39312956496E+03  0.18960319673E+04  0.12699999809E+01 0.  1.
       -4    1    3    3    0  502 -0.11823224623E+04 -0.14291600150E+04  0.48304685467E+03  0.19166952366E+04  0.12699999809E+01 0. -1.
</event>
<event>
 5   0  0.5140842E-08  0.3800542E+04  0.7818609E-02  0.8046039E-01
        2   -1    0    0  501    0  0.00000000000E+00  0.00000000000E+00  0.18981446002E+04  0.18981446002E+04  0.25500000920E-02 0.  1.
       -2   -1    0    0    0  501  0.00000000000E+00  0.00000000000E+00 -0.19023999575E+04  0.19023999575E+04  0.25500000920E-02 0. -1.
    10030    2    1    2    0    0  0.00000000000E+00  0.00000000000E+00 -0.42553572254E+01  0.38005445577E+04  0.38005421754E+04 0.  0.
        2    1    3    3  502    0 -0.12152395899E+04 -0.82345719639E+03  0.12045798324E+04  0.18989211642E+04  0.25500000920E-02 0.  1.
       -2    1    3    3    0  502  0.12152395899E+04  0.82345719639E+03 -0.12088351896E+04  0.19016233935E+04  0.25500000920E-02 0. -1.
</event>
<event>
 5   0  0.1628250E-08  0.3791717E+04  0.7818609E-02  0.8047935E-01
       -1   -1    0    0    0  501  0.00000000000E+00  0.00000000000E+00  0.18924810994E+04  0.18924810994E+04  0.50400001928E-02 0.  1.
        1   -1    0    0  501    0  0.00000000000E+00  0.00000000000E+00 -0.18992420056E+04  0.18992420056E+04  0.50400001928E-02 0. -1.
    10030    2    1    2    0    0  0.00000000000E+00  0.00000000000E+00 -0.67609061975E+01  0.37917231049E+04  0.37917170773E+04 0.  0.
        1    1    3    3  502    0  0.49638043283E+02 -0.78521656988E+03 -0.17282746704E+04  0.18989371589E+04  0.50400001928E-02 0. -1.
       -1    1    3    3    0  502 -0.49638043283E+02  0.78521656988E+03  0.17215137643E+04  0.18927859460E+04  0.50400001928E-02 0.  1.
</event>
<event>
 5   0  0.5086209E-08  0.3849129E+04  0.7818609E-02  0.8035693E-01
       -2   -1    0    0    0  501  0.00000000000E+00  0.00000000000E+00  0.14569745480E+04  0.14569745480E+04  0.25500000920E-02 0. -1.
        2   -1    0    0  501    0  0.00000000000E+00  0.00000000000E+00 -0.25422185951E+04  0.25422185951E+04  0.25500000920E-02 0.  1.
    10030    2    1    2    0    0  0.00000000000E+00  0.00000000000E+00 -0.10852440472E+04  0.39991931431E+04  0.38491286227E+04 0.  0.
        3    1    3    3  502    0  0.16176218612E+04  0.20062356794E+03  0.52049916223E+03  0.17111018935E+04  0.10100000352E+00 0. -1.
       -3    1    3    3    0  502 -0.16176218612E+04 -0.20062356794E+03 -0.16057432094E+04  0.22880912496E+04  0.10100000352E+00 0.  1.
</event>
<event>
 5   0  0.5159761E-08  0.3858456E+04  0.7818609E-02  0.8033726E-01
        2   -1    0    0  501    0  0.00000000000E+00  0.00000000000E+00  0.27303974181E+04  0.27303974181E+04  0.25500000920E-02 0. -1.
       -2   -1    0    0    0  501  0.00000000000E+00  0.00000000000E+00 -0.13631421848E+04  0.13631421848E+04  0.25500000920E-02 0.  1.
    10030    2    1    2    0    0  0.00000000000E+00  0.00000000000E+00  0.13672552333E+04  0.40935396029E+04  0.38584555987E+04 0.  0.
        5    1    3    3  502    0  0.21000248023E+03 -0.16804840844E+04  0.16639206984E+04  0.23741908053E+04  0.46999998093E+01 0.  1.
       -5    1    3    3    0  502 -0.21000248023E+03  0.16804840844E+04 -0.29666546505E+03  0.17193487976E+04  0.46999998093E+01 0. -1.
</event>
<event>
 5   0  0.1628250E-08  0.3886351E+04  0.7818609E-02  0.8027874E-01
        1   -1    0    0  501    0  0.00000000000E+00  0.00000000000E+00  0.25431007873E+04  0.25431007873E+04  0.50400001928E-02 0. -1.
       -1   -1    0    0    0  501  0.00000000000E+00  0.00000000000E+00 -0.14847745607E+04  0.14847745607E+04  0.50400001928E-02 0.  1.
    10030    2    1    2    0    0  0.00000000000E+00  0.00000000000E+00  0.10583262266E+04  0.40278753480E+04  0.38863511701E+04 0.  0.
        1    1    3    3  502    0  0.15019684633E+04  0.56241273162E+03  0.16662552032E+04  0.23127091793E+04  0.50400001928E-02 0. -1.
       -1    1    3    3    0  502 -0.15019684633E+04 -0.56241273162E+03 -0.60792897668E+03  0.17151661687E+04  0.50400001928E-02 0.  1.
</event>
<event>
 5   0  0.1628250E-08  0.3800261E+04  0.7818609E-02  0.8046099E-01
       -1   -1    0    0    0  501  0.00000000000E+00  0.00000000000E+00  0.14879418458E+04  0.14879418458E+04  0.50400001928E-02 0.  1.
        1   -1    0    0  501    0  0.00000000000E+00  0.00000000000E+00 -0.24265032845E+04  0.24265032845E+04  0.50400001928E-02 0. -1.
    10030    2    1    2    0    0  0.00000000000E+00  0.00000000000E+00 -0.93856143866E+03  0.39144451303E+04  0.38002609258E+04 0.  0.
        4    1    3    3  502    0 -0.10844925642E+04  0.14177398585E+04 -0.11403017917E+04  0.21181124185E+04  0.12699999809E+01 0. -1.
       -4    1    3    3    0  502  0.10844925642E+04 -0.14177398585E+04  0.20174035307E+03  0.17963327118E+04  0.12699999809E+01 0.  1.
</event>
<event>
 5   0  0.1628250E-08  0.3791659E+04  0.7818609E-02  0.8047947E-01
        1   -1    0    0  501    0  0.00000000000E+00  0.00000000000E+00  0.28861398173E+04  0.28861398173E+04  0.50400001928E-02 0. -1.
       -1   -1    0    0    0  501  0.00000000000E+00  0.00000000000E+00 -0.12453204877E+04  0.12453204877E+04  0.50400001928E-02 0.  1.
    10030    2    1    2    0    0  0.00000000000E+00  0.00000000000E+00  0.16408193296E+04  0.41314603050E+04  0.37916587636E+04 0.  0.
        5    1    3    3  502    0  0.39592192813E+03 -0.58636772382E+03 -0.10960690896E+04  0.13045960370E+04  0.46999998093E+01 0.  1.
       -5    1    3    3    0  502 -0.39592192813E+03  0.58636772382E+03  0.27368884192E+04  0.28268642680E+04  0.46999998093E+01 0. -1.
</event>
<event>
 5   0  0.5159761E-08  0.3802421E+04  0.7818609E-02  0.8045635E-01
        2   -1    0    0  501    0  0.00000000000E+00  0.00000000000E+00  0.13064193873E+04  0.13064193873E+04  0.25500000920E-02 0.  1.
       -2   -1    0    0    0  501  0.00000000000E+00  0.00000000000E+00 -0.27668005030E+04  0.27668005030E+04  0.25500000920E-02 0. -1.
    10030    2    1    2    0    0  0.00000000000E+00  0.00000000000E+00 -0.14603811157E+04  0.40732198903E+04  0.38024212381E+04 0.  0.
        5    1    3    3  502    0  0.93264695533E+03  0.71082725340E+03 -0.23332537456E+04  0.26113599635E+04  0.46999998093E+01 0. -1.
       -5    1    3    3    0  502 -0.93264695533E+03 -0.71082725340E+03  0.87287262997E+03  0.14618599268E+04  0.46999998093E+01 0.  1.
</event>
<event>
 5   0  0.5159761E-08  0.3805398E+04  0.7818609E-02  0.8044998E-01
       -2   -1    0    0    0  501  0.00000000000E+00  0.00000000000E+00  0.16927631400E+04  0.16927631401E+04  0.25500000920E-02 0. -1.
        2   -1    0    0  501    0  0.00000000000E+00  0.00000000000E+00 -0.21386709065E+04  0.21386709065E+04  0.25500000920E-02 0.  1.
    10030    2    1    2    0    0  0.00000000000E+00  0.00000000000E+00 -0.44590776644E+03  0.38314340465E+04  0.38053978920E+04 0.  0.
        5    1    3    3  502    0  0.40312998628E+03  0.15268592309E+04 -0.12915486817E+04  0.20400816121E+04  0.46999998093E+01 0.  1.
       -5    1    3    3    0  502 -0.40312998628E+03 -0.15268592309E+04  0.84564091524E+03  0.17913524344E+04  0.46999998093E+01 0. -1.
</event>
<event>
 5   0  0.5086209E-08  0.3782948E+04  0.7818609E-02  0.8049824E-01
        2   -1    0    0  501    0  0.00000000000E+00  0.00000000000E+00  0.16899018292E+04  0.16899018292E+04  0.25500000920E-02 0.  1.
       -2   -1    0    0    0  501  0.00000000000E+00  0.00000000000E+00 -0.21170894731E+04  0.21170894731E+04  0.25500000920E-02 0. -1.
    10030    2    1    2    0    0  0.00000000000E+00  0.00000000000E+00 -0.42718764390E+03  0.38069913023E+04  0.37829477254E+04 0.  0.
        3    1    3    3  502    0 -0.86268918285E+03 -0.11672805061E+04 -0.14341075519E+04  0.20404511478E+04  0.10100000352E+00 0. -1.
       -3    1    3    3    0  502  0.86268918285E+03  0.11672805061E+04  0.10069199080E+04  0.17665401545E+04  0.10100000352E+00 0.  1.
</event>
<event>
 5   0  0.5159761E-08  0.3800725E+04  0.7818609E-02  0.8045999E-01
        2   -1    0    0  501    0  0.00000000000E+00  0.00000000000E+00  0.26720815799E+04  0.26720815799E+04  0.25500000920E-02 0. -1.
       -2   -1    0    0    0  501  0.00000000000E+00  0.00000000000E+00 -0.13515219922E+04  0.13515219922E+04  0.25500000920E-02 0.  1.
    10030    2    1    2    0    0  0.00000000000E+00  0.00000000000E+00  0.13205595878E+04  0.40236035721E+04  0.38007246784E+04 0.  0.
        5    1    3    3  502    0  0.13429148623E+04 -0.12365003406E+04  0.10109925082E+03  0.18282769397E+04  0.46999998093E+01 0.  1.
       -5    1    3    3    0  502 -0.13429148623E+04  0.12365003406E+04  0.12194603370E+04  0.21953266324E+04  0.46999998093E+01 0. -1.
</event>
<event>
 5   0  0.1666051E-08  0.3789463E+04  0.7818609E-02  0.8048420E-01
        1   -1    0    0  501    0  0.00000000000E+00  0.00000000000E+00  0.26847424337E+04  0.26847424337E+04  0.50400001928E-02 0. -1.
       -1   -1    0    0    0  501  0.00000000000E+00  0.00000000000E+00 -0.13371890378E+04  0.13371890378E+04  0.50400001928E-02 0.  1.
    10030    2    1    2    0    0  0.00000000000E+00  0.00000000000E+00  0.13475533959E+04  0.40219314715E+04  0.37894633666E+04 0.  0.
        2    1    3    3  502    0 -0.64589359763E+03  0.11894655596E+04 -0.73345804502E+03  0.15394698960E+04  0.25500000920E-02 0.  1.
       -2    1    3    3    0  502  0.64589359763E+03 -0.11894655596E+04  0.20810114409E+04  0.24824615755E+04  0.25500000920E-02 0. -1.
</event>
<event>
 5   0  0.5086209E-08  0.3798458E+04  0.7818609E-02  0.8046486E-01
        2   -1    0    0  501    0  0.00000000000E+00  0.00000000000E+00  0.13595178254E+04  0.13595178254E+04  0.25500000920E-02 0.  1.
       -2   -1    0    0    0  501  0.00000000000E+00  0.00000000000E+00 -0.26531980641E+04  0.26531980641E+04  0.25500000920E-02 0. -1.
    10030    2    1    2    0    0  0.00000000000E+00  0.00000000000E+00 -0.12936802387E+04  0.40127158895E+04  0.37984576146E+04 0.  0.
        3    1    3    3  502    0  0.13709400030E+01 -0.18821770697E+04 -0.91508764847E+03  0.20928396537E+04  0.10100000352E+00 0.  1.
       -3    1    3    3    0  502 -0.13709400030E+01  0.18821770697E+04 -0.37859259024E+03  0.19198762358E+04  0.10100000352E+00 0. -1.
</event>
<event>
 5   0  0.5207474E-08  0.3796754E+04  0.7818609E-02  0.8046852E-01
        2   -1    0    0  501    0  0.00000000000E+00  0.00000000000E+00  0.23776693829E+04  0.23776693829E+04  0.25500000920E-02 0.  1.
       -2   -1    0    0    0  501  0.00000000000E+00  0.00000000000E+00 -0.15157007134E+04  0.15157007134E+04  0.25500000920E-02 0. -1.
    10030    2    1    2    0    0  0.00000000000E+00  0.00000000000E+00  0.86196866949E+03  0.38933700963E+04  0.37967539714E+04 0.  0.
        4    1    3    3  502    0 -0.14180167234E+04  0.12422820369E+04  0.65981641813E+03  0.19973470920E+04  0.12699999809E+01 0.  1.
       -4    1    3    3    0  502  0.14180167234E+04 -0.12422820369E+04  0.20215225135E+03  0.18960230043E+04  0.12699999809E+01 0. -1.
</event>
<event>
 5   0  0.5086209E-08  0.3784441E+04  0.7818609E-02  0.8049502E-01
       -2   -1    0    0    0  501  0.00000000000E+00  0.00000000000E+00  0.13517313508E+04  0.13517313508E+04  0.25500000920E-02 0. -1.
        2   -1    0    0  501    0  0.00000000000E+00  0.00000000000E+00 -0.26488241526E+04  0.26488241526E+04  0.25500000920E-02 0.  1.
    10030    2    1    2    0    0  0.00000000000E+00  0.00000000000E+00 -0.12970928018E+04  0.40005555035E+04  0.37844411212E+04 0.  0.
        3    1    3    3  502    0 -0.17807415785E+04  0.63842310863E+03 -0.69430828304E+03  0.20151150432E+04  0.10100000352E+00 0.  1.
       -3    1    3    3    0  502  0.17807415785E+04 -0.63842310863E+03 -0.60278451880E+03  0.19854404603E+04  0.10100000352E+00 0. -1.
</event>
<event>
 5   0  0.1666051E-08  0.3802220E+04  0.7818609E-02  0.8045679E-01
        1   -1    0    0  501    0  0.00000000000E+00  0.00000000000E+00  0.12149013501E+04  0.12149013501E+04  0.50400001928E-02 0. -1.
       -1   -1    0    0    0  501  0.00000000000E+00  0.00000000000E+00 -0.29749069712E+04  0.29749069712E+04  0.50400001928E-02 0.  1.
    10030    2    1    2    0    0  0.00000000000E+00  0.00000000000E+00 -0.17600056211E+04  0.41898083212E+04  0.38022196126E+04 0.  0.
        2    1    3    3  502    0  0.16209532672E+04 -0.31915414465E+03 -0.19165679592E+04  0.25303323111E+04  0.25500000920E-02 0.  1.
       -2    1    3    3    0  502 -0.16209532672E+04  0.31915414465E+03  0.15656233813E+03  0.16594760101E+04  0.25500000920E-02 0. -1.
</event>
<event>
 5   0  0.5140842E-08  0.3813790E+04  0.7818609E-02  0.8043202E-01
        2   -1    0    0  501    0  0.00000000000E+00  0.00000000000E+00  0.11644237615E+04  0.11644237615E+04  0.25500000920E-02 0. -1.
       -2   -1    0    0    0  501  0.00000000000E+00  0.00000000000E+00 -0.31227884239E+04  0.31227884239E+04  0.25500000920E-02 0.  1.
    10030    2    1    2    0    0  0.00000000000E+00  0.00000000000E+00 -0.19583646624E+04  0.42872121854E+04  0.38137902632E+04 0.  0.
        2    1    3    3  502    0 -0.57573742410E+03  0.17132445584E+04 -0.29579696846E+03  0.18314410569E+04  0.25500000920E-02 0. -1.
       -2    1    3    3    0  502  0.57573742410E+03 -0.17132445584E+04 -0.16625676940E+04  0.24557711285E+04  0.25500000920E-02 0.  1.
</event>
<event>
 5   0  0.1628250E-08  0.3810895E+04  0.7818609E-02  0.8043821E-01
        1   -1    0    0  501    0  0.00000000000E+00  0.00000000000E+00  0.12844267806E+04  0.12844267806E+04  0.50400001928E-02 0.  1.
       -1   -1    0    0    0  501  0.00000000000E+00  0.00000000000E+00 -0.28267326552E+04  0.28267326552E+04  0.50400001928E-02 0. -1.
    10030    2    1    2    0    0  0.00000000000E+00  0.00000000000E+00 -0.15423058746E+04  0.41111594357E+04  0.38108954978E+04 0.  0.
        4    1    3    3  502    0  0.12871521235E+04  0.13276948077E+04 -0.12669221202E+04  0.22415680589E+04  0.12699999809E+01 0.  1.
       -4    1    3    3    0  502 -0.12871521235E+04 -0.13276948077E+04 -0.27538375444E+03  0.18695913768E+04  0.12699999809E+01 0. -1.
</event>
<event>
 5   0  0.1628250E-08  0.3798107E+04  0.7818609E-02  0.8046561E-01
        1   -1    0    0  501    0  0.00000000000E+00  0.00000000000E+00  0.22210619129E+04  0.22210619129E+04  0.50400001928E-02 0. -1.
       -1   -1    0    0    0  501  0.00000000000E+00  0.00000000000E+00 -0.16237293884E+04  0.16237293884E+04  0.50400001928E-02 0.  1.
    10030    2    1    2    0    0  0.00000000000E+00  0.00000000000E+00  0.59733252455E+03  0.38447913013E+04  0.37981066343E+04 0.  0.
        4    1    3    3  502    0 -0.10040435112E+04 -0.67982457184E+03  0.17781839970E+04  0.21522557378E+04  0.12699999809E+01 0. -1.
       -4    1    3    3    0  502  0.10040435112E+04  0.67982457184E+03 -0.11808514725E+04  0.16925355635E+04  0.12699999809E+01 0.  1.
</event>
<event>
 5   0  0.5207474E-08  0.3803909E+04  0.7818609E-02  0.8045317E-01
       -2   -1    0    0    0  501  0.00000000000E+00  0.00000000000E+00  0.20147844757E+04  0.20147844757E+04  0.25500000920E-02 0. -1.
        2   -1    0    0  501    0  0.00000000000E+00  0.00000000000E+00 -0.17954429319E+04  0.17954429319E+04  0.25500000920E-02 0.  1.
    10030    2    1    2    0    0  0.00000000000E+00  0.00000000000E+00  0.21934154377E+03  0.38102274076E+04  0.38039088034E+04 0.  0.
        4    1    3    3  502    0 -0.95878144722E+03 -0.16336535901E+04  0.28125334866E+03  0.19149911162E+04  0.12699999809E+01 0.  1.
       -4    1    3    3    0  502  0.95878144722E+03  0.16336535901E+04 -0.61911804890E+02  0.18952362914E+04  0.12699999809E+01 0. -1.
</event>
<event>
 5   0  0.1628250E-08  0.3803094E+04  0.7818609E-02  0.8045491E-01
        1   -1    0    0  501    0  0.00000000000E+00  0.00000000000E+00  0.13561965125E+04  0.13561965125E+04  0.50400001928E-02 0. -1.
       -1   -1    0    0    0  501  0.00000000000E+00  0.00000000000E+00 -0.26661923920E+04  0.26661923920E+04  0.50400001928E-02 0.  1.
    10030    2    1    2    0    0  0.00000000000E+00  0.00000000000E+00 -0.13099958795E+04  0.40223889045E+04  0.38030939108E+04 0.  0.
        5    1    3    3  502    0  0.10528282761E+04 -0.14924816903E+04 -0.12145700086E+04  0.21934336941E+04  0.46999998093E+01 0. -1.
       -5    1    3    3    0  502 -0.10528282761E+04  0.14924816903E+04 -0.95425870898E+02  0.18289552104E+04  0.46999998093E+01 0.  1.
</event>
<event>
 5   0  0.1666051E-08  0.3790108E+04  0.7818609E-02  0.8048281E-01
        1   -1    0    0  501    0  0.00000000000E+00  0.00000000000E+00  0.24350264289E+04  0.24350264289E+04  0.50400001928E-02 0.  1.
       -1   -1    0    0    0  501  0.00000000000E+00  0.00000000000E+00 -0.14748219042E+04  0.14748219042E+04  0.50400001928E-02 0. -1.
    10030    2    1    2    0    0  0.00000000000E+00  0.00000000000E+00  0.96020452471E+03  0.39098483331E+04  0.37901083439E+04 0.  0.
        2    1    3    3  502    0 -0.66901536583E+02 -0.15918546344E+04 -0.57835078199E+03  0.16949827786E+04  0.25500000920E-02 0. -1.
       -2    1    3    3    0  502  0.66901536583E+02  0.15918546344E+04  0.15385553067E+04  0.22148655545E+04  0.25500000920E-02 0.  1.
</event>
<event>
 5   0  0.5086209E-08  0.3797110E+04  0.7818609E-02  0.8046775E-01
        2   -1    0    0  501    0  0.00000000000E+00  0.00000000000E+00  0.19847137228E+04  0.19847137228E+04  0.25500000920E-02 0. -1.
       -2   -1    0    0    0  501  0.00000000000E+00  0.00000000000E+00 -0.18161360903E+04  0.18161360903E+04  0.25500000920E-02 0.  1.
    10030    2    1    2    0    0  0.00000000000E+00  0.00000000000E+00  0.16857763252E+03  0.38008498131E+04  0.37971095432E+04 0.  0.
        3    1    3    3  502    0 -0.14959764453E+04 -0.75156573703E+03 -0.81197779119E+03  0.18606731378E+04  0.10100000352E+00 0.  1.
       -3    1    3    3    0  502  0.14959764453E+04  0.75156573703E+03  0.98055542371E+03  0.19401766753E+04  0.10100000352E+00 0. -1.
</event>
<event>
 5   0  0.5086209E-08  0.3793802E+04  0.7818609E-02  0.8047486E-01
        2   -1    0    0  501    0  0.00000000000E+00  0.00000000000E+00  0.19079155168E+04  0.19079155168E+04  0.25500000920E-02 0. -1.
       -2   -1    0    0    0  501  0.00000000000E+00  0.00000000000E+00 -0.18859502147E+04  0.18859502147E+04  0.25500000920E-02 0.  1.
    10030    2    1    2    0    0  0.00000000000E+00  0.00000000000E+00  0.21965302150E+02  0.37938657315E+04  0.37938021449E+04 0.  0.
        3    1    3    3  502    0 -0.45502628017E+03  0.13840243369E+04  0.12257710500E+04  0.19039661126E+04  0.10100000352E+00 0. -1.
       -3    1    3    3    0  502  0.45502628017E+03 -0.13840243369E+04 -0.12038057479E+04  0.18898996189E+04  0.10100000352E+00 0.  1.
</event>
<event>
 5   0  0.5207474E-08  0.3814227E+04  0.7818609E-02  0.8043109E-01
        2   -1    0    0  501    0  0.00000000000E+00  0.00000000000E+00  0.17773541668E+04  0.17773541668E+04  0.25500000920E-02 0. -1.
       -2   -1    0    0    0  501  0.00000000000E+00  0.00000000000E+00 -0.20463462617E+04  0.20463462617E+04  0.25500000920E-02 0.  1.
    10030    2    1    2    0    0  0.00000000000E+00  0.00000000000E+00 -0.26899209486E+03  0.38237004285E+04  0.38142270803E+04 0.  0.
        4    1    3    3  502    0 -0.15013969495E+04  0.70271326753E+03  0.81075714229E+03  0.18453529453E+04  0.12699999809E+01 0. -1.
       -4    1    3    3    0  502  0.15013969495E+04 -0.70271326753E+03 -0.10797492371E+04  0.19783474832E+04  0.12699999809E+01 0.  1.
</event>
<event>
 5   0  0.1628250E-08  0.3765206E+04  0.7818609E-02  0.8053663E-01
        1   -1    0    0  501    0  0.00000000000E+00  0.00000000000E+00  0.18923257458E+04  0.18923257458E+04  0.50400001928E-02 0. -1.
       -1   -1    0    0    0  501  0.00000000000E+00  0.00000000000E+00 -0.18729297351E+04  0.18729297351E+04  0.50400001928E-02 0.  1.
    10030    2    1    2    0    0  0.00000000000E+00  0.00000000000E+00  0.19396010681E+02  0.37652554809E+04  0.37652055231E+04 0.  0.
        1    1    3    3  502    0  0.15608693240E+04 -0.48545033483E+03  0.94363656301E+03  0.18874387506E+04  0.50400001928E-02 0. -1.
       -1    1    3    3    0  502 -0.15608693240E+04  0.48545033483E+03 -0.92424055233E+03  0.18778167303E+04  0.50400001928E-02 0.  1.
</event>
<event>
 5   0  0.5207474E-08  0.3803176E+04  0.7818609E-02  0.8045474E-01
       -2   -1    0    0    0  501  0.00000000000E+00  0.00000000000E+00  0.23565389258E+04  0.23565389258E+04  0.25500000920E-02 0. -1.
        2   -1    0    0  501    0  0.00000000000E+00  0.00000000000E+00 -0.15344692159E+04  0.15344692159E+04  0.25500000920E-02 0.  1.
    10030    2    1    2    0    0  0.00000000000E+00  0.00000000000E+00  0.82206970994E+03  0.38910081417E+04  0.38031757454E+04 0.  0.
        4    1    3    3  502    0  0.17810587287E+04 -0.61953821296E+03  0.66171812599E+03  0.19984669834E+04  0.12699999809E+01 0. -1.
       -4    1    3    3    0  502 -0.17810587287E+04  0.61953821296E+03  0.16035158395E+03  0.18925411583E+04  0.12699999809E+01 0.  1.
</event>
<event>
 5   0  0.1628473E-08  0.3784090E+04  0.7818609E-02  0.8049578E-01
        1   -1    0    0  501    0  0.00000000000E+00  0.00000000000E+00  0.17938444115E+04  0.17938444115E+04  0.50400001928E-02 0. -1.
       -1   -1    0    0    0  501  0.00000000000E+00  0.00000000000E+00 -0.19956209971E+04  0.19956209971E+04  0.50400001928E-02 0.  1.
    10030    2    1    2    0    0  0.00000000000E+00  0.00000000000E+00 -0.20177658560E+03  0.37894654086E+04  0.37840896254E+04 0.  0.
        3    1    3    3  502    0  0.12937106381E+04 -0.54284071498E+03 -0.13721286939E+04  0.19624220800E+04  0.10100000352E+00 0.  1.
       -3    1    3    3    0  502 -0.12937106381E+04  0.54284071498E+03  0.11703521083E+04  0.18270433287E+04  0.10100000352E+00 0. -1.
</event>
<event>
 5   0  0.5086209E-08  0.3802556E+04  0.7818609E-02  0.8045607E-01
        2   -1    0    0  501    0  0.00000000000E+00  0.00000000000E+00  0.20951432821E+04  0.20951432821E+04  0.25500000920E-02 0. -1.
       -2   -1    0    0    0  501  0.00000000000E+00  0.00000000000E+00 -0.17253511859E+04  0.17253511859E+04  0.25500000920E-02 0.  1.
    10030    2    1    2    0    0  0.00000000000E+00  0.00000000000E+00  0.36979209623E+03  0.38204944681E+04  0.38025559544E+04 0.  0.
        3    1    3    3  502    0 -0.12585406494E+04 -0.81705740843E+03 -0.98823825081E+03  0.17966975888E+04  0.10100000352E+00 0.  1.
       -3    1    3    3    0  502  0.12585406494E+04  0.81705740843E+03  0.13580303470E+04  0.20237968793E+04  0.10100000352E+00 0. -1.
</event>
<event>
 5   0  0.5086209E-08  0.3797003E+04  0.7818609E-02  0.8046798E-01
       -2   -1    0    0    0  501  0.00000000000E+00  0.00000000000E+00  0.15412610599E+04  0.15412610599E+04  0.25500000920E-02 0.  1.
        2   -1    0    0  501    0  0.00000000000E+00  0.00000000000E+00 -0.23385451626E+04  0.23385451626E+04  0.25500000920E-02 0. -1.
    10030    2    1    2    0    0  0.00000000000E+00  0.00000000000E+00 -0.79728410275E+03  0.38798062225E+04  0.37970033426E+04 0.  0.
        3    1    3    3  502    0 -0.22715529509E+03 -0.46418810156E+03 -0.22652911117E+04  0.23234917587E+04  0.10100000352E+00 0. -1.
       -3    1    3    3    0  502  0.22715529509E+03  0.46418810156E+03  0.14680070089E+04  0.15563144638E+04  0.10100000352E+00 0.  1.
</event>
<event>
 5   0  0.1628250E-08  0.3727934E+04  0.7818609E-02  0.8061799E-01
       -1   -1    0    0    0  501  0.00000000000E+00  0.00000000000E+00  0.24290661272E+04  0.24290661272E+04  0.50400001928E-02 0. -1.
        1   -1    0    0  501    0  0.00000000000E+00  0.00000000000E+00 -0.14303328875E+04  0.14303328875E+04  0.50400001928E-02 0.  1.
    10030    2    1    2    0    0  0.00000000000E+00  0.00000000000E+00  0.99873323975E+03  0.38593990147E+04  0.37279341022E+04 0.  0.
        1    1    3    3  502    0  0.12819147313E+04  0.11143197596E+04  0.12941367042E+04  0.21353696902E+04  0.50400001928E-02 0. -1.
       -1    1    3    3    0  502 -0.12819147313E+04 -0.11143197596E+04 -0.29540346441E+03  0.17240293245E+04  0.50400001928E-02 0.  1.
</event>
<event>
 5   0  0.1628250E-08  0.3799580E+04  0.7818609E-02  0.8046245E-01
       -1   -1    0    0    0  501  0.00000000000E+00  0.00000000000E+00  0.12824811500E+04  0.12824811501E+04  0.50400001928E-02 0.  1.
        1   -1    0    0  501    0  0.00000000000E+00  0.00000000000E+00 -0.28142338989E+04  0.28142338989E+04  0.50400001928E-02 0. -1.
    10030    2    1    2    0    0  0.00000000000E+00  0.00000000000E+00 -0.15317527489E+04  0.40967150489E+04  0.37995799385E+04 0.  0.
        1    1    3    3  502    0  0.88588923804E+03 -0.16657243345E+04 -0.52535119549E+03  0.19584256889E+04  0.50400001928E-02 0.  1.
       -1    1    3    3    0  502 -0.88588923804E+03  0.16657243345E+04 -0.10064015534E+04  0.21382893600E+04  0.50400001928E-02 0. -1.
</event>
<event>
 5   0  0.5147582E-08  0.3811317E+04  0.7818609E-02  0.8043731E-01
       -2   -1    0    0    0  501  0.00000000000E+00  0.00000000000E+00  0.27114039957E+04  0.27114039957E+04  0.25500000920E-02 0. -1.
        2   -1    0    0  501    0  0.00000000000E+00  0.00000000000E+00 -0.13393555799E+04  0.13393555799E+04  0.25500000920E-02 0.  1.
    10030    2    1    2    0    0  0.00000000000E+00  0.00000000000E+00  0.13720484159E+04  0.40507595756E+04  0.38113168701E+04 0.  0.
        1    1    3    3  502    0  0.91415242919E+03 -0.58936490220E+03  0.23491006471E+04  0.25886868297E+04  0.50400001928E-02 0. -1.
       -1    1    3    3    0  502 -0.91415242919E+03  0.58936490220E+03 -0.97705223127E+03  0.14620727459E+04  0.50400001928E-02 0.  1.
</event>
<event>
 5   0  0.1628250E-08  0.3800741E+04  0.7818609E-02  0.8045996E-01
        1   -1    0    0  501    0  0.00000000000E+00  0.00000000000E+00  0.28575470180E+04  0.28575470180E+04  0.50400001928E-02 0.  1.
       -1   -1    0    0    0  501  0.00000000000E+00  0.00000000000E+00 -0.12638141902E+04  0.12638141902E+04  0.50400001928E-02 0. -1.
    10030    2    1    2    0    0  0.00000000000E+00  0.00000000000E+00  0.15937328278E+04  0.41213612082E+04  0.38007412279E+04 0.  0.
        4    1    3    3  502    0  0.13063023459E+04 -0.13695074644E+04  0.98289087003E+03  0.21326163718E+04  0.12699999809E+01 0.  1.
       -4    1    3    3    0  502 -0.13063023459E+04  0.13695074644E+04  0.61084195781E+03  0.19887448364E+04  0.12699999809E+01 0. -1.
</event>
<event>
 5   0  0.5159761E-08  0.3798953E+04  0.7818609E-02  0.8046380E-01
        2   -1    0    0  501    0  0.00000000000E+00  0.00000000000E+00  0.15524404326E+04  0.15524404326E+04  0.25500000920E-02 0. -1.
       -2   -1    0    0    0  501  0.00000000000E+00  0.00000000000E+00 -0.23240901173E+04  0.23240901173E+04  0.25500000920E-02 0.  1.
    10030    2    1    2    0    0  0.00000000000E+00  0.00000000000E+00 -0.77164968469E+03  0.38765305499E+04  0.37989532596E+04 0.  0.
        5    1    3    3  502    0 -0.11501839122E+03  0.12561024940E+03  0.15446272602E+04  0.15539956975E+04  0.46999998093E+01 0. -1.
       -5    1    3    3    0  502  0.11501839122E+03 -0.12561024940E+03 -0.23162769449E+04  0.23225348524E+04  0.46999998093E+01 0.  1.
</event>
<event>
 5   0  0.1666051E-08  0.3810132E+04  0.7818609E-02  0.8043984E-01
       -1   -1    0    0    0  501  0.00000000000E+00  0.00000000000E+00  0.15139279170E+04  0.15139279170E+04  0.50400001928E-02 0. -1.
        1   -1    0    0  501    0  0.00000000000E+00  0.00000000000E+00 -0.23972589843E+04  0.23972589843E+04  0.50400001928E-02 0.  1.
    10030    2    1    2    0    0  0.00000000000E+00  0.00000000000E+00 -0.88333106728E+03  0.39111869013E+04  0.38101324389E+04 0.  0.
        2    1    3    3  502    0  0.17261830954E+04  0.74045669966E+03 -0.76837252201E+03  0.20293793474E+04  0.25500000920E-02 0. -1.
       -2    1    3    3    0  502 -0.17261830954E+04 -0.74045669966E+03 -0.11495854527E+03  0.18818075539E+04  0.25500000920E-02 0.  1.
</event>
<event>
 5   0  0.1628250E-08  0.3738477E+04  0.7818609E-02  0.8059488E-01
        1   -1    0    0  501    0  0.00000000000E+00  0.00000000000E+00  0.11720291053E+04  0.11720291053E+04  0.50400001928E-02 0. -1.
       -1   -1    0    0    0  501  0.00000000000E+00  0.00000000000E+00 -0.29811986967E+04  0.29811986967E+04  0.50400001928E-02 0.  1.
    10030    2    1    2    0    0  0.00000000000E+00  0.00000000000E+00 -0.18091695914E+04  0.41532278020E+04  0.37384765032E+04 0.  0.
        5    1    3    3  502    0  0.26416578577E+03  0.54576884629E+03 -0.28689043621E+04  0.29322826475E+04  0.46999998093E+01 0.  1.
       -5    1    3    3    0  502 -0.26416578577E+03 -0.54576884629E+03  0.10597347707E+04  0.12209451545E+04  0.46999998093E+01 0. -1.
</event>
<event>
 5   0  0.1628473E-08  0.3794353E+04  0.7818609E-02  0.8047368E-01
       -1   -1    0    0    0  501  0.00000000000E+00  0.00000000000E+00  0.20866342129E+04  0.20866342129E+04  0.50400001928E-02 0.  1.
        1   -1    0    0  501    0  0.00000000000E+00  0.00000000000E+00 -0.17249204924E+04  0.17249204924E+04  0.50400001928E-02 0. -1.
    10030    2    1    2    0    0  0.00000000000E+00  0.00000000000E+00  0.36171372050E+03  0.38115547053E+04  0.37943527058E+04 0.  0.
        3    1    3    3  502    0 -0.62752968765E+02 -0.18955572055E+04  0.22800630432E+03  0.19102518000E+04  0.10100000352E+00 0.  1.
       -3    1    3    3    0  502  0.62752968765E+02  0.18955572055E+04  0.13370741617E+03  0.19013029053E+04  0.10100000352E+00 0. -1.
</event>
<event>
 5   0  0.5159761E-08  0.3897330E+04  0.7818609E-02  0.8025585E-01
       -2   -1    0    0    0  501  0.00000000000E+00  0.00000000000E+00  0.14009987242E+04  0.14009987242E+04  0.25500000920E-02 0.  1.
        2   -1    0    0  501    0  0.00000000000E+00  0.00000000000E+00 -0.27104208009E+04  0.27104208009E+04  0.25500000920E-02 0. -1.
    10030    2    1    2    0    0  0.00000000000E+00  0.00000000000E+00 -0.13094220767E+04  0.41114195250E+04  0.38973304114E+04 0.  0.
        5    1    3    3  502    0  0.10482588642E+03 -0.18577098223E+04 -0.12654792234E+04  0.22502297672E+04  0.46999998093E+01 0. -1.
       -5    1    3    3    0  502 -0.10482588642E+03  0.18577098223E+04 -0.43942853314E+02  0.18611897578E+04  0.46999998093E+01 0.  1.
</event>
<event>
 5   0  0.1666051E-08  0.3799606E+04  0.7818609E-02  0.8046239E-01
       -1   -1    0    0    0  501  0.00000000000E+00  0.00000000000E+00  0.13716820053E+04  0.13716820053E+04  0.50400001928E-02 0. -1.
        1   -1    0    0  501    0  0.00000000000E+00  0.00000000000E+00 -0.26312593662E+04  0.26312593662E+04  0.50400001928E-02 0.  1.
    10030    2    1    2    0    0  0.00000000000E+00  0.00000000000E+00 -0.12595773609E+04  0.40029413714E+04  0.37996058342E+04 0.  0.
        2    1    3    3  502    0  0.86217548837E+03  0.78339334658E+03  0.95125585758E+03  0.15039745393E+04  0.25500000920E-02 0. -1.
       -2    1    3    3    0  502 -0.86217548837E+03 -0.78339334658E+03 -0.22108332185E+04  0.24989668321E+04  0.25500000920E-02 0.  1.
</event>
<event>
 5   0  0.1628473E-08  0.3802269E+04  0.7818609E-02  0.8045668E-01
       -1   -1    0    0    0  501  0.00000000000E+00  0.00000000000E+00  0.21200483148E+04  0.21200483148E+04  0.50400001928E-02 0.  1.
        1   -1    0    0  501    0  0.00000000000E+00  0.00000000000E+00 -0.17048251573E+04  0.17048251573E+04  0.50400001928E-02 0. -1.
    10030    2    1    2    0    0  0.00000000000E+00  0.00000000000E+00  0.41522315751E+03  0.38248734721E+04  0.38022686395E+04 0.  0.
        3    1    3    3  502    0 -0.11717457340E+03 -0.18530931299E+04 -0.20301572852E+03  0.18678595838E+04  0.10100000352E+00 0. -1.
       -3    1    3    3    0  502  0.11717457340E+03  0.18530931299E+04  0.61823888603E+03  0.19570138883E+04  0.10100000352E+00 0.  1.
</event>
<event>
 5   0  0.5086209E-08  0.3795152E+04  0.7818609E-02  0.8047196E-01
       -2   -1    0    0    0  501  0.00000000000E+00  0.00000000000E+00  0.13454452767E+04  0.13454452767E+04  0.25500000920E-02 0.  1.
        2   -1    0    0  501    0  0.00000000000E+00  0.00000000000E+00 -0.26762847957E+04  0.26762847957E+04  0.25500000920E-02 0. -1.
    10030    2    1    2    0    0  0.00000000000E+00  0.00000000000E+00 -0.13308395190E+04  0.40217300725E+04  0.37951520326E+04 0.  0.
        3    1    3    3  502    0 -0.88313011850E+03  0.14339596578E+04  0.26122015511E+03  0.17042285897E+04  0.10100000352E+00 0. -1.
       -3    1    3    3    0  502  0.88313011850E+03 -0.14339596578E+04 -0.15920596742E+04  0.23175014828E+04  0.10100000352E+00 0.  1.
</event>
<event>
 5   0  0.5159761E-08  0.3801269E+04  0.7818609E-02  0.8045883E-01
        2   -1    0    0  501    0  0.00000000000E+00  0.00000000000E+00  0.12615346887E+04  0.12615346887E+04  0.25500000920E-02 0. -1.
       -2   -1    0    0    0  501  0.00000000000E+00  0.00000000000E+00 -0.28635053312E+04  0.28635053312E+04  0.25500000920E-02 0.  1.
    10030    2    1    2    0    0  0.00000000000E+00  0.00000000000E+00 -0.16019706426E+04  0.41250400199E+04  0.38012688968E+04 0.  0.
        5    1    3    3  502    0  0.16868713048E+04  0.43980673134E+03  0.20760832480E+02  0.17433926299E+04  0.46999998093E+01 0. -1.
       -5    1    3    3    0  502 -0.16868713048E+04 -0.43980673134E+03 -0.16227314750E+04  0.23816473899E+04  0.46999998093E+01 0.  1.
</event>
<event>
 5   0  0.5147582E-08  0.3781683E+04  0.7818609E-02  0.8050097E-01
       -2   -1    0    0    0  501  0.00000000000E+00  0.00000000000E+00  0.20281990375E+04  0.20281990375E+04  0.25500000920E-02 0. -1.
        2   -1    0    0  501    0  0.00000000000E+00  0.00000000000E+00 -0.17627858932E+04  0.17627858932E+04  0.25500000920E-02 0.  1.
    10030    2    1    2    0    0  0.00000000000E+00  0.00000000000E+00  0.26541314430E+03  0.37909849307E+04  0.37816825101E+04 0.  0.
        1    1    3    3  502    0  0.63995695598E+03  0.88788049767E+03 -0.14129695030E+04  0.17872771190E+04  0.50400001928E-02 0.  1.
       -1    1    3    3    0  502 -0.63995695598E+03 -0.88788049767E+03  0.16783826473E+04  0.20037078116E+04  0.50400001928E-02 0. -1.
</event>
<event>
 5   0  0.1628250E-08  0.3800082E+04  0.7818609E-02  0.8046137E-01
        1   -1    0    0  501    0  0.00000000000E+00  0.00000000000E+00  0.26041757549E+04  0.26041757549E+04  0.50400001928E-02 0. -1.
       -1   -1    0    0    0  501  0.00000000000E+00  0.00000000000E+00 -0.13862948781E+04  0.13862948781E+04  0.50400001928E-02 0.  1.
    10030    2    1    2    0    0  0.00000000000E+00  0.00000000000E+00  0.12178808768E+04  0.39904706331E+04  0.38000818469E+04 0.  0.
        4    1    3    3  502    0  0.11394110609E+04 -0.75888935525E+02  0.22036211427E+04  0.24819275674E+04  0.12699999809E+01 0. -1.
       -4    1    3    3    0  502 -0.11394110609E+04  0.75888935525E+02 -0.98574026592E+03  0.15085430657E+04  0.12699999809E+01 0.  1.
</event>
<event>
 5   0  0.1628250E-08  0.3796727E+04  0.7818609E-02  0.8046858E-01
        1   -1    0    0  501    0  0.00000000000E+00  0.00000000000E+00  0.13048881098E+04  0.13048881098E+04  0.50400001928E-02 0.  1.
       -1   -1    0    0    0  501  0.00000000000E+00  0.00000000000E+00 -0.27617574546E+04  0.27617574546E+04  0.50400001928E-02 0. -1.
    10030    2    1    2    0    0  0.00000000000E+00  0.00000000000E+00 -0.14568693448E+04  0.40666455645E+04  0.37967272563E+04 0.  0.
        5    1    3    3  502    0  0.83877318775E+03 -0.13162764718E+04 -0.18858282363E+04  0.24479571969E+04  0.46999998093E+01 0. -1.
       -5    1    3    3    0  502 -0.83877318775E+03  0.13162764718E+04  0.42895889152E+03  0.16186883676E+04  0.46999998093E+01 0.  1.
</event>
<event>
 5   0  0.1628473E-08  0.3790051E+04  0.7818609E-02  0.8048293E-01
        1   -1    0    0  501    0  0.00000000000E+00  0.00000000000E+00  0.23684927323E+04  0.23684927323E+04  0.50400001928E-02 0.  1.
       -1   -1    0    0    0  501  0.00000000000E+00  0.00000000000E+00 -0.15162052311E+04  0.15162052311E+04  0.50400001928E-02 0. -1.
    10030    2    1    2    0    0  0.00000000000E+00  0.00000000000E+00  0.85228750119E+03  0.38846979634E+04  0.37900506966E+04 0.  0.
        3    1    3    3  502    0  0.32726955336E+03  0.52518897548E+03 -0.14097283867E+04  0.15395658333E+04  0.10100000352E+00 0. -1.
       -3    1    3    3    0  502 -0.32726955336E+03 -0.52518897548E+03  0.22620158879E+04  0.23451321301E+04  0.10100000352E+00 0.  1.
</event>
<event>
 5   0  0.5140842E-08  0.3800144E+04  0.7818609E-02  0.8046124E-01
        2   -1    0    0  501    0  0.00000000000E+00  0.00000000000E+00  0.17250389939E+04  0.17250389939E+04  0.25500000920E-02 0.  1.
       -2   -1    0    0    0  501  0.00000000000E+00  0.00000000000E+00 -0.20928654571E+04  0.20928654571E+04  0.25500000920E-02 0. -1.
    10030    2    1    2    0    0  0.00000000000E+00  0.00000000000E+00 -0.36782646324E+03  0.38179044510E+04  0.38001444828E+04 0.  0.
        2    1    3    3  502    0  0.12077336777E+04 -0.26266506096E+03 -0.16338004910E+04  0.20486379902E+04  0.25500000920E-02 0. -1.
       -2    1    3    3    0  502 -0.12077336777E+04  0.26266506096E+03  0.12659740277E+04  0.17692664608E+04  0.25500000920E-02 0.  1.
</event>
<event>
 5   0  0.1628473E-08  0.3806974E+04  0.7818609E-02  0.8044660E-01
       -1   -1    0    0    0  501  0.00000000000E+00  0.00000000000E+00  0.20551668978E+04  0.20551668978E+04  0.50400001928E-02 0.  1.
        1   -1    0    0  501    0  0.00000000000E+00  0.00000000000E+00 -0.17630019385E+04  0.17630019385E+04  0.50400001928E-02 0. -1.
    10030    2    1    2    0    0  0.00000000000E+00  0.00000000000E+00  0.29216495926E+03  0.38181688363E+04  0.38069742446E+04 0.  0.
        3    1    3    3  502    0  0.27987688066E+03  0.17044576996E+04 -0.65611705645E+03  0.18477003870E+04  0.10100000352E+00 0. -1.
       -3    1    3    3    0  502 -0.27987688066E+03 -0.17044576996E+04  0.94828201571E+03  0.19704684493E+04  0.10100000352E+00 0.  1.
</event>
<event>
 5   0  0.1666051E-08  0.3770714E+04  0.7818609E-02  0.8052469E-01
        1   -1    0    0  501    0  0.00000000000E+00  0.00000000000E+00  0.20239664830E+04  0.20239664830E+04  0.50400001928E-02 0.  1.
       -1   -1    0    0    0  501  0.00000000000E+00  0.00000000000E+00 -0.17562396042E+04  0.17562396042E+04  0.50400001928E-02 0. -1.
    10030    2    1    2    0    0  0.00000000000E+00  0.00000000000E+00  0.26772687888E+03  0.37802060872E+04  0.37707135107E+04 0.  0.
        2    1    3    3  502    0  0.75933598914E+03 -0.16432528161E+04  0.66216172585E+03  0.19275189009E+04  0.25500000920E-02 0. -1.
       -2    1    3    3    0  502 -0.75933598914E+03  0.16432528161E+04 -0.39443484697E+03  0.18526871864E+04  0.25500000920E-02 0.  1.
</event>
<event>
 5   0  0.1628250E-08  0.3857309E+04  0.7818609E-02  0.8033967E-01
        1   -1    0    0  501    0  0.00000000000E+00  0.00000000000E+00  0.27688192971E+04  0.27688192971E+04  0.50400001928E-02 0. -1.
       -1   -1    0    0    0  501  0.00000000000E+00  0.00000000000E+00 -0.13434277425E+04  0.13434277425E+04  0.50400001928E-02 0.  1.
    10030    2    1    2    0    0  0.00000000000E+00  0.00000000000E+00  0.14253915546E+04  0.41122470396E+04  0.38573092475E+04 0.  0.
        4    1    3    3  502    0 -0.26250887762E+03 -0.18476004485E+04  0.19350921907E+03  0.18761625087E+04  0.12699999809E+01 0.  1.
       -4    1    3    3    0  502  0.26250887762E+03  0.18476004485E+04  0.12318823355E+04  0.22360845310E+04  0.12699999809E+01 0. -1.
</event>
<event>
 5   0  0.5147582E-08  0.3798943E+04  0.7818609E-02  0.8046382E-01
        2   -1    0    0  501    0  0.00000000000E+00  0.00000000000E+00  0.16927502318E+04  0.16927502318E+04  0.25500000920E-02 0.  1.
       -2   -1    0    0    0  501  0.00000000000E+00  0.00000000000E+00 -0.21314382104E+04  0.21314382104E+04  0.25500000920E-02 0. -1.
    10030    2    1    2    0    0  0.00000000000E+00  0.00000000000E+00 -0.43868797865E+03  0.38241884422E+04  0.37989432872E+04 0.  0.
        1    1    3    3  502    0 -0.18648907459E+04  0.32929904120E+03 -0.70928920670E+02  0.18950689339E+04  0.50400001928E-02 0.  1.
       -1    1    3    3    0  502  0.18648907459E+04 -0.32929904120E+03 -0.36775905798E+03  0.19291195083E+04  0.50400001928E-02 0. -1.
</event>
<event>
 5   0  0.5086209E-08  0.3800800E+04  0.7818609E-02  0.8045983E-01
        2   -1    0    0  501    0  0.00000000000E+00  0.00000000000E+00  0.27541362294E+04  0.27541362294E+04  0.25500000920E-02 0. -1.
       -2   -1    0    0    0  501  0.00000000000E+00  0.00000000000E+00 -0.13113075219E+04  0.13113075219E+04  0.25500000920E-02 0.  1.
    10030    2    1    2    0    0  0.00000000000E+00  0.00000000000E+00  0.14428287075E+04  0.40654437513E+04  0.38007996811E+04 0.  0.
        3    1    3    3  502    0 -0.48505963057E+03  0.18298479197E+04  0.54277265476E+03  0.19693218172E+04  0.10100000352E+00 0.  1.
       -3    1    3    3    0  502  0.48505963057E+03 -0.18298479197E+04  0.90005605272E+03  0.20961219341E+04  0.10100000352E+00 0. -1.
</event>
<event>
 5   0  0.1666051E-08  0.3796834E+04  0.7818609E-02  0.8046835E-01
       -1   -1    0    0    0  501  0.00000000000E+00  0.00000000000E+00  0.14251999401E+04  0.14251999401E+04  0.50400001928E-02 0. -1.
        1   -1    0    0  501    0  0.00000000000E+00  0.00000000000E+00 -0.25287588250E+04  0.25287588250E+04  0.50400001928E-02 0.  1.
    10030    2    1    2    0    0  0.00000000000E+00  0.00000000000E+00 -0.11035588850E+04  0.39539587651E+04  0.37968339052E+04 0.  0.
        2    1    3    3  502    0 -0.15316910687E+04  0.86188507044E+03 -0.12991585152E+04  0.21855745817E+04  0.25500000920E-02 0.  1.
       -2    1    3    3    0  502  0.15316910687E+04 -0.86188507044E+03  0.19559963025E+03  0.17683841834E+04  0.25500000920E-02 0. -1.
</event>
<event>
 5   0  0.1628250E-08  0.3807580E+04  0.7818609E-02  0.8044530E-01
        1   -1    0    0  501    0  0.00000000000E+00  0.00000000000E+00  0.25118788059E+04  0.25118788060E+04  0.50400001928E-02 0. -1.
       -1   -1    0    0    0  501  0.00000000000E+00  0.00000000000E+00 -0.14429103403E+04  0.14429103404E+04  0.50400001928E-02 0.  1.
    10030    2    1    2    0    0  0.00000000000E+00  0.00000000000E+00  0.10689684656E+04  0.39547891463E+04  0.38075797577E+04 0.  0.
        5    1    3    3  502    0 -0.16997189981E+03 -0.36873091586E+03 -0.13974109411E+04  0.14552087010E+04  0.46999998093E+01 0.  1.
       -5    1    3    3    0  502  0.16997189981E+03  0.36873091586E+03  0.24663794067E+04  0.24995804454E+04  0.46999998093E+01 0. -1.
</event>
<event>
 5   0  0.5159761E-08  0.3786531E+04  0.7818609E-02  0.8049051E-01
       -2   -1    0    0    0  501  0.00000000000E+00  0.00000000000E+00  0.28744392247E+04  0.28744392247E+04  0.25500000920E-02 0.  1.
        2   -1    0    0  501    0  0.00000000000E+00  0.00000000000E+00 -0.12470100225E+04  0.12470100225E+04  0.25500000920E-02 0. -1.
    10030    2    1    2    0    0  0.00000000000E+00  0.00000000000E+00  0.16274292021E+04  0.41214492472E+04  0.37865311420E+04 0.  0.
        5    1    3    3  502    0 -0.31085024148E+03  0.89988362196E+01  0.28464434556E+04  0.28633845860E+04  0.46999998093E+01 0.  1.
       -5    1    3    3    0  502  0.31085024148E+03 -0.89988362196E+01 -0.12190142534E+04  0.12580646612E+04  0.46999998093E+01 0. -1.
</event>
<event>
 5   0  0.5147582E-08  0.3803225E+04  0.7818609E-02  0.8045463E-01
        2   -1    0    0  501    0  0.00000000000E+00  0.00000000000E+00  0.22233159160E+04  0.22233159160E+04  0.25500000920E-02 0.  1.
       -2   -1    0    0    0  501  0.00000000000E+00  0.00000000000E+00 -0.16264580146E+04  0.16264580146E+04  0.25500000920E-02 0. -1.
    10030    2    1    2    0    0  0.00000000000E+00  0.00000000000E+00  0.59685790145E+03  0.38497739306E+04  0.38032249424E+04 0.  0.
        1    1    3    3  502    0 -0.75461455201E+03  0.90306448631E+03 -0.12135603181E+04  0.16904724884E+04  0.50400001928E-02 0. -1.
       -1    1    3    3    0  502  0.75461455201E+03 -0.90306448631E+03  0.18104182195E+04  0.21593014422E+04  0.50400001928E-02 0.  1.
</event>
<event>
 5   0  0.1628250E-08  0.3787402E+04  0.7818609E-02  0.8048864E-01
        1   -1    0    0  501    0  0.00000000000E+00  0.00000000000E+00  0.13116524707E+04  0.13116524707E+04  0.50400001928E-02 0.  1.
       -1   -1    0    0    0  501  0.00000000000E+00  0.00000000000E+00 -0.27340349422E+04  0.27340349422E+04  0.50400001928E-02 0. -1.
    10030    2    1    2    0    0  0.00000000000E+00  0.00000000000E+00 -0.14223824716E+04  0.40456874129E+04  0.37874021106E+04 0.  0.
        4    1    3    3  502    0 -0.82205224660E+03 -0.11350388354E+04 -0.20716296257E+04  0.25011465316E+04  0.12699999809E+01 0. -1.
       -4    1    3    3    0  502  0.82205224660E+03  0.11350388354E+04  0.64924715410E+03  0.15445408813E+04  0.12699999809E+01 0.  1.
</event>
<event>
 5   0  0.5207474E-08  0.3795162E+04  0.7818609E-02  0.8047194E-01
        2   -1    0    0  501    0  0.00000000000E+00  0.00000000000E+00  0.17675285774E+04  0.17675285774E+04  0.25500000920E-02 0.  1.
       -2   -1    0    0    0  501  0.00000000000E+00  0.00000000000E+00 -0.20372030330E+04  0.20372030330E+04  0.25500000920E-02 0. -1.
    10030    2    1    2    0    0  0.00000000000E+00  0.00000000000E+00 -0.26967445560E+03  0.38047316105E+04  0.37951624887E+04 0.  0.
        4    1    3    3  502    0 -0.11919056241E+04  0.14610692391E+04 -0.34856629690E+03  0.19175146452E+04  0.12699999809E+01 0. -1.
       -4    1    3    3    0  502  0.11919056241E+04 -0.14610692391E+04  0.78891841299E+02  0.18872169653E+04  0.12699999809E+01 0.  1.
</event>
<event>
 5   0  0.5086209E-08  0.3806223E+04  0.7818609E-02  0.8044821E-01
        2   -1    0    0  501    0  0.00000000000E+00  0.00000000000E+00  0.22672065971E+04  0.22672065971E+04  0.25500000920E-02 0. -1.
       -2   -1    0    0    0  501  0.00000000000E+00  0.00000000000E+00 -0.15974874882E+04  0.15974874882E+04  0.25500000920E-02 0.  1.
    10030    2    1    2    0    0  0.00000000000E+00  0.00000000000E+00  0.66971910886E+03  0.38646940853E+04  0.38062234154E+04 0.  0.
        3    1    3    3  502    0 -0.14491252554E+03 -0.13032954111E+04  0.17352698040E+04  0.21750264071E+04  0.10100000352E+00 0. -1.
       -3    1    3    3    0  502  0.14491252554E+03  0.13032954111E+04 -0.10655506951E+04  0.16896676782E+04  0.10100000352E+00 0.  1.
</event>
<event>
 5   0  0.5159761E-08  0.3788139E+04  0.7818609E-02  0.8048705E-01
       -2   -1    0    0    0  501  0.00000000000E+00  0.00000000000E+00  0.30113784030E+04  0.30113784030E+04  0.25500000920E-02 0.  1.
        2   -1    0    0  501    0  0.00000000000E+00  0.00000000000E+00 -0.11913144459E+04  0.11913144459E+04  0.25500000920E-02 0. -1.
    10030    2    1    2    0    0  0.00000000000E+00  0.00000000000E+00  0.18200639571E+04  0.42026928488E+04  0.37881386424E+04 0.  0.
        5    1    3    3  502    0  0.15307235952E+04  0.71359640329E+03 -0.41202074467E+02  0.16893946409E+04  0.46999998093E+01 0. -1.
       -5    1    3    3    0  502 -0.15307235952E+04 -0.71359640329E+03  0.18612660315E+04  0.25132982079E+04  0.46999998093E+01 0.  1.
</event>
<event>
 5   0  0.5159761E-08  0.3797300E+04  0.7818609E-02  0.8046735E-01
       -2   -1    0    0    0  501  0.00000000000E+00  0.00000000000E+00  0.23867914497E+04  0.23867914497E+04  0.25500000920E-02 0.  1.
        2   -1    0    0  501    0  0.00000000000E+00  0.00000000000E+00 -0.15103419470E+04  0.15103419470E+04  0.25500000920E-02 0. -1.
    10030    2    1    2    0    0  0.00000000000E+00  0.00000000000E+00  0.87644950268E+03  0.38971333968E+04  0.37972996960E+04 0.  0.
        5    1    3    3  502    0  0.15149245390E+04 -0.11003720924E+04  0.11525438374E+03  0.18759319720E+04  0.46999998093E+01 0. -1.
       -5    1    3    3    0  502 -0.15149245390E+04  0.11003720924E+04  0.76119511894E+03  0.20212014248E+04  0.46999998093E+01 0.  1.
</event>
<event>
 5   0  0.5159761E-08  0.3803234E+04  0.7818609E-02  0.8045461E-01
       -2   -1    0    0    0  501  0.00000000000E+00  0.00000000000E+00  0.15959804966E+04  0.15959804966E+04  0.25500000920E-02 0. -1.
        2   -1    0    0  501    0  0.00000000000E+00  0.00000000000E+00 -0.22657835076E+04  0.22657835076E+04  0.25500000920E-02 0.  1.
    10030    2    1    2    0    0  0.00000000000E+00  0.00000000000E+00 -0.66980301103E+03  0.38617640042E+04  0.38032335125E+04 0.  0.
        5    1    3    3  502    0 -0.10968519226E+04 -0.86253106917E+03  0.97690972049E+03  0.17033551237E+04  0.46999998093E+01 0. -1.
       -5    1    3    3    0  502  0.10968519226E+04  0.86253106917E+03 -0.16467127315E+04  0.21584088805E+04  0.46999998093E+01 0.  1.
</event>
<event>
 5   0  0.1628250E-08  0.3810642E+04  0.7818609E-02  0.8043875E-01
       -1   -1    0    0    0  501  0.00000000000E+00  0.00000000000E+00  0.20280713009E+04  0.20280713009E+04  0.50400001928E-02 0.  1.
        1   -1    0    0  501    0  0.00000000000E+00  0.00000000000E+00 -0.17899998819E+04  0.17899998819E+04  0.50400001928E-02 0. -1.
    10030    2    1    2    0    0  0.00000000000E+00  0.00000000000E+00  0.23807141900E+03  0.38180711828E+04  0.38106416200E+04 0.  0.
        5    1    3    3  502    0 -0.90064468286E+03 -0.59783248828E+03 -0.14529913479E+04  0.18110136598E+04  0.46999998093E+01 0. -1.
       -5    1    3    3    0  502  0.90064468286E+03  0.59783248828E+03  0.16910627669E+04  0.20070575230E+04  0.46999998093E+01 0.  1.
</event>
<event>
 5   0  0.5147582E-08  0.3804246E+04  0.7818609E-02  0.8045244E-01
        2   -1    0    0  501    0  0.00000000000E+00  0.00000000000E+00  0.18093733937E+04  0.18093733937E+04  0.25500000920E-02 0.  1.
       -2   -1    0    0    0  501  0.00000000000E+00  0.00000000000E+00 -0.19996267778E+04  0.19996267778E+04  0.25500000920E-02 0. -1.
    10030    2    1    2    0    0  0.00000000000E+00  0.00000000000E+00 -0.19025338413E+03  0.38090001715E+04  0.38042457803E+04 0.  0.
        1    1    3    3  502    0  0.88895604247E+03 -0.46078010012E+01  0.15885834924E+04  0.18204014914E+04  0.50400001928E-02 0.  1.
       -1    1    3    3    0  502 -0.88895604247E+03  0.46078010012E+01 -0.17788368766E+04  0.19885986802E+04  0.50400001928E-02 0. -1.
</event>
<event>
 5   0  0.1666051E-08  0.3804473E+04  0.7818609E-02  0.8045196E-01
        1   -1    0    0  501    0  0.00000000000E+00  0.00000000000E+00  0.24647997417E+04  0.24647997417E+04  0.50400001928E-02 0.  1.
       -1   -1    0    0    0  501  0.00000000000E+00  0.00000000000E+00 -0.14680724138E+04  0.14680724138E+04  0.50400001928E-02 0. -1.
    10030    2    1    2    0    0  0.00000000000E+00  0.00000000000E+00  0.99672732797E+03  0.39328721555E+04  0.38044734228E+04 0.  0.
        2    1    3    3  502    0  0.16186424610E+04 -0.79136860753E+03 -0.13233939503E+03  0.18065938683E+04  0.25500000920E-02 0.  1.
       -2    1    3    3    0  502 -0.16186424610E+04  0.79136860753E+03  0.11290667230E+04  0.21262782872E+04  0.25500000920E-02 0. -1.
</event>
<event>
 5   0  0.1628250E-08  0.3811681E+04  0.7818609E-02  0.8043653E-01
       -1   -1    0    0    0  501  0.00000000000E+00  0.00000000000E+00  0.19963585648E+04  0.19963585648E+04  0.50400001928E-02 0.  1.
        1   -1    0    0  501    0  0.00000000000E+00  0.00000000000E+00 -0.18194269060E+04  0.18194269060E+04  0.50400001928E-02 0. -1.
    10030    2    1    2    0    0  0.00000000000E+00  0.00000000000E+00  0.17693165880E+03  0.38157854708E+04  0.38116812495E+04 0.  0.
        4    1    3    3  502    0  0.40930522337E+03 -0.18028193464E+04  0.55214758332E+03  0.19293928912E+04  0.12699999809E+01 0.  1.
       -4    1    3    3    0  502 -0.40930522337E+03  0.18028193464E+04 -0.37521592452E+03  0.18863925797E+04  0.12699999809E+01 0. -1.
</event>
<event>
 5   0  0.1628473E-08  0.3804460E+04  0.7818609E-02  0.8045199E-01
       -1   -1    0    0    0  501  0.00000000000E+00  0.00000000000E+00  0.16584269098E+04  0.16584269098E+04  0.50400001928E-02 0. -1.
        1   -1    0    0  501    0  0.00000000000E+00  0.00000000000E+00 -0.21818738046E+04  0.21818738046E+04  0.50400001928E-02 0.  1.
    10030    2    1    2    0    0  0.00000000000E+00  0.00000000000E+00 -0.52344689479E+03  0.38403007143E+04  0.38044596101E+04 0.  0.
        3    1    3    3  502    0  0.65058782772E+03 -0.69793496667E+03  0.13994104573E+04  0.16937317903E+04  0.10100000352E+00 0. -1.
       -3    1    3    3    0  502 -0.65058782772E+03  0.69793496667E+03 -0.19228573520E+04  0.21465689241E+04  0.10100000352E+00 0.  1.
</event>
<event>
 5   0  0.5147582E-08  0.3791766E+04  0.7818609E-02  0.8047924E-01
       -2   -1    0    0    0  501  0.00000000000E+00  0.00000000000E+00  0.17133578713E+04  0.17133578713E+04  0.25500000920E-02 0. -1.
        2   -1    0    0  501    0  0.00000000000E+00  0.00000000000E+00 -0.20978521264E+04  0.20978521264E+04  0.25500000920E-02 0.  1.
    10030    2    1    2    0    0  0.00000000000E+00  0.00000000000E+00 -0.38449425509E+03  0.38112099977E+04  0.37917655273E+04 0.  0.
        1    1    3    3  502    0 -0.15066421442E+04 -0.17936908595E+03  0.95034418374E+03  0.17903345741E+04  0.50400001928E-02 0. -1.
       -1    1    3    3    0  502  0.15066421442E+04  0.17936908595E+03 -0.13348384388E+04  0.20208754235E+04  0.50400001928E-02 0.  1.
</event>
<event>
 5   0  0.1628250E-08  0.3793321E+04  0.7818609E-02  0.8047590E-01
       -1   -1    0    0    0  501  0.00000000000E+00  0.00000000000E+00  0.22782863499E+04  0.22782863499E+04  0.50400001928E-02 0. -1.
        1   -1    0    0  501    0  0.00000000000E+00  0.00000000000E+00 -0.15789589475E+04  0.15789589475E+04  0.50400001928E-02 0.  1.
    10030    2    1    2    0    0  0.00000000000E+00  0.00000000000E+00  0.69932740242E+03  0.38572452975E+04  0.37933207706E+04 0.  0.
        4    1    3    3  502    0  0.17728796591E+04 -0.16916099175E+03  0.10130387777E+04  0.20488940687E+04  0.12699999809E+01 0. -1.
       -4    1    3    3    0  502 -0.17728796591E+04  0.16916099175E+03 -0.31371137528E+03  0.18083512288E+04  0.12699999809E+01 0.  1.
</event>
<event>
 5   0  0.1628250E-08  0.3809988E+04  0.7818609E-02  0.8044015E-01
        1   -1    0    0  501    0  0.00000000000E+00  0.00000000000E+00  0.18244684601E+04  0.18244684601E+04  0.50400001928E-02 0. -1.
       -1   -1    0    0    0  501  0.00000000000E+00  0.00000000000E+00 -0.19890740803E+04  0.19890740803E+04  0.50400001928E-02 0.  1.
    10030    2    1    2    0    0  0.00000000000E+00  0.00000000000E+00 -0.16460562013E+03  0.38135425404E+04  0.38099884117E+04 0.  0.
        4    1    3    3  502    0 -0.12847785079E+04 -0.44196028654E+02 -0.14894564134E+04  0.19675088624E+04  0.12699999809E+01 0.  1.
       -4    1    3    3    0  502  0.12847785079E+04  0.44196028654E+02  0.13248507932E+04  0.18460336780E+04  0.12699999809E+01 0. -1.
</event>
<event>
 5   0  0.1628250E-08  0.3805951E+04  0.7818609E-02  0.8044879E-01
        1   -1    0    0  501    0  0.00000000000E+00  0.00000000000E+00  0.21132188645E+04  0.21132188645E+04  0.50400001928E-02 0.  1.
       -1   -1    0    0    0  501  0.00000000000E+00  0.00000000000E+00 -0.17136490611E+04  0.17136490611E+04  0.50400001928E-02 0. -1.
    10030    2    1    2    0    0  0.00000000000E+00  0.00000000000E+00  0.39956980347E+03  0.38268679256E+04  0.38059508788E+04 0.  0.
        5    1    3    3  502    0  0.51838421152E+03 -0.11104851035E+04 -0.12640299640E+04  0.17605945574E+04  0.46999998093E+01 0. -1.
       -5    1    3    3    0  502 -0.51838421152E+03  0.11104851035E+04  0.16635997674E+04  0.20662733682E+04  0.46999998093E+01 0.  1.
</event>
<event>
 5   0  0.5140842E-08  0.3810189E+04  0.7818609E-02  0.8043972E-01
       -2   -1    0    0    0  501  0.00000000000E+00  0.00000000000E+00  0.20559413701E+04  0.20559413701E+04  0.25500000920E-02 0. -1.
        2   -1    0    0  501    0  0.00000000000E+00  0.00000000000E+00 -0.17653151654E+04  0.17653151654E+04  0.25500000920E-02 0.  1.
    10030    2    1    2    0    0  0.00000000000E+00  0.00000000000E+00  0.29062620466E+03  0.38212565355E+04  0.38101886986E+04 0.  0.
        2    1    3    3  502    0 -0.18394424603E+04 -0.25522517915E+03 -0.28100522877E+03  0.18782045670E+04  0.25500000920E-02 0. -1.
       -2    1    3    3    0  502  0.18394424603E+04  0.25522517915E+03  0.57163143343E+03  0.19430519685E+04  0.25500000920E-02 0.  1.
</event>
<event>
 5   0  0.5207474E-08  0.3805088E+04  0.7818609E-02  0.8045064E-01
       -2   -1    0    0    0  501  0.00000000000E+00  0.00000000000E+00  0.14901364575E+04  0.14901364575E+04  0.25500000920E-02 0. -1.
        2   -1    0    0  501    0  0.00000000000E+00  0.00000000000E+00 -0.24290888853E+04  0.24290888853E+04  0.25500000920E-02 0.  1.
    10030    2    1    2    0    0  0.00000000000E+00  0.00000000000E+00 -0.93895242779E+03  0.39192253428E+04  0.38050881233E+04 0.  0.
        4    1    3    3  502    0  0.15365391058E+04  0.11113225965E+04 -0.62798170294E+03  0.19975867864E+04  0.12699999809E+01 0.  1.
       -4    1    3    3    0  502 -0.15365391058E+04 -0.11113225965E+04 -0.31097072485E+03  0.19216385565E+04  0.12699999809E+01 0. -1.
</event>
<event>
 5   0  0.5159761E-08  0.3816697E+04  0.7818609E-02  0.8042581E-01
       -2   -1    0    0    0  501  0.00000000000E+00  0.00000000000E+00  0.21025531774E+04  0.21025531774E+04  0.25500000920E-02 0. -1.
        2   -1    0    0  501    0  0.00000000000E+00  0.00000000000E+00 -0.17320818757E+04  0.17320818757E+04  0.25500000920E-02 0.  1.
    10030    2    1    2    0    0  0.00000000000E+00  0.00000000000E+00  0.37047130173E+03  0.38346350531E+04  0.38166971330E+04 0.  0.
        5    1    3    3  502    0 -0.95007388723E+03  0.10744613654E+04 -0.10795152860E+04  0.17951275608E+04  0.46999998093E+01 0.  1.
       -5    1    3    3    0  502  0.95007388723E+03 -0.10744613654E+04  0.14499865877E+04  0.20395074924E+04  0.46999998093E+01 0. -1.
</event>
<event>
 5   0  0.5086209E-08  0.3793337E+04  0.7818609E-02  0.8047586E-01
       -2   -1    0    0    0  501  0.00000000000E+00  0.00000000000E+00  0.27231908945E+04  0.27231908945E+04  0.25500000920E-02 0. -1.
        2   -1    0    0  501    0  0.00000000000E+00  0.00000000000E+00 -0.13210058504E+04  0.13210058504E+04  0.25500000920E-02 0.  1.
    10030    2    1    2    0    0  0.00000000000E+00  0.00000000000E+00  0.14021850442E+04  0.40441967449E+04  0.37933368441E+04 0.  0.
        3    1    3    3  502    0 -0.93212788017E+03 -0.15443626669E+04  0.76305983992E+02  0.18054752963E+04  0.10100000352E+00 0.  1.
       -3    1    3    3    0  502  0.93212788017E+03  0.15443626669E+04  0.13258790602E+04  0.22387214486E+04  0.10100000352E+00 0. -1.
</event>
<event>
 5   0  0.5159761E-08  0.3820890E+04  0.7818609E-02  0.8041687E-01
        2   -1    0    0  501    0  0.00000000000E+00  0.00000000000E+00  0.18413381130E+04  0.18413381130E+04  0.25500000920E-02 0. -1.
       -2   -1    0    0    0  501  0.00000000000E+00  0.00000000000E+00 -0.19821460292E+04  0.19821460292E+04  0.25500000920E-02 0.  1.
    10030    2    1    2    0    0  0.00000000000E+00  0.00000000000E+00 -0.14080791616E+03  0.38234841422E+04  0.38208904873E+04 0.  0.
        5    1    3    3  502    0  0.55458522940E+03 -0.61117500504E+02  0.17579867908E+04  0.18444077023E+04  0.46999998093E+01 0. -1.
       -5    1    3    3    0  502 -0.55458522940E+03  0.61117500504E+02 -0.18987947070E+04  0.19790764399E+04  0.46999998093E+01 0.  1.
</event>
<event>
 5   0  0.5140842E-08  0.3812240E+04  0.7818609E-02  0.8043533E-01
       -2   -1    0    0    0  501  0.00000000000E+00  0.00000000000E+00  0.25761100218E+04  0.25761100218E+04  0.25500000920E-02 0.  1.
        2   -1    0    0  501    0  0.00000000000E+00  0.00000000000E+00 -0.14103798653E+04  0.14103798653E+04  0.25500000920E-02 0. -1.
    10030    2    1    2    0    0  0.00000000000E+00  0.00000000000E+00  0.11657301565E+04  0.39864898871E+04  0.38122401317E+04 0.  0.
        2    1    3    3  502    0 -0.14725275464E+04 -0.34949795754E+03 -0.62889683547E+03  0.16389012865E+04  0.25500000920E-02 0. -1.
       -2    1    3    3    0  502  0.14725275464E+04  0.34949795754E+03  0.17946269920E+04  0.23475886006E+04  0.25500000920E-02 0.  1.
</event>
<event>
 5   0  0.1628250E-08  0.3800828E+04  0.7818609E-02  0.8045977E-01
       -1   -1    0    0    0  501  0.00000000000E+00  0.00000000000E+00  0.13259036476E+04  0.13259036476E+04  0.50400001928E-02 0.  1.
        1   -1    0    0  501    0  0.00000000000E+00  0.00000000000E+00 -0.27238577280E+04  0.27238577280E+04  0.50400001928E-02 0. -1.
    10030    2    1    2    0    0  0.00000000000E+00  0.00000000000E+00 -0.13979540804E+04  0.40497613756E+04  0.38008277504E+04 0.  0.
        1    1    3    3  502    0 -0.87322602582E+03  0.12104383033E+04 -0.19524118960E+04  0.24575591122E+04  0.50400001928E-02 0. -1.
       -1    1    3    3    0  502  0.87322602582E+03 -0.12104383033E+04  0.55445781558E+03  0.15922022634E+04  0.50400001928E-02 0.  1.
</event>
<event>
 5   0  0.1628250E-08  0.3806038E+04  0.7818609E-02  0.8044860E-01
        1   -1    0    0  501    0  0.00000000000E+00  0.00000000000E+00  0.23553215850E+04  0.23553215850E+04  0.50400001928E-02 0.  1.
       -1   -1    0    0    0  501  0.00000000000E+00  0.00000000000E+00 -0.15375737166E+04  0.15375737166E+04  0.50400001928E-02 0. -1.
    10030    2    1    2    0    0  0.00000000000E+00  0.00000000000E+00  0.81774786837E+03  0.38928953016E+04  0.38060376053E+04 0.  0.
        4    1    3    3  502    0 -0.14800483463E+04  0.11962173005E+04  0.40899069991E+03  0.19464721788E+04  0.12699999809E+01 0. -1.
       -4    1    3    3    0  502  0.14800483463E+04 -0.11962173005E+04  0.40875716846E+03  0.19464231228E+04  0.12699999809E+01 0.  1.
</event>
<event>
 5   0  0.5207474E-08  0.3770753E+04  0.7818609E-02  0.8052460E-01
       -2   -1    0    0    0  501  0.00000000000E+00  0.00000000000E+00  0.12304613545E+04  0.12304613545E+04  0.25500000920E-02 0. -1.
        2   -1    0    0  501    0  0.00000000000E+00  0.00000000000E+00 -0.28888719972E+04  0.28888719972E+04  0.25500000920E-02 0.  1.
    10030    2    1    2    0    0  0.00000000000E+00  0.00000000000E+00 -0.16584106426E+04  0.41193333517E+04  0.37707534264E+04 0.  0.
        4    1    3    3  502    0 -0.67498500594E+03 -0.21413498337E+03  0.10796603914E+04  0.12911726155E+04  0.12699999809E+01 0. -1.
       -4    1    3    3    0  502  0.67498500594E+03  0.21413498337E+03 -0.27380710341E+04  0.28281607362E+04  0.12699999809E+01 0.  1.
</event>
<event>
 5   0  0.5207474E-08  0.3800032E+04  0.7818609E-02  0.8046148E-01
        2   -1    0    0  501    0  0.00000000000E+00  0.00000000000E+00  0.30419365544E+04  0.30419365544E+04  0.25500000920E-02 0.  1.
       -2   -1    0    0    0  501  0.00000000000E+00  0.00000000000E+00 -0.11867641366E+04  0.11867641366E+04  0.25500000920E-02 0. -1.
    10030    2    1    2    0    0  0.00000000000E+00  0.00000000000E+00  0.18551724178E+04  0.42287006910E+04  0.38000322149E+04 0.  0.
        4    1    3    3  502    0  0.10813010777E+04  0.13766521996E+03 -0.80421245782E+03  0.13545933056E+04  0.12699999809E+01 0. -1.
       -4    1    3    3    0  502 -0.10813010777E+04 -0.13766521996E+03  0.26593848756E+04  0.28741073854E+04  0.12699999809E+01 0.  1.
</event>
<event>
 5   0  0.1666051E-08  0.3786354E+04  0.7818609E-02  0.8049090E-01
        1   -1    0    0  501    0  0.00000000000E+00  0.00000000000E+00  0.19994168064E+04  0.19994168064E+04  0.50400001928E-02 0.  1.
       -1   -1    0    0    0  501  0.00000000000E+00  0.00000000000E+00 -0.17925818379E+04  0.17925818379E+04  0.50400001928E-02 0. -1.
    10030    2    1    2    0    0  0.00000000000E+00  0.00000000000E+00  0.20683496855E+03  0.37919986444E+04  0.37863535248E+04 0.  0.
        2    1    3    3  502    0 -0.54406997401E+03 -0.15851820409E+04 -0.77840877842E+03  0.18479000151E+04  0.25500000920E-02 0. -1.
       -2    1    3    3    0  502  0.54406997401E+03  0.15851820409E+04  0.98524374697E+03  0.19440986293E+04  0.25500000920E-02 0.  1.
</event>
<event>
 5   0  0.1666051E-08  0.3798416E+04  0.7818609E-02  0.8046495E-01
        1   -1    0    0  501    0  0.00000000000E+00  0.00000000000E+00  0.17526864738E+04  0.17526864739E+04  0.50400001928E-02 0. -1.
       -1   -1    0    0    0  501  0.00000000000E+00  0.00000000000E+00 -0.20579788017E+04  0.20579788017E+04  0.50400001928E-02 0.  1.
    10030    2    1    2    0    0  0.00000000000E+00  0.00000000000E+00 -0.30529232785E+03  0.38106652756E+04  0.37984163064E+04 0.  0.
        2    1    3    3  502    0  0.96960921937E+03 -0.16265430381E+04 -0.29874309546E+03  0.19170372272E+04  0.25500000920E-02 0.  1.
       -2    1    3    3    0  502 -0.96960921937E+03  0.16265430381E+04 -0.65492323902E+01  0.18936280484E+04  0.25500000920E-02 0. -1.
</event>
<event>
 5   0  0.5140842E-08  0.3802613E+04  0.7818609E-02  0.8045594E-01
        2   -1    0    0  501    0  0.00000000000E+00  0.00000000000E+00  0.13250750015E+04  0.13250750015E+04  0.25500000920E-02 0.  1.
       -2   -1    0    0    0  501  0.00000000000E+00  0.00000000000E+00 -0.27281220784E+04  0.27281220784E+04  0.25500000920E-02 0. -1.
    10030    2    1    2    0    0  0.00000000000E+00  0.00000000000E+00 -0.14030470769E+04  0.40531970800E+04  0.38026129791E+04 0.  0.
        2    1    3    3  502    0 -0.94344584832E+02 -0.10410148485E+04  0.99132684059E+03  0.14406046371E+04  0.25500000920E-02 0.  1.
       -2    1    3    3    0  502  0.94344584832E+02  0.10410148485E+04 -0.23943739175E+04  0.26125924429E+04  0.25500000920E-02 0. -1.
</event>
<event>
 5   0  0.5086209E-08  0.3799685E+04  0.7818609E-02  0.8046222E-01
        2   -1    0    0  501    0  0.00000000000E+00  0.00000000000E+00  0.19261976662E+04  0.19261976662E+04  0.25500000920E-02 0. -1.
       -2   -1    0    0    0  501  0.00000000000E+00  0.00000000000E+00 -0.18738482435E+04  0.18738482436E+04  0.25500000920E-02 0.  1.
    10030    2    1    2    0    0  0.00000000000E+00  0.00000000000E+00  0.52349422679E+02  0.38000459098E+04  0.37996853099E+04 0.  0.
        3    1    3    3  502    0  0.11290776896E+04  0.30761509205E+03  0.15229658808E+04  0.19206427462E+04  0.10100000352E+00 0. -1.
       -3    1    3    3    0  502 -0.11290776896E+04 -0.30761509205E+03 -0.14706164582E+04  0.18794031636E+04  0.10100000352E+00 0.  1.
</event>
<event>
 5   0  0.5140842E-08  0.3802413E+04  0.7818609E-02  0.8045637E-01
       -2   -1    0    0    0  501  0.00000000000E+00  0.00000000000E+00  0.25964109226E+04  0.25964109226E+04  0.25500000920E-02 0. -1.
        2   -1    0    0  501    0  0.00000000000E+00  0.00000000000E+00 -0.13921473697E+04  0.13921473697E+04  0.25500000920E-02 0.  1.
    10030    2    1    2    0    0  0.00000000000E+00  0.00000000000E+00  0.12042635530E+04  0.39885582923E+04  0.38024132529E+04 0.  0.
        2    1    3    3  502    0  0.95620804395E+03 -0.13310679417E+04  0.16128966552E+04  0.22994589166E+04  0.25500000920E-02 0. -1.
       -2    1    3    3    0  502 -0.95620804395E+03  0.13310679417E+04 -0.40863310226E+03  0.16890993757E+04  0.25500000920E-02 0.  1.
</event>
<event>
 5   0  0.5147582E-08  0.3803011E+04  0.7818609E-02  0.8045509E-01
       -2   -1    0    0    0  501  0.00000000000E+00  0.00000000000E+00  0.19064143225E+04  0.19064143225E+04  0.25500000920E-02 0.  1.
        2   -1    0    0  501    0  0.00000000000E+00  0.00000000000E+00 -0.18966092013E+04  0.18966092013E+04  0.25500000920E-02 0. -1.
    10030    2    1    2    0    0  0.00000000000E+00  0.00000000000E+00  0.98051212030E+01  0.38030235238E+04  0.38030108838E+04 0.  0.
        1    1    3    3  502    0  0.29122767305E+03 -0.18549641834E+04  0.30493233393E+03  0.19022853118E+04  0.50400001928E-02 0.  1.
       -1    1    3    3    0  502 -0.29122767305E+03  0.18549641834E+04 -0.29512721273E+03  0.19007382121E+04  0.50400001928E-02 0. -1.
</event>
<event>
 5   0  0.1628250E-08  0.3796574E+04  0.7818609E-02  0.8046890E-01
        1   -1    0    0  501    0  0.00000000000E+00  0.00000000000E+00  0.24258706483E+04  0.24258706483E+04  0.50400001928E-02 0. -1.
       -1   -1    0    0    0  501  0.00000000000E+00  0.00000000000E+00 -0.14854437677E+04  0.14854437677E+04  0.50400001928E-02 0.  1.
    10030    2    1    2    0    0  0.00000000000E+00  0.00000000000E+00  0.94042688062E+03  0.39113144160E+04  0.37965744748E+04 0.  0.
        5    1    3    3  502    0  0.24456240374E+03 -0.18196893009E+04  0.96685354690E+03  0.20750681416E+04  0.46999998093E+01 0. -1.
       -5    1    3    3    0  502 -0.24456240374E+03  0.18196893009E+04 -0.26426666274E+02  0.18362462743E+04  0.46999998093E+01 0.  1.
</event>
<event>
 5   0  0.5159761E-08  0.3799519E+04  0.7818609E-02  0.8046258E-01
        2   -1    0    0  501    0  0.00000000000E+00  0.00000000000E+00  0.13337270741E+04  0.13337270741E+04  0.25500000920E-02 0.  1.
       -2   -1    0    0    0  501  0.00000000000E+00  0.00000000000E+00 -0.27060151058E+04  0.27060151058E+04  0.25500000920E-02 0. -1.
    10030    2    1    2    0    0  0.00000000000E+00  0.00000000000E+00 -0.13722880317E+04  0.40397421799E+04  0.37995187113E+04 0.  0.
        5    1    3    3  502    0  0.47313699678E+03  0.34090490110E+03  0.12362029401E+04  0.13668557234E+04  0.46999998093E+01 0.  1.
       -5    1    3    3    0  502 -0.47313699678E+03 -0.34090490110E+03 -0.26084909718E+04  0.26728864565E+04  0.46999998093E+01 0. -1.
</event>
<event>
 5   0  0.5207474E-08  0.3815637E+04  0.7818609E-02  0.8042807E-01
       -2   -1    0    0    0  501  0.00000000000E+00  0.00000000000E+00  0.33667389559E+04  0.33667389559E+04  0.25500000920E-02 0.  1.
        2   -1    0    0  501    0  0.00000000000E+00  0.00000000000E+00 -0.10810971569E+04  0.10810971569E+04  0.25500000920E-02 0. -1.
    10030    2    1    2    0    0  0.00000000000E+00  0.00000000000E+00  0.22856417989E+04  0.44478361128E+04  0.38156372539E+04 0.  0.
        4    1    3    3  502    0 -0.36375940359E+03 -0.15126447560E+04 -0.14438144029E+03  0.15624540553E+04  0.12699999809E+01 0. -1.
       -4    1    3    3    0  502  0.36375940359E+03  0.15126447560E+04  0.24300232392E+04  0.28853820575E+04  0.12699999809E+01 0.  1.
</event>
<event>
 5   0  0.5140842E-08  0.3820010E+04  0.7818609E-02  0.8041874E-01
        2   -1    0    0  501    0  0.00000000000E+00  0.00000000000E+00  0.23075594170E+04  0.23075594170E+04  0.25500000920E-02 0.  1.
       -2   -1    0    0    0  501  0.00000000000E+00  0.00000000000E+00 -0.15809428417E+04  0.15809428417E+04  0.25500000920E-02 0. -1.
    10030    2    1    2    0    0  0.00000000000E+00  0.00000000000E+00  0.72661657530E+03  0.38885022588E+04  0.38200102316E+04 0.  0.
        2    1    3    3  502    0  0.14579786675E+04  0.69784134581E+03  0.13991163632E+04  0.21378051680E+04  0.25500000920E-02 0. -1.
       -2    1    3    3    0  502 -0.14579786675E+04 -0.69784134581E+03 -0.67249978786E+03  0.17506970907E+04  0.25500000920E-02 0.  1.
</event>
<event>
 5   0  0.1628250E-08  0.3800624E+04  0.7818609E-02  0.8046021E-01
       -1   -1    0    0    0  501  0.00000000000E+00  0.00000000000E+00  0.18899204565E+04  0.18899204565E+04  0.50400001928E-02 0.  1.
        1   -1    0    0  501    0  0.00000000000E+00  0.00000000000E+00 -0.19107608059E+04  0.19107608059E+04  0.50400001928E-02 0. -1.
    10030    2    1    2    0    0  0.00000000000E+00  0.00000000000E+00 -0.20840349386E+02  0.38006812624E+04  0.38006241248E+04 0.  0.
        5    1    3    3  502    0  0.13064127466E+04  0.16040966950E+02 -0.13903656527E+04  0.19079073131E+04  0.46999998093E+01 0. -1.
       -5    1    3    3    0  502 -0.13064127466E+04 -0.16040966950E+02  0.13695253033E+04  0.18927739494E+04  0.46999998093E+01 0.  1.
</event>
<event>
 5   0  0.1628250E-08  0.3806489E+04  0.7818609E-02  0.8044764E-01
       -1   -1    0    0    0  501  0.00000000000E+00  0.00000000000E+00  0.18737974243E+04  0.18737974243E+04  0.50400001928E-02 0. -1.
        1   -1    0    0  501    0  0.00000000000E+00  0.00000000000E+00 -0.19331547365E+04  0.19331547365E+04  0.50400001928E-02 0.  1.
    10030    2    1    2    0    0  0.00000000000E+00  0.00000000000E+00 -0.59357312234E+02  0.38069521608E+04  0.38064893885E+04 0.  0.
        5    1    3    3  502    0 -0.34078080971E+03 -0.16330543293E+04  0.88657696641E+03  0.18891899878E+04  0.46999998093E+01 0. -1.
       -5    1    3    3    0  502  0.34078080971E+03  0.16330543293E+04 -0.94593427864E+03  0.19177621730E+04  0.46999998093E+01 0.  1.
</event>
<event>
 5   0  0.5147582E-08  0.3808332E+04  0.7818609E-02  0.8044369E-01
        2   -1    0    0  501    0  0.00000000000E+00  0.00000000000E+00  0.17757928911E+04  0.17757928911E+04  0.25500000920E-02 0. -1.
       -2   -1    0    0    0  501  0.00000000000E+00  0.00000000000E+00 -0.20418189339E+04  0.20418189339E+04  0.25500000920E-02 0.  1.
    10030    2    1    2    0    0  0.00000000000E+00  0.00000000000E+00 -0.26602604277E+03  0.38176118251E+04  0.38083316809E+04 0.  0.
        1    1    3    3  502    0  0.13622321505E+04  0.62769721774E+03 -0.13089732165E+04  0.19907513935E+04  0.50400001928E-02 0.  1.
       -1    1    3    3    0  502 -0.13622321505E+04 -0.62769721774E+03  0.10429471737E+04  0.18268604316E+04  0.50400001928E-02 0. -1.
</event>
<event>
 5   0  0.5159761E-08  0.3806142E+04  0.7818609E-02  0.8044838E-01
       -2   -1    0    0    0  501  0.00000000000E+00  0.00000000000E+00  0.20769126894E+04  0.20769126894E+04  0.25500000920E-02 0.  1.
        2   -1    0    0  501    0  0.00000000000E+00  0.00000000000E+00 -0.17437798580E+04  0.17437798580E+04  0.25500000920E-02 0. -1.
    10030    2    1    2    0    0  0.00000000000E+00  0.00000000000E+00  0.33313283138E+03  0.38206925475E+04  0.38061416236E+04 0.  0.
        5    1    3    3  502    0 -0.60282193202E+03  0.96727636311E+02 -0.16427966219E+04  0.17525847621E+04  0.46999998093E+01 0. -1.
       -5    1    3    3    0  502  0.60282193202E+03 -0.96727636311E+02  0.19759294533E+04  0.20681077853E+04  0.46999998093E+01 0.  1.
</event>
<event>
 5   0  0.5159761E-08  0.3801147E+04  0.7818609E-02  0.8045909E-01
       -2   -1    0    0    0  501  0.00000000000E+00  0.00000000000E+00  0.30409554407E+04  0.30409554407E+04  0.25500000920E-02 0. -1.
        2   -1    0    0  501    0  0.00000000000E+00  0.00000000000E+00 -0.11878433968E+04  0.11878433968E+04  0.25500000920E-02 0.  1.
    10030    2    1    2    0    0  0.00000000000E+00  0.00000000000E+00  0.18531120439E+04  0.42287988376E+04  0.38011465851E+04 0.  0.
        5    1    3    3  502    0 -0.19395732190E+03 -0.18873987924E+04  0.10497537354E+04  0.21683861832E+04  0.46999998093E+01 0. -1.
       -5    1    3    3    0  502  0.19395732190E+03  0.18873987924E+04  0.80335830855E+03  0.20604126544E+04  0.46999998093E+01 0.  1.
</event>
<event>
 5   0  0.1628250E-08  0.3798765E+04  0.7818609E-02  0.8046420E-01
        1   -1    0    0  501    0  0.00000000000E+00  0.00000000000E+00  0.24347515203E+04  0.24347515203E+04  0.50400001928E-02 0. -1.
       -1   -1    0    0    0  501  0.00000000000E+00  0.00000000000E+00 -0.14817338810E+04  0.14817338810E+04  0.50400001928E-02 0.  1.
    10030    2    1    2    0    0  0.00000000000E+00  0.00000000000E+00  0.95301763929E+03  0.39164854014E+04  0.37987649675E+04 0.  0.
        4    1    3    3  502    0  0.96052152216E+03  0.10011705987E+04 -0.86088241745E+03  0.16328087187E+04  0.12699999809E+01 0.  1.
       -4    1    3    3    0  502 -0.96052152216E+03 -0.10011705987E+04  0.18139000567E+04  0.22836766827E+04  0.12699999809E+01 0. -1.
</event>
<event>
 5   0  0.1628250E-08  0.3851333E+04  0.7818609E-02  0.8035228E-01
       -1   -1    0    0    0  501  0.00000000000E+00  0.00000000000E+00  0.15736175902E+04  0.15736175902E+04  0.50400001928E-02 0.  1.
        1   -1    0    0  501    0  0.00000000000E+00  0.00000000000E+00 -0.23564750302E+04  0.23564750302E+04  0.50400001928E-02 0. -1.
    10030    2    1    2    0    0  0.00000000000E+00  0.00000000000E+00 -0.78285744000E+03  0.39300926204E+04  0.38513325270E+04 0.  0.
        4    1    3    3  502    0  0.83942183336E+03  0.14556440738E+04  0.56836969345E+03  0.17738586204E+04  0.12699999809E+01 0.  1.
       -4    1    3    3    0  502 -0.83942183336E+03 -0.14556440738E+04 -0.13512271335E+04  0.21562340000E+04  0.12699999809E+01 0. -1.
</event>
<event>
 5   0  0.1666051E-08  0.3789260E+04  0.7818609E-02  0.8048464E-01
       -1   -1    0    0    0  501  0.00000000000E+00  0.00000000000E+00  0.22170010477E+04  0.22170010477E+04  0.50400001928E-02 0.  1.
        1   -1    0    0  501    0  0.00000000000E+00  0.00000000000E+00 -0.16191345723E+04  0.16191345723E+04  0.50400001928E-02 0. -1.
    10030    2    1    2    0    0  0.00000000000E+00  0.00000000000E+00  0.59786647547E+03  0.38361356200E+04  0.37892601089E+04 0.  0.
        2    1    3    3  502    0 -0.32583523441E+02 -0.19731915435E+03  0.22062853039E+04  0.22153309858E+04  0.25500000920E-02 0.  1.
       -2    1    3    3    0  502  0.32583523441E+02  0.19731915435E+03 -0.16084188284E+04  0.16208046342E+04  0.25500000920E-02 0. -1.
</event>
<event>
 5   0  0.5147582E-08  0.3795907E+04  0.7818609E-02  0.8047034E-01
        2   -1    0    0  501    0  0.00000000000E+00  0.00000000000E+00  0.23584789564E+04  0.23584789564E+04  0.25500000920E-02 0.  1.
       -2   -1    0    0    0  501  0.00000000000E+00  0.00000000000E+00 -0.15273523676E+04  0.15273523676E+04  0.25500000920E-02 0. -1.
    10030    2    1    2    0    0  0.00000000000E+00  0.00000000000E+00  0.83112658879E+03  0.38858313240E+04  0.37959074900E+04 0.  0.
        1    1    3    3  502    0  0.11985814379E+04  0.14413867823E+04  0.11182730614E+03  0.18779506559E+04  0.50400001928E-02 0.  1.
       -1    1    3    3    0  502 -0.11985814379E+04 -0.14413867823E+04  0.71929928265E+03  0.20078806682E+04  0.50400001928E-02 0. -1.
</event>
<event>
 5   0  0.5159761E-08  0.3803652E+04  0.7818609E-02  0.8045372E-01
       -2   -1    0    0    0  501  0.00000000000E+00  0.00000000000E+00  0.16033864166E+04  0.16033864166E+04  0.25500000920E-02 0.  1.
        2   -1    0    0  501    0  0.00000000000E+00  0.00000000000E+00 -0.22558138316E+04  0.22558138316E+04  0.25500000920E-02 0. -1.
    10030    2    1    2    0    0  0.00000000000E+00  0.00000000000E+00 -0.65242741502E+03  0.38592002482E+04  0.38036515382E+04 0.  0.
        5    1    3    3  502    0  0.13680568484E+03 -0.13801694784E+04  0.99407256503E+03  0.17063955987E+04  0.46999998093E+01 0.  1.
       -5    1    3    3    0  502 -0.13680568484E+03  0.13801694784E+04 -0.16464999801E+04  0.21528046495E+04  0.46999998093E+01 0. -1.
</event>
<event>
 5   0  0.5086209E-08  0.3840230E+04  0.7818609E-02  0.8037576E-01
       -2   -1    0    0    0  501  0.00000000000E+00  0.00000000000E+00  0.25253892079E+04  0.25253892079E+04  0.25500000920E-02 0.  1.
        2   -1    0    0  501    0  0.00000000000E+00  0.00000000000E+00 -0.14599103694E+04  0.14599103694E+04  0.25500000920E-02 0. -1.
    10030    2    1    2    0    0  0.00000000000E+00  0.00000000000E+00  0.10654788385E+04  0.39852995772E+04  0.38402301448E+04 0.  0.
        3    1    3    3  502    0  0.13530587825E+04  0.13041248543E+04  0.94174989780E+03  0.21019996634E+04  0.10100000352E+00 0. -1.
       -3    1    3    3    0  502 -0.13530587825E+04 -0.13041248543E+04  0.12372894070E+03  0.18832999139E+04  0.10100000352E+00 0.  1.
</event>
<event>
 5   0  0.1628250E-08  0.3797404E+04  0.7818609E-02  0.8046712E-01
       -1   -1    0    0    0  501  0.00000000000E+00  0.00000000000E+00  0.21535586400E+04  0.21535586400E+04  0.50400001928E-02 0. -1.
        1   -1    0    0  501    0  0.00000000000E+00  0.00000000000E+00 -0.16740056037E+04  0.16740056037E+04  0.50400001928E-02 0.  1.
    10030    2    1    2    0    0  0.00000000000E+00  0.00000000000E+00  0.47955303623E+03  0.38275642437E+04  0.37974039718E+04 0.  0.
        1    1    3    3  502    0  0.14429051879E+04 -0.65273598232E+03  0.12954870617E+04  0.20460514097E+04  0.50400001928E-02 0. -1.
       -1    1    3    3    0  502 -0.14429051879E+04  0.65273598232E+03 -0.81593402549E+03  0.17815128340E+04  0.50400001928E-02 0.  1.
</event>
<event>
 5   0  0.5147582E-08  0.3791032E+04  0.7818609E-02  0.8048082E-01
        2   -1    0    0  501    0  0.00000000000E+00  0.00000000000E+00  0.19675836382E+04  0.19675836382E+04  0.25500000920E-02 0. -1.
       -2   -1    0    0    0  501  0.00000000000E+00  0.00000000000E+00 -0.18260875414E+04  0.18260875414E+04  0.25500000920E-02 0.  1.
    10030    2    1    2    0    0  0.00000000000E+00  0.00000000000E+00  0.14149609672E+03  0.37936711796E+04  0.37910315052E+04 0.  0.
        1    1    3    3  502    0 -0.12337338937E+04  0.30319657612E+03  0.14784800225E+04  0.19493410839E+04  0.50400001928E-02 0. -1.
       -1    1    3    3    0  502  0.12337338937E+04 -0.30319657612E+03 -0.13369839258E+04  0.18443300957E+04  0.50400001928E-02 0.  1.
</event>
<event>
 5   0  0.1628250E-08  0.3801776E+04  0.7818609E-02  0.8045774E-01
        1   -1    0    0  501    0  0.00000000000E+00  0.00000000000E+00  0.20510614477E+04  0.20510614477E+04  0.50400001928E-02 0.  1.
       -1   -1    0    0    0  501  0.00000000000E+00  0.00000000000E+00 -0.17617096453E+04  0.17617096453E+04  0.50400001928E-02 0. -1.
    10030    2    1    2    0    0  0.00000000000E+00  0.00000000000E+00  0.28935180238E+03  0.38127710931E+04  0.38017757617E+04 0.  0.
        4    1    3    3  502    0  0.28320616201E+03  0.76275073901E+03  0.18676022168E+04  0.20371386976E+04  0.12699999809E+01 0.  1.
       -4    1    3    3    0  502 -0.28320616201E+03 -0.76275073901E+03 -0.15782504145E+04  0.17756323954E+04  0.12699999809E+01 0. -1.
</event>
<event>
 5   0  0.5086209E-08  0.3790425E+04  0.7818609E-02  0.8048213E-01
       -2   -1    0    0    0  501  0.00000000000E+00  0.00000000000E+00  0.19666444488E+04  0.19666444488E+04  0.25500000920E-02 0.  1.
        2   -1    0    0  501    0  0.00000000000E+00  0.00000000000E+00 -0.18263747413E+04  0.18263747413E+04  0.25500000920E-02 0. -1.
    10030    2    1    2    0    0  0.00000000000E+00  0.00000000000E+00  0.14026970745E+03  0.37930191901E+04  0.37904246445E+04 0.  0.
        3    1    3    3  502    0 -0.98245309632E+03 -0.11238179834E+04  0.12386879180E+04  0.19397238759E+04  0.10100000352E+00 0.  1.
       -3    1    3    3    0  502  0.98245309632E+03  0.11238179834E+04 -0.10984182105E+04  0.18532953142E+04  0.10100000352E+00 0. -1.
</event>
<event>
 5   0  0.5207474E-08  0.3794232E+04  0.7818609E-02  0.8047394E-01
       -2   -1    0    0    0  501  0.00000000000E+00  0.00000000000E+00  0.21109604414E+04  0.21109604414E+04  0.25500000920E-02 0.  1.
        2   -1    0    0  501    0  0.00000000000E+00  0.00000000000E+00 -0.17049342775E+04  0.17049342775E+04  0.25500000920E-02 0. -1.
    10030    2    1    2    0    0  0.00000000000E+00  0.00000000000E+00  0.40602616388E+03  0.38158947189E+04  0.37942318406E+04 0.  0.
        4    1    3    3  502    0  0.17349000245E+04 -0.71871462774E+03  0.47402964363E+03  0.19367845846E+04  0.12699999809E+01 0.  1.
       -4    1    3    3    0  502 -0.17349000245E+04  0.71871462774E+03 -0.68003479743E+02  0.18791101344E+04  0.12699999809E+01 0. -1.
</event>
<event>
 5   0  0.1628250E-08  0.3812033E+04  0.7818609E-02  0.8043578E-01
        1   -1    0    0  501    0  0.00000000000E+00  0.00000000000E+00  0.19621359370E+04  0.19621359370E+04  0.50400001928E-02 0.  1.
       -1   -1    0    0    0  501  0.00000000000E+00  0.00000000000E+00 -0.18515023747E+04  0.18515023747E+04  0.50400001928E-02 0. -1.
    10030    2    1    2    0    0  0.00000000000E+00  0.00000000000E+00  0.11063356229E+03  0.38136383116E+04  0.38120332353E+04 0.  0.
        1    1    3    3  502    0 -0.10130276620E+04  0.10410108916E+04  0.12899233604E+04  0.19426350651E+04  0.50400001928E-02 0. -1.
       -1    1    3    3    0  502  0.10130276620E+04 -0.10410108916E+04 -0.11792897981E+04  0.18710032465E+04  0.50400001928E-02 0.  1.
</event>
<event>
 5   0  0.5147582E-08  0.3804301E+04  0.7818609E-02  0.8045233E-01
        2   -1    0    0  501    0  0.00000000000E+00  0.00000000000E+00  0.26130562628E+04  0.26130562628E+04  0.25500000920E-02 0.  1.
       -2   -1    0    0    0  501  0.00000000000E+00  0.00000000000E+00 -0.13846529925E+04  0.13846529925E+04  0.25500000920E-02 0. -1.
    10030    2    1    2    0    0  0.00000000000E+00  0.00000000000E+00  0.12284032703E+04  0.39977092552E+04  0.38043008155E+04 0.  0.
        1    1    3    3  502    0 -0.84968898693E+03 -0.14722794777E+04 -0.28277333506E+03  0.17232350374E+04  0.50400001928E-02 0. -1.
       -1    1    3    3    0  502  0.84968898693E+03  0.14722794777E+04  0.15111766054E+04  0.22744742179E+04  0.50400001928E-02 0.  1.
</event>
<event>
 5   0  0.1628250E-08  0.3798296E+04  0.7818609E-02  0.8046521E-01
        1   -1    0    0  501    0  0.00000000000E+00  0.00000000000E+00  0.14284381173E+04  0.14284381173E+04  0.50400001928E-02 0.  1.
       -1   -1    0    0    0  501  0.00000000000E+00  0.00000000000E+00 -0.25249700044E+04  0.25249700044E+04  0.50400001928E-02 0. -1.
    10030    2    1    2    0    0  0.00000000000E+00  0.00000000000E+00 -0.10965318871E+04  0.39534081217E+04  0.37982961440E+04 0.  0.
        5    1    3    3  502    0 -0.63368682340E+03  0.89741487796E+03 -0.21606665880E+04  0.24239254625E+04  0.46999998093E+01 0. -1.
       -5    1    3    3    0  502  0.63368682340E+03 -0.89741487796E+03  0.10641347008E+04  0.15294826592E+04  0.46999998093E+01 0.  1.
</event>
<event>
 5   0  0.1628250E-08  0.3795688E+04  0.7818609E-02  0.8047081E-01
        1   -1    0    0  501    0  0.00000000000E+00  0.00000000000E+00  0.25108029073E+04  0.25108029073E+04  0.50400001928E-02 0. -1.
       -1   -1    0    0    0  501  0.00000000000E+00  0.00000000000E+00 -0.14345261359E+04  0.14345261359E+04  0.50400001928E-02 0.  1.
    10030    2    1    2    0    0  0.00000000000E+00  0.00000000000E+00  0.10762767714E+04  0.39453290433E+04  0.37956882869E+04 0.  0.
        5    1    3    3  502    0 -0.29893611000E+03  0.12742838849E+04  0.19665912418E+04  0.23623432053E+04  0.46999998093E+01 0. -1.
       -5    1    3    3    0  502  0.29893611000E+03 -0.12742838849E+04 -0.89031447038E+03  0.15829858380E+04  0.46999998093E+01 0.  1.
</event>
<event>
 5   0  0.1628250E-08  0.3791917E+04  0.7818609E-02  0.8047892E-01
       -1   -1    0    0    0  501  0.00000000000E+00  0.00000000000E+00  0.32266991612E+04  0.32266991612E+04  0.50400001928E-02 0. -1.
        1   -1    0    0  501    0  0.00000000000E+00  0.00000000000E+00 -0.11140360801E+04  0.11140360801E+04  0.50400001928E-02 0.  1.
    10030    2    1    2    0    0  0.00000000000E+00  0.00000000000E+00  0.21126630811E+04  0.43407352413E+04  0.37919173436E+04 0.  0.
        1    1    3    3  502    0  0.11750283569E+04 -0.56398347624E+03 -0.51986741641E+03  0.14032216973E+04  0.50400001928E-02 0.  1.
       -1    1    3    3    0  502 -0.11750283569E+04  0.56398347624E+03  0.26325304976E+04  0.29375135441E+04  0.50400001928E-02 0. -1.
</event>
<event>
 5   0  0.1628473E-08  0.3798169E+04  0.7818609E-02  0.8046548E-01
        1   -1    0    0  501    0  0.00000000000E+00  0.00000000000E+00  0.19701530894E+04  0.19701530894E+04  0.50400001928E-02 0. -1.
       -1   -1    0    0    0  501  0.00000000000E+00  0.00000000000E+00 -0.18305798819E+04  0.18305798819E+04  0.50400001928E-02 0.  1.
    10030    2    1    2    0    0  0.00000000000E+00  0.00000000000E+00  0.13957320745E+03  0.38007329713E+04  0.37981693536E+04 0.  0.
        3    1    3    3  502    0  0.86268430031E+03  0.13420541310E+04 -0.96104903482E+03  0.18625114094E+04  0.10100000352E+00 0.  1.
       -3    1    3    3    0  502 -0.86268430031E+03 -0.13420541310E+04  0.11006222423E+04  0.19382215619E+04  0.10100000352E+00 0. -1.
</event>
<event>
 5   0  0.1628473E-08  0.3799670E+04  0.7818609E-02  0.8046226E-01
       -1   -1    0    0    0  501  0.00000000000E+00  0.00000000000E+00  0.16180285852E+04  0.16180285852E+04  0.50400001928E-02 0.  1.
        1   -1    0    0  501    0  0.00000000000E+00  0.00000000000E+00 -0.22307232209E+04  0.22307232209E+04  0.50400001928E-02 0. -1.
    10030    2    1    2    0    0  0.00000000000E+00  0.00000000000E+00 -0.61269463572E+03  0.38487518061E+04  0.37996704789E+04 0.  0.
        3    1    3    3  502    0 -0.10415377399E+03 -0.18844712967E+04 -0.86066689375E+02  0.18893087524E+04  0.10100000352E+00 0. -1.
       -3    1    3    3    0  502  0.10415377399E+03  0.18844712967E+04 -0.52662794634E+03  0.19594430537E+04  0.10100000352E+00 0.  1.
</event>
<event>
 5   0  0.1628250E-08  0.3812790E+04  0.7818609E-02  0.8043416E-01
       -1   -1    0    0    0  501  0.00000000000E+00  0.00000000000E+00  0.16649465145E+04  0.16649465145E+04  0.50400001928E-02 0. -1.
        1   -1    0    0  501    0  0.00000000000E+00  0.00000000000E+00 -0.21828580113E+04  0.21828580113E+04  0.50400001928E-02 0.  1.
    10030    2    1    2    0    0  0.00000000000E+00  0.00000000000E+00 -0.51791149681E+03  0.38478045257E+04  0.38127899693E+04 0.  0.
        4    1    3    3  502    0 -0.39298936598E+03 -0.32500572327E+00 -0.21415358676E+04  0.21772960829E+04  0.12699999809E+01 0.  1.
       -4    1    3    3    0  502  0.39298936598E+03  0.32500572327E+00  0.16236243708E+04  0.16705084429E+04  0.12699999809E+01 0. -1.
</event>
<event>
 5   0  0.1628473E-08  0.3800410E+04  0.7818609E-02  0.8046067E-01
        1   -1    0    0  501    0  0.00000000000E+00  0.00000000000E+00  0.19231510221E+04  0.19231510221E+04  0.50400001928E-02 0. -1.
       -1   -1    0    0    0  501  0.00000000000E+00  0.00000000000E+00 -0.18775326644E+04  0.18775326644E+04  0.50400001928E-02 0.  1.
    10030    2    1    2    0    0  0.00000000000E+00  0.00000000000E+00  0.45618357635E+02  0.38006836865E+04  0.38004099056E+04 0.  0.
        3    1    3    3  502    0 -0.11279135364E+04  0.15292098294E+04  0.12454463069E+02  0.19002175590E+04  0.10100000352E+00 0.  1.
       -3    1    3    3    0  502  0.11279135364E+04 -0.15292098294E+04  0.33163894566E+02  0.19004661275E+04  0.10100000352E+00 0. -1.
</event>
<event>
 5   0  0.1628250E-08  0.3796224E+04  0.7818609E-02  0.8046966E-01
       -1   -1    0    0    0  501  0.00000000000E+00  0.00000000000E+00  0.11340080911E+04  0.11340080911E+04  0.50400001928E-02 0. -1.
        1   -1    0    0  501    0  0.00000000000E+00  0.00000000000E+00 -0.31770745455E+04  0.31770745455E+04  0.50400001928E-02 0.  1.
    10030    2    1    2    0    0  0.00000000000E+00  0.00000000000E+00 -0.20430664545E+04  0.43110826366E+04  0.37962235132E+04 0.  0.
        1    1    3    3  502    0  0.12803668058E+04  0.10551497603E+04  0.25551580884E+02  0.16593170455E+04  0.50400001928E-02 0. -1.
       -1    1    3    3    0  502 -0.12803668058E+04 -0.10551497603E+04 -0.20686180354E+04  0.26517655911E+04  0.50400001928E-02 0.  1.
</event>
<event>
 5   0  0.1628250E-08  0.3796661E+04  0.7818609E-02  0.8046872E-01
       -1   -1    0    0    0  501  0.00000000000E+00  0.00000000000E+00  0.14695003464E+04  0.14695003464E+04  0.50400001928E-02 0.  1.
        1   -1    0    0  501    0  0.00000000000E+00  0.00000000000E+00 -0.24523018583E+04  0.24523018583E+04  0.50400001928E-02 0. -1.
    10030    2    1    2    0    0  0.00000000000E+00  0.00000000000E+00 -0.98280151193E+03  0.39218022047E+04  0.37966608647E+04 0.  0.
        5    1    3    3  502    0 -0.56453741543E+03 -0.73271001973E+03  0.12209698577E+04  0.15317819525E+04  0.46999998093E+01 0.  1.
       -5    1    3    3    0  502  0.56453741543E+03  0.73271001973E+03 -0.22037713697E+04  0.23900202523E+04  0.46999998093E+01 0. -1.
</event>
<event>
 5   0  0.5086209E-08  0.3798939E+04  0.7818609E-02  0.8046383E-01
        2   -1    0    0  501    0  0.00000000000E+00  0.00000000000E+00  0.22625454854E+04  0.22625454854E+04  0.25500000920E-02 0.  1.
       -2   -1    0    0    0  501  0.00000000000E+00  0.00000000000E+00 -0.15946573355E+04  0.15946573355E+04  0.25500000920E-02 0. -1.
    10030    2    1    2    0    0  0.00000000000E+00  0.00000000000E+00  0.66788814996E+03  0.38572028209E+04  0.37989391968E+04 0.  0.
        3    1    3    3  502    0 -0.18255435117E+04  0.60816410413E+02  0.86316446260E+03  0.20202377703E+04  0.10100000352E+00 0.  1.
       -3    1    3    3    0  502  0.18255435117E+04 -0.60816410413E+02 -0.19527631264E+03  0.18369650506E+04  0.10100000352E+00 0. -1.
</event>
<event>
 5   0  0.5140842E-08  0.3797552E+04  0.7818609E-02  0.8046680E-01
       -2   -1    0    0    0  501  0.00000000000E+00  0.00000000000E+00  0.13429353322E+04  0.13429353322E+04  0.25500000920E-02 0. -1.
        2   -1    0    0  501    0  0.00000000000E+00  0.00000000000E+00 -0.26846787033E+04  0.26846787033E+04  0.25500000920E-02 0.  1.
    10030    2    1    2    0    0  0.00000000000E+00  0.00000000000E+00 -0.13417433711E+04  0.40276140354E+04  0.37975517830E+04 0.  0.
        2    1    3    3  502    0  0.12155145744E+04  0.14427952007E+04 -0.89887508693E+03  0.20897631669E+04  0.25500000920E-02 0. -1.
       -2    1    3    3    0  502 -0.12155145744E+04 -0.14427952007E+04 -0.44286828415E+03  0.19378508686E+04  0.25500000920E-02 0.  1.
</event>
<event>
 5   0  0.1628250E-08  0.3853264E+04  0.7818609E-02  0.8034820E-01
        1   -1    0    0  501    0  0.00000000000E+00  0.00000000000E+00  0.22905425982E+04  0.22905425982E+04  0.50400001928E-02 0.  1.
       -1   -1    0    0    0  501  0.00000000000E+00  0.00000000000E+00 -0.16205378975E+04  0.16205378975E+04  0.50400001928E-02 0. -1.
    10030    2    1    2    0    0  0.00000000000E+00  0.00000000000E+00  0.67000470062E+03  0.39110804957E+04  0.38532641157E+04 0.  0.
        5    1    3    3  502    0  0.18131925119E+04  0.49256951311E+03 -0.97533922218E+02  0.18814427354E+04  0.46999998093E+01 0. -1.
       -5    1    3    3    0  502 -0.18131925119E+04 -0.49256951311E+03  0.76753862284E+03  0.20296377603E+04  0.46999998093E+01 0.  1.
</event>
<event>
 5   0  0.5086209E-08  0.3786659E+04  0.7818609E-02  0.8049024E-01
        2   -1    0    0  501    0  0.00000000000E+00  0.00000000000E+00  0.11367114142E+04  0.11367114142E+04  0.25500000920E-02 0.  1.
       -2   -1    0    0    0  501  0.00000000000E+00  0.00000000000E+00 -0.31535684615E+04  0.31535684615E+04  0.25500000920E-02 0. -1.
    10030    2    1    2    0    0  0.00000000000E+00  0.00000000000E+00 -0.20168570473E+04  0.42902798757E+04  0.37866593539E+04 0.  0.
        3    1    3    3  502    0  0.10719086804E+04 -0.11564598402E+04  0.17895711209E+03  0.15869509253E+04  0.10100000352E+00 0.  1.
       -3    1    3    3    0  502 -0.10719086804E+04  0.11564598402E+04 -0.21958141594E+04  0.27033289504E+04  0.10100000352E+00 0. -1.
</event>
<event>
 5   0  0.5147582E-08  0.3800993E+04  0.7818609E-02  0.8045942E-01
        2   -1    0    0  501    0  0.00000000000E+00  0.00000000000E+00  0.21290060507E+04  0.21290060507E+04  0.25500000920E-02 0. -1.
       -2   -1    0    0    0  501  0.00000000000E+00  0.00000000000E+00 -0.16965130265E+04  0.16965130265E+04  0.25500000920E-02 0.  1.
    10030    2    1    2    0    0  0.00000000000E+00  0.00000000000E+00  0.43249302417E+03  0.38255190772E+04  0.38009927643E+04 0.  0.
        1    1    3    3  502    0 -0.35956974356E+03  0.77062662079E+03 -0.14943471491E+04  0.17193688351E+04  0.50400001928E-02 0.  1.
       -1    1    3    3    0  502  0.35956974356E+03 -0.77062662079E+03  0.19268401732E+04  0.21061502421E+04  0.50400001928E-02 0. -1.
</event>
<event>
 5   0  0.5207474E-08  0.3797293E+04  0.7818609E-02  0.8046736E-01
        2   -1    0    0  501    0  0.00000000000E+00  0.00000000000E+00  0.21029174427E+04  0.21029174427E+04  0.25500000920E-02 0.  1.
       -2   -1    0    0    0  501  0.00000000000E+00  0.00000000000E+00 -0.17142178791E+04  0.17142178791E+04  0.25500000920E-02 0. -1.
    10030    2    1    2    0    0  0.00000000000E+00  0.00000000000E+00  0.38869956363E+03  0.38171353218E+04  0.37972930772E+04 0.  0.
        4    1    3    3  502    0  0.44930045064E+03 -0.47730367782E+03 -0.15968612294E+04  0.17261683275E+04  0.12699999809E+01 0. -1.
       -4    1    3    3    0  502 -0.44930045064E+03  0.47730367782E+03  0.19855607930E+04  0.20909669944E+04  0.12699999809E+01 0.  1.
</event>
<event>
 5   0  0.5140842E-08  0.3796914E+04  0.7818609E-02  0.8046818E-01
       -2   -1    0    0    0  501  0.00000000000E+00  0.00000000000E+00  0.12970581636E+04  0.12970581636E+04  0.25500000920E-02 0.  1.
        2   -1    0    0  501    0  0.00000000000E+00  0.00000000000E+00 -0.27787019654E+04  0.27787019654E+04  0.25500000920E-02 0. -1.
    10030    2    1    2    0    0  0.00000000000E+00  0.00000000000E+00 -0.14816438018E+04  0.40757601290E+04  0.37969135194E+04 0.  0.
        2    1    3    3  502    0 -0.48258417386E+03  0.10784819780E+04  0.85428559307E+03  0.14580173992E+04  0.25500000920E-02 0.  1.
       -2    1    3    3    0  502  0.48258417386E+03 -0.10784819780E+04 -0.23359293948E+04  0.26177427298E+04  0.25500000920E-02 0. -1.
</event>
<event>
 5   0  0.1628250E-08  0.3811010E+04  0.7818609E-02  0.8043796E-01
        1   -1    0    0  501    0  0.00000000000E+00  0.00000000000E+00  0.14926418301E+04  0.14926418301E+04  0.50400001928E-02 0. -1.
       -1   -1    0    0    0  501  0.00000000000E+00  0.00000000000E+00 -0.24325652362E+04  0.24325652362E+04  0.50400001928E-02 0.  1.
    10030    2    1    2    0    0  0.00000000000E+00  0.00000000000E+00 -0.93992340607E+03  0.39252070664E+04  0.38110096437E+04 0.  0.
        5    1    3    3  502    0 -0.11580431705E+03 -0.65753950560E+03 -0.23081415216E+04  0.24027709452E+04  0.46999998093E+01 0.  1.
       -5    1    3    3    0  502  0.11580431705E+03  0.65753950560E+03  0.13682181156E+04  0.15224361212E+04  0.46999998093E+01 0. -1.
</event>
<event>
 5   0  0.5140842E-08  0.3799791E+04  0.7818609E-02  0.8046200E-01
        2   -1    0    0  501    0  0.00000000000E+00  0.00000000000E+00  0.14522201003E+04  0.14522201003E+04  0.25500000920E-02 0. -1.
       -2   -1    0    0    0  501  0.00000000000E+00  0.00000000000E+00 -0.24855762337E+04  0.24855762337E+04  0.25500000920E-02 0.  1.
    10030    2    1    2    0    0  0.00000000000E+00  0.00000000000E+00 -0.10333561334E+04  0.39377963340E+04  0.37997914508E+04 0.  0.
        2    1    3    3  502    0 -0.14333585576E+04  0.74779516865E+03 -0.15508649937E+04  0.22402894004E+04  0.25500000920E-02 0. -1.
       -2    1    3    3    0  502  0.14333585576E+04 -0.74779516865E+03  0.51750886031E+03  0.16975069335E+04  0.25500000920E-02 0.  1.
</event>
<event>
 5   0  0.1628250E-08  0.3803314E+04  0.7818609E-02  0.8045444E-01
        1   -1    0    0  501    0  0.00000000000E+00  0.00000000000E+00  0.12898912644E+04  0.12898912644E+04  0.50400001928E-02 0.  1.
       -1   -1    0    0    0  501  0.00000000000E+00  0.00000000000E+00 -0.28035698139E+04  0.28035698139E+04  0.50400001928E-02 0. -1.
    10030    2    1    2    0    0  0.00000000000E+00  0.00000000000E+00 -0.15136785495E+04  0.40934610783E+04  0.38033144556E+04 0.  0.
        5    1    3    3  502    0  0.13426621133E+04 -0.71261786702E+03  0.47301084219E+03  0.15919570100E+04  0.46999998093E+01 0.  1.
       -5    1    3    3    0  502 -0.13426621133E+04  0.71261786702E+03 -0.19866893917E+04  0.25015040683E+04  0.46999998093E+01 0. -1.
</event>
<event>
 5   0  0.1628250E-08  0.3799156E+04  0.7818609E-02  0.8046336E-01
        1   -1    0    0  501    0  0.00000000000E+00  0.00000000000E+00  0.15313328019E+04  0.15313328019E+04  0.50400001928E-02 0.  1.
       -1   -1    0    0    0  501  0.00000000000E+00  0.00000000000E+00 -0.23563767270E+04  0.23563767270E+04  0.50400001928E-02 0. -1.
    10030    2    1    2    0    0  0.00000000000E+00  0.00000000000E+00 -0.82504392511E+03  0.38877095289E+04  0.37991562094E+04 0.  0.
        4    1    3    3  502    0  0.88723476129E+03  0.15837153368E+04 -0.98507718212E+03  0.20653615803E+04  0.12699999809E+01 0.  1.
       -4    1    3    3    0  502 -0.88723476129E+03 -0.15837153368E+04  0.16003325701E+03  0.18223479487E+04  0.12699999809E+01 0. -1.
</event>
<event>
 5   0  0.1666051E-08  0.3810433E+04  0.7818609E-02  0.8043920E-01
        1   -1    0    0  501    0  0.00000000000E+00  0.00000000000E+00  0.22240531052E+04  0.22240531053E+04  0.50400001928E-02 0.  1.
       -1   -1    0    0    0  501  0.00000000000E+00  0.00000000000E+00 -0.16320881391E+04  0.16320881391E+04  0.50400001928E-02 0. -1.
    10030    2    1    2    0    0  0.00000000000E+00  0.00000000000E+00  0.59196496612E+03  0.38561412444E+04  0.38104334105E+04 0.  0.
        2    1    3    3  502    0 -0.10518712984E+03  0.14738244610E+04 -0.92120355731E+03  0.17412176395E+04  0.25500000920E-02 0. -1.
       -2    1    3    3    0  502  0.10518712984E+03 -0.14738244610E+04  0.15131685234E+04  0.21149236049E+04  0.25500000920E-02 0.  1.
</event>
<event>
 5   0  0.1628250E-08  0.3799534E+04  0.7818609E-02  0.8046255E-01
       -1   -1    0    0    0  501  0.00000000000E+00  0.00000000000E+00  0.12044846534E+04  0.12044846534E+04  0.50400001928E-02 0. -1.
        1   -1    0    0  501    0  0.00000000000E+00  0.00000000000E+00 -0.29963968119E+04  0.29963968119E+04  0.50400001928E-02 0.  1.
    10030    2    1    2    0    0  0.00000000000E+00  0.00000000000E+00 -0.17919121585E+04  0.42008814653E+04  0.37995336427E+04 0.  0.
        4    1    3    3  502    0 -0.16591184308E+04  0.91274914057E+03 -0.72708965253E+03  0.20284097064E+04  0.12699999809E+01 0. -1.
       -4    1    3    3    0  502  0.16591184308E+04 -0.91274914057E+03 -0.10648225060E+04  0.21724717589E+04  0.12699999809E+01 0.  1.
</event>
<event>
 5   0  0.5147582E-08  0.3801061E+04  0.7818609E-02  0.8045927E-01
        2   -1    0    0  501    0  0.00000000000E+00  0.00000000000E+00  0.12171273822E+04  0.12171273822E+04  0.25500000920E-02 0. -1.
       -2   -1    0    0    0  501  0.00000000000E+00  0.00000000000E+00 -0.29676562931E+04  0.29676562931E+04  0.25500000920E-02 0.  1.
    10030    2    1    2    0    0  0.00000000000E+00  0.00000000000E+00 -0.17505289109E+04  0.41847836753E+04  0.38010607653E+04 0.  0.
        1    1    3    3  502    0 -0.17539513221E+04  0.11820693904E+03 -0.16704667524E+04  0.24250314001E+04  0.50400001928E-02 0. -1.
       -1    1    3    3    0  502  0.17539513221E+04 -0.11820693904E+03 -0.80062158535E+02  0.17597522752E+04  0.50400001928E-02 0.  1.
</event>
<event>
 5   0  0.5207474E-08  0.3799146E+04  0.7818609E-02  0.8046338E-01
        2   -1    0    0  501    0  0.00000000000E+00  0.00000000000E+00  0.21558874596E+04  0.21558874596E+04  0.25500000920E-02 0.  1.
       -2   -1    0    0    0  501  0.00000000000E+00  0.00000000000E+00 -0.16737319645E+04  0.16737319645E+04  0.25500000920E-02 0. -1.
    10030    2    1    2    0    0  0.00000000000E+00  0.00000000000E+00  0.48215549511E+03  0.38296194241E+04  0.37991460899E+04 0.  0.
        4    1    3    3  502    0 -0.29177329978E+02 -0.14977113593E+04  0.14185160846E+04  0.20630511694E+04  0.12699999809E+01 0.  1.
       -4    1    3    3    0  502  0.29177329978E+02  0.14977113593E+04 -0.93636058946E+03  0.17665682548E+04  0.12699999809E+01 0. -1.
</event>
<event>
 5   0  0.1628473E-08  0.3795956E+04  0.7818609E-02  0.8047023E-01
       -1   -1    0    0    0  501  0.00000000000E+00  0.00000000000E+00  0.29188675924E+04  0.29188675924E+04  0.50400001928E-02 0. -1.
        1   -1    0    0  501    0  0.00000000000E+00  0.00000000000E+00 -0.12341500991E+04  0.12341500991E+04  0.50400001928E-02 0.  1.
    10030    2    1    2    0    0  0.00000000000E+00  0.00000000000E+00  0.16847174932E+04  0.41530176915E+04  0.37959561264E+04 0.  0.
        3    1    3    3  502    0  0.14425808961E+04  0.10927667053E+03 -0.50175521616E+03  0.15312541721E+04  0.10100000352E+00 0.  1.
       -3    1    3    3    0  502 -0.14425808961E+04 -0.10927667053E+03  0.21864727094E+04  0.26217635194E+04  0.10100000352E+00 0. -1.
</event>
<event>
 5   0  0.5086209E-08  0.3793311E+04  0.7818609E-02  0.8047592E-01
        2   -1    0    0  501    0  0.00000000000E+00  0.00000000000E+00  0.16681010771E+04  0.16681010771E+04  0.25500000920E-02 0.  1.
       -2   -1    0    0    0  501  0.00000000000E+00  0.00000000000E+00 -0.21565255436E+04  0.21565255436E+04  0.25500000920E-02 0. -1.
    10030    2    1    2    0    0  0.00000000000E+00  0.00000000000E+00 -0.48842446654E+03  0.38246266207E+04  0.37933112617E+04 0.  0.
        3    1    3    3  502    0  0.82840941232E+03 -0.91405314734E+02 -0.19620041463E+04  0.21316841619E+04  0.10100000352E+00 0. -1.
       -3    1    3    3    0  502 -0.82840941232E+03  0.91405314734E+02  0.14735796797E+04  0.16929424588E+04  0.10100000352E+00 0.  1.
</event>
<event>
 5   0  0.1628473E-08  0.3798881E+04  0.7818609E-02  0.8046395E-01
        1   -1    0    0  501    0  0.00000000000E+00  0.00000000000E+00  0.22476627449E+04  0.22476627449E+04  0.50400001928E-02 0.  1.
       -1   -1    0    0    0  501  0.00000000000E+00  0.00000000000E+00 -0.16051673402E+04  0.16051673402E+04  0.50400001928E-02 0. -1.
    10030    2    1    2    0    0  0.00000000000E+00  0.00000000000E+00  0.64249540474E+03  0.38528300851E+04  0.37988813247E+04 0.  0.
        3    1    3    3  502    0 -0.11882118566E+04 -0.23970236025E+03  0.18044004595E+04  0.21737446185E+04  0.10100000352E+00 0.  1.
       -3    1    3    3    0  502  0.11882118566E+04  0.23970236025E+03 -0.11619050548E+04  0.16790854666E+04  0.10100000352E+00 0. -1.
</event>
<event>
 5   0  0.1666051E-08  0.3813042E+04  0.7818609E-02  0.8043362E-01
       -1   -1    0    0    0  501  0.00000000000E+00  0.00000000000E+00  0.13218451847E+04  0.13218451847E+04  0.50400001928E-02 0. -1.
        1   -1    0    0  501    0  0.00000000000E+00  0.00000000000E+00 -0.27498096542E+04  0.27498096542E+04  0.50400001928E-02 0.  1.
    10030    2    1    2    0    0  0.00000000000E+00  0.00000000000E+00 -0.14279644695E+04  0.40716548389E+04  0.38130421714E+04 0.  0.
        2    1    3    3  502    0  0.20351891175E+03 -0.10708335895E+04  0.95630559307E+03  0.14500430722E+04  0.25500000920E-02 0. -1.
       -2    1    3    3    0  502 -0.20351891175E+03  0.10708335895E+04 -0.23842700626E+04  0.26216117667E+04  0.25500000920E-02 0.  1.
</event>
<event>
 5   0  0.5140842E-08  0.3796670E+04  0.7818609E-02  0.8046870E-01
        2   -1    0    0  501    0  0.00000000000E+00  0.00000000000E+00  0.15145866951E+04  0.15145866951E+04  0.25500000920E-02 0.  1.
       -2   -1    0    0    0  501  0.00000000000E+00  0.00000000000E+00 -0.23793132095E+04  0.23793132095E+04  0.25500000920E-02 0. -1.
    10030    2    1    2    0    0  0.00000000000E+00  0.00000000000E+00 -0.86472651433E+03  0.38938999046E+04  0.37966701888E+04 0.  0.
        2    1    3    3  502    0 -0.61204933349E+03  0.16900868709E+04  0.19374416908E+03  0.18079089637E+04  0.25500000920E-02 0.  1.
       -2    1    3    3    0  502  0.61204933349E+03 -0.16900868709E+04 -0.10584706834E+04  0.20859909409E+04  0.25500000920E-02 0. -1.
</event>
<event>
 5   0  0.1628250E-08  0.3776286E+04  0.7818609E-02  0.8051263E-01
        3   -1    0    0  501    0  0.00000000000E+00  0.00000000000E+00  0.23461740939E+04  0.23461740961E+04  0.10100000352E+00 0. -1.
       -3   -1    0    0    0  501  0.00000000000E+00  0.00000000000E+00 -0.15195308770E+04  0.15195308804E+04  0.10100000352E+00 0.  1.
    10030    2    1    2    0    0  0.00000000000E+00  0.00000000000E+00  0.82664321688E+03  0.38657049765E+04  0.37762860004E+04 0.  0.
        5    1    3    3  502    0  0.16133391781E+04  0.65886731480E+03  0.11572288907E+04  0.20919297879E+04  0.46999998093E+01 0. -1.
       -5    1    3    3    0  502 -0.16133391781E+04 -0.65886731480E+03 -0.33058567380E+03  0.17737751886E+04  0.46999998093E+01 0.  1.
</event>
<event>
 5   0  0.1628250E-08  0.3794555E+04  0.7818609E-02  0.8047324E-01
       -1   -1    0    0    0  501  0.00000000000E+00  0.00000000000E+00  0.23165959027E+04  0.23165959027E+04  0.50400001928E-02 0. -1.
        1   -1    0    0  501    0  0.00000000000E+00  0.00000000000E+00 -0.15538586480E+04  0.15538586480E+04  0.50400001928E-02 0.  1.
    10030    2    1    2    0    0  0.00000000000E+00  0.00000000000E+00  0.76273725469E+03  0.38704545507E+04  0.37945553507E+04 0.  0.
        1    1    3    3  502    0  0.98359022317E+03 -0.16205117608E+04  0.30134893411E+03  0.19194580678E+04  0.50400001928E-02 0. -1.
       -1    1    3    3    0  502 -0.98359022317E+03  0.16205117608E+04  0.46138832058E+03  0.19509964829E+04  0.50400001928E-02 0.  1.
</event>
<event>
 5   0  0.5207474E-08  0.3851517E+04  0.7818609E-02  0.8035189E-01
       -2   -1    0    0    0  501  0.00000000000E+00  0.00000000000E+00  0.26826877969E+04  0.26826877969E+04  0.25500000920E-02 0.  1.
        2   -1    0    0  501    0  0.00000000000E+00  0.00000000000E+00 -0.13823995331E+04  0.13823995331E+04  0.25500000920E-02 0. -1.
    10030    2    1    2    0    0  0.00000000000E+00  0.00000000000E+00  0.13002882637E+04  0.40650873300E+04  0.38515172895E+04 0.  0.
        4    1    3    3  502    0 -0.10466003286E+04 -0.46663779161E+02 -0.10553139418E+04  0.14870234984E+04  0.12699999809E+01 0. -1.
       -4    1    3    3    0  502  0.10466003286E+04  0.46663779161E+02  0.23556022056E+04  0.25780638316E+04  0.12699999809E+01 0.  1.
</event>
<event>
 5   0  0.1628250E-08  0.3796169E+04  0.7818609E-02  0.8046978E-01
        1   -1    0    0  501    0  0.00000000000E+00  0.00000000000E+00  0.10822468194E+04  0.10822468194E+04  0.50400001928E-02 0. -1.
       -1   -1    0    0    0  501  0.00000000000E+00  0.00000000000E+00 -0.33289305044E+04  0.33289305044E+04  0.50400001928E-02 0.  1.
    10030    2    1    2    0    0  0.00000000000E+00  0.00000000000E+00 -0.22466836850E+04  0.44111773238E+04  0.37961688320E+04 0.  0.
        1    1    3    3  502    0 -0.10625484997E+04 -0.68655044202E+03 -0.27676396242E+04  0.30430560154E+04  0.50400001928E-02 0.  1.
       -1    1    3    3    0  502  0.10625484997E+04  0.68655044202E+03  0.52095593924E+03  0.13681213083E+04  0.50400001928E-02 0. -1.
</event>
<event>
 5   0  0.5207474E-08  0.3800869E+04  0.7818609E-02  0.8045968E-01
        2   -1    0    0  501    0  0.00000000000E+00  0.00000000000E+00  0.21426428404E+04  0.21426428404E+04  0.25500000920E-02 0.  1.
       -2   -1    0    0    0  501  0.00000000000E+00  0.00000000000E+00 -0.16856059099E+04  0.16856059099E+04  0.25500000920E-02 0. -1.
    10030    2    1    2    0    0  0.00000000000E+00  0.00000000000E+00  0.45703693050E+03  0.38282487504E+04  0.38008690768E+04 0.  0.
        4    1    3    3  502    0  0.13129667590E+04 -0.13022941661E+04 -0.21258380689E+03  0.18614632130E+04  0.12699999809E+01 0. -1.
       -4    1    3    3    0  502 -0.13129667590E+04  0.13022941661E+04  0.66962073740E+03  0.19667855374E+04  0.12699999809E+01 0.  1.
</event>
<event>
 5   0  0.5159761E-08  0.3786791E+04  0.7818609E-02  0.8048995E-01
        2   -1    0    0  501    0  0.00000000000E+00  0.00000000000E+00  0.20778459547E+04  0.20778459547E+04  0.25500000920E-02 0.  1.
       -2   -1    0    0    0  501  0.00000000000E+00  0.00000000000E+00 -0.17253188517E+04  0.17253188517E+04  0.25500000920E-02 0. -1.
    10030    2    1    2    0    0  0.00000000000E+00  0.00000000000E+00  0.35252710308E+03  0.38031648064E+04  0.37867911464E+04 0.  0.
        5    1    3    3  502    0  0.16611386008E+04 -0.34953537322E+03 -0.66603330793E+03  0.18235073034E+04  0.46999998093E+01 0. -1.
       -5    1    3    3    0  502 -0.16611386008E+04  0.34953537322E+03  0.10185604110E+04  0.19796575030E+04  0.46999998093E+01 0.  1.
</event>
<event>
 5   0  0.1628250E-08  0.3767406E+04  0.7818609E-02  0.8053186E-01
       -1   -1    0    0    0  501  0.00000000000E+00  0.00000000000E+00  0.26630619124E+04  0.26630619124E+04  0.50400001928E-02 0.  1.
        1   -1    0    0  501    0  0.00000000000E+00  0.00000000000E+00 -0.13324272598E+04  0.13324272598E+04  0.50400001928E-02 0. -1.
    10030    2    1    2    0    0  0.00000000000E+00  0.00000000000E+00  0.13306346526E+04  0.39954891721E+04  0.37674056254E+04 0.  0.
        4    1    3    3  502    0  0.87697215912E+03  0.10833338393E+04  0.20091709799E+04  0.24452938504E+04  0.12699999809E+01 0.  1.
       -4    1    3    3    0  502 -0.87697215912E+03 -0.10833338393E+04 -0.67853632729E+03  0.15501953218E+04  0.12699999809E+01 0. -1.
</event>
<event>
 5   0  0.5159761E-08  0.3794795E+04  0.7818609E-02  0.8047273E-01
        2   -1    0    0  501    0  0.00000000000E+00  0.00000000000E+00  0.14206684864E+04  0.14206684864E+04  0.25500000920E-02 0. -1.
       -2   -1    0    0    0  501  0.00000000000E+00  0.00000000000E+00 -0.25341003066E+04  0.25341003067E+04  0.25500000920E-02 0.  1.
    10030    2    1    2    0    0  0.00000000000E+00  0.00000000000E+00 -0.11134318202E+04  0.39547687931E+04  0.37947945647E+04 0.  0.
        5    1    3    3  502    0 -0.14132010837E+04  0.12438620177E+04 -0.31061620490E+03  0.19080970988E+04  0.46999998093E+01 0.  1.
       -5    1    3    3    0  502  0.14132010837E+04 -0.12438620177E+04 -0.80281561531E+03  0.20466716943E+04  0.46999998093E+01 0. -1.
</event>
<event>
 5   0  0.1666051E-08  0.3802450E+04  0.7818609E-02  0.8045629E-01
        1   -1    0    0  501    0  0.00000000000E+00  0.00000000000E+00  0.12673342189E+04  0.12673342189E+04  0.50400001928E-02 0. -1.
       -1   -1    0    0    0  501  0.00000000000E+00  0.00000000000E+00 -0.28521736268E+04  0.28521736268E+04  0.50400001928E-02 0.  1.
    10030    2    1    2    0    0  0.00000000000E+00  0.00000000000E+00 -0.15848394078E+04  0.41195078457E+04  0.38024503866E+04 0.  0.
        2    1    3    3  502    0 -0.10112535709E+04 -0.92790901997E+03 -0.22178019774E+04  0.26081208839E+04  0.25500000920E-02 0.  1.
       -2    1    3    3    0  502  0.10112535709E+04  0.92790901997E+03  0.63296256953E+03  0.15113869618E+04  0.25500000920E-02 0. -1.
</event>
<event>
 5   0  0.5140842E-08  0.3796372E+04  0.7818609E-02  0.8046934E-01
        2   -1    0    0  501    0  0.00000000000E+00  0.00000000000E+00  0.22942800321E+04  0.22942800321E+04  0.25500000920E-02 0. -1.
       -2   -1    0    0    0  501  0.00000000000E+00  0.00000000000E+00 -0.15704753033E+04  0.15704753033E+04  0.25500000920E-02 0.  1.
    10030    2    1    2    0    0  0.00000000000E+00  0.00000000000E+00  0.72380472883E+03  0.38647553354E+04  0.37963720204E+04 0.  0.
        2    1    3    3  502    0  0.12880659478E+04  0.51120474041E+03  0.16824442947E+04  0.21796933218E+04  0.25500000920E-02 0. -1.
       -2    1    3    3    0  502 -0.12880659478E+04 -0.51120474041E+03 -0.95863956588E+03  0.16850620136E+04  0.25500000920E-02 0.  1.
</event>
<event>
 5   0  0.1628250E-08  0.3805382E+04  0.7818609E-02  0.8045001E-01
        1   -1    0    0  501    0  0.00000000000E+00  0.00000000000E+00  0.24310867745E+04  0.24310867745E+04  0.50400001928E-02 0.  1.
       -1   -1    0    0    0  501  0.00000000000E+00  0.00000000000E+00 -0.14891419800E+04  0.14891419800E+04  0.50400001928E-02 0. -1.
    10030    2    1    2    0    0  0.00000000000E+00  0.00000000000E+00  0.94194479447E+03  0.39202287545E+04  0.38053821742E+04 0.  0.
        5    1    3    3  502    0 -0.13240027713E+04  0.12911128715E+04  0.99676961445E+01  0.18493450815E+04  0.46999998093E+01 0. -1.
       -5    1    3    3    0  502  0.13240027713E+04 -0.12911128715E+04  0.93197709833E+03  0.20708836730E+04  0.46999998093E+01 0.  1.
</event>
</LesHouchesEvents>
