<LesHouchesEvents version="3.0">
<header>
<!--
#*********************************************************************
#                                                                    *
#                        MadGraph5_aMC@NLO                           *
#                                                                    *
#                           Going Beyond                             *
#                                                                    *
#                   http://madgraph.hep.uiuc.edu                     *
#                   http://madgraph.phys.ucl.ac.be                   *
#                   http://amcatnlo.cern.ch                          *
#                                                                    *
#                     The MadGraph5_aMC@NLO team                     *
#                                                                    *
#....................................................................*
#                                                                    *
# This file contains all the information necessary to reproduce      *
# the events generated:                                              *
#                                                                    *
# 1. software version                                                *
# 2. proc_card          : code generation info including model       *
# 3. param_card         : model primary parameters in the LH format  *
# 4. run_card           : running parameters (collider and cuts)     *
# 5. pythia_card        : present only if pythia has been run        *
# 6. pgs_card           : present only if pgs has been run           *
# 7. delphes_cards      : present only if delphes has been run       *
#                                                                    *
#                                                                    *
#*********************************************************************
-->
<MGVersion>
#5.2.2.3
</MGVersion>
<MG5ProcCard>
#************************************************************
#*                     MadGraph5_aMC@NLO                    *
#*                                                          *
#*                *                       *                 *
#*                  *        * *        *                   *
#*                    * * * * 5 * * * *                     *
#*                  *        * *        *                   *
#*                *                       *                 *
#*                                                          *
#*                                                          *
#*         VERSION 2.2.3                 2015-02-10         *
#*                                                          *
#*    The MadGraph5_aMC@NLO Development Team - Find us at   *
#*    https://server06.fynu.ucl.ac.be/projects/madgraph     *
#*                                                          *
#************************************************************
#*                                                          *
#*               Command File for MadGraph5_aMC@NLO         *
#*                                                          *
#*     run as ./bin/mg5_aMC  filename                       *
#*                                                          *
#************************************************************
set group_subprocesses Auto
set ignore_six_quark_processes False
set loop_optimized_output True
set gauge unitary
set complex_mass_scheme False
import model sm
define p = g u c d s u~ c~ d~ s~
define j = g u c d s u~ c~ d~ s~
define l+ = e+ mu+
define l- = e- mu-
define vl = ve vm vt
define vl~ = ve~ vm~ vt~
import model Zprime_UFO
generate p p > zph, zph > j j
add process p p > zph, zph > b b~
output Dijet_signal
</MG5ProcCard>
<MGProcCard>
#*********************************************************************
#                        MadGraph/MadEvent                           *
#                   http://madgraph.hep.uiuc.edu                     *
#                                                                    *
#                          proc_card.dat                             *
#*********************************************************************
#                                                                    *
#            This Files is generated by MADGRAPH 5                   *
#                                                                    *
# WARNING: This Files is generated for MADEVENT (compatibility issue)*
#          This files is NOT a valid MG4 proc_card.dat               *
#          Running this in MG4 will NEVER reproduce the result of MG5*
#                                                                    *
#*********************************************************************
#*********************************************************************
# Process(es) requested : mg2 input                                  *
#*********************************************************************
# Begin PROCESS # This is TAG. Do not modify this line
p p > zph , zph > j j           #Process
# Be carefull the coupling are here in MG5 convention
          
end_coup           # End the couplings input

done               # this tells MG there are no more procs
# End PROCESS  # This is TAG. Do not modify this line
#*********************************************************************
# Model information                                                  *
#*********************************************************************
# Begin MODEL  # This is TAG. Do not modify this line
Zprime_UFO
# End   MODEL  # This is TAG. Do not modify this line
#*********************************************************************
# Start multiparticle definitions                                    *
#*********************************************************************
# Begin MULTIPARTICLES # This is TAG. Do not modify this line

# End  MULTIPARTICLES # This is TAG. Do not modify this line
</MGProcCard>
<MGRunCard>
#*********************************************************************
#                       MadGraph5_aMC@NLO                            *
#                                                                    *
#                     run_card.dat MadEvent                          *
#                                                                    *
#  This file is used to set the parameters of the run.               *
#                                                                    *
#  Some notation/conventions:                                        *
#                                                                    *
#   Lines starting with a '# ' are info or comments                  *
#                                                                    *
#   mind the format:   value    = variable     ! comment             *
#*********************************************************************
#
#*******************                                                 
# Running parameters
#*******************                                                 
#                                                                    
#*********************************************************************
# Tag name for the run (one word)                                    *
#*********************************************************************
  tag_1     = run_tag ! name of the run 
#*********************************************************************
# Run to generate the grid pack                                      *
#*********************************************************************
  .false.     = gridpack  !True = setting up the grid pack
#*********************************************************************
# Number of events and rnd seed                                      *
# Warning: Do not generate more than 1M events in a single run       *
# If you want to run Pythia, avoid more than 50k events in a run.    *
#*********************************************************************
  2000 = nevents ! Number of unweighted events requested 
 2280 = iseed   ! rnd seed (0=assigned automatically=default))
#*********************************************************************
# Collider type and energy                                           *
# lpp: 0=No PDF, 1=proton, -1=antiproton, 2=photon from proton,      *
#                                         3=photon from electron     *
#*********************************************************************
        1     = lpp1    ! beam 1 type 
        1     = lpp2    ! beam 2 type
     4000     = ebeam1  ! beam 1 total energy in GeV
     4000     = ebeam2  ! beam 2 total energy in GeV
#*********************************************************************
# Beam polarization from -100 (left-handed) to 100 (right-handed)    *
#*********************************************************************
        0     = polbeam1 ! beam polarization for beam 1
        0     = polbeam2 ! beam polarization for beam 2
#*********************************************************************
# PDF CHOICE: this automatically fixes also alpha_s and its evol.    *
#*********************************************************************
 'nn23lo1'    = pdlabel     ! PDF set                                     
 230000    = lhaid     ! if pdlabel=lhapdf, this is the lhapdf number
#*********************************************************************
# Renormalization and factorization scales                           *
#*********************************************************************
 F        = fixed_ren_scale  ! if .true. use fixed ren scale
 F        = fixed_fac_scale  ! if .true. use fixed fac scale
 91.1880  = scale            ! fixed ren scale
 91.1880  = dsqrt_q2fact1    ! fixed fact scale for pdf1
 91.1880  = dsqrt_q2fact2    ! fixed fact scale for pdf2
 1        = scalefact        ! scale factor for event-by-event scales
#*********************************************************************
# Matching - Warning! ickkw > 1 is still beta
#*********************************************************************
 0        = ickkw            ! 0 no matching, 1 MLM, 2 CKKW matching
 1        = highestmult      ! for ickkw=2, highest mult group
 1        = ktscheme         ! for ickkw=1, 1 Durham kT, 2 Pythia pTE
 1        = alpsfact         ! scale factor for QCD emission vx
 F        = chcluster        ! cluster only according to channel diag
 T        = pdfwgt           ! for ickkw=1, perform pdf reweighting
 5        = asrwgtflavor     ! highest quark flavor for a_s reweight
 T        = clusinfo         ! include clustering tag in output
 3.0      = lhe_version       ! Change the way clustering information pass to shower.        
#*********************************************************************
#**********************************************************
#
#**********************************************************
# Automatic ptj and mjj cuts if xqcut > 0
# (turn off for VBF and single top processes)
#**********************************************************
   T  = auto_ptj_mjj  ! Automatic setting of ptj and mjj
#**********************************************************
#                                                                    
#**********************************
# BW cutoff (M+/-bwcutoff*Gamma)
#**********************************
  15  = bwcutoff      ! (M+/-bwcutoff*Gamma)
#**********************************************************
# Apply pt/E/eta/dr/mij cuts on decay products or not
# (note that etmiss/ptll/ptheavy/ht/sorted cuts always apply)
#**********************************************************
   T  = cut_decays    ! Cut decay products 
#*************************************************************
# Number of helicities to sum per event (0 = all helicities)
# 0 gives more stable result, but longer run time (needed for
# long decay chains e.g.).
# Use >=2 if most helicities contribute, e.g. pure QCD.
#*************************************************************
   0  = nhel          ! Number of helicities used per event
#*******************                                                 
# Standard Cuts
#*******************                                                 
#                                                                    
#*********************************************************************
# Minimum and maximum pt's (for max, -1 means no cut)                *
#*********************************************************************
 20  = ptj       ! minimum pt for the jets 
  0  = ptb       ! minimum pt for the b 
 10  = pta       ! minimum pt for the photons 
 10  = ptl       ! minimum pt for the charged leptons 
  0  = misset    ! minimum missing Et (sum of neutrino's momenta)
  0  = ptheavy   ! minimum pt for one heavy final state
 1.0 = ptonium   ! minimum pt for the quarkonium states
 -1  = ptjmax    ! maximum pt for the jets
 -1  = ptbmax    ! maximum pt for the b
 -1  = ptamax    ! maximum pt for the photons
 -1  = ptlmax    ! maximum pt for the charged leptons
 -1  = missetmax ! maximum missing Et (sum of neutrino's momenta)
#*********************************************************************
# Minimum and maximum E's (in the center of mass frame)              *
#*********************************************************************
  0  = ej     ! minimum E for the jets 
  0  = eb     ! minimum E for the b 
  0  = ea     ! minimum E for the photons 
  0  = el     ! minimum E for the charged leptons 
 -1   = ejmax ! maximum E for the jets
 -1   = ebmax ! maximum E for the b
 -1   = eamax ! maximum E for the photons
 -1   = elmax ! maximum E for the charged leptons
#*********************************************************************
# Maximum and minimum absolute rapidity (for max, -1 means no cut)   *
#*********************************************************************
   5  = etaj    ! max rap for the jets 
  -1  = etab    ! max rap for the b
 2.5  = etaa    ! max rap for the photons 
 2.5  = etal    ! max rap for the charged leptons 
 0.6  = etaonium ! max rap for the quarkonium states
   0  = etajmin ! min rap for the jets
   0  = etabmin ! min rap for the b
   0  = etaamin ! min rap for the photons
   0  = etalmin ! main rap for the charged leptons
#*********************************************************************
# Minimum and maximum DeltaR distance                                *
#*********************************************************************
 0.4 = drjj    ! min distance between jets 
 0   = drbb    ! min distance between b's 
 0.4 = drll    ! min distance between leptons 
 0.4 = draa    ! min distance between gammas 
 0   = drbj    ! min distance between b and jet 
 0.4 = draj    ! min distance between gamma and jet 
 0.4 = drjl    ! min distance between jet and lepton 
 0   = drab    ! min distance between gamma and b 
 0   = drbl    ! min distance between b and lepton 
 0.4 = dral    ! min distance between gamma and lepton 
 -1  = drjjmax ! max distance between jets
 -1  = drbbmax ! max distance between b's
 -1  = drllmax ! max distance between leptons
 -1  = draamax ! max distance between gammas
 -1  = drbjmax ! max distance between b and jet
 -1  = drajmax ! max distance between gamma and jet
 -1  = drjlmax ! max distance between jet and lepton
 -1  = drabmax ! max distance between gamma and b
 -1  = drblmax ! max distance between b and lepton
 -1  = dralmax ! maxdistance between gamma and lepton
#*********************************************************************
# Minimum and maximum invariant mass for pairs                       *
# WARNING: for four lepton final state mmll cut require to have      *
#          different lepton masses for each flavor!                  *           
#*********************************************************************
 0   = mmjj    ! min invariant mass of a jet pair 
 0   = mmbb    ! min invariant mass of a b pair 
 0   = mmaa    ! min invariant mass of gamma gamma pair
 0   = mmll    ! min invariant mass of l+l- (same flavour) lepton pair
 -1  = mmjjmax ! max invariant mass of a jet pair
 -1  = mmbbmax ! max invariant mass of a b pair
 -1  = mmaamax ! max invariant mass of gamma gamma pair
 -1  = mmllmax ! max invariant mass of l+l- (same flavour) lepton pair
#*********************************************************************
# Minimum and maximum invariant mass for all letpons                 *
#*********************************************************************
 0   = mmnl    ! min invariant mass for all letpons (l+- and vl) 
 -1  = mmnlmax ! max invariant mass for all letpons (l+- and vl) 
#*********************************************************************
# Minimum and maximum pt for 4-momenta sum of leptons                *
#*********************************************************************
 0   = ptllmin  ! Minimum pt for 4-momenta sum of leptons(l and vl)
 -1  = ptllmax  ! Maximum pt for 4-momenta sum of leptons(l and vl)
#*********************************************************************
# Inclusive cuts                                                     *
#*********************************************************************
 0  = xptj ! minimum pt for at least one jet  
 0  = xptb ! minimum pt for at least one b 
 0  = xpta ! minimum pt for at least one photon 
 0  = xptl ! minimum pt for at least one charged lepton 
#*********************************************************************
# Control the pt's of the jets sorted by pt                          *
#*********************************************************************
 0   = ptj1min ! minimum pt for the leading jet in pt
 0   = ptj2min ! minimum pt for the second jet in pt
 0   = ptj3min ! minimum pt for the third jet in pt
 0   = ptj4min ! minimum pt for the fourth jet in pt
 -1  = ptj1max ! maximum pt for the leading jet in pt 
 -1  = ptj2max ! maximum pt for the second jet in pt
 -1  = ptj3max ! maximum pt for the third jet in pt
 -1  = ptj4max ! maximum pt for the fourth jet in pt
 0   = cutuse  ! reject event if fails any (0) / all (1) jet pt cuts
#*********************************************************************
# Control the pt's of leptons sorted by pt                           *
#*********************************************************************
 0   = ptl1min ! minimum pt for the leading lepton in pt
 0   = ptl2min ! minimum pt for the second lepton in pt
 0   = ptl3min ! minimum pt for the third lepton in pt
 0   = ptl4min ! minimum pt for the fourth lepton in pt
 -1  = ptl1max ! maximum pt for the leading lepton in pt 
 -1  = ptl2max ! maximum pt for the second lepton in pt
 -1  = ptl3max ! maximum pt for the third lepton in pt
 -1  = ptl4max ! maximum pt for the fourth lepton in pt
#*********************************************************************
# Control the Ht(k)=Sum of k leading jets                            *
#*********************************************************************
 0   = htjmin ! minimum jet HT=Sum(jet pt)
 -1  = htjmax ! maximum jet HT=Sum(jet pt)
 0   = ihtmin  !inclusive Ht for all partons (including b)
 -1  = ihtmax  !inclusive Ht for all partons (including b)
 0   = ht2min ! minimum Ht for the two leading jets
 0   = ht3min ! minimum Ht for the three leading jets
 0   = ht4min ! minimum Ht for the four leading jets
 -1  = ht2max ! maximum Ht for the two leading jets
 -1  = ht3max ! maximum Ht for the three leading jets
 -1  = ht4max ! maximum Ht for the four leading jets
#***********************************************************************
# Photon-isolation cuts, according to hep-ph/9801442                   *
# When ptgmin=0, all the other parameters are ignored                  *
# When ptgmin>0, pta and draj are not going to be used                 *
#***********************************************************************
   0 = ptgmin ! Min photon transverse momentum
 0.4 = R0gamma ! Radius of isolation code
 1.0 = xn ! n parameter of eq.(3.4) in hep-ph/9801442
 1.0 = epsgamma ! epsilon_gamma parameter of eq.(3.4) in hep-ph/9801442
 .true. = isoEM ! isolate photons from EM energy (photons and leptons)
#*********************************************************************
# WBF cuts                                                           *
#*********************************************************************
 0   = xetamin ! minimum rapidity for two jets in the WBF case  
 0   = deltaeta ! minimum rapidity for two jets in the WBF case 
#*********************************************************************
# KT DURHAM CUT                                                      *
#*********************************************************************
 -1    =  ktdurham        
 0.4  =  dparameter 
#*********************************************************************
# maximal pdg code for quark to be considered as a light jet         *
# (otherwise b cuts are applied)                                     *
#*********************************************************************
 4 = maxjetflavor    ! Maximum jet pdg code
#*********************************************************************
# Jet measure cuts                                                   *
#*********************************************************************
 0   = xqcut   ! minimum kt jet measure between partons
#*********************************************************************
#
#*********************************************************************
# Store info for systematics studies                                 *
# WARNING: If use_syst is T, matched Pythia output is                *
#          meaningful ONLY if plotted taking matchscale              *
#          reweighting into account!                                 *
#*********************************************************************
   F  = use_syst      ! Enable systematics studies
#
#**************************************
# Parameter of the systematics study
#  will be used by SysCalc (if installed)
#**************************************                                  
#
0.5 1 2 = sys_scalefact  # factorization/renormalization scale factor
0.5 1 2 = sys_alpsfact  # \alpha_s emission scale factors
30 50 = sys_matchscale # variation of merging scale
# PDF sets and number of members (0 or none for all members).
CT10nlo.LHgrid = sys_pdf # matching scales
# MSTW2008nlo68cl.LHgrid 1  = sys_pdf
</MGRunCard>
<slha>
######################################################################
## PARAM_CARD AUTOMATICALY GENERATED BY MG5 FOLLOWING UFO MODEL   ####
######################################################################
##                                                                  ##
##  Width set on Auto will be computed following the information    ##
##        present in the decay.py files of the model.               ##
##        See  arXiv:1402.1178 for more details.                    ##
##                                                                  ##
######################################################################

###################################
## INFORMATION FOR CKMBLOCK
###################################
Block ckmblock 
    1 2.277360e-01 # cabi 

###################################
## INFORMATION FOR FRBLOCK
###################################
Block frblock 
    1 1.200000e+00 # gz 

###################################
## INFORMATION FOR MASS
###################################
Block mass 
    1 5.040000e-03 # MD 
    2 2.550000e-03 # MU 
    3 1.010000e-01 # MS 
    4 1.270000e+00 # MC 
    5 4.700000e+00 # MB 
    6 1.720000e+02 # MT 
   11 5.110000e-04 # Me 
   13 1.056600e-01 # MM 
   15 1.777000e+00 # MTA 
   23 9.118760e+01 # MZ 
   25 1.200000e+02 # MH 
  10030 2.300000e+03 # MZph 
  10031 3.000000e+02 # MZpl 
## Dependent parameters, given by model restrictions.
## Those values should be edited following the 
## analytical expression. MG5 ignores those values 
## but they are important for interfacing the output of MG5
## to external program such as Pythia.
  12 0.000000 # ve : 0.0 
  14 0.000000 # vm : 0.0 
  16 0.000000 # vt : 0.0 
  21 0.000000 # g : 0.0 
  22 0.000000 # a : 0.0 
  24 79.824360 # w+ : cmath.sqrt(MZ__exp__2/2. + cmath.sqrt(MZ__exp__4/4. - (aEW*cmath.pi*MZ__exp__2)/(Gf*sqrt__2))) 

###################################
## INFORMATION FOR SMINPUTS
###################################
Block sminputs 
    1 1.279000e+02 # aEWM1 
    2 1.166370e-05 # Gf 
    3 1.184000e-01 # aS 

###################################
## INFORMATION FOR YUKAWA
###################################
Block yukawa 
    1 5.040000e-03 # ymdo 
    2 2.550000e-03 # ymup 
    3 1.010000e-01 # yms 
    4 1.270000e+00 # ymc 
    5 4.700000e+00 # ymb 
    6 1.720000e+02 # ymt 
   11 5.110000e-04 # yme 
   13 1.056600e-01 # ymm 
   15 1.777000e+00 # ymtau 

###################################
## INFORMATION FOR DECAY
###################################
DECAY   6 1.508336e+00 # WT 
DECAY  23 2.495200e+00 # WZ 
DECAY  24 2.085000e+00 # WW 
DECAY  25 5.753088e-03 # WH 
## Dependent parameters, given by model restrictions.
## Those values should be edited following the 
## analytical expression. MG5 ignores those values 
## but they are important for interfacing the output of MG5
## to external program such as Pythia.
DECAY  1 0.000000 # d : 0.0 
DECAY  2 0.000000 # u : 0.0 
DECAY  3 0.000000 # s : 0.0 
DECAY  4 0.000000 # c : 0.0 
DECAY  5 0.000000 # b : 0.0 
DECAY  11 0.000000 # e- : 0.0 
DECAY  12 0.000000 # ve : 0.0 
DECAY  13 0.000000 # mu- : 0.0 
DECAY  14 0.000000 # vm : 0.0 
DECAY  15 0.000000 # ta- : 0.0 
DECAY  16 0.000000 # vt : 0.0 
DECAY  21 0.000000 # g : 0.0 
DECAY  22 0.000000 # a : 0.0 
DECAY  10030 0.308725 # zph : (gz__exp__2*MZph*(5 + cmath.sqrt(1 - (4*MT__exp__2)/MZph__exp__2)))/(144.*cmath.pi) 
DECAY  10031 0.132629 # zpl : (5*gz__exp__2*MZpl)/(144.*cmath.pi) 
#===========================================================
# QUANTUM NUMBERS OF NEW STATE(S) (NON SM PDG CODE)
#===========================================================

Block QNUMBERS 10030  # zph 
        1 0  # 3 times electric charge
        2 3  # number of spin states (2S+1)
        3 1  # colour rep (1: singlet, 3: triplet, 8: octet)
        4 0  # Particle/Antiparticle distinction (0=own anti)
Block QNUMBERS 10031  # zpl 
        1 0  # 3 times electric charge
        2 3  # number of spin states (2S+1)
        3 1  # colour rep (1: singlet, 3: triplet, 8: octet)
        4 0  # Particle/Antiparticle distinction (0=own anti)
</slha>
## END BANNER##
<MGGenerationInfo>
#  Number of Events        :         3939
#  Integrated weight (pb)  :  0.18740E-01
#  Max wgt                 :  0.68148E-05
#  Average wgt             :  0.47576E-05
</MGGenerationInfo>
</header>
<init>
     2212     2212  0.40000000000E+04  0.40000000000E+04 0 0  247000  247000 2   1
  0.18745629942E-01  0.42092641833E-04  0.68147890000E-05   0
</init>
<event>
 5   0  0.6814789E-05  0.2320824E+04  0.7818609E-02  0.8469755E-01
        2   -1    0    0  501    0  0.00000000000E+00  0.00000000000E+00  0.13953103194E+04  0.13953103194E+04  0.25500000920E-02 0.  1.
       -2   -1    0    0    0  501  0.00000000000E+00  0.00000000000E+00 -0.96505867070E+03  0.96505867070E+03  0.25500000920E-02 0. -1.
    10030    2    1    2    0    0  0.00000000000E+00  0.00000000000E+00  0.43025164867E+03  0.23603689901E+04  0.23208242691E+04 0.  0.
        1    1    3    3  502    0  0.75263070736E+03 -0.86956870884E+03  0.57719184511E+02  0.11514921734E+04  0.50400001928E-02 0. -1.
       -1    1    3    3    0  502 -0.75263070736E+03  0.86956870884E+03  0.37253246416E+03  0.12088768167E+04  0.50400001928E-02 0.  1.
</event>
<event>
 5   0  0.6814789E-05  0.2304666E+04  0.7818609E-02  0.8476084E-01
       -2   -1    0    0    0  501  0.00000000000E+00  0.00000000000E+00  0.83457669803E+03  0.83457669803E+03  0.25500000920E-02 0.  1.
        2   -1    0    0  501    0  0.00000000000E+00  0.00000000000E+00 -0.15910719287E+04  0.15910719287E+04  0.25500000920E-02 0. -1.
    10030    2    1    2    0    0  0.00000000000E+00  0.00000000000E+00 -0.75649523067E+03  0.24256486267E+04  0.23046661855E+04 0.  0.
        1    1    3    3  502    0 -0.64687032986E+03  0.31558579175E+03 -0.13253967875E+04  0.15082149250E+04  0.50400001928E-02 0. -1.
       -1    1    3    3    0  502  0.64687032986E+03 -0.31558579175E+03  0.56890155687E+03  0.91743370172E+03  0.50400001928E-02 0.  1.
</event>
<event>
 5   0  0.6468758E-05  0.2315453E+04  0.7818609E-02  0.8471853E-01
       -2   -1    0    0    0  501  0.00000000000E+00  0.00000000000E+00  0.16614999578E+04  0.16614999578E+04  0.25500000920E-02 0. -1.
        2   -1    0    0  501    0  0.00000000000E+00  0.00000000000E+00 -0.80669914892E+03  0.80669914893E+03  0.25500000920E-02 0.  1.
    10030    2    1    2    0    0  0.00000000000E+00  0.00000000000E+00  0.85480080890E+03  0.24681991068E+04  0.23154529595E+04 0.  0.
        3    1    3    3  502    0  0.71438923764E+03 -0.16232628391E+02  0.13983769249E+04  0.15703736865E+04  0.10100000352E+00 0. -1.
       -3    1    3    3    0  502 -0.71438923764E+03  0.16232628391E+02 -0.54357611600E+03  0.89782542021E+03  0.10100000352E+00 0.  1.
</event>
<event>
 5   0  0.6814789E-05  0.2312995E+04  0.7818609E-02  0.8472815E-01
       -2   -1    0    0    0  501  0.00000000000E+00  0.00000000000E+00  0.10101140948E+04  0.10101140948E+04  0.25500000920E-02 0. -1.
        2   -1    0    0  501    0  0.00000000000E+00  0.00000000000E+00 -0.13240949081E+04  0.13240949081E+04  0.25500000920E-02 0.  1.
    10030    2    1    2    0    0  0.00000000000E+00  0.00000000000E+00 -0.31398081327E+03  0.23342090028E+04  0.23129953994E+04 0.  0.
        1    1    3    3  502    0 -0.10417529228E+04 -0.42402106255E+03 -0.42861302382E+03  0.12036411998E+04  0.50400001928E-02 0.  1.
       -1    1    3    3    0  502  0.10417529228E+04  0.42402106255E+03  0.11463221055E+03  0.11305678031E+04  0.50400001928E-02 0. -1.
</event>
<event>
 5   0  0.6468758E-05  0.2408831E+04  0.7818609E-02  0.8436205E-01
       -2   -1    0    0    0  501  0.00000000000E+00  0.00000000000E+00  0.13286653644E+04  0.13286653644E+04  0.25500000920E-02 0.  1.
        2   -1    0    0  501    0  0.00000000000E+00  0.00000000000E+00 -0.10917852517E+04  0.10917852517E+04  0.25500000920E-02 0. -1.
    10030    2    1    2    0    0  0.00000000000E+00  0.00000000000E+00  0.23688011265E+03  0.24204506161E+04  0.24088314588E+04 0.  0.
        3    1    3    3  502    0 -0.43784406938E+03 -0.54251959322E+03  0.11053089414E+04  0.13068063377E+04  0.10100000352E+00 0.  1.
       -3    1    3    3    0  502  0.43784406938E+03  0.54251959322E+03 -0.86842882870E+03  0.11136442784E+04  0.10100000352E+00 0. -1.
</event>
<event>
 5   0  0.2962279E-05  0.2319626E+04  0.7818609E-02  0.8470223E-01
        1   -1    0    0  501    0  0.00000000000E+00  0.00000000000E+00  0.99400286258E+03  0.99400286259E+03  0.50400001928E-02 0.  1.
       -1   -1    0    0    0  501  0.00000000000E+00  0.00000000000E+00 -0.13532820909E+04  0.13532820909E+04  0.50400001928E-02 0. -1.
    10030    2    1    2    0    0  0.00000000000E+00  0.00000000000E+00 -0.35927922833E+03  0.23472849535E+04  0.23196260666E+04 0.  0.
        1    1    3    3  502    0  0.10918976949E+04 -0.39094477845E+03 -0.18912562433E+03  0.11750944208E+04  0.50400001928E-02 0. -1.
       -1    1    3    3    0  502 -0.10918976949E+04  0.39094477845E+03 -0.17015360400E+03  0.11721905327E+04  0.50400001928E-02 0.  1.
</event>
<event>
 5   0  0.3118614E-05  0.2299878E+04  0.7818609E-02  0.8477969E-01
       -1   -1    0    0    0  501  0.00000000000E+00  0.00000000000E+00  0.15225908331E+04  0.15225908331E+04  0.50400001928E-02 0.  1.
        1   -1    0    0  501    0  0.00000000000E+00  0.00000000000E+00 -0.86849324945E+03  0.86849324946E+03  0.50400001928E-02 0. -1.
    10030    2    1    2    0    0  0.00000000000E+00  0.00000000000E+00  0.65409758363E+03  0.23910840825E+04  0.22998781361E+04 0.  0.
        3    1    3    3  502    0 -0.11005453506E+04  0.29643255417E+03  0.48570302518E+03  0.12389430038E+04  0.10100000352E+00 0. -1.
       -3    1    3    3    0  502  0.11005453506E+04 -0.29643255417E+03  0.16839455845E+03  0.11521410787E+04  0.10100000352E+00 0.  1.
</event>
<event>
 5   0  0.6814789E-05  0.2301937E+04  0.7818609E-02  0.8477158E-01
        2   -1    0    0  501    0  0.00000000000E+00  0.00000000000E+00  0.30573998118E+04  0.30573998118E+04  0.25500000920E-02 0.  1.
       -2   -1    0    0    0  501  0.00000000000E+00  0.00000000000E+00 -0.43328590808E+03  0.43328590809E+03  0.25500000920E-02 0. -1.
    10030    2    1    2    0    0  0.00000000000E+00  0.00000000000E+00  0.26241139037E+04  0.34906857199E+04  0.23019367966E+04 0.  0.
        1    1    3    3  502    0 -0.96216119841E+03  0.15641751780E+03  0.38405754995E+03  0.10477217251E+04  0.50400001928E-02 0. -1.
       -1    1    3    3    0  502  0.96216119841E+03 -0.15641751780E+03  0.22400563538E+04  0.24429639948E+04  0.50400001928E-02 0.  1.
</event>
<event>
 5   0  0.3006265E-05  0.2310140E+04  0.7818609E-02  0.8473934E-01
       -1   -1    0    0    0  501  0.00000000000E+00  0.00000000000E+00  0.78045364722E+03  0.78045364723E+03  0.50400001928E-02 0. -1.
        1   -1    0    0  501    0  0.00000000000E+00  0.00000000000E+00 -0.17095010545E+04  0.17095010546E+04  0.50400001928E-02 0.  1.
    10030    2    1    2    0    0  0.00000000000E+00  0.00000000000E+00 -0.92904740733E+03  0.24899547018E+04  0.23101396780E+04 0.  0.
        2    1    3    3  502    0 -0.82302284155E+03 -0.24861919954E+03  0.36688524167E+03  0.93476354478E+03  0.25500000920E-02 0. -1.
       -2    1    3    3    0  502  0.82302284155E+03  0.24861919954E+03 -0.12959326490E+04  0.15551911570E+04  0.25500000920E-02 0.  1.
</event>
<event>
 5   0  0.6814789E-05  0.2391970E+04  0.7818609E-02  0.8442516E-01
       -2   -1    0    0    0  501  0.00000000000E+00  0.00000000000E+00  0.12780250267E+04  0.12780250267E+04  0.25500000920E-02 0.  1.
        2   -1    0    0  501    0  0.00000000000E+00  0.00000000000E+00 -0.11192109410E+04  0.11192109410E+04  0.25500000920E-02 0. -1.
    10030    2    1    2    0    0  0.00000000000E+00  0.00000000000E+00  0.15881408572E+03  0.23972359678E+04  0.23919695590E+04 0.  0.
        1    1    3    3  502    0  0.41210365254E+03 -0.53203829268E+03  0.10702624475E+04  0.12642609983E+04  0.50400001928E-02 0.  1.
       -1    1    3    3    0  502 -0.41210365254E+03  0.53203829268E+03 -0.91144836175E+03  0.11329749695E+04  0.50400001928E-02 0. -1.
</event>
<event>
 5   0  0.6495405E-05  0.2295308E+04  0.7818609E-02  0.8479773E-01
       -2   -1    0    0    0  501  0.00000000000E+00  0.00000000000E+00  0.58185965475E+03  0.58185965476E+03  0.25500000920E-02 0.  1.
        2   -1    0    0  501    0  0.00000000000E+00  0.00000000000E+00 -0.22636204483E+04  0.22636204483E+04  0.25500000920E-02 0. -1.
    10030    2    1    2    0    0  0.00000000000E+00  0.00000000000E+00 -0.16817607935E+04  0.28454801030E+04  0.22953077463E+04 0.  0.
        5    1    3    3  502    0  0.99640043328E+02  0.14432023521E+03  0.56513790622E+03  0.59174269033E+03  0.46999998093E+01 0.  1.
       -5    1    3    3    0  502 -0.99640043328E+02 -0.14432023521E+03 -0.22468986997E+04  0.22537374127E+04  0.46999998093E+01 0. -1.
</event>
<event>
 5   0  0.6495405E-05  0.2217691E+04  0.7818609E-02  0.8511100E-01
        2   -1    0    0  501    0  0.00000000000E+00  0.00000000000E+00  0.14955998430E+04  0.14955998430E+04  0.25500000920E-02 0.  1.
       -2   -1    0    0    0  501  0.00000000000E+00  0.00000000000E+00 -0.82210415685E+03  0.82210415685E+03  0.25500000920E-02 0. -1.
    10030    2    1    2    0    0  0.00000000000E+00  0.00000000000E+00  0.67349568612E+03  0.23177039998E+04  0.22176914554E+04 0.  0.
        5    1    3    3  502    0  0.51437848535E+03 -0.85134328894E+03 -0.17539917535E+03  0.10100285058E+04  0.46999998093E+01 0.  1.
       -5    1    3    3    0  502 -0.51437848535E+03  0.85134328894E+03  0.84889486147E+03  0.13076754940E+04  0.46999998093E+01 0. -1.
</event>
<event>
 5   0  0.2944089E-05  0.2169245E+04  0.7818609E-02  0.8531339E-01
        1   -1    0    0  501    0  0.00000000000E+00  0.00000000000E+00  0.12055006718E+04  0.12055006718E+04  0.50400001928E-02 0. -1.
       -1   -1    0    0    0  501  0.00000000000E+00  0.00000000000E+00 -0.97586511644E+03  0.97586511645E+03  0.50400001928E-02 0.  1.
    10030    2    1    2    0    0  0.00000000000E+00  0.00000000000E+00  0.22963555533E+03  0.21813657882E+04  0.21692450792E+04 0.  0.
        5    1    3    3  502    0  0.13789102872E+03  0.66881352522E+03  0.96217579071E+03  0.11798855070E+04  0.46999998093E+01 0. -1.
       -5    1    3    3    0  502 -0.13789102872E+03 -0.66881352522E+03 -0.73254023538E+03  0.10014802813E+04  0.46999998093E+01 0.  1.
</event>
<event>
 5   0  0.2962279E-05  0.2319215E+04  0.7818609E-02  0.8470383E-01
       -1   -1    0    0    0  501  0.00000000000E+00  0.00000000000E+00  0.70440540980E+03  0.70440540981E+03  0.50400001928E-02 0. -1.
        1   -1    0    0  501    0  0.00000000000E+00  0.00000000000E+00 -0.19089706716E+04  0.19089706717E+04  0.50400001928E-02 0.  1.
    10030    2    1    2    0    0  0.00000000000E+00  0.00000000000E+00 -0.12045652619E+04  0.26133760815E+04  0.23192147536E+04 0.  0.
        1    1    3    3  502    0 -0.39792178682E+02 -0.10277524430E+04 -0.12057778221E+04  0.15848528820E+04  0.50400001928E-02 0.  1.
       -1    1    3    3    0  502  0.39792178682E+02  0.10277524430E+04  0.12125601985E+01  0.10285231994E+04  0.50400001928E-02 0. -1.
</event>
<event>
 5   0  0.3118614E-05  0.2277361E+04  0.7818609E-02  0.8486901E-01
        1   -1    0    0  501    0  0.00000000000E+00  0.00000000000E+00  0.13849696961E+04  0.13849696961E+04  0.50400001928E-02 0. -1.
       -1   -1    0    0    0  501  0.00000000000E+00  0.00000000000E+00 -0.93618880807E+03  0.93618880808E+03  0.50400001928E-02 0.  1.
    10030    2    1    2    0    0  0.00000000000E+00  0.00000000000E+00  0.44878088804E+03  0.23211585042E+04  0.22773608665E+04 0.  0.
        3    1    3    3  502    0 -0.60740078372E+03  0.68813769550E+03 -0.46245675710E+03  0.10277818165E+04  0.10100000352E+00 0.  1.
       -3    1    3    3    0  502  0.60740078372E+03 -0.68813769550E+03  0.91123764515E+03  0.12933766877E+04  0.10100000352E+00 0. -1.
</event>
<event>
 5   0  0.3118614E-05  0.2260029E+04  0.7818609E-02  0.8493850E-01
       -1   -1    0    0    0  501  0.00000000000E+00  0.00000000000E+00  0.73749415361E+03  0.73749415363E+03  0.50400001928E-02 0. -1.
        1   -1    0    0  501    0  0.00000000000E+00  0.00000000000E+00 -0.17314483708E+04  0.17314483708E+04  0.50400001928E-02 0.  1.
    10030    2    1    2    0    0  0.00000000000E+00  0.00000000000E+00 -0.99395421716E+03  0.24689425244E+04  0.22600292483E+04 0.  0.
        3    1    3    3  502    0  0.88194222753E+03 -0.84995882825E+02 -0.12631546846E+04  0.15429213072E+04  0.10100000352E+00 0.  1.
       -3    1    3    3    0  502 -0.88194222753E+03  0.84995882825E+02  0.26920046746E+03  0.92602121718E+03  0.10100000352E+00 0. -1.
</event>
<event>
 5   0  0.6814789E-05  0.2297641E+04  0.7818609E-02  0.8478852E-01
        2   -1    0    0  501    0  0.00000000000E+00  0.00000000000E+00  0.13794102268E+04  0.13794102268E+04  0.25500000920E-02 0.  1.
       -2   -1    0    0    0  501  0.00000000000E+00  0.00000000000E+00 -0.95677710602E+03  0.95677710603E+03  0.25500000920E-02 0. -1.
    10030    2    1    2    0    0  0.00000000000E+00  0.00000000000E+00  0.42263312082E+03  0.23361873329E+04  0.22976406376E+04 0.  0.
        1    1    3    3  502    0 -0.92275808041E+03 -0.68430822601E+03  0.20594573703E+03  0.11671220458E+04  0.50400001928E-02 0. -1.
       -1    1    3    3    0  502  0.92275808041E+03  0.68430822601E+03  0.21668738379E+03  0.11690652871E+04  0.50400001928E-02 0.  1.
</event>
<event>
 5   0  0.2982385E-05  0.2272425E+04  0.7818609E-02  0.8488874E-01
       -1   -1    0    0    0  501  0.00000000000E+00  0.00000000000E+00  0.82793979650E+03  0.82793979652E+03  0.50400001928E-02 0. -1.
        1   -1    0    0  501    0  0.00000000000E+00  0.00000000000E+00 -0.15592659572E+04  0.15592659572E+04  0.50400001928E-02 0.  1.
    10030    2    1    2    0    0  0.00000000000E+00  0.00000000000E+00 -0.73132616071E+03  0.23872057537E+04  0.22724245548E+04 0.  0.
        4    1    3    3  502    0 -0.76150030691E+03 -0.47039606179E+03 -0.11008864874E+04  0.14188403164E+04  0.12699999809E+01 0. -1.
       -4    1    3    3    0  502  0.76150030691E+03  0.47039606179E+03  0.36956032665E+03  0.96836543738E+03  0.12699999809E+01 0.  1.
</event>
<event>
 5   0  0.2962279E-05  0.2289501E+04  0.7818609E-02  0.8482072E-01
        1   -1    0    0  501    0  0.00000000000E+00  0.00000000000E+00  0.11431715852E+04  0.11431715852E+04  0.50400001928E-02 0.  1.
       -1   -1    0    0    0  501  0.00000000000E+00  0.00000000000E+00 -0.11463320841E+04  0.11463320841E+04  0.50400001928E-02 0. -1.
    10030    2    1    2    0    0  0.00000000000E+00  0.00000000000E+00 -0.31604988669E+01  0.22895036693E+04  0.22895014879E+04 0.  0.
        1    1    3    3  502    0  0.59526378851E+03  0.59902563926E+03 -0.77442221871E+03  0.11458186887E+04  0.50400001928E-02 0. -1.
       -1    1    3    3    0  502 -0.59526378851E+03 -0.59902563926E+03  0.77126171985E+03  0.11436849806E+04  0.50400001928E-02 0.  1.
</event>
<event>
 5   0  0.6676612E-05  0.2323353E+04  0.7818609E-02  0.8468770E-01
       -2   -1    0    0    0  501  0.00000000000E+00  0.00000000000E+00  0.85946999868E+03  0.85946999868E+03  0.25500000920E-02 0.  1.
        2   -1    0    0  501    0  0.00000000000E+00  0.00000000000E+00 -0.15701452397E+04  0.15701452397E+04  0.25500000920E-02 0. -1.
    10030    2    1    2    0    0  0.00000000000E+00  0.00000000000E+00 -0.71067524102E+03  0.24296152384E+04  0.23233533757E+04 0.  0.
        2    1    3    3  502    0 -0.67777032747E+03  0.68493888535E+03 -0.10338415438E+04  0.14132735868E+04  0.25500000920E-02 0. -1.
       -2    1    3    3    0  502  0.67777032747E+03 -0.68493888535E+03  0.32316630278E+03  0.10163416516E+04  0.25500000920E-02 0.  1.
</event>
<event>
 5   0  0.3118614E-05  0.2293996E+04  0.7818609E-02  0.8480292E-01
       -1   -1    0    0    0  501  0.00000000000E+00  0.00000000000E+00  0.63871001457E+03  0.63871001459E+03  0.50400001928E-02 0. -1.
        1   -1    0    0  501    0  0.00000000000E+00  0.00000000000E+00 -0.20597839508E+04  0.20597839508E+04  0.50400001928E-02 0.  1.
    10030    2    1    2    0    0  0.00000000000E+00  0.00000000000E+00 -0.14210739362E+04  0.26984939654E+04  0.22939961964E+04 0.  0.
        3    1    3    3  502    0 -0.28914914240E+02  0.10754597882E+04 -0.11783474457E+04  0.15956041305E+04  0.10100000352E+00 0. -1.
       -3    1    3    3    0  502  0.28914914240E+02 -0.10754597882E+04 -0.24272649051E+03  0.11028898348E+04  0.10100000352E+00 0.  1.
</event>
<event>
 5   0  0.6468758E-05  0.2332612E+04  0.7818609E-02  0.8465172E-01
        2   -1    0    0  501    0  0.00000000000E+00  0.00000000000E+00  0.17410017348E+04  0.17410017348E+04  0.25500000920E-02 0. -1.
       -2   -1    0    0    0  501  0.00000000000E+00  0.00000000000E+00 -0.78131452055E+03  0.78131452056E+03  0.25500000920E-02 0.  1.
    10030    2    1    2    0    0  0.00000000000E+00  0.00000000000E+00  0.95968721424E+03  0.25223162554E+04  0.23326122144E+04 0.  0.
        3    1    3    3  502    0 -0.59549954957E+03  0.36886669455E+03 -0.52851185667E+03  0.87750050982E+03  0.10100000352E+00 0.  1.
       -3    1    3    3    0  502  0.59549954957E+03 -0.36886669455E+03  0.14881990709E+04  0.16448157455E+04  0.10100000352E+00 0. -1.
</event>
<event>
 5   0  0.2962279E-05  0.2224466E+04  0.7818609E-02  0.8508313E-01
       -1   -1    0    0    0  501  0.00000000000E+00  0.00000000000E+00  0.10086749692E+04  0.10086749692E+04  0.50400001928E-02 0.  1.
        1   -1    0    0  501    0  0.00000000000E+00  0.00000000000E+00 -0.12264233931E+04  0.12264233931E+04  0.50400001928E-02 0. -1.
    10030    2    1    2    0    0  0.00000000000E+00  0.00000000000E+00 -0.21774842392E+03  0.22350983623E+04  0.22244662984E+04 0.  0.
        1    1    3    3  502    0  0.24734179611E+03 -0.19780807208E+03  0.96240961493E+03  0.10131822464E+04  0.50400001928E-02 0.  1.
       -1    1    3    3    0  502 -0.24734179611E+03  0.19780807208E+03 -0.11801580389E+04  0.12219161159E+04  0.50400001928E-02 0. -1.
</event>
<event>
 5   0  0.6676612E-05  0.2295331E+04  0.7818609E-02  0.8479764E-01
        2   -1    0    0  501    0  0.00000000000E+00  0.00000000000E+00  0.19672509168E+04  0.19672509168E+04  0.25500000920E-02 0. -1.
       -2   -1    0    0    0  501  0.00000000000E+00  0.00000000000E+00 -0.66953135578E+03  0.66953135579E+03  0.25500000920E-02 0.  1.
    10030    2    1    2    0    0  0.00000000000E+00  0.00000000000E+00  0.12977195611E+04  0.26367822726E+04  0.22953310642E+04 0.  0.
        2    1    3    3  502    0  0.94352601880E+03  0.28014549350E+03 -0.29213007282E+02  0.98467062791E+03  0.25500000920E-02 0.  1.
       -2    1    3    3    0  502 -0.94352601880E+03 -0.28014549350E+03  0.13269325683E+04  0.16521116447E+04  0.25500000920E-02 0. -1.
</event>
<event>
 5   0  0.3006265E-05  0.2293542E+04  0.7818609E-02  0.8480472E-01
       -1   -1    0    0    0  501  0.00000000000E+00  0.00000000000E+00  0.90353735107E+03  0.90353735108E+03  0.50400001928E-02 0.  1.
        1   -1    0    0  501    0  0.00000000000E+00  0.00000000000E+00 -0.14554834568E+04  0.14554834568E+04  0.50400001928E-02 0. -1.
    10030    2    1    2    0    0  0.00000000000E+00  0.00000000000E+00 -0.55194610571E+03  0.23590208079E+04  0.22935419483E+04 0.  0.
        2    1    3    3  502    0  0.49344257851E+03 -0.69235790756E+03  0.51556800126E+03  0.99431152783E+03  0.25500000920E-02 0.  1.
       -2    1    3    3    0  502 -0.49344257851E+03  0.69235790756E+03 -0.10675141070E+04  0.13647092800E+04  0.25500000920E-02 0. -1.
</event>
<event>
 5   0  0.6468758E-05  0.2278916E+04  0.7818609E-02  0.8486281E-01
        2   -1    0    0  501    0  0.00000000000E+00  0.00000000000E+00  0.18691846399E+04  0.18691846399E+04  0.25500000920E-02 0.  1.
       -2   -1    0    0    0  501  0.00000000000E+00  0.00000000000E+00 -0.69461538754E+03  0.69461538754E+03  0.25500000920E-02 0. -1.
    10030    2    1    2    0    0  0.00000000000E+00  0.00000000000E+00  0.11745692524E+04  0.25638000275E+04  0.22789158941E+04 0.  0.
        3    1    3    3  502    0 -0.28910193807E+03  0.56672569109E+03  0.16507638285E+04  0.17691181892E+04  0.10100000352E+00 0.  1.
       -3    1    3    3    0  502  0.28910193807E+03 -0.56672569109E+03 -0.47619457615E+03  0.79468183828E+03  0.10100000352E+00 0. -1.
</event>
<event>
 5   0  0.6495405E-05  0.2280078E+04  0.7818609E-02  0.8485818E-01
        2   -1    0    0  501    0  0.00000000000E+00  0.00000000000E+00  0.77282952519E+03  0.77282952519E+03  0.25500000920E-02 0. -1.
       -2   -1    0    0    0  501  0.00000000000E+00  0.00000000000E+00 -0.16817277791E+04  0.16817277791E+04  0.25500000920E-02 0.  1.
    10030    2    1    2    0    0  0.00000000000E+00  0.00000000000E+00 -0.90889825391E+03  0.24545573043E+04  0.22800779645E+04 0.  0.
        5    1    3    3  502    0  0.59443676416E+03  0.96987471544E+03 -0.53540168875E+03  0.12572545838E+04  0.46999998093E+01 0.  1.
       -5    1    3    3    0  502 -0.59443676416E+03 -0.96987471544E+03 -0.37349656516E+03  0.11973027205E+04  0.46999998093E+01 0. -1.
</event>
<event>
 5   0  0.3006265E-05  0.2302656E+04  0.7818609E-02  0.8476875E-01
       -1   -1    0    0    0  501  0.00000000000E+00  0.00000000000E+00  0.95958866245E+03  0.95958866246E+03  0.50400001928E-02 0.  1.
        1   -1    0    0  501    0  0.00000000000E+00  0.00000000000E+00 -0.13813794187E+04  0.13813794187E+04  0.50400001928E-02 0. -1.
    10030    2    1    2    0    0  0.00000000000E+00  0.00000000000E+00 -0.42179075627E+03  0.23409680812E+04  0.23026558829E+04 0.  0.
        2    1    3    3  502    0  0.20174918665E+03 -0.86312884532E+03  0.53608258134E+03  0.10358951066E+04  0.25500000920E-02 0.  1.
       -2    1    3    3    0  502 -0.20174918665E+03  0.86312884532E+03 -0.95787333761E+03  0.13050729745E+04  0.25500000920E-02 0. -1.
</event>
<event>
 5   0  0.6468758E-05  0.2331048E+04  0.7818609E-02  0.8465779E-01
       -2   -1    0    0    0  501  0.00000000000E+00  0.00000000000E+00  0.14355562066E+04  0.14355562066E+04  0.25500000920E-02 0.  1.
        2   -1    0    0  501    0  0.00000000000E+00  0.00000000000E+00 -0.94628527400E+03  0.94628527401E+03  0.25500000920E-02 0. -1.
    10030    2    1    2    0    0  0.00000000000E+00  0.00000000000E+00  0.48927093260E+03  0.23818414806E+04  0.23310475742E+04 0.  0.
        3    1    3    3  502    0  0.85573889846E+03 -0.42886614552E+03  0.92413011550E+03  0.13305005501E+04  0.10100000352E+00 0.  1.
       -3    1    3    3    0  502 -0.85573889846E+03  0.42886614552E+03 -0.43485918290E+03  0.10513409306E+04  0.10100000352E+00 0. -1.
</event>
<event>
 5   0  0.6814789E-05  0.2312441E+04  0.7818609E-02  0.8473032E-01
       -2   -1    0    0    0  501  0.00000000000E+00  0.00000000000E+00  0.15932133044E+04  0.15932133044E+04  0.25500000920E-02 0. -1.
        2   -1    0    0  501    0  0.00000000000E+00  0.00000000000E+00 -0.83908746887E+03  0.83908746887E+03  0.25500000920E-02 0.  1.
    10030    2    1    2    0    0  0.00000000000E+00  0.00000000000E+00  0.75412583550E+03  0.24323007732E+04  0.23124405453E+04 0.  0.
        1    1    3    3  502    0  0.46508040071E+03 -0.60227800144E+03  0.12927054056E+04  0.15000419447E+04  0.50400001928E-02 0. -1.
       -1    1    3    3    0  502 -0.46508040071E+03  0.60227800144E+03 -0.53857957007E+03  0.93225882858E+03  0.50400001928E-02 0.  1.
</event>
<event>
 5   0  0.2944089E-05  0.2212539E+04  0.7818609E-02  0.8513227E-01
       -1   -1    0    0    0  501  0.00000000000E+00  0.00000000000E+00  0.11059189736E+04  0.11059189737E+04  0.50400001928E-02 0.  1.
        1   -1    0    0  501    0  0.00000000000E+00  0.00000000000E+00 -0.11066201707E+04  0.11066201707E+04  0.50400001928E-02 0. -1.
    10030    2    1    2    0    0  0.00000000000E+00  0.00000000000E+00 -0.70119707454E+00  0.22125391444E+04  0.22125390333E+04 0.  0.
        5    1    3    3  502    0 -0.73029415556E+03  0.77463642896E+03 -0.30104814058E+03  0.11063648691E+04  0.46999998093E+01 0. -1.
       -5    1    3    3    0  502  0.73029415556E+03 -0.77463642896E+03  0.30034694351E+03  0.11061742752E+04  0.46999998093E+01 0.  1.
</event>
<event>
 5   0  0.6468758E-05  0.2292335E+04  0.7818609E-02  0.8480949E-01
        2   -1    0    0  501    0  0.00000000000E+00  0.00000000000E+00  0.24294445623E+04  0.24294445624E+04  0.25500000920E-02 0. -1.
       -2   -1    0    0    0  501  0.00000000000E+00  0.00000000000E+00 -0.54074080525E+03  0.54074080526E+03  0.25500000920E-02 0.  1.
    10030    2    1    2    0    0  0.00000000000E+00  0.00000000000E+00  0.18887037571E+04  0.29701853676E+04  0.22923348874E+04 0.  0.
        3    1    3    3  502    0  0.96154367797E+03 -0.28779553826E+03  0.16614591912E+04  0.19410922623E+04  0.10100000352E+00 0. -1.
       -3    1    3    3    0  502 -0.96154367797E+03  0.28779553826E+03  0.22724456590E+03  0.10290931053E+04  0.10100000352E+00 0.  1.
</event>
<event>
 5   0  0.2982385E-05  0.2291035E+04  0.7818609E-02  0.8481464E-01
        1   -1    0    0  501    0  0.00000000000E+00  0.00000000000E+00  0.14650706161E+04  0.14650706161E+04  0.50400001928E-02 0.  1.
       -1   -1    0    0    0  501  0.00000000000E+00  0.00000000000E+00 -0.89566363893E+03  0.89566363894E+03  0.50400001928E-02 0. -1.
    10030    2    1    2    0    0  0.00000000000E+00  0.00000000000E+00  0.56940697715E+03  0.23607342550E+04  0.22910351192E+04 0.  0.
        4    1    3    3  502    0  0.86722965015E+03 -0.11434907078E+03  0.10468302911E+04  0.13641914262E+04  0.12699999809E+01 0.  1.
       -4    1    3    3    0  502 -0.86722965015E+03  0.11434907078E+03 -0.47742331393E+03  0.99654282882E+03  0.12699999809E+01 0. -1.
</event>
<event>
 5   0  0.2962279E-05  0.1840495E+04  0.7818609E-02  0.8685056E-01
       -1   -1    0    0    0  501  0.00000000000E+00  0.00000000000E+00  0.83254606524E+03  0.83254606526E+03  0.50400001928E-02 0. -1.
        1   -1    0    0  501    0  0.00000000000E+00  0.00000000000E+00 -0.10171880158E+04  0.10171880158E+04  0.50400001928E-02 0.  1.
    10030    2    1    2    0    0  0.00000000000E+00  0.00000000000E+00 -0.18464195059E+03  0.18497340811E+04  0.18404954553E+04 0.  0.
        1    1    3    3  502    0  0.17709183270E+03  0.71863038494E+03 -0.64193416953E+03  0.97972987370E+03  0.50400001928E-02 0.  1.
       -1    1    3    3    0  502 -0.17709183270E+03 -0.71863038494E+03  0.45729221894E+03  0.87000420741E+03  0.50400001928E-02 0. -1.
</event>
<event>
 5   0  0.3118614E-05  0.2310685E+04  0.7818609E-02  0.8473720E-01
        1   -1    0    0  501    0  0.00000000000E+00  0.00000000000E+00  0.43983624904E+03  0.43983624907E+03  0.50400001928E-02 0. -1.
       -1   -1    0    0    0  501  0.00000000000E+00  0.00000000000E+00 -0.30348018184E+04  0.30348018184E+04  0.50400001928E-02 0.  1.
    10030    2    1    2    0    0  0.00000000000E+00  0.00000000000E+00 -0.25949655693E+04  0.34746380675E+04  0.23106846158E+04 0.  0.
        3    1    3    3  502    0  0.32016791163E+03 -0.23835057267E+03 -0.29278285805E+04  0.29549109453E+04  0.10100000352E+00 0.  1.
       -3    1    3    3    0  502 -0.32016791163E+03  0.23835057267E+03  0.33286301120E+03  0.51972712221E+03  0.10100000352E+00 0. -1.
</event>
<event>
 5   0  0.6702421E-05  0.2297264E+04  0.7818609E-02  0.8479001E-01
        2   -1    0    0  501    0  0.00000000000E+00  0.00000000000E+00  0.75402234532E+03  0.75402234532E+03  0.25500000920E-02 0. -1.
       -2   -1    0    0    0  501  0.00000000000E+00  0.00000000000E+00 -0.17497569061E+04  0.17497569061E+04  0.25500000920E-02 0.  1.
    10030    2    1    2    0    0  0.00000000000E+00  0.00000000000E+00 -0.99573456078E+03  0.25037792514E+04  0.22972642913E+04 0.  0.
        4    1    3    3  502    0 -0.81416277878E+03  0.69799201511E+03 -0.94631719994E+03  0.14302348546E+04  0.12699999809E+01 0.  1.
       -4    1    3    3    0  502  0.81416277878E+03 -0.69799201511E+03 -0.49417360838E+02  0.10735443968E+04  0.12699999809E+01 0. -1.
</event>
<event>
 5   0  0.6702421E-05  0.2303012E+04  0.7818609E-02  0.8476735E-01
        2   -1    0    0  501    0  0.00000000000E+00  0.00000000000E+00  0.16692639111E+04  0.16692639111E+04  0.25500000920E-02 0.  1.
       -2   -1    0    0    0  501  0.00000000000E+00  0.00000000000E+00 -0.79434144853E+03  0.79434144854E+03  0.25500000920E-02 0. -1.
    10030    2    1    2    0    0  0.00000000000E+00  0.00000000000E+00  0.87492246252E+03  0.24636053596E+04  0.23030115181E+04 0.  0.
        4    1    3    3  502    0  0.19147852411E+03  0.96439503849E+02 -0.77280215749E+03  0.80199089186E+03  0.12699999809E+01 0. -1.
       -4    1    3    3    0  502 -0.19147852411E+03 -0.96439503849E+02  0.16477246200E+04  0.16616144677E+04  0.12699999809E+01 0.  1.
</event>
<event>
 5   0  0.2342500E-05  0.2286607E+04  0.7818609E-02  0.8483221E-01
       -4   -1    0    0    0  501  0.00000000000E+00  0.00000000000E+00  0.19024019307E+04  0.19024023546E+04  0.12699999809E+01 0. -1.
        4   -1    0    0  501    0  0.00000000000E+00  0.00000000000E+00 -0.68710013252E+03  0.68710130622E+03  0.12699999809E+01 0.  1.
    10030    2    1    2    0    0  0.00000000000E+00  0.00000000000E+00  0.12153017982E+04  0.25895036608E+04  0.22866068199E+04 0.  0.
        3    1    3    3  502    0  0.51081905722E+03  0.59782363554E+03 -0.33223654966E+03  0.85364532656E+03  0.10100000352E+00 0.  1.
       -3    1    3    3    0  502 -0.51081905722E+03 -0.59782363554E+03  0.15475383479E+04  0.17358583343E+04  0.10100000352E+00 0. -1.
</event>
<event>
 5   0  0.3118614E-05  0.2305713E+04  0.7818609E-02  0.8475672E-01
       -1   -1    0    0    0  501  0.00000000000E+00  0.00000000000E+00  0.65274658508E+03  0.65274658510E+03  0.50400001928E-02 0.  1.
        1   -1    0    0  501    0  0.00000000000E+00  0.00000000000E+00 -0.20361322314E+04  0.20361322314E+04  0.50400001928E-02 0. -1.
    10030    2    1    2    0    0  0.00000000000E+00  0.00000000000E+00 -0.13833856463E+04  0.26888788165E+04  0.23057132180E+04 0.  0.
        3    1    3    3  502    0 -0.83666111584E+01  0.25025909917E+03 -0.20040369889E+04  0.20196197365E+04  0.10100000352E+00 0. -1.
       -3    1    3    3    0  502  0.83666111584E+01 -0.25025909917E+03  0.62065134260E+03  0.66925908001E+03  0.10100000352E+00 0.  1.
</event>
<event>
 5   0  0.2944089E-05  0.2297323E+04  0.7818609E-02  0.8478977E-01
        1   -1    0    0  501    0  0.00000000000E+00  0.00000000000E+00  0.13111384367E+04  0.13111384367E+04  0.50400001928E-02 0.  1.
       -1   -1    0    0    0  501  0.00000000000E+00  0.00000000000E+00 -0.10063190082E+04  0.10063190082E+04  0.50400001928E-02 0. -1.
    10030    2    1    2    0    0  0.00000000000E+00  0.00000000000E+00  0.30481942851E+03  0.23174574449E+04  0.22973232522E+04 0.  0.
        5    1    3    3  502    0 -0.10950713471E+04  0.15828976741E+03  0.46360085594E+03  0.11996602641E+04  0.46999998093E+01 0.  1.
       -5    1    3    3    0  502  0.10950713471E+04 -0.15828976741E+03 -0.15878142742E+03  0.11177971808E+04  0.46999998093E+01 0. -1.
</event>
<event>
 5   0  0.6676612E-05  0.2254215E+04  0.7818609E-02  0.8496195E-01
       -2   -1    0    0    0  501  0.00000000000E+00  0.00000000000E+00  0.98400190038E+03  0.98400190039E+03  0.25500000920E-02 0. -1.
        2   -1    0    0  501    0  0.00000000000E+00  0.00000000000E+00 -0.12910256844E+04  0.12910256844E+04  0.25500000920E-02 0.  1.
    10030    2    1    2    0    0  0.00000000000E+00  0.00000000000E+00 -0.30702378406E+03  0.22750275848E+04  0.22542153641E+04 0.  0.
        2    1    3    3  502    0  0.82768067681E+02  0.96506406616E+03 -0.73517713473E+03  0.12160117698E+04  0.25500000920E-02 0.  1.
       -2    1    3    3    0  502 -0.82768067681E+02 -0.96506406616E+03  0.42815335067E+03  0.10590158150E+04  0.25500000920E-02 0. -1.
</event>
<event>
 5   0  0.6468758E-05  0.2269553E+04  0.7818609E-02  0.8490024E-01
       -2   -1    0    0    0  501  0.00000000000E+00  0.00000000000E+00  0.84670452189E+03  0.84670452189E+03  0.25500000920E-02 0. -1.
        2   -1    0    0  501    0  0.00000000000E+00  0.00000000000E+00 -0.15208586504E+04  0.15208586504E+04  0.25500000920E-02 0.  1.
    10030    2    1    2    0    0  0.00000000000E+00  0.00000000000E+00 -0.67415412848E+03  0.23675631723E+04  0.22695531687E+04 0.  0.
        3    1    3    3  502    0  0.91790226057E+02 -0.66096306774E+03  0.62039390935E+03  0.91114556218E+03  0.10100000352E+00 0. -1.
       -3    1    3    3    0  502 -0.91790226057E+02  0.66096306774E+03 -0.12945480378E+04  0.14564176101E+04  0.10100000352E+00 0.  1.
</event>
<event>
 5   0  0.6814789E-05  0.2308473E+04  0.7818609E-02  0.8474588E-01
       -2   -1    0    0    0  501  0.00000000000E+00  0.00000000000E+00  0.12375862995E+04  0.12375862995E+04  0.25500000920E-02 0. -1.
        2   -1    0    0  501    0  0.00000000000E+00  0.00000000000E+00 -0.10765000863E+04  0.10765000863E+04  0.25500000920E-02 0.  1.
    10030    2    1    2    0    0  0.00000000000E+00  0.00000000000E+00  0.16108621312E+03  0.23140863858E+04  0.23084728790E+04 0.  0.
        1    1    3    3  502    0  0.84624424046E+03  0.80483317940E+02 -0.70215956766E+03  0.11025583601E+04  0.50400001928E-02 0.  1.
       -1    1    3    3    0  502 -0.84624424046E+03 -0.80483317940E+02  0.86324578078E+03  0.12115280257E+04  0.50400001928E-02 0. -1.
</event>
<event>
 5   0  0.6676612E-05  0.2322194E+04  0.7818609E-02  0.8469222E-01
       -2   -1    0    0    0  501  0.00000000000E+00  0.00000000000E+00  0.71043073155E+03  0.71043073155E+03  0.25500000920E-02 0.  1.
        2   -1    0    0  501    0  0.00000000000E+00  0.00000000000E+00 -0.18976458286E+04  0.18976458286E+04  0.25500000920E-02 0. -1.
    10030    2    1    2    0    0  0.00000000000E+00  0.00000000000E+00 -0.11872150970E+04  0.26080765601E+04  0.23221937165E+04 0.  0.
        2    1    3    3  502    0  0.10823406091E+04  0.38899519669E+03 -0.41472813705E+03  0.12226110930E+04  0.25500000920E-02 0. -1.
       -2    1    3    3    0  502 -0.10823406091E+04 -0.38899519669E+03 -0.77248695998E+03  0.13854654671E+04  0.25500000920E-02 0.  1.
</event>
<event>
 5   0  0.6468758E-05  0.2317685E+04  0.7818609E-02  0.8470981E-01
       -2   -1    0    0    0  501  0.00000000000E+00  0.00000000000E+00  0.10945321224E+04  0.10945321224E+04  0.25500000920E-02 0. -1.
        2   -1    0    0  501    0  0.00000000000E+00  0.00000000000E+00 -0.12269314434E+04  0.12269314434E+04  0.25500000920E-02 0.  1.
    10030    2    1    2    0    0  0.00000000000E+00  0.00000000000E+00 -0.13239932099E+03  0.23214635658E+04  0.23176849456E+04 0.  0.
        3    1    3    3  502    0 -0.84693265477E+03 -0.78815160366E+03  0.52722437653E+00  0.11569261689E+04  0.10100000352E+00 0. -1.
       -3    1    3    3    0  502  0.84693265477E+03  0.78815160366E+03 -0.13292654537E+03  0.11645373969E+04  0.10100000352E+00 0.  1.
</event>
<event>
 5   0  0.3118614E-05  0.2292019E+04  0.7818609E-02  0.8481074E-01
        1   -1    0    0  501    0  0.00000000000E+00  0.00000000000E+00  0.26429637336E+04  0.26429637336E+04  0.50400001928E-02 0.  1.
       -1   -1    0    0    0  501  0.00000000000E+00  0.00000000000E+00 -0.49691878584E+03  0.49691878587E+03  0.50400001928E-02 0. -1.
    10030    2    1    2    0    0  0.00000000000E+00  0.00000000000E+00  0.21460449478E+04  0.31398825195E+04  0.22920194847E+04 0.  0.
        3    1    3    3  502    0 -0.97669266860E+03  0.57716203422E+03  0.12951596511E+04  0.17217674392E+04  0.10100000352E+00 0.  1.
       -3    1    3    3    0  502  0.97669266860E+03 -0.57716203422E+03  0.85088529669E+03  0.14181150803E+04  0.10100000352E+00 0. -1.
</event>
<event>
 5   0  0.6495405E-05  0.2272333E+04  0.7818609E-02  0.8488910E-01
       -2   -1    0    0    0  501  0.00000000000E+00  0.00000000000E+00  0.89504315936E+03  0.89504315936E+03  0.25500000920E-02 0. -1.
        2   -1    0    0  501    0  0.00000000000E+00  0.00000000000E+00 -0.14422483673E+04  0.14422483673E+04  0.25500000920E-02 0.  1.
    10030    2    1    2    0    0  0.00000000000E+00  0.00000000000E+00 -0.54720520791E+03  0.23372915266E+04  0.22723331932E+04 0.  0.
        5    1    3    3  502    0 -0.10522667405E+04 -0.20045766817E+03  0.11590982148E+03  0.10774533616E+04  0.46999998093E+01 0. -1.
       -5    1    3    3    0  502  0.10522667405E+04  0.20045766817E+03 -0.66311502939E+03  0.12598381650E+04  0.46999998093E+01 0.  1.
</event>
<event>
 5   0  0.2944089E-05  0.2296617E+04  0.7818609E-02  0.8479256E-01
        1   -1    0    0  501    0  0.00000000000E+00  0.00000000000E+00  0.20441189174E+04  0.20441189174E+04  0.50400001928E-02 0. -1.
       -1   -1    0    0    0  501  0.00000000000E+00  0.00000000000E+00 -0.64507589406E+03  0.64507589408E+03  0.50400001928E-02 0.  1.
    10030    2    1    2    0    0  0.00000000000E+00  0.00000000000E+00  0.13990430233E+04  0.26891948115E+04  0.22966165011E+04 0.  0.
        5    1    3    3  502    0  0.92248129793E+03 -0.17715226450E+03  0.14729035408E+04  0.17469463645E+04  0.46999998093E+01 0. -1.
       -5    1    3    3    0  502 -0.92248129793E+03  0.17715226450E+03 -0.73860517461E+02  0.94224844701E+03  0.46999998093E+01 0.  1.
</event>
<event>
 5   0  0.3118614E-05  0.2171508E+04  0.7818609E-02  0.8530381E-01
        1   -1    0    0  501    0  0.00000000000E+00  0.00000000000E+00  0.14593235505E+04  0.14593235505E+04  0.50400001928E-02 0. -1.
       -1   -1    0    0    0  501  0.00000000000E+00  0.00000000000E+00 -0.80781392415E+03  0.80781392417E+03  0.50400001928E-02 0.  1.
    10030    2    1    2    0    0  0.00000000000E+00  0.00000000000E+00  0.65150962631E+03  0.22671374746E+04  0.21715081247E+04 0.  0.
        3    1    3    3  502    0 -0.94281112441E+03  0.40944084657E+03  0.69091044599E+03  0.12385038868E+04  0.10100000352E+00 0. -1.
       -3    1    3    3    0  502  0.94281112441E+03 -0.40944084657E+03 -0.39400819685E+02  0.10286335878E+04  0.10100000352E+00 0.  1.
</event>
<event>
 5   0  0.6468758E-05  0.2180594E+04  0.7818609E-02  0.8526549E-01
        2   -1    0    0  501    0  0.00000000000E+00  0.00000000000E+00  0.24631516916E+04  0.24631516916E+04  0.25500000920E-02 0.  1.
       -2   -1    0    0    0  501  0.00000000000E+00  0.00000000000E+00 -0.48261229489E+03  0.48261229490E+03  0.25500000920E-02 0. -1.
    10030    2    1    2    0    0  0.00000000000E+00  0.00000000000E+00  0.19805393968E+04  0.29457639865E+04  0.21805937637E+04 0.  0.
        3    1    3    3  502    0  0.31308170927E+03  0.22617675871E+03  0.23676386909E+04  0.23989349853E+04  0.10100000352E+00 0.  1.
       -3    1    3    3    0  502 -0.31308170927E+03 -0.22617675871E+03 -0.38709929415E+03  0.54682900124E+03  0.10100000352E+00 0. -1.
</event>
<event>
 5   0  0.2962279E-05  0.2302355E+04  0.7818609E-02  0.8476993E-01
       -1   -1    0    0    0  501  0.00000000000E+00  0.00000000000E+00  0.91007158015E+03  0.91007158016E+03  0.50400001928E-02 0.  1.
        1   -1    0    0  501    0  0.00000000000E+00  0.00000000000E+00 -0.14561599646E+04  0.14561599646E+04  0.50400001928E-02 0. -1.
    10030    2    1    2    0    0  0.00000000000E+00  0.00000000000E+00 -0.54608838447E+03  0.23662315448E+04  0.23023551420E+04 0.  0.
        1    1    3    3  502    0  0.30365451939E+03  0.10474654087E+04  0.10571807571E+03  0.10957035006E+04  0.50400001928E-02 0.  1.
       -1    1    3    3    0  502 -0.30365451939E+03 -0.10474654087E+04 -0.65180646019E+03  0.12705280442E+04  0.50400001928E-02 0. -1.
</event>
<event>
 5   0  0.3118614E-05  0.2274125E+04  0.7818609E-02  0.8488194E-01
        1   -1    0    0  501    0  0.00000000000E+00  0.00000000000E+00  0.10841314284E+04  0.10841314284E+04  0.50400001928E-02 0.  1.
       -1   -1    0    0    0  501  0.00000000000E+00  0.00000000000E+00 -0.11925779922E+04  0.11925779922E+04  0.50400001928E-02 0. -1.
    10030    2    1    2    0    0  0.00000000000E+00  0.00000000000E+00 -0.10844656383E+03  0.22767094206E+04  0.22741251348E+04 0.  0.
        3    1    3    3  502    0  0.73275637683E+03 -0.43359966838E+03  0.70027144574E+03  0.11024158417E+04  0.10100000352E+00 0.  1.
       -3    1    3    3    0  502 -0.73275637683E+03  0.43359966838E+03 -0.80871800957E+03  0.11742935789E+04  0.10100000352E+00 0. -1.
</event>
<event>
 5   0  0.3006265E-05  0.2298883E+04  0.7818609E-02  0.8478362E-01
       -1   -1    0    0    0  501  0.00000000000E+00  0.00000000000E+00  0.83387717911E+03  0.83387717913E+03  0.50400001928E-02 0.  1.
        1   -1    0    0  501    0  0.00000000000E+00  0.00000000000E+00 -0.15844252780E+04  0.15844252781E+04  0.50400001928E-02 0. -1.
    10030    2    1    2    0    0  0.00000000000E+00  0.00000000000E+00 -0.75054809894E+03  0.24183024572E+04  0.22988832779E+04 0.  0.
        2    1    3    3  502    0 -0.35044794668E+03  0.51162900333E+03  0.64280054832E+03  0.89318001842E+03  0.25500000920E-02 0.  1.
       -2    1    3    3    0  502  0.35044794668E+03 -0.51162900333E+03 -0.13933486473E+04  0.15251224388E+04  0.25500000920E-02 0. -1.
</event>
<event>
 5   0  0.2944089E-05  0.1899910E+04  0.7818609E-02  0.8654901E-01
        1   -1    0    0  501    0  0.00000000000E+00  0.00000000000E+00  0.86843848853E+03  0.86843848854E+03  0.50400001928E-02 0. -1.
       -1   -1    0    0    0  501  0.00000000000E+00  0.00000000000E+00 -0.10391226852E+04  0.10391226852E+04  0.50400001928E-02 0.  1.
    10030    2    1    2    0    0  0.00000000000E+00  0.00000000000E+00 -0.17068419668E+03  0.19075611738E+04  0.18999096128E+04 0.  0.
        5    1    3    3  502    0 -0.57075257512E+03  0.67270096255E+03 -0.43904905214E+03  0.98542947348E+03  0.46999998093E+01 0.  1.
       -5    1    3    3    0  502  0.57075257512E+03 -0.67270096255E+03  0.26836485546E+03  0.92213170028E+03  0.46999998093E+01 0. -1.
</event>
<event>
 5   0  0.6702421E-05  0.2300087E+04  0.7818609E-02  0.8477887E-01
       -2   -1    0    0    0  501  0.00000000000E+00  0.00000000000E+00  0.10925168490E+04  0.10925168490E+04  0.25500000920E-02 0.  1.
        2   -1    0    0  501    0  0.00000000000E+00  0.00000000000E+00 -0.12105990889E+04  0.12105990889E+04  0.25500000920E-02 0. -1.
    10030    2    1    2    0    0  0.00000000000E+00  0.00000000000E+00 -0.11808223994E+03  0.23031159379E+04  0.23000868697E+04 0.  0.
        4    1    3    3  502    0 -0.89433282817E+03 -0.61963470225E+03  0.31403500115E+03  0.11324301156E+04  0.12699999809E+01 0.  1.
       -4    1    3    3    0  502  0.89433282817E+03  0.61963470225E+03 -0.43211724108E+03  0.11706858224E+04  0.12699999809E+01 0. -1.
</event>
<event>
 5   0  0.6814789E-05  0.2308833E+04  0.7818609E-02  0.8474446E-01
        2   -1    0    0  501    0  0.00000000000E+00  0.00000000000E+00  0.12390974309E+04  0.12390974309E+04  0.25500000920E-02 0.  1.
       -2   -1    0    0    0  501  0.00000000000E+00  0.00000000000E+00 -0.10755230852E+04  0.10755230852E+04  0.25500000920E-02 0. -1.
    10030    2    1    2    0    0  0.00000000000E+00  0.00000000000E+00  0.16357434569E+03  0.23146205162E+04  0.23088333780E+04 0.  0.
        1    1    3    3  502    0  0.14451321585E+03  0.14260131504E+03  0.12210592810E+04  0.12378226740E+04  0.50400001928E-02 0.  1.
       -1    1    3    3    0  502 -0.14451321585E+03 -0.14260131504E+03 -0.10574849353E+04  0.10767978422E+04  0.50400001928E-02 0. -1.
</event>
<event>
 5   0  0.2982385E-05  0.2307575E+04  0.7818609E-02  0.8474940E-01
       -1   -1    0    0    0  501  0.00000000000E+00  0.00000000000E+00  0.78390415479E+03  0.78390415481E+03  0.50400001928E-02 0.  1.
        1   -1    0    0  501    0  0.00000000000E+00  0.00000000000E+00 -0.16981996703E+04  0.16981996703E+04  0.50400001928E-02 0. -1.
    10030    2    1    2    0    0  0.00000000000E+00  0.00000000000E+00 -0.91429551551E+03  0.24821038251E+04  0.23075751578E+04 0.  0.
        4    1    3    3  502    0  0.90430950762E+03  0.67297557911E+03 -0.72183291344E+03  0.13385500302E+04  0.12699999809E+01 0. -1.
       -4    1    3    3    0  502 -0.90430950762E+03 -0.67297557911E+03 -0.19246260207E+03  0.11435537949E+04  0.12699999809E+01 0.  1.
</event>
<event>
 5   0  0.6676612E-05  0.2380316E+04  0.7818609E-02  0.8446910E-01
       -2   -1    0    0    0  501  0.00000000000E+00  0.00000000000E+00  0.48497816445E+03  0.48497816446E+03  0.25500000920E-02 0.  1.
        2   -1    0    0  501    0  0.00000000000E+00  0.00000000000E+00 -0.29206996978E+04  0.29206996978E+04  0.25500000920E-02 0. -1.
    10030    2    1    2    0    0  0.00000000000E+00  0.00000000000E+00 -0.24357215334E+04  0.34056778623E+04  0.23803155911E+04 0.  0.
        2    1    3    3  502    0 -0.46977914820E+03  0.46162206184E+03 -0.26361894836E+04  0.27172196027E+04  0.25500000920E-02 0. -1.
       -2    1    3    3    0  502  0.46977914820E+03 -0.46162206184E+03  0.20046795022E+03  0.68845825954E+03  0.25500000920E-02 0.  1.
</event>
<event>
 5   0  0.2944089E-05  0.1661567E+04  0.7818609E-02  0.8783593E-01
        1   -1    0    0  501    0  0.00000000000E+00  0.00000000000E+00  0.10862671750E+04  0.10862671750E+04  0.50400001928E-02 0.  1.
       -1   -1    0    0    0  501  0.00000000000E+00  0.00000000000E+00 -0.63538839356E+03  0.63538839358E+03  0.50400001928E-02 0. -1.
    10030    2    1    2    0    0  0.00000000000E+00  0.00000000000E+00  0.45087878139E+03  0.17216555685E+04  0.16615673989E+04 0.  0.
        5    1    3    3  502    0 -0.55987330610E+02 -0.71219235960E+03 -0.21395617582E+03  0.74575590741E+03  0.46999998093E+01 0. -1.
       -5    1    3    3    0  502  0.55987330610E+02  0.71219235960E+03  0.66483495721E+03  0.97589966113E+03  0.46999998093E+01 0.  1.
</event>
<event>
 5   0  0.6676612E-05  0.2291941E+04  0.7818609E-02  0.8481106E-01
       -2   -1    0    0    0  501  0.00000000000E+00  0.00000000000E+00  0.86304918068E+03  0.86304918069E+03  0.25500000920E-02 0.  1.
        2   -1    0    0  501    0  0.00000000000E+00  0.00000000000E+00 -0.15216374477E+04  0.15216374477E+04  0.25500000920E-02 0. -1.
    10030    2    1    2    0    0  0.00000000000E+00  0.00000000000E+00 -0.65858826697E+03  0.23846866283E+04  0.22919406210E+04 0.  0.
        2    1    3    3  502    0 -0.27487716578E+03  0.69397068566E+03 -0.12340182986E+04  0.14422045383E+04  0.25500000920E-02 0. -1.
       -2    1    3    3    0  502  0.27487716578E+03 -0.69397068566E+03  0.57543003164E+03  0.94248209009E+03  0.25500000920E-02 0.  1.
</event>
<event>
 5   0  0.2982385E-05  0.2295569E+04  0.7818609E-02  0.8479670E-01
       -1   -1    0    0    0  501  0.00000000000E+00  0.00000000000E+00  0.12930377808E+04  0.12930377809E+04  0.50400001928E-02 0.  1.
        1   -1    0    0  501    0  0.00000000000E+00  0.00000000000E+00 -0.10188483470E+04  0.10188483470E+04  0.50400001928E-02 0. -1.
    10030    2    1    2    0    0  0.00000000000E+00  0.00000000000E+00  0.27418943384E+03  0.23118861279E+04  0.22955691282E+04 0.  0.
        4    1    3    3  502    0  0.84950424012E+03  0.69871920500E+03  0.46736137889E+03  0.11951126528E+04  0.12699999809E+01 0.  1.
       -4    1    3    3    0  502 -0.84950424012E+03 -0.69871920500E+03 -0.19317194504E+03  0.11167734751E+04  0.12699999809E+01 0. -1.
</event>
<event>
 5   0  0.3006265E-05  0.2300563E+04  0.7818609E-02  0.8477699E-01
        1   -1    0    0  501    0  0.00000000000E+00  0.00000000000E+00  0.14477483234E+04  0.14477483234E+04  0.50400001928E-02 0.  1.
       -1   -1    0    0    0  501  0.00000000000E+00  0.00000000000E+00 -0.91393504258E+03  0.91393504260E+03  0.50400001928E-02 0. -1.
    10030    2    1    2    0    0  0.00000000000E+00  0.00000000000E+00  0.53381328083E+03  0.23616833660E+04  0.23005633446E+04 0.  0.
        2    1    3    3  502    0 -0.27341650923E+03  0.11165165674E+04  0.31024302030E+03  0.11906370415E+04  0.25500000920E-02 0.  1.
       -2    1    3    3    0  502  0.27341650923E+03 -0.11165165674E+04  0.22357026053E+03  0.11710463246E+04  0.25500000920E-02 0. -1.
</event>
<event>
 5   0  0.3006265E-05  0.2259149E+04  0.7818609E-02  0.8494204E-01
        1   -1    0    0  501    0  0.00000000000E+00  0.00000000000E+00  0.21644319081E+04  0.21644319081E+04  0.50400001928E-02 0.  1.
       -1   -1    0    0    0  501  0.00000000000E+00  0.00000000000E+00 -0.58950288103E+03  0.58950288105E+03  0.50400001928E-02 0. -1.
    10030    2    1    2    0    0  0.00000000000E+00  0.00000000000E+00  0.15749290271E+04  0.27539347892E+04  0.22591492608E+04 0.  0.
        2    1    3    3  502    0 -0.75862084157E+01 -0.89536288374E+03  0.16269100509E+04  0.18570321908E+04  0.25500000920E-02 0.  1.
       -2    1    3    3    0  502  0.75862084157E+01  0.89536288374E+03 -0.51981023744E+02  0.89690259838E+03  0.25500000920E-02 0. -1.
</event>
<event>
 5   0  0.6676612E-05  0.2269958E+04  0.7818609E-02  0.8489861E-01
        2   -1    0    0  501    0  0.00000000000E+00  0.00000000000E+00  0.13552624445E+04  0.13552624445E+04  0.25500000920E-02 0. -1.
       -2   -1    0    0    0  501  0.00000000000E+00  0.00000000000E+00 -0.95050025399E+03  0.95050025399E+03  0.25500000920E-02 0.  1.
    10030    2    1    2    0    0  0.00000000000E+00  0.00000000000E+00  0.40476219050E+03  0.23057626985E+04  0.22699579712E+04 0.  0.
        2    1    3    3  502    0  0.86448884249E+03  0.38513904320E+03  0.83876469398E+03  0.12645945015E+04  0.25500000920E-02 0. -1.
       -2    1    3    3    0  502 -0.86448884249E+03 -0.38513904320E+03 -0.43400250347E+03  0.10411681970E+04  0.25500000920E-02 0.  1.
</event>
<event>
 5   0  0.2342500E-05  0.2342418E+04  0.7818609E-02  0.8461381E-01
        3   -1    0    0  501    0  0.00000000000E+00  0.00000000000E+00  0.82889711846E+03  0.82889712461E+03  0.10100000352E+00 0.  1.
       -3   -1    0    0    0  501  0.00000000000E+00  0.00000000000E+00 -0.16548868824E+04  0.16548868855E+04  0.10100000352E+00 0. -1.
    10030    2    1    2    0    0  0.00000000000E+00  0.00000000000E+00 -0.82598976394E+03  0.24837840101E+04  0.23424183910E+04 0.  0.
        2    1    3    3  502    0 -0.19860363146E+03 -0.20369623223E+02  0.81072131693E+03  0.83494154150E+03  0.25500000920E-02 0.  1.
       -2    1    3    3    0  502  0.19860363146E+03  0.20369623223E+02 -0.16367110809E+04  0.16488424686E+04  0.25500000920E-02 0. -1.
</event>
<event>
 5   0  0.6495405E-05  0.2313966E+04  0.7818609E-02  0.8472435E-01
       -2   -1    0    0    0  501  0.00000000000E+00  0.00000000000E+00  0.57356898545E+03  0.57356898545E+03  0.25500000920E-02 0.  1.
        2   -1    0    0  501    0  0.00000000000E+00  0.00000000000E+00 -0.23338240413E+04  0.23338240413E+04  0.25500000920E-02 0. -1.
    10030    2    1    2    0    0  0.00000000000E+00  0.00000000000E+00 -0.17602550558E+04  0.29073930267E+04  0.23139655033E+04 0.  0.
        5    1    3    3  502    0  0.21494574377E+03  0.94063428186E+03 -0.16822855696E+04  0.19393559119E+04  0.46999998093E+01 0. -1.
       -5    1    3    3    0  502 -0.21494574377E+03 -0.94063428186E+03 -0.77969486158E+02  0.96803711486E+03  0.46999998093E+01 0.  1.
</event>
<event>
 5   0  0.6495405E-05  0.2290667E+04  0.7818609E-02  0.8481610E-01
        2   -1    0    0  501    0  0.00000000000E+00  0.00000000000E+00  0.27077573927E+04  0.27077573927E+04  0.25500000920E-02 0. -1.
       -2   -1    0    0    0  501  0.00000000000E+00  0.00000000000E+00 -0.48445561512E+03  0.48445561513E+03  0.25500000920E-02 0.  1.
    10030    2    1    2    0    0  0.00000000000E+00  0.00000000000E+00  0.22233017776E+04  0.31922130078E+04  0.22906665172E+04 0.  0.
        5    1    3    3  502    0  0.13804811853E+03  0.84439315118E+03  0.21726989509E+04  0.23351016890E+04  0.46999998093E+01 0. -1.
       -5    1    3    3    0  502 -0.13804811853E+03 -0.84439315118E+03  0.50602826693E+02  0.85711131883E+03  0.46999998093E+01 0.  1.
</event>
<event>
 5   0  0.6702421E-05  0.2261964E+04  0.7818609E-02  0.8493071E-01
        2   -1    0    0  501    0  0.00000000000E+00  0.00000000000E+00  0.11631256444E+04  0.11631256444E+04  0.25500000920E-02 0.  1.
       -2   -1    0    0    0  501  0.00000000000E+00  0.00000000000E+00 -0.10997265768E+04  0.10997265768E+04  0.25500000920E-02 0. -1.
    10030    2    1    2    0    0  0.00000000000E+00  0.00000000000E+00  0.63399067614E+02  0.22628522213E+04  0.22619639107E+04 0.  0.
        4    1    3    3  502    0 -0.44262379953E+03 -0.71038097708E+03  0.79263062174E+03  0.11527453647E+04  0.12699999809E+01 0.  1.
       -4    1    3    3    0  502  0.44262379953E+03  0.71038097708E+03 -0.72923155412E+03  0.11101068565E+04  0.12699999809E+01 0. -1.
</event>
<event>
 5   0  0.2982385E-05  0.2037106E+04  0.7818609E-02  0.8589466E-01
       -1   -1    0    0    0  501  0.00000000000E+00  0.00000000000E+00  0.12554693738E+04  0.12554693738E+04  0.50400001928E-02 0.  1.
        1   -1    0    0  501    0  0.00000000000E+00  0.00000000000E+00 -0.82634467508E+03  0.82634467510E+03  0.50400001928E-02 0. -1.
    10030    2    1    2    0    0  0.00000000000E+00  0.00000000000E+00  0.42912469873E+03  0.20818140489E+04  0.20371062140E+04 0.  0.
        4    1    3    3  502    0 -0.84181219929E+02 -0.52791501490E+03 -0.67145314132E+03  0.85827249439E+03  0.12699999809E+01 0. -1.
       -4    1    3    3    0  502  0.84181219929E+02  0.52791501490E+03  0.11005778400E+04  0.12235415545E+04  0.12699999809E+01 0.  1.
</event>
<event>
 5   0  0.3006265E-05  0.2223395E+04  0.7818609E-02  0.8508753E-01
        1   -1    0    0  501    0  0.00000000000E+00  0.00000000000E+00  0.16674011287E+04  0.16674011287E+04  0.50400001928E-02 0.  1.
       -1   -1    0    0    0  501  0.00000000000E+00  0.00000000000E+00 -0.74119646014E+03  0.74119646016E+03  0.50400001928E-02 0. -1.
    10030    2    1    2    0    0  0.00000000000E+00  0.00000000000E+00  0.92620466858E+03  0.24085975889E+04  0.22233954343E+04 0.  0.
        2    1    3    3  502    0 -0.80670882096E+03  0.23604722308E+03 -0.32508419082E+03  0.90120871305E+03  0.25500000920E-02 0. -1.
       -2    1    3    3    0  502  0.80670882096E+03 -0.23604722308E+03  0.12512888594E+04  0.15073888758E+04  0.25500000920E-02 0.  1.
</event>
<event>
 5   0  0.6676612E-05  0.2290549E+04  0.7818609E-02  0.8481657E-01
        2   -1    0    0  501    0  0.00000000000E+00  0.00000000000E+00  0.15856152180E+04  0.15856152180E+04  0.25500000920E-02 0. -1.
       -2   -1    0    0    0  501  0.00000000000E+00  0.00000000000E+00 -0.82722035344E+03  0.82722035344E+03  0.25500000920E-02 0.  1.
    10030    2    1    2    0    0  0.00000000000E+00  0.00000000000E+00  0.75839486455E+03  0.24128355714E+04  0.22905485640E+04 0.  0.
        2    1    3    3  502    0  0.57205984859E+03 -0.16512079949E+03  0.14097615341E+04  0.15303414429E+04  0.25500000920E-02 0. -1.
       -2    1    3    3    0  502 -0.57205984859E+03  0.16512079949E+03 -0.65136666952E+03  0.88249412857E+03  0.25500000920E-02 0.  1.
</event>
<event>
 5   0  0.3006265E-05  0.2286071E+04  0.7818609E-02  0.8483433E-01
       -1   -1    0    0    0  501  0.00000000000E+00  0.00000000000E+00  0.15369172405E+04  0.15369172406E+04  0.50400001928E-02 0.  1.
        1   -1    0    0  501    0  0.00000000000E+00  0.00000000000E+00 -0.85009828290E+03  0.85009828292E+03  0.50400001928E-02 0. -1.
    10030    2    1    2    0    0  0.00000000000E+00  0.00000000000E+00  0.68681895764E+03  0.23870155235E+04  0.22860714837E+04 0.  0.
        2    1    3    3  502    0  0.18901920331E+02 -0.10255138296E+04 -0.18334095490E+03  0.10419452016E+04  0.25500000920E-02 0. -1.
       -2    1    3    3    0  502 -0.18901920331E+02  0.10255138296E+04  0.87015991255E+03  0.13450703219E+04  0.25500000920E-02 0.  1.
</event>
<event>
 5   0  0.6468758E-05  0.2285479E+04  0.7818609E-02  0.8483669E-01
       -2   -1    0    0    0  501  0.00000000000E+00  0.00000000000E+00  0.58932726550E+03  0.58932726550E+03  0.25500000920E-02 0.  1.
        2   -1    0    0  501    0  0.00000000000E+00  0.00000000000E+00 -0.22158380479E+04  0.22158380479E+04  0.25500000920E-02 0. -1.
    10030    2    1    2    0    0  0.00000000000E+00  0.00000000000E+00 -0.16265107824E+04  0.28051653134E+04  0.22854791861E+04 0.  0.
        3    1    3    3  502    0  0.56459989651E+03  0.99032875268E+03 -0.71560538690E+03  0.13459625409E+04  0.10100000352E+00 0. -1.
       -3    1    3    3    0  502 -0.56459989651E+03 -0.99032875268E+03 -0.91090539549E+03  0.14592027725E+04  0.10100000352E+00 0.  1.
</event>
<event>
 5   0  0.6495405E-05  0.2951429E+04  0.7818609E-02  0.8257738E-01
       -2   -1    0    0    0  501  0.00000000000E+00  0.00000000000E+00  0.10924910380E+04  0.10924910380E+04  0.25500000920E-02 0.  1.
        2   -1    0    0  501    0  0.00000000000E+00  0.00000000000E+00 -0.19933652851E+04  0.19933652851E+04  0.25500000920E-02 0. -1.
    10030    2    1    2    0    0  0.00000000000E+00  0.00000000000E+00 -0.90087424713E+03  0.30858563231E+04  0.29514292873E+04 0.  0.
        5    1    3    3  502    0 -0.59382597453E+03  0.11315333689E+04  0.32122611903E+03  0.13176514572E+04  0.46999998093E+01 0.  1.
       -5    1    3    3    0  502  0.59382597453E+03 -0.11315333689E+04 -0.12221003662E+04  0.17682048660E+04  0.46999998093E+01 0. -1.
</event>
<event>
 5   0  0.2944089E-05  0.2287792E+04  0.7818609E-02  0.8482750E-01
        1   -1    0    0  501    0  0.00000000000E+00  0.00000000000E+00  0.17115590120E+04  0.17115590120E+04  0.50400001928E-02 0.  1.
       -1   -1    0    0    0  501  0.00000000000E+00  0.00000000000E+00 -0.76450620697E+03  0.76450620699E+03  0.50400001928E-02 0. -1.
    10030    2    1    2    0    0  0.00000000000E+00  0.00000000000E+00  0.94705280505E+03  0.24760652190E+04  0.22877915013E+04 0.  0.
        5    1    3    3  502    0  0.66485029210E+03 -0.92617488631E+03  0.57418313563E+03  0.12765320968E+04  0.46999998093E+01 0. -1.
       -5    1    3    3    0  502 -0.66485029210E+03  0.92617488631E+03  0.37286966942E+03  0.11995331222E+04  0.46999998093E+01 0.  1.
</event>
<event>
 5   0  0.3118614E-05  0.2148605E+04  0.7818609E-02  0.8540129E-01
       -1   -1    0    0    0  501  0.00000000000E+00  0.00000000000E+00  0.48259769132E+03  0.48259769134E+03  0.50400001928E-02 0.  1.
        1   -1    0    0  501    0  0.00000000000E+00  0.00000000000E+00 -0.23914871994E+04  0.23914871994E+04  0.50400001928E-02 0. -1.
    10030    2    1    2    0    0  0.00000000000E+00  0.00000000000E+00 -0.19088895081E+04  0.28740848907E+04  0.21486053163E+04 0.  0.
        3    1    3    3  502    0 -0.95123148544E+03  0.60545756447E+02 -0.16173843835E+04  0.18773490304E+04  0.10100000352E+00 0. -1.
       -3    1    3    3    0  502  0.95123148544E+03 -0.60545756447E+02 -0.29150512455E+03  0.99673586038E+03  0.10100000352E+00 0.  1.
</event>
<event>
 5   0  0.6468758E-05  0.2291866E+04  0.7818609E-02  0.8481135E-01
        2   -1    0    0  501    0  0.00000000000E+00  0.00000000000E+00  0.11766646851E+04  0.11766646851E+04  0.25500000920E-02 0. -1.
       -2   -1    0    0    0  501  0.00000000000E+00  0.00000000000E+00 -0.11160038634E+04  0.11160038634E+04  0.25500000920E-02 0.  1.
    10030    2    1    2    0    0  0.00000000000E+00  0.00000000000E+00  0.60660821646E+02  0.22926685485E+04  0.22918659075E+04 0.  0.
        3    1    3    3  502    0  0.73147609259E+03  0.45748675335E+03 -0.72412926365E+03  0.11263723204E+04  0.10100000352E+00 0.  1.
       -3    1    3    3    0  502 -0.73147609259E+03 -0.45748675335E+03  0.78479008530E+03  0.11662962281E+04  0.10100000352E+00 0. -1.
</event>
<event>
 5   0  0.6814789E-05  0.2103341E+04  0.7818609E-02  0.8559773E-01
       -2   -1    0    0    0  501  0.00000000000E+00  0.00000000000E+00  0.69850653364E+03  0.69850653364E+03  0.25500000920E-02 0. -1.
        2   -1    0    0  501    0  0.00000000000E+00  0.00000000000E+00 -0.15833936277E+04  0.15833936277E+04  0.25500000920E-02 0.  1.
    10030    2    1    2    0    0  0.00000000000E+00  0.00000000000E+00 -0.88488709409E+03  0.22819001614E+04  0.21033409560E+04 0.  0.
        1    1    3    3  502    0  0.39105849735E+03  0.44428647006E+03  0.50066097344E+03  0.77522811235E+03  0.50400001928E-02 0. -1.
       -1    1    3    3    0  502 -0.39105849735E+03 -0.44428647006E+03 -0.13855480675E+04  0.15066720490E+04  0.50400001928E-02 0.  1.
</event>
<event>
 5   0  0.6814789E-05  0.2447216E+04  0.7818609E-02  0.8422035E-01
       -2   -1    0    0    0  501  0.00000000000E+00  0.00000000000E+00  0.73458656078E+03  0.73458656079E+03  0.25500000920E-02 0.  1.
        2   -1    0    0  501    0  0.00000000000E+00  0.00000000000E+00 -0.20381751850E+04  0.20381751850E+04  0.25500000920E-02 0. -1.
    10030    2    1    2    0    0  0.00000000000E+00  0.00000000000E+00 -0.13035886242E+04  0.27727617458E+04  0.24472156418E+04 0.  0.
        1    1    3    3  502    0  0.12022441693E+04  0.22738003133E+03 -0.63920913891E+03  0.13804640686E+04  0.50400001928E-02 0.  1.
       -1    1    3    3    0  502 -0.12022441693E+04 -0.22738003133E+03 -0.66437948528E+03  0.13922976772E+04  0.50400001928E-02 0. -1.
</event>
<event>
 5   0  0.6676612E-05  0.2295241E+04  0.7818609E-02  0.8479800E-01
       -2   -1    0    0    0  501  0.00000000000E+00  0.00000000000E+00  0.17996794317E+04  0.17996794317E+04  0.25500000920E-02 0.  1.
        2   -1    0    0  501    0  0.00000000000E+00  0.00000000000E+00 -0.73181505328E+03  0.73181505328E+03  0.25500000920E-02 0. -1.
    10030    2    1    2    0    0  0.00000000000E+00  0.00000000000E+00  0.10678643785E+04  0.25314944850E+04  0.22952407274E+04 0.  0.
        2    1    3    3  502    0 -0.83941115381E+03  0.71064636991E+03  0.89538970172E+03  0.14182214447E+04  0.25500000920E-02 0. -1.
       -2    1    3    3    0  502  0.83941115381E+03 -0.71064636991E+03  0.17247467674E+03  0.11132730403E+04  0.25500000920E-02 0.  1.
</event>
<event>
 5   0  0.2962279E-05  0.2143168E+04  0.7818609E-02  0.8542462E-01
       -1   -1    0    0    0  501  0.00000000000E+00  0.00000000000E+00  0.62868302771E+03  0.62868302773E+03  0.50400001928E-02 0.  1.
        1   -1    0    0  501    0  0.00000000000E+00  0.00000000000E+00 -0.18265046925E+04  0.18265046925E+04  0.50400001928E-02 0. -1.
    10030    2    1    2    0    0  0.00000000000E+00  0.00000000000E+00 -0.11978216648E+04  0.24551877202E+04  0.21431682157E+04 0.  0.
        1    1    3    3  502    0 -0.52842715067E+03 -0.72549326659E+03  0.71739461809E+02  0.90040117938E+03  0.50400001928E-02 0.  1.
       -1    1    3    3    0  502  0.52842715067E+03  0.72549326659E+03 -0.12695611266E+04  0.15547865408E+04  0.50400001928E-02 0. -1.
</event>
<event>
 5   0  0.6814789E-05  0.2294847E+04  0.7818609E-02  0.8479955E-01
        2   -1    0    0  501    0  0.00000000000E+00  0.00000000000E+00  0.21389000706E+04  0.21389000706E+04  0.25500000920E-02 0.  1.
       -2   -1    0    0    0  501  0.00000000000E+00  0.00000000000E+00 -0.61554120714E+03  0.61554120714E+03  0.25500000920E-02 0. -1.
    10030    2    1    2    0    0  0.00000000000E+00  0.00000000000E+00  0.15233588635E+04  0.27544412778E+04  0.22948473862E+04 0.  0.
        1    1    3    3  502    0 -0.29193622487E+03 -0.93965533006E+03  0.14701473256E+04  0.17690426952E+04  0.50400001928E-02 0.  1.
       -1    1    3    3    0  502  0.29193622487E+03  0.93965533006E+03  0.53211537948E+02  0.98539858255E+03  0.50400001928E-02 0. -1.
</event>
<event>
 5   0  0.6702421E-05  0.2269189E+04  0.7818609E-02  0.8490169E-01
       -2   -1    0    0    0  501  0.00000000000E+00  0.00000000000E+00  0.55326198846E+03  0.55326198846E+03  0.25500000920E-02 0. -1.
        2   -1    0    0  501    0  0.00000000000E+00  0.00000000000E+00 -0.23267545912E+04  0.23267545912E+04  0.25500000920E-02 0.  1.
    10030    2    1    2    0    0  0.00000000000E+00  0.00000000000E+00 -0.17734926028E+04  0.28800165797E+04  0.22691891695E+04 0.  0.
        4    1    3    3  502    0  0.31166970664E+03  0.40367316856E+03 -0.21730827839E+04  0.22321246452E+04  0.12699999809E+01 0.  1.
       -4    1    3    3    0  502 -0.31166970664E+03 -0.40367316856E+03  0.39959018112E+03  0.64789193451E+03  0.12699999809E+01 0. -1.
</event>
<event>
 5   0  0.6468758E-05  0.2303225E+04  0.7818609E-02  0.8476650E-01
       -2   -1    0    0    0  501  0.00000000000E+00  0.00000000000E+00  0.48314197873E+03  0.48314197874E+03  0.25500000920E-02 0. -1.
        2   -1    0    0  501    0  0.00000000000E+00  0.00000000000E+00 -0.27449731119E+04  0.27449731119E+04  0.25500000920E-02 0.  1.
    10030    2    1    2    0    0  0.00000000000E+00  0.00000000000E+00 -0.22618311332E+04  0.32281150907E+04  0.23032253393E+04 0.  0.
        3    1    3    3  502    0  0.61913738077E+03  0.30716734624E+03  0.16014283480E+03  0.70945656146E+03  0.10100000352E+00 0. -1.
       -3    1    3    3    0  502 -0.61913738077E+03 -0.30716734624E+03 -0.24219739680E+04  0.25186585292E+04  0.10100000352E+00 0.  1.
</event>
<event>
 5   0  0.2944089E-05  0.2409387E+04  0.7818609E-02  0.8435998E-01
        1   -1    0    0  501    0  0.00000000000E+00  0.00000000000E+00  0.26773078167E+04  0.26773078167E+04  0.50400001928E-02 0.  1.
       -1   -1    0    0    0  501  0.00000000000E+00  0.00000000000E+00 -0.54206913976E+03  0.54206913978E+03  0.50400001928E-02 0. -1.
    10030    2    1    2    0    0  0.00000000000E+00  0.00000000000E+00  0.21352386770E+04  0.32193769565E+04  0.24093865984E+04 0.  0.
        5    1    3    3  502    0  0.74876276601E+03  0.80090677371E+03  0.17345952971E+04  0.20520575710E+04  0.46999998093E+01 0.  1.
       -5    1    3    3    0  502 -0.74876276601E+03 -0.80090677371E+03  0.40064337983E+03  0.11673193855E+04  0.46999998093E+01 0. -1.
</event>
<event>
 5   0  0.3006265E-05  0.2334727E+04  0.7818609E-02  0.8464353E-01
        1   -1    0    0  501    0  0.00000000000E+00  0.00000000000E+00  0.97255426398E+03  0.97255426399E+03  0.50400001928E-02 0.  1.
       -1   -1    0    0    0  501  0.00000000000E+00  0.00000000000E+00 -0.14011942914E+04  0.14011942914E+04  0.50400001928E-02 0. -1.
    10030    2    1    2    0    0  0.00000000000E+00  0.00000000000E+00 -0.42864002742E+03  0.23737485554E+04  0.23347269500E+04 0.  0.
        2    1    3    3  502    0  0.37360690245E+03 -0.11058032615E+04 -0.19517683267E+03  0.11834174947E+04  0.25500000920E-02 0. -1.
       -2    1    3    3    0  502 -0.37360690245E+03  0.11058032615E+04 -0.23346319476E+03  0.11903310607E+04  0.25500000920E-02 0.  1.
</event>
<event>
 5   0  0.6814789E-05  0.2282598E+04  0.7818609E-02  0.8484814E-01
       -2   -1    0    0    0  501  0.00000000000E+00  0.00000000000E+00  0.47002963536E+03  0.47002963537E+03  0.25500000920E-02 0. -1.
        2   -1    0    0  501    0  0.00000000000E+00  0.00000000000E+00 -0.27712367522E+04  0.27712367522E+04  0.25500000920E-02 0.  1.
    10030    2    1    2    0    0  0.00000000000E+00  0.00000000000E+00 -0.23012071168E+04  0.32412663876E+04  0.22825979937E+04 0.  0.
        1    1    3    3  502    0 -0.66960820463E+03 -0.36209555405E+03  0.56868212012E+02  0.76336251645E+03  0.50400001928E-02 0. -1.
       -1    1    3    3    0  502  0.66960820463E+03  0.36209555405E+03 -0.23580753288E+04  0.24779038711E+04  0.50400001928E-02 0.  1.
</event>
<event>
 5   0  0.6702421E-05  0.2287425E+04  0.7818609E-02  0.8482896E-01
       -2   -1    0    0    0  501  0.00000000000E+00  0.00000000000E+00  0.10773798297E+04  0.10773798297E+04  0.25500000920E-02 0.  1.
        2   -1    0    0  501    0  0.00000000000E+00  0.00000000000E+00 -0.12141286865E+04  0.12141286865E+04  0.25500000920E-02 0. -1.
    10030    2    1    2    0    0  0.00000000000E+00  0.00000000000E+00 -0.13674885685E+03  0.22915085162E+04  0.22874245408E+04 0.  0.
        4    1    3    3  502    0  0.24189223071E+03  0.85889873959E+03 -0.78509377609E+03  0.11885254504E+04  0.12699999809E+01 0. -1.
       -4    1    3    3    0  502 -0.24189223071E+03 -0.85889873959E+03  0.64834491924E+03  0.11029830658E+04  0.12699999809E+01 0.  1.
</event>
<event>
 5   0  0.6468758E-05  0.2262581E+04  0.7818609E-02  0.8492823E-01
        2   -1    0    0  501    0  0.00000000000E+00  0.00000000000E+00  0.15421267334E+04  0.15421267334E+04  0.25500000920E-02 0.  1.
       -2   -1    0    0    0  501  0.00000000000E+00  0.00000000000E+00 -0.82990470211E+03  0.82990470211E+03  0.25500000920E-02 0. -1.
    10030    2    1    2    0    0  0.00000000000E+00  0.00000000000E+00  0.71222203133E+03  0.23720314356E+04  0.22625810282E+04 0.  0.
        3    1    3    3  502    0  0.57183113119E+03  0.90103386067E+02  0.13750900982E+04  0.14919726040E+04  0.10100000352E+00 0.  1.
       -3    1    3    3    0  502 -0.57183113119E+03 -0.90103386067E+02 -0.66286806684E+03  0.88005883156E+03  0.10100000352E+00 0. -1.
</event>
<event>
 5   0  0.2962279E-05  0.2093926E+04  0.7818609E-02  0.8563924E-01
       -1   -1    0    0    0  501  0.00000000000E+00  0.00000000000E+00  0.80890648499E+03  0.80890648500E+03  0.50400001928E-02 0.  1.
        1   -1    0    0  501    0  0.00000000000E+00  0.00000000000E+00 -0.13550782709E+04  0.13550782709E+04  0.50400001928E-02 0. -1.
    10030    2    1    2    0    0  0.00000000000E+00  0.00000000000E+00 -0.54617178592E+03  0.21639847559E+04  0.20939260742E+04 0.  0.
        1    1    3    3  502    0  0.22239684766E+03  0.95250461420E+03  0.11277778676E+03  0.98460358883E+03  0.50400001928E-02 0.  1.
       -1    1    3    3    0  502 -0.22239684766E+03 -0.95250461420E+03 -0.65894957268E+03  0.11793811671E+04  0.50400001928E-02 0. -1.
</event>
<event>
 5   0  0.6676612E-05  0.2292467E+04  0.7818609E-02  0.8480897E-01
       -2   -1    0    0    0  501  0.00000000000E+00  0.00000000000E+00  0.21328628154E+04  0.21328628154E+04  0.25500000920E-02 0. -1.
        2   -1    0    0  501    0  0.00000000000E+00  0.00000000000E+00 -0.61600365192E+03  0.61600365192E+03  0.25500000920E-02 0.  1.
    10030    2    1    2    0    0  0.00000000000E+00  0.00000000000E+00  0.15168591635E+04  0.27488664673E+04  0.22924670408E+04 0.  0.
        2    1    3    3  502    0 -0.10440822316E+04 -0.25461455602E+03  0.12364351941E+04  0.16382027554E+04  0.25500000920E-02 0. -1.
       -2    1    3    3    0  502  0.10440822316E+04  0.25461455602E+03  0.28042396936E+03  0.11106637120E+04  0.25500000920E-02 0.  1.
</event>
<event>
 5   0  0.2962279E-05  0.2304924E+04  0.7818609E-02  0.8475982E-01
       -1   -1    0    0    0  501  0.00000000000E+00  0.00000000000E+00  0.13204293485E+04  0.13204293485E+04  0.50400001928E-02 0. -1.
        1   -1    0    0  501    0  0.00000000000E+00  0.00000000000E+00 -0.10058611769E+04  0.10058611769E+04  0.50400001928E-02 0.  1.
    10030    2    1    2    0    0  0.00000000000E+00  0.00000000000E+00  0.31456817161E+03  0.23262905253E+04  0.23049239627E+04 0.  0.
        1    1    3    3  502    0  0.48984153525E+03  0.10146884680E+04 -0.87099338650E+02  0.11300989831E+04  0.50400001928E-02 0.  1.
       -1    1    3    3    0  502 -0.48984153525E+03 -0.10146884680E+04  0.40166751026E+03  0.11961915422E+04  0.50400001928E-02 0. -1.
</event>
<event>
 5   0  0.3006265E-05  0.2317423E+04  0.7818609E-02  0.8471083E-01
       -1   -1    0    0    0  501  0.00000000000E+00  0.00000000000E+00  0.97944552669E+03  0.97944552671E+03  0.50400001928E-02 0.  1.
        1   -1    0    0  501    0  0.00000000000E+00  0.00000000000E+00 -0.13707876011E+04  0.13707876011E+04  0.50400001928E-02 0. -1.
    10030    2    1    2    0    0  0.00000000000E+00  0.00000000000E+00 -0.39134207440E+03  0.23502331278E+04  0.23174225199E+04 0.  0.
        2    1    3    3  502    0 -0.17604488213E+02  0.64357840343E+03 -0.11726948382E+04  0.13378027743E+04  0.25500000920E-02 0. -1.
       -2    1    3    3    0  502  0.17604488213E+02 -0.64357840343E+03  0.78135276375E+03  0.10124303536E+04  0.25500000920E-02 0.  1.
</event>
<event>
 5   0  0.6495405E-05  0.2291409E+04  0.7818609E-02  0.8481316E-01
        2   -1    0    0  501    0  0.00000000000E+00  0.00000000000E+00  0.17675757593E+04  0.17675757593E+04  0.25500000920E-02 0.  1.
       -2   -1    0    0    0  501  0.00000000000E+00  0.00000000000E+00 -0.74262074017E+03  0.74262074017E+03  0.25500000920E-02 0. -1.
    10030    2    1    2    0    0  0.00000000000E+00  0.00000000000E+00  0.10249550192E+04  0.25101964995E+04  0.22914086660E+04 0.  0.
        5    1    3    3  502    0 -0.51428209496E+03  0.61975163368E+03 -0.38021458694E+03  0.89059720568E+03  0.46999998093E+01 0. -1.
       -5    1    3    3    0  502  0.51428209496E+03 -0.61975163368E+03  0.14051696061E+04  0.16195992938E+04  0.46999998093E+01 0.  1.
</event>
<event>
 5   0  0.2962279E-05  0.2206348E+04  0.7818609E-02  0.8515791E-01
        1   -1    0    0  501    0  0.00000000000E+00  0.00000000000E+00  0.13652649116E+04  0.13652649116E+04  0.50400001928E-02 0. -1.
       -1   -1    0    0    0  501  0.00000000000E+00  0.00000000000E+00 -0.89139679062E+03  0.89139679064E+03  0.50400001928E-02 0.  1.
    10030    2    1    2    0    0  0.00000000000E+00  0.00000000000E+00  0.47386812100E+03  0.22566617023E+04  0.22063478969E+04 0.  0.
        1    1    3    3  502    0 -0.77762605790E+03 -0.12722663869E+03  0.10266182291E+04  0.12941537358E+04  0.50400001928E-02 0. -1.
       -1    1    3    3    0  502  0.77762605790E+03  0.12722663869E+03 -0.55275010809E+03  0.96250796648E+03  0.50400001928E-02 0.  1.
</event>
<event>
 5   0  0.6702421E-05  0.2327847E+04  0.7818609E-02  0.8467022E-01
        2   -1    0    0  501    0  0.00000000000E+00  0.00000000000E+00  0.13099040544E+04  0.13099040544E+04  0.25500000920E-02 0.  1.
       -2   -1    0    0    0  501  0.00000000000E+00  0.00000000000E+00 -0.10342119635E+04  0.10342119635E+04  0.25500000920E-02 0. -1.
    10030    2    1    2    0    0  0.00000000000E+00  0.00000000000E+00  0.27569209098E+03  0.23441160179E+04  0.23278474556E+04 0.  0.
        4    1    3    3  502    0  0.88210978929E+03  0.45608233644E+03 -0.47351140941E+03  0.11001561006E+04  0.12699999809E+01 0. -1.
       -4    1    3    3    0  502 -0.88210978929E+03 -0.45608233644E+03  0.74920350039E+03  0.12439599173E+04  0.12699999809E+01 0.  1.
</event>
<event>
 5   0  0.2342500E-05  0.2295351E+04  0.7818609E-02  0.8479756E-01
        3   -1    0    0  501    0  0.00000000000E+00  0.00000000000E+00  0.15434819130E+04  0.15434819163E+04  0.10100000352E+00 0. -1.
       -3   -1    0    0    0  501  0.00000000000E+00  0.00000000000E+00 -0.85336895008E+03  0.85336895605E+03  0.10100000352E+00 0.  1.
    10030    2    1    2    0    0  0.00000000000E+00  0.00000000000E+00  0.69011296293E+03  0.23968508724E+04  0.22953514334E+04 0.  0.
        4    1    3    3  502    0 -0.35814569796E+02 -0.48888009302E+03 -0.73855542678E+03  0.88642662420E+03  0.12699999809E+01 0.  1.
       -4    1    3    3    0  502  0.35814569796E+02  0.48888009302E+03  0.14286683897E+04  0.15104242482E+04  0.12699999809E+01 0. -1.
</event>
<event>
 5   0  0.6468758E-05  0.2293832E+04  0.7818609E-02  0.8480357E-01
       -2   -1    0    0    0  501  0.00000000000E+00  0.00000000000E+00  0.10206385296E+04  0.10206385296E+04  0.25500000920E-02 0.  1.
        2   -1    0    0  501    0  0.00000000000E+00  0.00000000000E+00 -0.12888173102E+04  0.12888173102E+04  0.25500000920E-02 0. -1.
    10030    2    1    2    0    0  0.00000000000E+00  0.00000000000E+00 -0.26817878058E+03  0.23094558398E+04  0.22938322558E+04 0.  0.
        3    1    3    3  502    0  0.68608805627E+03 -0.60119838188E+03  0.56581474089E+03  0.10734536071E+04  0.10100000352E+00 0.  1.
       -3    1    3    3    0  502 -0.68608805627E+03  0.60119838188E+03 -0.83399352147E+03  0.12360022328E+04  0.10100000352E+00 0. -1.
</event>
<event>
 5   0  0.6468758E-05  0.2310605E+04  0.7818609E-02  0.8473751E-01
       -2   -1    0    0    0  501  0.00000000000E+00  0.00000000000E+00  0.95803106500E+03  0.95803106500E+03  0.25500000920E-02 0.  1.
        2   -1    0    0  501    0  0.00000000000E+00  0.00000000000E+00 -0.13931945449E+04  0.13931945449E+04  0.25500000920E-02 0. -1.
    10030    2    1    2    0    0  0.00000000000E+00  0.00000000000E+00 -0.43516347987E+03  0.23512256099E+04  0.23106048157E+04 0.  0.
        3    1    3    3  502    0 -0.11475253482E+04  0.12333715040E+03 -0.27042899874E+03  0.11853937451E+04  0.10100000352E+00 0. -1.
       -3    1    3    3    0  502  0.11475253482E+04 -0.12333715040E+03 -0.16473448113E+03  0.11658318648E+04  0.10100000352E+00 0.  1.
</event>
<event>
 5   0  0.3118614E-05  0.2354012E+04  0.7818609E-02  0.8456924E-01
       -1   -1    0    0    0  501  0.00000000000E+00  0.00000000000E+00  0.96062851058E+03  0.96062851060E+03  0.50400001928E-02 0. -1.
        1   -1    0    0  501    0  0.00000000000E+00  0.00000000000E+00 -0.14421216556E+04  0.14421216557E+04  0.50400001928E-02 0.  1.
    10030    2    1    2    0    0  0.00000000000E+00  0.00000000000E+00 -0.48149314507E+03  0.24027501663E+04  0.23540120460E+04 0.  0.
        3    1    3    3  502    0 -0.36675383579E+03  0.20035372926E+03  0.88234969050E+03  0.97631500010E+03  0.10100000352E+00 0. -1.
       -3    1    3    3    0  502  0.36675383579E+03 -0.20035372926E+03 -0.13638428356E+04  0.14264351662E+04  0.10100000352E+00 0.  1.
</event>
<event>
 5   0  0.6676612E-05  0.2285900E+04  0.7818609E-02  0.8483502E-01
       -2   -1    0    0    0  501  0.00000000000E+00  0.00000000000E+00  0.18804070348E+04  0.18804070348E+04  0.25500000920E-02 0. -1.
        2   -1    0    0  501    0  0.00000000000E+00  0.00000000000E+00 -0.69470817941E+03  0.69470817942E+03  0.25500000920E-02 0.  1.
    10030    2    1    2    0    0  0.00000000000E+00  0.00000000000E+00  0.11856988554E+04  0.25751152142E+04  0.22858995146E+04 0.  0.
        2    1    3    3  502    0  0.48688768166E+03 -0.63984850678E+03  0.15079486832E+04  0.17089104592E+04  0.25500000920E-02 0. -1.
       -2    1    3    3    0  502 -0.48688768166E+03  0.63984850678E+03 -0.32224982782E+03  0.86620475508E+03  0.25500000920E-02 0.  1.
</event>
<event>
 5   0  0.6702421E-05  0.2078256E+04  0.7818609E-02  0.8570883E-01
        2   -1    0    0  501    0  0.00000000000E+00  0.00000000000E+00  0.27368265694E+04  0.27368265694E+04  0.25500000920E-02 0. -1.
       -2   -1    0    0    0  501  0.00000000000E+00  0.00000000000E+00 -0.39453968160E+03  0.39453968161E+03  0.25500000920E-02 0.  1.
    10030    2    1    2    0    0  0.00000000000E+00  0.00000000000E+00  0.23422868878E+04  0.31313662510E+04  0.20782556948E+04 0.  0.
        4    1    3    3  502    0 -0.92447939392E+03 -0.32148382822E+02  0.18843996287E+04  0.20992044307E+04  0.12699999809E+01 0. -1.
       -4    1    3    3    0  502  0.92447939392E+03  0.32148382822E+02  0.45788725903E+03  0.10321618203E+04  0.12699999809E+01 0.  1.
</event>
<event>
 5   0  0.6702421E-05  0.2253752E+04  0.7818609E-02  0.8496383E-01
       -2   -1    0    0    0  501  0.00000000000E+00  0.00000000000E+00  0.62644219220E+03  0.62644219220E+03  0.25500000920E-02 0. -1.
        2   -1    0    0  501    0  0.00000000000E+00  0.00000000000E+00 -0.20270814270E+04  0.20270814270E+04  0.25500000920E-02 0.  1.
    10030    2    1    2    0    0  0.00000000000E+00  0.00000000000E+00 -0.14006392348E+04  0.26535236192E+04  0.22537518345E+04 0.  0.
        4    1    3    3  502    0  0.11006436128E+04 -0.44311346115E+02 -0.42053905561E+03  0.11790820870E+04  0.12699999809E+01 0. -1.
       -4    1    3    3    0  502 -0.11006436128E+04  0.44311346115E+02 -0.98010017916E+03  0.14744415322E+04  0.12699999809E+01 0.  1.
</event>
<event>
 5   0  0.2982385E-05  0.2292672E+04  0.7818609E-02  0.8480816E-01
       -1   -1    0    0    0  501  0.00000000000E+00  0.00000000000E+00  0.53709093258E+03  0.53709093260E+03  0.50400001928E-02 0.  1.
        1   -1    0    0  501    0  0.00000000000E+00  0.00000000000E+00 -0.24466737366E+04  0.24466737366E+04  0.50400001928E-02 0. -1.
    10030    2    1    2    0    0  0.00000000000E+00  0.00000000000E+00 -0.19095828040E+04  0.29837646692E+04  0.22926720472E+04 0.  0.
        4    1    3    3  502    0  0.29235588735E+03 -0.10238886413E+04 -0.15073496146E+04  0.18455146676E+04  0.12699999809E+01 0. -1.
       -4    1    3    3    0  502 -0.29235588735E+03  0.10238886413E+04 -0.40223318938E+03  0.11382500016E+04  0.12699999809E+01 0.  1.
</event>
<event>
 5   0  0.3118614E-05  0.2325918E+04  0.7818609E-02  0.8467771E-01
       -1   -1    0    0    0  501  0.00000000000E+00  0.00000000000E+00  0.84269390527E+03  0.84269390529E+03  0.50400001928E-02 0.  1.
        1   -1    0    0  501    0  0.00000000000E+00  0.00000000000E+00 -0.16049409866E+04  0.16049409866E+04  0.50400001928E-02 0. -1.
    10030    2    1    2    0    0  0.00000000000E+00  0.00000000000E+00 -0.76224708129E+03  0.24476348919E+04  0.23259183027E+04 0.  0.
        3    1    3    3  502    0 -0.87412233653E+03 -0.62476786799E+03  0.87192202948E+02  0.10779736725E+04  0.10100000352E+00 0.  1.
       -3    1    3    3    0  502  0.87412233653E+03  0.62476786799E+03 -0.84943928424E+03  0.13696612194E+04  0.10100000352E+00 0. -1.
</event>
<event>
 5   0  0.2962279E-05  0.2300370E+04  0.7818609E-02  0.8477775E-01
       -1   -1    0    0    0  501  0.00000000000E+00  0.00000000000E+00  0.13480047876E+04  0.13480047876E+04  0.50400001928E-02 0.  1.
        1   -1    0    0  501    0  0.00000000000E+00  0.00000000000E+00 -0.98139520922E+03  0.98139520924E+03  0.50400001928E-02 0. -1.
    10030    2    1    2    0    0  0.00000000000E+00  0.00000000000E+00  0.36660957835E+03  0.23293999968E+04  0.23003699186E+04 0.  0.
        1    1    3    3  502    0  0.69846043453E+03  0.44405475447E+03  0.99206652157E+03  0.12919859081E+04  0.50400001928E-02 0.  1.
       -1    1    3    3    0  502 -0.69846043453E+03 -0.44405475447E+03 -0.62545694322E+03  0.10374140887E+04  0.50400001928E-02 0. -1.
</event>
<event>
 5   0  0.2982385E-05  0.2340423E+04  0.7818609E-02  0.8462151E-01
       -1   -1    0    0    0  501  0.00000000000E+00  0.00000000000E+00  0.16290765687E+04  0.16290765687E+04  0.50400001928E-02 0. -1.
        1   -1    0    0  501    0  0.00000000000E+00  0.00000000000E+00 -0.84059602964E+03  0.84059602965E+03  0.50400001928E-02 0.  1.
    10030    2    1    2    0    0  0.00000000000E+00  0.00000000000E+00  0.78848053907E+03  0.24696725984E+04  0.23404232913E+04 0.  0.
        4    1    3    3  502    0 -0.10840247097E+04  0.77228884490E+02 -0.63683277950E+02  0.10886372419E+04  0.12699999809E+01 0. -1.
       -4    1    3    3    0  502  0.10840247097E+04 -0.77228884490E+02  0.85216381702E+03  0.13810353564E+04  0.12699999809E+01 0.  1.
</event>
<event>
 5   0  0.2962279E-05  0.2305814E+04  0.7818609E-02  0.8475632E-01
       -1   -1    0    0    0  501  0.00000000000E+00  0.00000000000E+00  0.73299646928E+03  0.73299646930E+03  0.50400001928E-02 0. -1.
        1   -1    0    0  501    0  0.00000000000E+00  0.00000000000E+00 -0.18133716451E+04  0.18133716452E+04  0.50400001928E-02 0.  1.
    10030    2    1    2    0    0  0.00000000000E+00  0.00000000000E+00 -0.10803751759E+04  0.25463681145E+04  0.23058144014E+04 0.  0.
        1    1    3    3  502    0 -0.87932382145E+03  0.47369836270E+02 -0.13619571935E+04  0.16218451472E+04  0.50400001928E-02 0.  1.
       -1    1    3    3    0  502  0.87932382145E+03 -0.47369836270E+02  0.28158201767E+03  0.92452296729E+03  0.50400001928E-02 0. -1.
</event>
<event>
 5   0  0.6676612E-05  0.2263341E+04  0.7818609E-02  0.8492517E-01
       -2   -1    0    0    0  501  0.00000000000E+00  0.00000000000E+00  0.11369123248E+04  0.11369123248E+04  0.25500000920E-02 0.  1.
        2   -1    0    0  501    0  0.00000000000E+00  0.00000000000E+00 -0.11264527120E+04  0.11264527120E+04  0.25500000920E-02 0. -1.
    10030    2    1    2    0    0  0.00000000000E+00  0.00000000000E+00  0.10459612780E+02  0.22633650367E+04  0.22633408683E+04 0.  0.
        2    1    3    3  502    0 -0.35127564232E+03 -0.34253650466E+03  0.10250211318E+04  0.11363952457E+04  0.25500000920E-02 0.  1.
       -2    1    3    3    0  502  0.35127564232E+03  0.34253650466E+03 -0.10145615190E+04  0.11269697910E+04  0.25500000920E-02 0. -1.
</event>
<event>
 5   0  0.2982385E-05  0.2305853E+04  0.7818609E-02  0.8475617E-01
        1   -1    0    0  501    0  0.00000000000E+00  0.00000000000E+00  0.11071025651E+04  0.11071025651E+04  0.50400001928E-02 0. -1.
       -1   -1    0    0    0  501  0.00000000000E+00  0.00000000000E+00 -0.12006472720E+04  0.12006472720E+04  0.50400001928E-02 0.  1.
    10030    2    1    2    0    0  0.00000000000E+00  0.00000000000E+00 -0.93544706895E+02  0.23077498372E+04  0.23058531390E+04 0.  0.
        4    1    3    3  502    0 -0.52109711226E+03  0.65287248911E+03  0.74852169013E+03  0.11216376514E+04  0.12699999809E+01 0. -1.
       -4    1    3    3    0  502  0.52109711226E+03 -0.65287248911E+03 -0.84206639703E+03  0.11861121858E+04  0.12699999809E+01 0.  1.
</event>
<event>
 5   0  0.6676612E-05  0.2325807E+04  0.7818609E-02  0.8467815E-01
        2   -1    0    0  501    0  0.00000000000E+00  0.00000000000E+00  0.19245837084E+04  0.19245837084E+04  0.25500000920E-02 0. -1.
       -2   -1    0    0    0  501  0.00000000000E+00  0.00000000000E+00 -0.70266862564E+03  0.70266862564E+03  0.25500000920E-02 0.  1.
    10030    2    1    2    0    0  0.00000000000E+00  0.00000000000E+00  0.12219150828E+04  0.26272523340E+04  0.23258070335E+04 0.  0.
        2    1    3    3  502    0  0.79742609011E+03  0.79102709030E+03  0.27069885839E+03  0.11553744409E+04  0.25500000920E-02 0.  1.
       -2    1    3    3    0  502 -0.79742609011E+03 -0.79102709030E+03  0.95121622438E+03  0.14718778931E+04  0.25500000920E-02 0. -1.
</event>
<event>
 5   0  0.2962279E-05  0.2298748E+04  0.7818609E-02  0.8478415E-01
        1   -1    0    0  501    0  0.00000000000E+00  0.00000000000E+00  0.10319016955E+04  0.10319016955E+04  0.50400001928E-02 0.  1.
       -1   -1    0    0    0  501  0.00000000000E+00  0.00000000000E+00 -0.12802196389E+04  0.12802196389E+04  0.50400001928E-02 0. -1.
    10030    2    1    2    0    0  0.00000000000E+00  0.00000000000E+00 -0.24831794341E+03  0.23121213344E+04  0.22987481949E+04 0.  0.
        1    1    3    3  502    0 -0.23445486167E+03  0.32127186919E+03 -0.12087997942E+04  0.12725492677E+04  0.50400001928E-02 0. -1.
       -1    1    3    3    0  502  0.23445486167E+03 -0.32127186919E+03  0.96048185081E+03  0.10395720667E+04  0.50400001928E-02 0.  1.
</event>
<event>
 5   0  0.3118614E-05  0.2294514E+04  0.7818609E-02  0.8480087E-01
       -1   -1    0    0    0  501  0.00000000000E+00  0.00000000000E+00  0.11216392462E+04  0.11216392462E+04  0.50400001928E-02 0. -1.
        1   -1    0    0  501    0  0.00000000000E+00  0.00000000000E+00 -0.11734593698E+04  0.11734593698E+04  0.50400001928E-02 0.  1.
    10030    2    1    2    0    0  0.00000000000E+00  0.00000000000E+00 -0.51820123634E+02  0.22950986160E+04  0.22945135284E+04 0.  0.
        3    1    3    3  502    0 -0.32190594950E+03 -0.70520756924E+03 -0.87185434840E+03  0.11666495494E+04  0.10100000352E+00 0.  1.
       -3    1    3    3    0  502  0.32190594950E+03  0.70520756924E+03  0.82003422476E+03  0.11284490666E+04  0.10100000352E+00 0. -1.
</event>
<event>
 5   0  0.6676612E-05  0.2311660E+04  0.7818609E-02  0.8473338E-01
       -2   -1    0    0    0  501  0.00000000000E+00  0.00000000000E+00  0.83575237962E+03  0.83575237962E+03  0.25500000920E-02 0.  1.
        2   -1    0    0  501    0  0.00000000000E+00  0.00000000000E+00 -0.15984920373E+04  0.15984920373E+04  0.25500000920E-02 0. -1.
    10030    2    1    2    0    0  0.00000000000E+00  0.00000000000E+00 -0.76273965772E+03  0.24342444170E+04  0.23116604630E+04 0.  0.
        2    1    3    3  502    0  0.32973381815E+03 -0.53664297122E+03  0.63916284554E+03  0.89735122027E+03  0.25500000920E-02 0.  1.
       -2    1    3    3    0  502 -0.32973381815E+03  0.53664297122E+03 -0.14019025033E+04  0.15368931967E+04  0.25500000920E-02 0. -1.
</event>
<event>
 5   0  0.6814789E-05  0.2322283E+04  0.7818609E-02  0.8469187E-01
       -2   -1    0    0    0  501  0.00000000000E+00  0.00000000000E+00  0.18398324483E+04  0.18398324483E+04  0.25500000920E-02 0.  1.
        2   -1    0    0  501    0  0.00000000000E+00  0.00000000000E+00 -0.73281107974E+03  0.73281107974E+03  0.25500000920E-02 0. -1.
    10030    2    1    2    0    0  0.00000000000E+00  0.00000000000E+00  0.11070213685E+04  0.25726435280E+04  0.23222830172E+04 0.  0.
        1    1    3    3  502    0 -0.10582741023E+04 -0.45362721482E+03  0.71978478302E+03  0.13578703398E+04  0.50400001928E-02 0.  1.
       -1    1    3    3    0  502  0.10582741023E+04  0.45362721482E+03  0.38723658551E+03  0.12147731882E+04  0.50400001928E-02 0. -1.
</event>
<event>
 5   0  0.6495405E-05  0.2270378E+04  0.7818609E-02  0.8489693E-01
        2   -1    0    0  501    0  0.00000000000E+00  0.00000000000E+00  0.15294259355E+04  0.15294259355E+04  0.25500000920E-02 0.  1.
       -2   -1    0    0    0  501  0.00000000000E+00  0.00000000000E+00 -0.84257337287E+03  0.84257337288E+03  0.25500000920E-02 0. -1.
    10030    2    1    2    0    0  0.00000000000E+00  0.00000000000E+00  0.68685256259E+03  0.23719993083E+04  0.22703775624E+04 0.  0.
        5    1    3    3  502    0  0.52319881818E+03 -0.96824608764E+03  0.52776440862E+02  0.11018370716E+04  0.46999998093E+01 0. -1.
       -5    1    3    3    0  502 -0.52319881818E+03  0.96824608764E+03  0.63407612173E+03  0.12701622368E+04  0.46999998093E+01 0.  1.
</event>
<event>
 5   0  0.2982385E-05  0.2299753E+04  0.7818609E-02  0.8478018E-01
        1   -1    0    0  501    0  0.00000000000E+00  0.00000000000E+00  0.14115628289E+04  0.14115628289E+04  0.50400001928E-02 0.  1.
       -1   -1    0    0    0  501  0.00000000000E+00  0.00000000000E+00 -0.93670372865E+03  0.93670372866E+03  0.50400001928E-02 0. -1.
    10030    2    1    2    0    0  0.00000000000E+00  0.00000000000E+00  0.47485910021E+03  0.23482665575E+04  0.22997531737E+04 0.  0.
        4    1    3    3  502    0  0.59560390139E+03 -0.11260638421E+03  0.12351759655E+04  0.13758944304E+04  0.12699999809E+01 0.  1.
       -4    1    3    3    0  502 -0.59560390139E+03  0.11260638421E+03 -0.76031686524E+03  0.97237212711E+03  0.12699999809E+01 0. -1.
</event>
<event>
 5   0  0.2962279E-05  0.2296968E+04  0.7818609E-02  0.8479118E-01
        1   -1    0    0  501    0  0.00000000000E+00  0.00000000000E+00  0.20537779401E+04  0.20537779401E+04  0.50400001928E-02 0.  1.
       -1   -1    0    0    0  501  0.00000000000E+00  0.00000000000E+00 -0.64223845987E+03  0.64223845989E+03  0.50400001928E-02 0. -1.
    10030    2    1    2    0    0  0.00000000000E+00  0.00000000000E+00  0.14115394803E+04  0.26960164000E+04  0.22969677240E+04 0.  0.
        1    1    3    3  502    0  0.42363399187E+02  0.16364348217E+03 -0.62755755484E+03  0.64992486605E+03  0.50400001928E-02 0. -1.
       -1    1    3    3    0  502 -0.42363399187E+02 -0.16364348217E+03  0.20390970351E+04  0.20460915340E+04  0.50400001928E-02 0.  1.
</event>
<event>
 5   0  0.3118614E-05  0.2303495E+04  0.7818609E-02  0.8476544E-01
       -1   -1    0    0    0  501  0.00000000000E+00  0.00000000000E+00  0.55708786419E+03  0.55708786422E+03  0.50400001928E-02 0. -1.
        1   -1    0    0  501    0  0.00000000000E+00  0.00000000000E+00 -0.23811724439E+04  0.23811724439E+04  0.50400001928E-02 0.  1.
    10030    2    1    2    0    0  0.00000000000E+00  0.00000000000E+00 -0.18240845797E+04  0.29382603081E+04  0.23034949716E+04 0.  0.
        3    1    3    3  502    0 -0.91911111576E+03 -0.69393037708E+03 -0.89322392658E+03  0.14574476336E+04  0.10100000352E+00 0.  1.
       -3    1    3    3    0  502  0.91911111576E+03  0.69393037708E+03 -0.93086065308E+03  0.14808126745E+04  0.10100000352E+00 0. -1.
</event>
<event>
 5   0  0.6468758E-05  0.2279539E+04  0.7818609E-02  0.8486032E-01
        2   -1    0    0  501    0  0.00000000000E+00  0.00000000000E+00  0.17240274895E+04  0.17240274895E+04  0.25500000920E-02 0.  1.
       -2   -1    0    0    0  501  0.00000000000E+00  0.00000000000E+00 -0.75351161924E+03  0.75351161924E+03  0.25500000920E-02 0. -1.
    10030    2    1    2    0    0  0.00000000000E+00  0.00000000000E+00  0.97051587024E+03  0.24775391087E+04  0.22795392036E+04 0.  0.
        3    1    3    3  502    0 -0.35286360361E+02 -0.22488990769E+03 -0.72855267570E+03  0.76328868017E+03  0.10100000352E+00 0. -1.
       -3    1    3    3    0  502  0.35286360361E+02  0.22488990769E+03  0.16990685459E+04  0.17142504286E+04  0.10100000352E+00 0.  1.
</event>
<event>
 5   0  0.6676612E-05  0.2296729E+04  0.7818609E-02  0.8479212E-01
       -2   -1    0    0    0  501  0.00000000000E+00  0.00000000000E+00  0.12793122493E+04  0.12793122493E+04  0.25500000920E-02 0.  1.
        2   -1    0    0  501    0  0.00000000000E+00  0.00000000000E+00 -0.10308205524E+04  0.10308205524E+04  0.25500000920E-02 0. -1.
    10030    2    1    2    0    0  0.00000000000E+00  0.00000000000E+00  0.24849169691E+03  0.23101328017E+04  0.22967292914E+04 0.  0.
        2    1    3    3  502    0  0.21288367682E+03 -0.11276667901E+04  0.81696372328E+02  0.11504895248E+04  0.25500000920E-02 0.  1.
       -2    1    3    3    0  502 -0.21288367682E+03  0.11276667901E+04  0.16679532458E+03  0.11596432769E+04  0.25500000920E-02 0. -1.
</event>
<event>
 5   0  0.2342500E-05  0.2009415E+04  0.7818609E-02  0.8602231E-01
        4   -1    0    0  501    0  0.00000000000E+00  0.00000000000E+00  0.59977976797E+03  0.59978111254E+03  0.12699999809E+01 0. -1.
       -4   -1    0    0    0  501  0.00000000000E+00  0.00000000000E+00 -0.16830099523E+04  0.16830104315E+04  0.12699999809E+01 0.  1.
    10030    2    1    2    0    0  0.00000000000E+00  0.00000000000E+00 -0.10832301843E+04  0.22827915440E+04  0.20094152386E+04 0.  0.
        5    1    3    3  502    0  0.71481834539E+03  0.20987194155E+03 -0.13074189441E+04  0.15047849960E+04  0.46999998093E+01 0.  1.
       -5    1    3    3    0  502 -0.71481834539E+03 -0.20987194155E+03  0.22418875977E+03  0.77800654802E+03  0.46999998093E+01 0. -1.
</event>
<event>
 5   0  0.3006265E-05  0.2259273E+04  0.7818609E-02  0.8494154E-01
       -1   -1    0    0    0  501  0.00000000000E+00  0.00000000000E+00  0.11302896510E+04  0.11302896510E+04  0.50400001928E-02 0.  1.
        1   -1    0    0  501    0  0.00000000000E+00  0.00000000000E+00 -0.11289839972E+04  0.11289839972E+04  0.50400001928E-02 0. -1.
    10030    2    1    2    0    0  0.00000000000E+00  0.00000000000E+00  0.13056538337E+01  0.22592736482E+04  0.22592732709E+04 0.  0.
        2    1    3    3  502    0 -0.10628363138E+02  0.11075925097E+04  0.22247441051E+03  0.11297650167E+04  0.25500000920E-02 0.  1.
       -2    1    3    3    0  502  0.10628363138E+02 -0.11075925097E+04 -0.22116875667E+03  0.11295086315E+04  0.25500000920E-02 0. -1.
</event>
<event>
 5   0  0.6702421E-05  0.2307275E+04  0.7818609E-02  0.8475058E-01
        2   -1    0    0  501    0  0.00000000000E+00  0.00000000000E+00  0.11152593205E+04  0.11152593205E+04  0.25500000920E-02 0. -1.
       -2   -1    0    0    0  501  0.00000000000E+00  0.00000000000E+00 -0.11933365222E+04  0.11933365222E+04  0.25500000920E-02 0.  1.
    10030    2    1    2    0    0  0.00000000000E+00  0.00000000000E+00 -0.78077201763E+02  0.23085958427E+04  0.23072751711E+04 0.  0.
        4    1    3    3  502    0 -0.59773862131E+03 -0.88037818451E+03 -0.48485043147E+03  0.11693753721E+04  0.12699999809E+01 0.  1.
       -4    1    3    3    0  502  0.59773862131E+03  0.88037818451E+03  0.40677322971E+03  0.11392204705E+04  0.12699999809E+01 0. -1.
</event>
<event>
 5   0  0.3118614E-05  0.2398588E+04  0.7818609E-02  0.8440033E-01
       -1   -1    0    0    0  501  0.00000000000E+00  0.00000000000E+00  0.14368691519E+04  0.14368691519E+04  0.50400001928E-02 0. -1.
        1   -1    0    0  501    0  0.00000000000E+00  0.00000000000E+00 -0.10009997100E+04  0.10009997101E+04  0.50400001928E-02 0.  1.
    10030    2    1    2    0    0  0.00000000000E+00  0.00000000000E+00  0.43586944185E+03  0.24378688620E+04  0.23985875881E+04 0.  0.
        3    1    3    3  502    0  0.94660753020E+03  0.20735358569E+03  0.93607833366E+03  0.13473321724E+04  0.10100000352E+00 0. -1.
       -3    1    3    3    0  502 -0.94660753020E+03 -0.20735358569E+03 -0.50020889180E+03  0.10905366896E+04  0.10100000352E+00 0.  1.
</event>
<event>
 5   0  0.6814789E-05  0.2434849E+04  0.7818609E-02  0.8426571E-01
       -2   -1    0    0    0  501  0.00000000000E+00  0.00000000000E+00  0.85220984635E+03  0.85220984635E+03  0.25500000920E-02 0.  1.
        2   -1    0    0  501    0  0.00000000000E+00  0.00000000000E+00 -0.17391515912E+04  0.17391515912E+04  0.25500000920E-02 0. -1.
    10030    2    1    2    0    0  0.00000000000E+00  0.00000000000E+00 -0.88694174485E+03  0.25913614376E+04  0.24348487512E+04 0.  0.
        1    1    3    3  502    0  0.84087883513E+03 -0.57955921997E+03 -0.11487571207E+04  0.15370780810E+04  0.50400001928E-02 0. -1.
       -1    1    3    3    0  502 -0.84087883513E+03  0.57955921997E+03  0.26181537583E+03  0.10542833565E+04  0.50400001928E-02 0.  1.
</event>
<event>
 5   0  0.3006265E-05  0.2300613E+04  0.7818609E-02  0.8477679E-01
        1   -1    0    0  501    0  0.00000000000E+00  0.00000000000E+00  0.95929956431E+03  0.95929956432E+03  0.50400001928E-02 0. -1.
       -1   -1    0    0    0  501  0.00000000000E+00  0.00000000000E+00 -0.13793454615E+04  0.13793454615E+04  0.50400001928E-02 0.  1.
    10030    2    1    2    0    0  0.00000000000E+00  0.00000000000E+00 -0.42004589722E+03  0.23386450259E+04  0.23006133967E+04 0.  0.
        2    1    3    3  502    0 -0.10224738930E+04 -0.52700961392E+03 -0.20628725327E+03  0.11686515417E+04  0.25500000920E-02 0. -1.
       -2    1    3    3    0  502  0.10224738930E+04  0.52700961392E+03 -0.21375864396E+03  0.11699934842E+04  0.25500000920E-02 0.  1.
</event>
<event>
 5   0  0.2982385E-05  0.2499750E+04  0.7818609E-02  0.8403075E-01
        1   -1    0    0  501    0  0.00000000000E+00  0.00000000000E+00  0.13557086541E+04  0.13557086541E+04  0.50400001928E-02 0.  1.
       -1   -1    0    0    0  501  0.00000000000E+00  0.00000000000E+00 -0.11523033274E+04  0.11523033274E+04  0.50400001928E-02 0. -1.
    10030    2    1    2    0    0  0.00000000000E+00  0.00000000000E+00  0.20340532670E+03  0.25080119815E+04  0.24997500620E+04 0.  0.
        4    1    3    3  502    0  0.61161135819E+03 -0.10818901797E+04 -0.31518595604E+02  0.12432014516E+04  0.12699999809E+01 0.  1.
       -4    1    3    3    0  502 -0.61161135819E+03  0.10818901797E+04  0.23492392230E+03  0.12648105299E+04  0.12699999809E+01 0. -1.
</event>
<event>
 5   0  0.6702421E-05  0.2298244E+04  0.7818609E-02  0.8478614E-01
       -2   -1    0    0    0  501  0.00000000000E+00  0.00000000000E+00  0.16204222373E+04  0.16204222373E+04  0.25500000920E-02 0.  1.
        2   -1    0    0  501    0  0.00000000000E+00  0.00000000000E+00 -0.81489956186E+03  0.81489956186E+03  0.25500000920E-02 0. -1.
    10030    2    1    2    0    0  0.00000000000E+00  0.00000000000E+00  0.80552267540E+03  0.24353217991E+04  0.22982440002E+04 0.  0.
        4    1    3    3  502    0 -0.90814659928E+02 -0.69885794040E+03 -0.55902594849E+03  0.89953396117E+03  0.12699999809E+01 0. -1.
       -4    1    3    3    0  502  0.90814659928E+02  0.69885794040E+03  0.13645486239E+04  0.15357878379E+04  0.12699999809E+01 0.  1.
</event>
<event>
 5   0  0.6676612E-05  0.1918748E+04  0.7818609E-02  0.8645580E-01
       -2   -1    0    0    0  501  0.00000000000E+00  0.00000000000E+00  0.67427477176E+03  0.67427477176E+03  0.25500000920E-02 0. -1.
        2   -1    0    0  501    0  0.00000000000E+00  0.00000000000E+00 -0.13650201044E+04  0.13650201044E+04  0.25500000920E-02 0.  1.
    10030    2    1    2    0    0  0.00000000000E+00  0.00000000000E+00 -0.69074533260E+03  0.20392948761E+04  0.19187481537E+04 0.  0.
        2    1    3    3  502    0  0.51648167096E+03  0.76010058451E+03 -0.52579316129E+02  0.92047313894E+03  0.25500000920E-02 0. -1.
       -2    1    3    3    0  502 -0.51648167096E+03 -0.76010058451E+03 -0.63816601647E+03  0.11188217372E+04  0.25500000920E-02 0.  1.
</event>
<event>
 5   0  0.2944089E-05  0.2263897E+04  0.7818609E-02  0.8492294E-01
       -1   -1    0    0    0  501  0.00000000000E+00  0.00000000000E+00  0.15052147239E+04  0.15052147239E+04  0.50400001928E-02 0.  1.
        1   -1    0    0  501    0  0.00000000000E+00  0.00000000000E+00 -0.85124547145E+03  0.85124547147E+03  0.50400001928E-02 0. -1.
    10030    2    1    2    0    0  0.00000000000E+00  0.00000000000E+00  0.65396925244E+03  0.23564601954E+04  0.22638968327E+04 0.  0.
        5    1    3    3  502    0 -0.10472759266E+04 -0.32899533890E+03  0.61442833683E+03  0.12580020153E+04  0.46999998093E+01 0.  1.
       -5    1    3    3    0  502  0.10472759266E+04  0.32899533890E+03  0.39540915610E+02  0.10984581801E+04  0.46999998093E+01 0. -1.
</event>
<event>
 5   0  0.6495405E-05  0.2533349E+04  0.7818609E-02  0.8391200E-01
        2   -1    0    0  501    0  0.00000000000E+00  0.00000000000E+00  0.17612213511E+04  0.17612213511E+04  0.25500000920E-02 0.  1.
       -2   -1    0    0    0  501  0.00000000000E+00  0.00000000000E+00 -0.91099559342E+03  0.91099559342E+03  0.25500000920E-02 0. -1.
    10030    2    1    2    0    0  0.00000000000E+00  0.00000000000E+00  0.85022575768E+03  0.26722169445E+04  0.25333494744E+04 0.  0.
        5    1    3    3  502    0  0.79149271431E+03  0.20922397338E+03  0.14446387792E+04  0.16604935050E+04  0.46999998093E+01 0.  1.
       -5    1    3    3    0  502 -0.79149271431E+03 -0.20922397338E+03 -0.59441302153E+03  0.10117234395E+04  0.46999998093E+01 0. -1.
</event>
<event>
 5   0  0.6676612E-05  0.2303519E+04  0.7818609E-02  0.8476535E-01
       -2   -1    0    0    0  501  0.00000000000E+00  0.00000000000E+00  0.85438083984E+03  0.85438083984E+03  0.25500000920E-02 0.  1.
        2   -1    0    0  501    0  0.00000000000E+00  0.00000000000E+00 -0.15526442155E+04  0.15526442155E+04  0.25500000920E-02 0. -1.
    10030    2    1    2    0    0  0.00000000000E+00  0.00000000000E+00 -0.69826337569E+03  0.24070250554E+04  0.23035185859E+04 0.  0.
        2    1    3    3  502    0 -0.53376966904E+03  0.98748020060E+03 -0.61864014426E+03  0.12816952970E+04  0.25500000920E-02 0.  1.
       -2    1    3    3    0  502  0.53376966904E+03 -0.98748020060E+03 -0.79623231429E+02  0.11253297584E+04  0.25500000920E-02 0. -1.
</event>
<event>
 5   0  0.6495405E-05  0.2369399E+04  0.7818609E-02  0.8451050E-01
       -2   -1    0    0    0  501  0.00000000000E+00  0.00000000000E+00  0.10937136510E+04  0.10937136510E+04  0.25500000920E-02 0.  1.
        2   -1    0    0  501    0  0.00000000000E+00  0.00000000000E+00 -0.12832546529E+04  0.12832546529E+04  0.25500000920E-02 0. -1.
    10030    2    1    2    0    0  0.00000000000E+00  0.00000000000E+00 -0.18954100192E+03  0.23769683039E+04  0.23693991910E+04 0.  0.
        5    1    3    3  502    0 -0.89401436219E+03  0.39983376737E+03 -0.76350506042E+03  0.12418094816E+04  0.46999998093E+01 0. -1.
       -5    1    3    3    0  502  0.89401436219E+03 -0.39983376737E+03  0.57396405850E+03  0.11351588223E+04  0.46999998093E+01 0.  1.
</event>
<event>
 5   0  0.3118614E-05  0.2375264E+04  0.7818609E-02  0.8448823E-01
        1   -1    0    0  501    0  0.00000000000E+00  0.00000000000E+00  0.18918658256E+04  0.18918658256E+04  0.50400001928E-02 0.  1.
       -1   -1    0    0    0  501  0.00000000000E+00  0.00000000000E+00 -0.74554457798E+03  0.74554457799E+03  0.50400001928E-02 0. -1.
    10030    2    1    2    0    0  0.00000000000E+00  0.00000000000E+00  0.11463212476E+04  0.26374104036E+04  0.23752644556E+04 0.  0.
        3    1    3    3  502    0  0.77652025417E+03  0.51422384489E+03 -0.24509655641E+03  0.96305877285E+03  0.10100000352E+00 0. -1.
       -3    1    3    3    0  502 -0.77652025417E+03 -0.51422384489E+03  0.13914178040E+04  0.16743516307E+04  0.10100000352E+00 0.  1.
</event>
<event>
 5   0  0.6814789E-05  0.2296767E+04  0.7818609E-02  0.8479197E-01
        2   -1    0    0  501    0  0.00000000000E+00  0.00000000000E+00  0.14540729869E+04  0.14540729869E+04  0.25500000920E-02 0.  1.
       -2   -1    0    0    0  501  0.00000000000E+00  0.00000000000E+00 -0.90695931867E+03  0.90695931867E+03  0.25500000920E-02 0. -1.
    10030    2    1    2    0    0  0.00000000000E+00  0.00000000000E+00  0.54711366827E+03  0.23610323056E+04  0.22967673330E+04 0.  0.
        1    1    3    3  502    0  0.40881644634E+03 -0.40229920643E+03  0.12962862266E+04  0.14175096188E+04  0.50400001928E-02 0.  1.
       -1    1    3    3    0  502 -0.40881644634E+03  0.40229920643E+03 -0.74917255831E+03  0.94352268677E+03  0.50400001928E-02 0. -1.
</event>
<event>
 5   0  0.3118614E-05  0.2320916E+04  0.7818609E-02  0.8469720E-01
       -1   -1    0    0    0  501  0.00000000000E+00  0.00000000000E+00  0.18453891084E+04  0.18453891084E+04  0.50400001928E-02 0.  1.
        1   -1    0    0  501    0  0.00000000000E+00  0.00000000000E+00 -0.72974450094E+03  0.72974450095E+03  0.50400001928E-02 0. -1.
    10030    2    1    2    0    0  0.00000000000E+00  0.00000000000E+00  0.11156446075E+04  0.25751336094E+04  0.23209158141E+04 0.  0.
        3    1    3    3  502    0 -0.81566645698E+03  0.21341931097E+03 -0.32688916336E+03  0.90427656536E+03  0.10100000352E+00 0. -1.
       -3    1    3    3    0  502  0.81566645698E+03 -0.21341931097E+03  0.14425337709E+04  0.16708570440E+04  0.10100000352E+00 0.  1.
</event>
<event>
 5   0  0.6676612E-05  0.2135044E+04  0.7818609E-02  0.8545961E-01
        2   -1    0    0  501    0  0.00000000000E+00  0.00000000000E+00  0.18794736053E+04  0.18794736053E+04  0.25500000920E-02 0. -1.
       -2   -1    0    0    0  501  0.00000000000E+00  0.00000000000E+00 -0.60634195016E+03  0.60634195017E+03  0.25500000920E-02 0.  1.
    10030    2    1    2    0    0  0.00000000000E+00  0.00000000000E+00  0.12731316551E+04  0.24858155555E+04  0.21350444409E+04 0.  0.
        2    1    3    3  502    0 -0.38946163400E+03 -0.99394308451E+03  0.63736532123E+03  0.12433172452E+04  0.25500000920E-02 0.  1.
       -2    1    3    3    0  502  0.38946163400E+03  0.99394308451E+03  0.63576633392E+03  0.12424983102E+04  0.25500000920E-02 0. -1.
</event>
<event>
 5   0  0.6468758E-05  0.2245082E+04  0.7818609E-02  0.8499895E-01
        2   -1    0    0  501    0  0.00000000000E+00  0.00000000000E+00  0.19003624881E+04  0.19003624881E+04  0.25500000920E-02 0.  1.
       -2   -1    0    0    0  501  0.00000000000E+00  0.00000000000E+00 -0.66308299152E+03  0.66308299153E+03  0.25500000920E-02 0. -1.
    10030    2    1    2    0    0  0.00000000000E+00  0.00000000000E+00  0.12372794966E+04  0.25634454797E+04  0.22450817746E+04 0.  0.
        3    1    3    3  502    0  0.59192385577E+03 -0.67569389797E+03  0.13872720538E+04  0.16527128777E+04  0.10100000352E+00 0. -1.
       -3    1    3    3    0  502 -0.59192385577E+03  0.67569389797E+03 -0.14999255719E+03  0.91073260192E+03  0.10100000352E+00 0.  1.
</event>
<event>
 5   0  0.6814789E-05  0.2305445E+04  0.7818609E-02  0.8475777E-01
       -2   -1    0    0    0  501  0.00000000000E+00  0.00000000000E+00  0.15190910152E+04  0.15190910152E+04  0.25500000920E-02 0. -1.
        2   -1    0    0  501    0  0.00000000000E+00  0.00000000000E+00 -0.87471321458E+03  0.87471321458E+03  0.25500000920E-02 0.  1.
    10030    2    1    2    0    0  0.00000000000E+00  0.00000000000E+00  0.64437780064E+03  0.23938042298E+04  0.23054448466E+04 0.  0.
        1    1    3    3  502    0 -0.97107620628E+02 -0.11377588204E+04  0.48584956789E+03  0.12409572217E+04  0.50400001928E-02 0. -1.
       -1    1    3    3    0  502  0.97107620628E+02  0.11377588204E+04  0.15852823275E+03  0.11528470081E+04  0.50400001928E-02 0.  1.
</event>
<event>
 5   0  0.6495405E-05  0.2305896E+04  0.7818609E-02  0.8475600E-01
        2   -1    0    0  501    0  0.00000000000E+00  0.00000000000E+00  0.13394958302E+04  0.13394958302E+04  0.25500000920E-02 0.  1.
       -2   -1    0    0    0  501  0.00000000000E+00  0.00000000000E+00 -0.99238048134E+03  0.99238048134E+03  0.25500000920E-02 0. -1.
    10030    2    1    2    0    0  0.00000000000E+00  0.00000000000E+00  0.34711534886E+03  0.23318763115E+04  0.23058963695E+04 0.  0.
        5    1    3    3  502    0  0.41744609102E+03 -0.73146946920E+03  0.96980332078E+03  0.12844646333E+04  0.46999998093E+01 0.  1.
       -5    1    3    3    0  502 -0.41744609102E+03  0.73146946920E+03 -0.62268797193E+03  0.10474116782E+04  0.46999998093E+01 0. -1.
</event>
<event>
 5   0  0.2982385E-05  0.2209290E+04  0.7818609E-02  0.8514571E-01
        1   -1    0    0  501    0  0.00000000000E+00  0.00000000000E+00  0.15683976372E+04  0.15683976372E+04  0.50400001928E-02 0.  1.
       -1   -1    0    0    0  501  0.00000000000E+00  0.00000000000E+00 -0.77801720189E+03  0.77801720190E+03  0.50400001928E-02 0. -1.
    10030    2    1    2    0    0  0.00000000000E+00  0.00000000000E+00  0.79038043533E+03  0.23464148391E+04  0.22092897874E+04 0.  0.
        4    1    3    3  502    0  0.51542324702E+03  0.59645523068E+03 -0.42667350552E+03  0.89636591802E+03  0.12699999809E+01 0. -1.
       -4    1    3    3    0  502 -0.51542324702E+03 -0.59645523068E+03  0.12170539408E+04  0.14500489211E+04  0.12699999809E+01 0.  1.
</event>
<event>
 5   0  0.2944089E-05  0.2352972E+04  0.7818609E-02  0.8457323E-01
       -1   -1    0    0    0  501  0.00000000000E+00  0.00000000000E+00  0.83991697197E+03  0.83991697199E+03  0.50400001928E-02 0. -1.
        1   -1    0    0  501    0  0.00000000000E+00  0.00000000000E+00 -0.16479245724E+04  0.16479245724E+04  0.50400001928E-02 0.  1.
    10030    2    1    2    0    0  0.00000000000E+00  0.00000000000E+00 -0.80800760042E+03  0.24878415444E+04  0.23529724324E+04 0.  0.
        5    1    3    3  502    0 -0.35781709236E+03 -0.10488312946E+04  0.13627108014E+02  0.11082815275E+04  0.46999998093E+01 0. -1.
       -5    1    3    3    0  502  0.35781709236E+03  0.10488312946E+04 -0.82163470844E+03  0.13795600169E+04  0.46999998093E+01 0.  1.
</event>
<event>
 5   0  0.6702421E-05  0.2267536E+04  0.7818609E-02  0.8490832E-01
        2   -1    0    0  501    0  0.00000000000E+00  0.00000000000E+00  0.12874215448E+04  0.12874215448E+04  0.25500000920E-02 0.  1.
       -2   -1    0    0    0  501  0.00000000000E+00  0.00000000000E+00 -0.99845295375E+03  0.99845295375E+03  0.25500000920E-02 0. -1.
    10030    2    1    2    0    0  0.00000000000E+00  0.00000000000E+00  0.28896859101E+03  0.22858744985E+04  0.22675359703E+04 0.  0.
        4    1    3    3  502    0  0.49555316758E+03  0.65458086707E+03 -0.64374671951E+03  0.10432931061E+04  0.12699999809E+01 0. -1.
       -4    1    3    3    0  502 -0.49555316758E+03 -0.65458086707E+03  0.93271531053E+03  0.12425813924E+04  0.12699999809E+01 0.  1.
</event>
<event>
 5   0  0.2982385E-05  0.2257800E+04  0.7818609E-02  0.8494748E-01
        1   -1    0    0  501    0  0.00000000000E+00  0.00000000000E+00  0.14942474055E+04  0.14942474055E+04  0.50400001928E-02 0. -1.
       -1   -1    0    0    0  501  0.00000000000E+00  0.00000000000E+00 -0.85288064464E+03  0.85288064465E+03  0.50400001928E-02 0.  1.
    10030    2    1    2    0    0  0.00000000000E+00  0.00000000000E+00  0.64136676086E+03  0.23471280502E+04  0.22577995398E+04 0.  0.
        4    1    3    3  502    0 -0.31455048085E+03  0.86742127934E+03 -0.35547427598E+03  0.98879990627E+03  0.12699999809E+01 0.  1.
       -4    1    3    3    0  502  0.31455048085E+03 -0.86742127934E+03  0.99684103683E+03  0.13583281439E+04  0.12699999809E+01 0. -1.
</event>
<event>
 5   0  0.2962279E-05  0.2296900E+04  0.7818609E-02  0.8479145E-01
       -1   -1    0    0    0  501  0.00000000000E+00  0.00000000000E+00  0.72477795030E+03  0.72477795032E+03  0.50400001928E-02 0.  1.
        1   -1    0    0  501    0  0.00000000000E+00  0.00000000000E+00 -0.18197808700E+04  0.18197808700E+04  0.50400001928E-02 0. -1.
    10030    2    1    2    0    0  0.00000000000E+00  0.00000000000E+00 -0.10950029197E+04  0.25445588204E+04  0.22968996922E+04 0.  0.
        1    1    3    3  502    0 -0.33438932085E+03  0.10706383069E+04 -0.82078698216E+03  0.13898826829E+04  0.50400001928E-02 0. -1.
       -1    1    3    3    0  502  0.33438932085E+03 -0.10706383069E+04 -0.27421593758E+03  0.11546761375E+04  0.50400001928E-02 0.  1.
</event>
<event>
 5   0  0.6814789E-05  0.2293328E+04  0.7818609E-02  0.8480556E-01
       -2   -1    0    0    0  501  0.00000000000E+00  0.00000000000E+00  0.94602819365E+03  0.94602819365E+03  0.25500000920E-02 0. -1.
        2   -1    0    0  501    0  0.00000000000E+00  0.00000000000E+00 -0.13898516839E+04  0.13898516839E+04  0.25500000920E-02 0.  1.
    10030    2    1    2    0    0  0.00000000000E+00  0.00000000000E+00 -0.44382349025E+03  0.23358798776E+04  0.22933284788E+04 0.  0.
        1    1    3    3  502    0 -0.79089599123E+03 -0.82778382232E+03 -0.28710203353E+03  0.11803262698E+04  0.50400001928E-02 0.  1.
       -1    1    3    3    0  502  0.79089599123E+03  0.82778382232E+03 -0.15672145672E+03  0.11555536078E+04  0.50400001928E-02 0. -1.
</event>
<event>
 5   0  0.2944089E-05  0.2383534E+04  0.7818609E-02  0.8445694E-01
       -1   -1    0    0    0  501  0.00000000000E+00  0.00000000000E+00  0.91623879080E+03  0.91623879082E+03  0.50400001928E-02 0.  1.
        1   -1    0    0  501    0  0.00000000000E+00  0.00000000000E+00 -0.15501512325E+04  0.15501512325E+04  0.50400001928E-02 0. -1.
    10030    2    1    2    0    0  0.00000000000E+00  0.00000000000E+00 -0.63391244173E+03  0.24663900234E+04  0.23835340911E+04 0.  0.
        5    1    3    3  502    0 -0.26616348375E+03 -0.11349170064E+04 -0.57337468235E+03  0.12990997759E+04  0.46999998093E+01 0. -1.
       -5    1    3    3    0  502  0.26616348375E+03  0.11349170064E+04 -0.60537759378E+02  0.11672902474E+04  0.46999998093E+01 0.  1.
</event>
<event>
 5   0  0.6702421E-05  0.2269644E+04  0.7818609E-02  0.8489987E-01
       -2   -1    0    0    0  501  0.00000000000E+00  0.00000000000E+00  0.29000510879E+04  0.29000510879E+04  0.25500000920E-02 0.  1.
        2   -1    0    0  501    0  0.00000000000E+00  0.00000000000E+00 -0.44406849818E+03  0.44406849818E+03  0.25500000920E-02 0. -1.
    10030    2    1    2    0    0  0.00000000000E+00  0.00000000000E+00  0.24559825897E+04  0.33441195861E+04  0.22696443168E+04 0.  0.
        4    1    3    3  502    0  0.10620694176E+04 -0.31776020720E+03  0.87053575768E+03  0.14095379085E+04  0.12699999809E+01 0. -1.
       -4    1    3    3    0  502 -0.10620694176E+04  0.31776020720E+03  0.15854468320E+04  0.19345816776E+04  0.12699999809E+01 0.  1.
</event>
<event>
 5   0  0.6814789E-05  0.2277571E+04  0.7818609E-02  0.8486818E-01
       -2   -1    0    0    0  501  0.00000000000E+00  0.00000000000E+00  0.44816780197E+03  0.44816780198E+03  0.25500000920E-02 0.  1.
        2   -1    0    0  501    0  0.00000000000E+00  0.00000000000E+00 -0.28936305807E+04  0.28936305807E+04  0.25500000920E-02 0. -1.
    10030    2    1    2    0    0  0.00000000000E+00  0.00000000000E+00 -0.24454627787E+04  0.33417983826E+04  0.22775706857E+04 0.  0.
        1    1    3    3  502    0 -0.24744777833E+03  0.72686427098E+03  0.11228361722E+02  0.76791154930E+03  0.50400001928E-02 0.  1.
       -1    1    3    3    0  502  0.24744777833E+03 -0.72686427098E+03 -0.24566911404E+04  0.25738868333E+04  0.50400001928E-02 0. -1.
</event>
<event>
 5   0  0.6468758E-05  0.2306735E+04  0.7818609E-02  0.8475270E-01
        2   -1    0    0  501    0  0.00000000000E+00  0.00000000000E+00  0.18527129511E+04  0.18527129511E+04  0.25500000920E-02 0.  1.
       -2   -1    0    0    0  501  0.00000000000E+00  0.00000000000E+00 -0.71800473185E+03  0.71800473186E+03  0.25500000920E-02 0. -1.
    10030    2    1    2    0    0  0.00000000000E+00  0.00000000000E+00  0.11347082192E+04  0.25707176830E+04  0.23067350655E+04 0.  0.
        3    1    3    3  502    0  0.10599162542E+04  0.43087927483E+03  0.72953188781E+03  0.13569436985E+04  0.10100000352E+00 0.  1.
       -3    1    3    3    0  502 -0.10599162542E+04 -0.43087927483E+03  0.40517633143E+03  0.12137739844E+04  0.10100000352E+00 0. -1.
</event>
<event>
 5   0  0.6676612E-05  0.2238263E+04  0.7818609E-02  0.8502669E-01
       -2   -1    0    0    0  501  0.00000000000E+00  0.00000000000E+00  0.12645081223E+04  0.12645081223E+04  0.25500000920E-02 0.  1.
        2   -1    0    0  501    0  0.00000000000E+00  0.00000000000E+00 -0.99046800791E+03  0.99046800791E+03  0.25500000920E-02 0. -1.
    10030    2    1    2    0    0  0.00000000000E+00  0.00000000000E+00  0.27404011439E+03  0.22549761302E+04  0.22382625770E+04 0.  0.
        2    1    3    3  502    0 -0.69814305270E+03  0.85544298575E+03  0.32077836530E+03  0.11498196309E+04  0.25500000920E-02 0. -1.
       -2    1    3    3    0  502  0.69814305270E+03 -0.85544298575E+03 -0.46738250911E+02  0.11051564993E+04  0.25500000920E-02 0.  1.
</event>
<event>
 5   0  0.6814789E-05  0.2191218E+04  0.7818609E-02  0.8522092E-01
        2   -1    0    0  501    0  0.00000000000E+00  0.00000000000E+00  0.17130503136E+04  0.17130503136E+04  0.25500000920E-02 0.  1.
       -2   -1    0    0    0  501  0.00000000000E+00  0.00000000000E+00 -0.70071415761E+03  0.70071415762E+03  0.25500000920E-02 0. -1.
    10030    2    1    2    0    0  0.00000000000E+00  0.00000000000E+00  0.10123361560E+04  0.24137644712E+04  0.21912175679E+04 0.  0.
        1    1    3    3  502    0 -0.72309763540E+03 -0.73363587584E+03  0.91725458002E+03  0.13792924828E+04  0.50400001928E-02 0.  1.
       -1    1    3    3    0  502  0.72309763540E+03  0.73363587584E+03  0.95081575980E+02  0.10344719884E+04  0.50400001928E-02 0. -1.
</event>
<event>
 5   0  0.6468758E-05  0.2311943E+04  0.7818609E-02  0.8473227E-01
        2   -1    0    0  501    0  0.00000000000E+00  0.00000000000E+00  0.18705638115E+04  0.18705638115E+04  0.25500000920E-02 0. -1.
       -2   -1    0    0    0  501  0.00000000000E+00  0.00000000000E+00 -0.71436739525E+03  0.71436739526E+03  0.25500000920E-02 0.  1.
    10030    2    1    2    0    0  0.00000000000E+00  0.00000000000E+00  0.11561964162E+04  0.25849312067E+04  0.23119427308E+04 0.  0.
        3    1    3    3  502    0 -0.42371856723E+03  0.10754491095E+04  0.59140174218E+03  0.12984160512E+04  0.10100000352E+00 0. -1.
       -3    1    3    3    0  502  0.42371856723E+03 -0.10754491095E+04  0.56479467405E+03  0.12865151555E+04  0.10100000352E+00 0.  1.
</event>
<event>
 5   0  0.6676612E-05  0.2307085E+04  0.7818609E-02  0.8475133E-01
       -2   -1    0    0    0  501  0.00000000000E+00  0.00000000000E+00  0.12545834835E+04  0.12545834835E+04  0.25500000920E-02 0.  1.
        2   -1    0    0  501    0  0.00000000000E+00  0.00000000000E+00 -0.10606389627E+04  0.10606389627E+04  0.25500000920E-02 0. -1.
    10030    2    1    2    0    0  0.00000000000E+00  0.00000000000E+00  0.19394452078E+03  0.23152224462E+04  0.23070848486E+04 0.  0.
        2    1    3    3  502    0  0.68309680981E+03 -0.86231573394E+03 -0.25131161412E+03  0.11284357332E+04  0.25500000920E-02 0. -1.
       -2    1    3    3    0  502 -0.68309680981E+03  0.86231573394E+03  0.44525613491E+03  0.11867867130E+04  0.25500000920E-02 0.  1.
</event>
<event>
 5   0  0.3118614E-05  0.2290365E+04  0.7818609E-02  0.8481730E-01
       -1   -1    0    0    0  501  0.00000000000E+00  0.00000000000E+00  0.14097608526E+04  0.14097608526E+04  0.50400001928E-02 0.  1.
        1   -1    0    0  501    0  0.00000000000E+00  0.00000000000E+00 -0.93025890327E+03  0.93025890328E+03  0.50400001928E-02 0. -1.
    10030    2    1    2    0    0  0.00000000000E+00  0.00000000000E+00  0.47950194929E+03  0.23400197559E+04  0.22903646737E+04 0.  0.
        3    1    3    3  502    0 -0.66390914407E+03  0.75039536273E+03 -0.32686617311E+03  0.10539022997E+04  0.10100000352E+00 0. -1.
       -3    1    3    3    0  502  0.66390914407E+03 -0.75039536273E+03  0.80636812241E+03  0.12861174562E+04  0.10100000352E+00 0.  1.
</event>
<event>
 5   0  0.2962279E-05  0.2455517E+04  0.7818609E-02  0.8419006E-01
        1   -1    0    0  501    0  0.00000000000E+00  0.00000000000E+00  0.20560698389E+04  0.20560698389E+04  0.50400001928E-02 0.  1.
       -1   -1    0    0    0  501  0.00000000000E+00  0.00000000000E+00 -0.73314179861E+03  0.73314179862E+03  0.50400001928E-02 0. -1.
    10030    2    1    2    0    0  0.00000000000E+00  0.00000000000E+00  0.13229280403E+04  0.27892116375E+04  0.24555168415E+04 0.  0.
        1    1    3    3  502    0 -0.86283108991E+03 -0.50394271900E+03  0.14718244722E+04  0.17789612224E+04  0.50400001928E-02 0.  1.
       -1    1    3    3    0  502  0.86283108991E+03  0.50394271900E+03 -0.14889643195E+03  0.10102504151E+04  0.50400001928E-02 0. -1.
</event>
<event>
 5   0  0.6676612E-05  0.2334061E+04  0.7818609E-02  0.8464611E-01
        2   -1    0    0  501    0  0.00000000000E+00  0.00000000000E+00  0.15940342689E+04  0.15940342689E+04  0.25500000920E-02 0. -1.
       -2   -1    0    0    0  501  0.00000000000E+00  0.00000000000E+00 -0.85441083770E+03  0.85441083771E+03  0.25500000920E-02 0.  1.
    10030    2    1    2    0    0  0.00000000000E+00  0.00000000000E+00  0.73962343118E+03  0.24484451066E+04  0.23340609718E+04 0.  0.
        2    1    3    3  502    0 -0.96951016072E+03  0.29213900625E+03 -0.23885164882E+03  0.10403582368E+04  0.25500000920E-02 0.  1.
       -2    1    3    3    0  502  0.96951016072E+03 -0.29213900625E+03  0.97847508000E+03  0.14080868698E+04  0.25500000920E-02 0. -1.
</event>
<event>
 5   0  0.6495405E-05  0.2400932E+04  0.7818609E-02  0.8439155E-01
       -2   -1    0    0    0  501  0.00000000000E+00  0.00000000000E+00  0.14305222134E+04  0.14305222134E+04  0.25500000920E-02 0. -1.
        2   -1    0    0  501    0  0.00000000000E+00  0.00000000000E+00 -0.10074071347E+04  0.10074071347E+04  0.25500000920E-02 0.  1.
    10030    2    1    2    0    0  0.00000000000E+00  0.00000000000E+00  0.42311507878E+03  0.24379293481E+04  0.24009317226E+04 0.  0.
        5    1    3    3  502    0  0.58780039216E+03  0.99770910582E+02  0.12695504447E+04  0.14025847416E+04  0.46999998093E+01 0. -1.
       -5    1    3    3    0  502 -0.58780039216E+03 -0.99770910582E+02 -0.84643536592E+03  0.10353446065E+04  0.46999998093E+01 0.  1.
</event>
<event>
 5   0  0.6495405E-05  0.2323308E+04  0.7818609E-02  0.8468787E-01
       -2   -1    0    0    0  501  0.00000000000E+00  0.00000000000E+00  0.83311207843E+03  0.83311207843E+03  0.25500000920E-02 0.  1.
        2   -1    0    0  501    0  0.00000000000E+00  0.00000000000E+00 -0.16197581671E+04  0.16197581671E+04  0.25500000920E-02 0. -1.
    10030    2    1    2    0    0  0.00000000000E+00  0.00000000000E+00 -0.78664608868E+03  0.24528702456E+04  0.23233080667E+04 0.  0.
        5    1    3    3  502    0 -0.78341692162E+03 -0.13167216016E+03 -0.12881360915E+04  0.15134055342E+04  0.46999998093E+01 0. -1.
       -5    1    3    3    0  502  0.78341692162E+03  0.13167216016E+03  0.50149000283E+03  0.93946471130E+03  0.46999998093E+01 0.  1.
</event>
<event>
 5   0  0.2982385E-05  0.2291855E+04  0.7818609E-02  0.8481139E-01
       -1   -1    0    0    0  501  0.00000000000E+00  0.00000000000E+00  0.83105242358E+03  0.83105242360E+03  0.50400001928E-02 0.  1.
        1   -1    0    0  501    0  0.00000000000E+00  0.00000000000E+00 -0.15801047169E+04  0.15801047169E+04  0.50400001928E-02 0. -1.
    10030    2    1    2    0    0  0.00000000000E+00  0.00000000000E+00 -0.74905229328E+03  0.24111571405E+04  0.22918550168E+04 0.  0.
        4    1    3    3  502    0  0.70069477289E+02  0.95810989139E+03  0.28270417305E+03  0.10014027951E+04  0.12699999809E+01 0.  1.
       -4    1    3    3    0  502 -0.70069477289E+02 -0.95810989139E+03 -0.10317564663E+04  0.14097543454E+04  0.12699999809E+01 0. -1.
</event>
<event>
 5   0  0.2944089E-05  0.2311004E+04  0.7818609E-02  0.8473595E-01
       -1   -1    0    0    0  501  0.00000000000E+00  0.00000000000E+00  0.11540604526E+04  0.11540604526E+04  0.50400001928E-02 0.  1.
        1   -1    0    0  501    0  0.00000000000E+00  0.00000000000E+00 -0.11569451583E+04  0.11569451584E+04  0.50400001928E-02 0. -1.
    10030    2    1    2    0    0  0.00000000000E+00  0.00000000000E+00 -0.28847057106E+01  0.23110056110E+04  0.23110038106E+04 0.  0.
        5    1    3    3  502    0  0.10331457828E+04 -0.37077299870E+03  0.35952847849E+03  0.11550522248E+04  0.46999998093E+01 0. -1.
       -5    1    3    3    0  502 -0.10331457828E+04  0.37077299870E+03 -0.36241318420E+03  0.11559533862E+04  0.46999998093E+01 0.  1.
</event>
<event>
 5   0  0.6814789E-05  0.2349151E+04  0.7818609E-02  0.8458790E-01
        2   -1    0    0  501    0  0.00000000000E+00  0.00000000000E+00  0.18665035552E+04  0.18665035552E+04  0.25500000920E-02 0.  1.
       -2   -1    0    0    0  501  0.00000000000E+00  0.00000000000E+00 -0.73915072162E+03  0.73915072162E+03  0.25500000920E-02 0. -1.
    10030    2    1    2    0    0  0.00000000000E+00  0.00000000000E+00  0.11273528335E+04  0.26056542768E+04  0.23491508676E+04 0.  0.
        1    1    3    3  502    0 -0.10430247490E+04 -0.53618035485E+03  0.63587990163E+03  0.13340664336E+04  0.50400001928E-02 0.  1.
       -1    1    3    3    0  502  0.10430247490E+04  0.53618035485E+03  0.49147293190E+03  0.12715878431E+04  0.50400001928E-02 0. -1.
</event>
<event>
 5   0  0.6702421E-05  0.2305981E+04  0.7818609E-02  0.8475566E-01
       -2   -1    0    0    0  501  0.00000000000E+00  0.00000000000E+00  0.46407329303E+03  0.46407329304E+03  0.25500000920E-02 0.  1.
        2   -1    0    0  501    0  0.00000000000E+00  0.00000000000E+00 -0.28646071357E+04  0.28646071357E+04  0.25500000920E-02 0. -1.
    10030    2    1    2    0    0  0.00000000000E+00  0.00000000000E+00 -0.24005338426E+04  0.33286804287E+04  0.23059814975E+04 0.  0.
        4    1    3    3  502    0 -0.45775979658E+02  0.76694848923E+03  0.40705682356E+02  0.76939196183E+03  0.12699999809E+01 0.  1.
       -4    1    3    3    0  502  0.45775979658E+02 -0.76694848923E+03 -0.24412395250E+04  0.25592884669E+04  0.12699999809E+01 0. -1.
</event>
<event>
 5   0  0.6676612E-05  0.2272080E+04  0.7818609E-02  0.8489012E-01
        2   -1    0    0  501    0  0.00000000000E+00  0.00000000000E+00  0.22266879395E+04  0.22266879395E+04  0.25500000920E-02 0. -1.
       -2   -1    0    0    0  501  0.00000000000E+00  0.00000000000E+00 -0.57959929382E+03  0.57959929383E+03  0.25500000920E-02 0.  1.
    10030    2    1    2    0    0  0.00000000000E+00  0.00000000000E+00  0.16470886457E+04  0.28062872333E+04  0.22720798906E+04 0.  0.
        2    1    3    3  502    0  0.87174012484E+03 -0.51490154100E+03  0.14599986061E+04  0.17766964772E+04  0.25500000920E-02 0. -1.
       -2    1    3    3    0  502 -0.87174012484E+03  0.51490154100E+03  0.18709003953E+03  0.10295907561E+04  0.25500000920E-02 0.  1.
</event>
<event>
 5   0  0.6676612E-05  0.2310595E+04  0.7818609E-02  0.8473755E-01
       -2   -1    0    0    0  501  0.00000000000E+00  0.00000000000E+00  0.98592105679E+03  0.98592105680E+03  0.25500000920E-02 0.  1.
        2   -1    0    0  501    0  0.00000000000E+00  0.00000000000E+00 -0.13537720145E+04  0.13537720145E+04  0.25500000920E-02 0. -1.
    10030    2    1    2    0    0  0.00000000000E+00  0.00000000000E+00 -0.36785095770E+03  0.23396930713E+04  0.23105950188E+04 0.  0.
        2    1    3    3  502    0 -0.11260227966E+04 -0.38856490819E+02 -0.44263300391E+03  0.12105210207E+04  0.25500000920E-02 0.  1.
       -2    1    3    3    0  502  0.11260227966E+04  0.38856490819E+02  0.74782046213E+02  0.11291720506E+04  0.25500000920E-02 0. -1.
</event>
<event>
 5   0  0.2342500E-05  0.2303098E+04  0.7818609E-02  0.8476701E-01
       -4   -1    0    0    0  501  0.00000000000E+00  0.00000000000E+00  0.93080902595E+03  0.93080989234E+03  0.12699999809E+01 0. -1.
        4   -1    0    0  501    0  0.00000000000E+00  0.00000000000E+00 -0.14246355558E+04  0.14246361218E+04  0.12699999809E+01 0.  1.
    10030    2    1    2    0    0  0.00000000000E+00  0.00000000000E+00 -0.49382652981E+03  0.23554460142E+04  0.23030981925E+04 0.  0.
        5    1    3    3  502    0  0.10514098948E+04  0.45422630461E+03 -0.36903814297E+03  0.12033268649E+04  0.46999998093E+01 0.  1.
       -5    1    3    3    0  502 -0.10514098948E+04 -0.45422630461E+03 -0.12478838684E+03  0.11521191493E+04  0.46999998093E+01 0. -1.
</event>
<event>
 5   0  0.3118614E-05  0.2036216E+04  0.7818609E-02  0.8589873E-01
        1   -1    0    0  501    0  0.00000000000E+00  0.00000000000E+00  0.94228545620E+03  0.94228545621E+03  0.50400001928E-02 0. -1.
       -1   -1    0    0    0  501  0.00000000000E+00  0.00000000000E+00 -0.11000322616E+04  0.11000322616E+04  0.50400001928E-02 0.  1.
    10030    2    1    2    0    0  0.00000000000E+00  0.00000000000E+00 -0.15774680539E+03  0.20423177178E+04  0.20362164929E+04 0.  0.
        3    1    3    3  502    0  0.53318242133E+03  0.48450484035E+03  0.64266795067E+03  0.96542764605E+03  0.10100000352E+00 0. -1.
       -3    1    3    3    0  502 -0.53318242133E+03 -0.48450484035E+03 -0.80041475606E+03  0.10768900718E+04  0.10100000352E+00 0.  1.
</event>
<event>
 5   0  0.6495405E-05  0.1938350E+04  0.7818609E-02  0.8635999E-01
       -2   -1    0    0    0  501  0.00000000000E+00  0.00000000000E+00  0.66261964864E+03  0.66261964864E+03  0.25500000920E-02 0. -1.
        2   -1    0    0  501    0  0.00000000000E+00  0.00000000000E+00 -0.14175557752E+04  0.14175557753E+04  0.25500000920E-02 0.  1.
    10030    2    1    2    0    0  0.00000000000E+00  0.00000000000E+00 -0.75493612661E+03  0.20801754239E+04  0.19383501332E+04 0.  0.
        5    1    3    3  502    0  0.41676952618E+03  0.48304200610E+03 -0.11604041359E+04  0.13242304430E+04  0.46999998093E+01 0.  1.
       -5    1    3    3    0  502 -0.41676952618E+03 -0.48304200610E+03  0.40546800926E+03  0.75594498090E+03  0.46999998093E+01 0. -1.
</event>
<event>
 5   0  0.6814789E-05  0.2295823E+04  0.7818609E-02  0.8479570E-01
        2   -1    0    0  501    0  0.00000000000E+00  0.00000000000E+00  0.88461444300E+03  0.88461444301E+03  0.25500000920E-02 0. -1.
       -2   -1    0    0    0  501  0.00000000000E+00  0.00000000000E+00 -0.14895762735E+04  0.14895762735E+04  0.25500000920E-02 0.  1.
    10030    2    1    2    0    0  0.00000000000E+00  0.00000000000E+00 -0.60496183046E+03  0.23741907165E+04  0.22958228899E+04 0.  0.
        1    1    3    3  502    0  0.21082043960E+03 -0.81027301451E+03 -0.11145982806E+04  0.13940290323E+04  0.50400001928E-02 0.  1.
       -1    1    3    3    0  502 -0.21082043960E+03  0.81027301451E+03  0.50963645013E+03  0.98016168417E+03  0.50400001928E-02 0. -1.
</event>
<event>
 5   0  0.2982385E-05  0.2248284E+04  0.7818609E-02  0.8498596E-01
       -1   -1    0    0    0  501  0.00000000000E+00  0.00000000000E+00  0.45501121552E+03  0.45501121555E+03  0.50400001928E-02 0. -1.
        1   -1    0    0  501    0  0.00000000000E+00  0.00000000000E+00 -0.27772847620E+04  0.27772847620E+04  0.50400001928E-02 0.  1.
    10030    2    1    2    0    0  0.00000000000E+00  0.00000000000E+00 -0.23222735464E+04  0.32322959775E+04  0.22482844264E+04 0.  0.
        4    1    3    3  502    0 -0.38305494997E+03  0.85168330687E+03 -0.26147263648E+03  0.96977580009E+03  0.12699999809E+01 0. -1.
       -4    1    3    3    0  502  0.38305494997E+03 -0.85168330687E+03 -0.20608009100E+04  0.22625201774E+04  0.12699999809E+01 0.  1.
</event>
<event>
 5   0  0.3118614E-05  0.2287684E+04  0.7818609E-02  0.8482793E-01
       -1   -1    0    0    0  501  0.00000000000E+00  0.00000000000E+00  0.79275392331E+03  0.79275392333E+03  0.50400001928E-02 0. -1.
        1   -1    0    0  501    0  0.00000000000E+00  0.00000000000E+00 -0.16504165597E+04  0.16504165597E+04  0.50400001928E-02 0.  1.
    10030    2    1    2    0    0  0.00000000000E+00  0.00000000000E+00 -0.85766263636E+03  0.24431704830E+04  0.22876837218E+04 0.  0.
        3    1    3    3  502    0 -0.73071860309E+02  0.60716749206E+03  0.60350237006E+03  0.85918972354E+03  0.10100000352E+00 0. -1.
       -3    1    3    3    0  502  0.73071860309E+02 -0.60716749206E+03 -0.14611650064E+04  0.15839807595E+04  0.10100000352E+00 0.  1.
</event>
<event>
 5   0  0.6495405E-05  0.2276530E+04  0.7818609E-02  0.8487233E-01
        2   -1    0    0  501    0  0.00000000000E+00  0.00000000000E+00  0.91305012245E+03  0.91305012246E+03  0.25500000920E-02 0. -1.
       -2   -1    0    0    0  501  0.00000000000E+00  0.00000000000E+00 -0.14190314867E+04  0.14190314867E+04  0.25500000920E-02 0.  1.
    10030    2    1    2    0    0  0.00000000000E+00  0.00000000000E+00 -0.50598136424E+03  0.23320816092E+04  0.22765297035E+04 0.  0.
        5    1    3    3  502    0  0.82156382548E+02 -0.10912620429E+04 -0.57371566455E+03  0.12356270761E+04  0.46999998093E+01 0. -1.
       -5    1    3    3    0  502 -0.82156382548E+02  0.10912620429E+04  0.67734300316E+02  0.10964545330E+04  0.46999998093E+01 0.  1.
</event>
<event>
 5   0  0.6495405E-05  0.2301979E+04  0.7818609E-02  0.8477141E-01
        2   -1    0    0  501    0  0.00000000000E+00  0.00000000000E+00  0.16953574216E+04  0.16953574216E+04  0.25500000920E-02 0. -1.
       -2   -1    0    0    0  501  0.00000000000E+00  0.00000000000E+00 -0.78141414615E+03  0.78141414616E+03  0.25500000920E-02 0.  1.
    10030    2    1    2    0    0  0.00000000000E+00  0.00000000000E+00  0.91394327549E+03  0.24767715678E+04  0.23019785160E+04 0.  0.
        5    1    3    3  502    0 -0.98144652277E+03 -0.57111562869E+03  0.25469693284E+03  0.11637452281E+04  0.46999998093E+01 0. -1.
       -5    1    3    3    0  502  0.98144652277E+03  0.57111562869E+03  0.65924634265E+03  0.13130263397E+04  0.46999998093E+01 0.  1.
</event>
<event>
 5   0  0.6676612E-05  0.2259729E+04  0.7818609E-02  0.8493971E-01
       -2   -1    0    0    0  501  0.00000000000E+00  0.00000000000E+00  0.96153982817E+03  0.96153982818E+03  0.25500000920E-02 0. -1.
        2   -1    0    0  501    0  0.00000000000E+00  0.00000000000E+00 -0.13276551184E+04  0.13276551184E+04  0.25500000920E-02 0.  1.
    10030    2    1    2    0    0  0.00000000000E+00  0.00000000000E+00 -0.36611529019E+03  0.22891949465E+04  0.22597285451E+04 0.  0.
        2    1    3    3  502    0 -0.10234641437E+04 -0.44419163692E+03 -0.36373183940E+03  0.11734930399E+04  0.25500000920E-02 0. -1.
       -2    1    3    3    0  502  0.10234641437E+04  0.44419163692E+03 -0.23834507925E+01  0.11157019067E+04  0.25500000920E-02 0.  1.
</event>
<event>
 5   0  0.6702421E-05  0.2100382E+04  0.7818609E-02  0.8561075E-01
       -2   -1    0    0    0  501  0.00000000000E+00  0.00000000000E+00  0.89923235389E+03  0.89923235389E+03  0.25500000920E-02 0. -1.
        2   -1    0    0  501    0  0.00000000000E+00  0.00000000000E+00 -0.12264914718E+04  0.12264914718E+04  0.25500000920E-02 0.  1.
    10030    2    1    2    0    0  0.00000000000E+00  0.00000000000E+00 -0.32725911796E+03  0.21257238257E+04  0.21003816922E+04 0.  0.
        4    1    3    3  502    0 -0.86744186639E+03  0.57811940706E+03 -0.34728168674E+02  0.10430173052E+04  0.12699999809E+01 0. -1.
       -4    1    3    3    0  502  0.86744186639E+03 -0.57811940706E+03 -0.29253094928E+03  0.10827065205E+04  0.12699999809E+01 0.  1.
</event>
<event>
 5   0  0.2962279E-05  0.2279160E+04  0.7818609E-02  0.8486184E-01
        1   -1    0    0  501    0  0.00000000000E+00  0.00000000000E+00  0.20243038480E+04  0.20243038480E+04  0.50400001928E-02 0.  1.
       -1   -1    0    0    0  501  0.00000000000E+00  0.00000000000E+00 -0.64152567151E+03  0.64152567153E+03  0.50400001928E-02 0. -1.
    10030    2    1    2    0    0  0.00000000000E+00  0.00000000000E+00  0.13827781765E+04  0.26658295196E+04  0.22791602712E+04 0.  0.
        1    1    3    3  502    0  0.62336665315E+03  0.90455159101E+03  0.33691761121E+03  0.11490487552E+04  0.50400001928E-02 0. -1.
       -1    1    3    3    0  502 -0.62336665315E+03 -0.90455159101E+03  0.10458605653E+04  0.15167807644E+04  0.50400001928E-02 0.  1.
</event>
<event>
 5   0  0.2962279E-05  0.2308246E+04  0.7818609E-02  0.8474677E-01
        1   -1    0    0  501    0  0.00000000000E+00  0.00000000000E+00  0.20146318337E+04  0.20146318337E+04  0.50400001928E-02 0.  1.
       -1   -1    0    0    0  501  0.00000000000E+00  0.00000000000E+00 -0.66116289600E+03  0.66116289602E+03  0.50400001928E-02 0. -1.
    10030    2    1    2    0    0  0.00000000000E+00  0.00000000000E+00  0.13534689377E+04  0.26757947297E+04  0.23082459294E+04 0.  0.
        1    1    3    3  502    0  0.72661299548E+03 -0.84695701213E+03  0.10180635027E+04  0.15105482187E+04  0.50400001928E-02 0.  1.
       -1    1    3    3    0  502 -0.72661299548E+03  0.84695701213E+03  0.33540543505E+03  0.11652465110E+04  0.50400001928E-02 0. -1.
</event>
<event>
 5   0  0.3118614E-05  0.1851083E+04  0.7818609E-02  0.8679596E-01
        1   -1    0    0  501    0  0.00000000000E+00  0.00000000000E+00  0.18559799238E+04  0.18559799238E+04  0.50400001928E-02 0.  1.
       -1   -1    0    0    0  501  0.00000000000E+00  0.00000000000E+00 -0.46154973198E+03  0.46154973201E+03  0.50400001928E-02 0. -1.
    10030    2    1    2    0    0  0.00000000000E+00  0.00000000000E+00  0.13944301918E+04  0.23175296558E+04  0.18510829656E+04 0.  0.
        3    1    3    3  502    0  0.23769854024E+02  0.31707273421E+03  0.17854543370E+04  0.18135455121E+04  0.10100000352E+00 0.  1.
       -3    1    3    3    0  502 -0.23769854024E+02 -0.31707273421E+03 -0.39102414521E+03  0.50398414368E+03  0.10100000352E+00 0. -1.
</event>
<event>
 5   0  0.6814789E-05  0.1669713E+04  0.7818609E-02  0.8778829E-01
       -2   -1    0    0    0  501  0.00000000000E+00  0.00000000000E+00  0.53151836559E+03  0.53151836559E+03  0.25500000920E-02 0. -1.
        2   -1    0    0  501    0  0.00000000000E+00  0.00000000000E+00 -0.13113101846E+04  0.13113101846E+04  0.25500000920E-02 0.  1.
    10030    2    1    2    0    0  0.00000000000E+00  0.00000000000E+00 -0.77979181902E+03  0.18428285502E+04  0.16697130845E+04 0.  0.
        1    1    3    3  502    0 -0.19934154650E+02  0.22890637843E+03  0.49593341392E+03  0.54657611700E+03  0.50400001928E-02 0. -1.
       -1    1    3    3    0  502  0.19934154650E+02 -0.22890637843E+03 -0.12757252329E+04  0.12962524332E+04  0.50400001928E-02 0.  1.
</event>
<event>
 5   0  0.6702421E-05  0.2360206E+04  0.7818609E-02  0.8454554E-01
        2   -1    0    0  501    0  0.00000000000E+00  0.00000000000E+00  0.30973045967E+04  0.30973045967E+04  0.25500000920E-02 0.  1.
       -2   -1    0    0    0  501  0.00000000000E+00  0.00000000000E+00 -0.44963050829E+03  0.44963050830E+03  0.25500000920E-02 0. -1.
    10030    2    1    2    0    0  0.00000000000E+00  0.00000000000E+00  0.26476740884E+04  0.35469351050E+04  0.23602056183E+04 0.  0.
        4    1    3    3  502    0 -0.10002565045E+03  0.34242366005E+03  0.30143333171E+04  0.30353691791E+04  0.12699999809E+01 0.  1.
       -4    1    3    3    0  502  0.10002565045E+03 -0.34242366005E+03 -0.36665922869E+03  0.51156592595E+03  0.12699999809E+01 0. -1.
</event>
<event>
 5   0  0.2982385E-05  0.2269531E+04  0.7818609E-02  0.8490032E-01
       -1   -1    0    0    0  501  0.00000000000E+00  0.00000000000E+00  0.16837045350E+04  0.16837045350E+04  0.50400001928E-02 0.  1.
        1   -1    0    0  501    0  0.00000000000E+00  0.00000000000E+00 -0.76479729808E+03  0.76479729810E+03  0.50400001928E-02 0. -1.
    10030    2    1    2    0    0  0.00000000000E+00  0.00000000000E+00  0.91890723693E+03  0.24485018331E+04  0.22695309464E+04 0.  0.
        4    1    3    3  502    0  0.36250549688E+03 -0.95870704551E+03  0.98484934928E+03  0.14214286081E+04  0.12699999809E+01 0.  1.
       -4    1    3    3    0  502 -0.36250549688E+03  0.95870704551E+03 -0.65942112352E+02  0.10270732250E+04  0.12699999809E+01 0. -1.
</event>
<event>
 5   0  0.2944089E-05  0.2204851E+04  0.7818609E-02  0.8516412E-01
       -1   -1    0    0    0  501  0.00000000000E+00  0.00000000000E+00  0.95332811868E+03  0.95332811869E+03  0.50400001928E-02 0. -1.
        1   -1    0    0  501    0  0.00000000000E+00  0.00000000000E+00 -0.12748408917E+04  0.12748408917E+04  0.50400001928E-02 0.  1.
    10030    2    1    2    0    0  0.00000000000E+00  0.00000000000E+00 -0.32151277299E+03  0.22281690104E+04  0.22048507150E+04 0.  0.
        5    1    3    3  502    0 -0.39089657982E+03  0.79755427074E+03  0.49916332086E+03  0.10188616500E+04  0.46999998093E+01 0. -1.
       -5    1    3    3    0  502  0.39089657982E+03 -0.79755427074E+03 -0.82067609384E+03  0.12093073604E+04  0.46999998093E+01 0.  1.
</event>
<event>
 5   0  0.6814789E-05  0.2313877E+04  0.7818609E-02  0.8472469E-01
        2   -1    0    0  501    0  0.00000000000E+00  0.00000000000E+00  0.25052041550E+04  0.25052041550E+04  0.25500000920E-02 0. -1.
       -2   -1    0    0    0  501  0.00000000000E+00  0.00000000000E+00 -0.53429064258E+03  0.53429064259E+03  0.25500000920E-02 0.  1.
    10030    2    1    2    0    0  0.00000000000E+00  0.00000000000E+00  0.19709135124E+04  0.30394947976E+04  0.23138773846E+04 0.  0.
        1    1    3    3  502    0 -0.53302480886E+03 -0.28700970692E+03 -0.30962748799E+03  0.67996999939E+03  0.50400001928E-02 0.  1.
       -1    1    3    3    0  502  0.53302480886E+03  0.28700970692E+03  0.22805410004E+04  0.23595247982E+04  0.50400001928E-02 0. -1.
</event>
<event>
 5   0  0.3118614E-05  0.2282840E+04  0.7818609E-02  0.8484718E-01
        1   -1    0    0  501    0  0.00000000000E+00  0.00000000000E+00  0.17749007311E+04  0.17749007311E+04  0.50400001928E-02 0. -1.
       -1   -1    0    0    0  501  0.00000000000E+00  0.00000000000E+00 -0.73403509476E+03  0.73403509478E+03  0.50400001928E-02 0.  1.
    10030    2    1    2    0    0  0.00000000000E+00  0.00000000000E+00  0.10408656364E+04  0.25089358259E+04  0.22828398335E+04 0.  0.
        3    1    3    3  502    0  0.34264083276E+01 -0.42620104658E+03  0.16841617956E+04  0.17372564682E+04  0.10100000352E+00 0. -1.
       -3    1    3    3    0  502 -0.34264083276E+01  0.42620104658E+03 -0.64329615924E+03  0.77167935769E+03  0.10100000352E+00 0.  1.
</event>
<event>
 5   0  0.6676612E-05  0.2290845E+04  0.7818609E-02  0.8481539E-01
       -2   -1    0    0    0  501  0.00000000000E+00  0.00000000000E+00  0.51134065399E+03  0.51134065400E+03  0.25500000920E-02 0.  1.
        2   -1    0    0  501    0  0.00000000000E+00  0.00000000000E+00 -0.25657906668E+04  0.25657906668E+04  0.25500000920E-02 0. -1.
    10030    2    1    2    0    0  0.00000000000E+00  0.00000000000E+00 -0.20544500128E+04  0.30771313208E+04  0.22908453266E+04 0.  0.
        2    1    3    3  502    0  0.10116411253E+03 -0.11075498744E+04 -0.65914044073E+03  0.12928136070E+04  0.25500000920E-02 0. -1.
       -2    1    3    3    0  502 -0.10116411253E+03  0.11075498744E+04 -0.13953095721E+04  0.17843177138E+04  0.25500000920E-02 0.  1.
</event>
<event>
 5   0  0.6676612E-05  0.1853167E+04  0.7818609E-02  0.8678526E-01
        2   -1    0    0  501    0  0.00000000000E+00  0.00000000000E+00  0.97906101733E+03  0.97906101734E+03  0.25500000920E-02 0. -1.
       -2   -1    0    0    0  501  0.00000000000E+00  0.00000000000E+00 -0.87691914843E+03  0.87691914844E+03  0.25500000920E-02 0.  1.
    10030    2    1    2    0    0  0.00000000000E+00  0.00000000000E+00  0.10214186890E+03  0.18559801658E+04  0.18531674005E+04 0.  0.
        2    1    3    3  502    0 -0.82912519639E+03 -0.62086815192E+02 -0.35851678047E+03  0.90544886426E+03  0.25500000920E-02 0.  1.
       -2    1    3    3    0  502  0.82912519639E+03  0.62086815192E+02  0.46065864937E+03  0.95053130151E+03  0.25500000920E-02 0. -1.
</event>
<event>
 5   0  0.6702421E-05  0.2284601E+04  0.7818609E-02  0.8484017E-01
        2   -1    0    0  501    0  0.00000000000E+00  0.00000000000E+00  0.11771433301E+04  0.11771433301E+04  0.25500000920E-02 0.  1.
       -2   -1    0    0    0  501  0.00000000000E+00  0.00000000000E+00 -0.11084894034E+04  0.11084894034E+04  0.25500000920E-02 0. -1.
    10030    2    1    2    0    0  0.00000000000E+00  0.00000000000E+00  0.68653926700E+02  0.22856327334E+04  0.22846014161E+04 0.  0.
        4    1    3    3  502    0 -0.19796972919E+03 -0.86735192956E+02  0.11564991607E+04  0.11765232378E+04  0.12699999809E+01 0.  1.
       -4    1    3    3    0  502  0.19796972919E+03  0.86735192956E+02 -0.10878452340E+04  0.11091094957E+04  0.12699999809E+01 0. -1.
</event>
<event>
 5   0  0.6468758E-05  0.2187103E+04  0.7818609E-02  0.8523815E-01
        2   -1    0    0  501    0  0.00000000000E+00  0.00000000000E+00  0.19097760958E+04  0.19097760959E+04  0.25500000920E-02 0. -1.
       -2   -1    0    0    0  501  0.00000000000E+00  0.00000000000E+00 -0.62617560977E+03  0.62617560978E+03  0.25500000920E-02 0.  1.
    10030    2    1    2    0    0  0.00000000000E+00  0.00000000000E+00  0.12836004861E+04  0.25359517056E+04  0.21871033001E+04 0.  0.
        3    1    3    3  502    0  0.93782648382E+03  0.26229714563E+03  0.12186884382E+04  0.15599743030E+04  0.10100000352E+00 0. -1.
       -3    1    3    3    0  502 -0.93782648382E+03 -0.26229714563E+03  0.64912047904E+02  0.97597740267E+03  0.10100000352E+00 0.  1.
</event>
<event>
 5   0  0.6814789E-05  0.2323631E+04  0.7818609E-02  0.8468661E-01
       -2   -1    0    0    0  501  0.00000000000E+00  0.00000000000E+00  0.31633313604E+04  0.31633313604E+04  0.25500000920E-02 0.  1.
        2   -1    0    0  501    0  0.00000000000E+00  0.00000000000E+00 -0.42670701307E+03  0.42670701307E+03  0.25500000920E-02 0. -1.
    10030    2    1    2    0    0  0.00000000000E+00  0.00000000000E+00  0.27366243473E+04  0.35900383735E+04  0.23236313616E+04 0.  0.
        1    1    3    3  502    0  0.11166724643E+04  0.13694802018E+03  0.18163750439E+04  0.21365697865E+04  0.50400001928E-02 0.  1.
       -1    1    3    3    0  502 -0.11166724643E+04 -0.13694802018E+03  0.92024930346E+03  0.14534685869E+04  0.50400001928E-02 0. -1.
</event>
<event>
 5   0  0.6495405E-05  0.2249760E+04  0.7818609E-02  0.8497998E-01
       -2   -1    0    0    0  501  0.00000000000E+00  0.00000000000E+00  0.85743656249E+03  0.85743656249E+03  0.25500000920E-02 0.  1.
        2   -1    0    0  501    0  0.00000000000E+00  0.00000000000E+00 -0.14757417134E+04  0.14757417134E+04  0.25500000920E-02 0. -1.
    10030    2    1    2    0    0  0.00000000000E+00  0.00000000000E+00 -0.61830515091E+03  0.23331782759E+04  0.22497599000E+04 0.  0.
        5    1    3    3  502    0 -0.21281901930E+03  0.80148215746E+03  0.47907317298E+03  0.95770495393E+03  0.46999998093E+01 0.  1.
       -5    1    3    3    0  502  0.21281901930E+03 -0.80148215746E+03 -0.10973783239E+04  0.13754733220E+04  0.46999998093E+01 0. -1.
</event>
<event>
 5   0  0.2982385E-05  0.2307957E+04  0.7818609E-02  0.8474790E-01
        1   -1    0    0  501    0  0.00000000000E+00  0.00000000000E+00  0.13622949336E+04  0.13622949336E+04  0.50400001928E-02 0.  1.
       -1   -1    0    0    0  501  0.00000000000E+00  0.00000000000E+00 -0.97751684164E+03  0.97751684166E+03  0.50400001928E-02 0. -1.
    10030    2    1    2    0    0  0.00000000000E+00  0.00000000000E+00  0.38477809195E+03  0.23398117753E+04  0.23079568808E+04 0.  0.
        4    1    3    3  502    0  0.84155918152E+03  0.21261353664E+03  0.96330430529E+03  0.12966815991E+04  0.12699999809E+01 0.  1.
       -4    1    3    3    0  502 -0.84155918152E+03 -0.21261353664E+03 -0.57852621335E+03  0.10431301762E+04  0.12699999809E+01 0. -1.
</event>
<event>
 5   0  0.2944089E-05  0.2305203E+04  0.7818609E-02  0.8475873E-01
       -1   -1    0    0    0  501  0.00000000000E+00  0.00000000000E+00  0.83585553526E+03  0.83585553528E+03  0.50400001928E-02 0. -1.
        1   -1    0    0  501    0  0.00000000000E+00  0.00000000000E+00 -0.15893771133E+04  0.15893771133E+04  0.50400001928E-02 0.  1.
    10030    2    1    2    0    0  0.00000000000E+00  0.00000000000E+00 -0.75352157807E+03  0.24252326486E+04  0.23052025142E+04 0.  0.
        5    1    3    3  502    0  0.54094665339E+03  0.14833231833E+03 -0.14360862726E+04  0.15417495357E+04  0.46999998093E+01 0.  1.
       -5    1    3    3    0  502 -0.54094665339E+03 -0.14833231833E+03  0.68256469457E+03  0.88348311288E+03  0.46999998093E+01 0. -1.
</event>
<event>
 5   0  0.6702421E-05  0.2173517E+04  0.7818609E-02  0.8529533E-01
       -2   -1    0    0    0  501  0.00000000000E+00  0.00000000000E+00  0.12537823931E+04  0.12537823931E+04  0.25500000920E-02 0.  1.
        2   -1    0    0  501    0  0.00000000000E+00  0.00000000000E+00 -0.94198471370E+03  0.94198471371E+03  0.25500000920E-02 0. -1.
    10030    2    1    2    0    0  0.00000000000E+00  0.00000000000E+00  0.31179767942E+03  0.21957671068E+04  0.21735168264E+04 0.  0.
        4    1    3    3  502    0 -0.87757635029E+03  0.41457269601E+03  0.64981223511E+03  0.11680189744E+04  0.12699999809E+01 0.  1.
       -4    1    3    3    0  502  0.87757635029E+03 -0.41457269601E+03 -0.33801455569E+03  0.10277481324E+04  0.12699999809E+01 0. -1.
</event>
<event>
 5   0  0.6676612E-05  0.2308724E+04  0.7818609E-02  0.8474489E-01
        2   -1    0    0  501    0  0.00000000000E+00  0.00000000000E+00  0.14990542482E+04  0.14990542482E+04  0.25500000920E-02 0. -1.
       -2   -1    0    0    0  501  0.00000000000E+00  0.00000000000E+00 -0.88892844940E+03  0.88892844941E+03  0.25500000920E-02 0.  1.
    10030    2    1    2    0    0  0.00000000000E+00  0.00000000000E+00  0.61012579879E+03  0.23879826976E+04  0.23087242957E+04 0.  0.
        2    1    3    3  502    0 -0.83155142758E+03  0.42199948365E+03  0.10088563196E+04  0.13738094535E+04  0.25500000920E-02 0. -1.
       -2    1    3    3    0  502  0.83155142758E+03 -0.42199948365E+03 -0.39873052078E+03  0.10141732441E+04  0.25500000920E-02 0.  1.
</event>
<event>
 5   0  0.2944089E-05  0.2312886E+04  0.7818609E-02  0.8472858E-01
        1   -1    0    0  501    0  0.00000000000E+00  0.00000000000E+00  0.11248114176E+04  0.11248114176E+04  0.50400001928E-02 0. -1.
       -1   -1    0    0    0  501  0.00000000000E+00  0.00000000000E+00 -0.11889644175E+04  0.11889644175E+04  0.50400001928E-02 0.  1.
    10030    2    1    2    0    0  0.00000000000E+00  0.00000000000E+00 -0.64152999951E+02  0.23137758351E+04  0.23128862937E+04 0.  0.
        5    1    3    3  502    0  0.67158099615E+03  0.51706254300E+03 -0.81912170554E+03  0.11787099585E+04  0.46999998093E+01 0.  1.
       -5    1    3    3    0  502 -0.67158099615E+03 -0.51706254300E+03  0.75496870559E+03  0.11350658766E+04  0.46999998093E+01 0. -1.
</event>
<event>
 5   0  0.3006265E-05  0.2287986E+04  0.7818609E-02  0.8482673E-01
       -1   -1    0    0    0  501  0.00000000000E+00  0.00000000000E+00  0.14538480731E+04  0.14538480731E+04  0.50400001928E-02 0. -1.
        1   -1    0    0  501    0  0.00000000000E+00  0.00000000000E+00 -0.90017638346E+03  0.90017638347E+03  0.50400001928E-02 0.  1.
    10030    2    1    2    0    0  0.00000000000E+00  0.00000000000E+00  0.55367168964E+03  0.23540244566E+04  0.22879857522E+04 0.  0.
        2    1    3    3  502    0 -0.98502903731E+03  0.57928235553E+03  0.22172248426E+03  0.11640494456E+04  0.25500000920E-02 0. -1.
       -2    1    3    3    0  502  0.98502903731E+03 -0.57928235553E+03  0.33194920538E+03  0.11899750110E+04  0.25500000920E-02 0.  1.
</event>
<event>
 5   0  0.6495405E-05  0.2319199E+04  0.7818609E-02  0.8470389E-01
        2   -1    0    0  501    0  0.00000000000E+00  0.00000000000E+00  0.90580831421E+03  0.90580831421E+03  0.25500000920E-02 0.  1.
       -2   -1    0    0    0  501  0.00000000000E+00  0.00000000000E+00 -0.14844986681E+04  0.14844986681E+04  0.25500000920E-02 0. -1.
    10030    2    1    2    0    0  0.00000000000E+00  0.00000000000E+00 -0.57869035387E+03  0.23903069823E+04  0.23191992032E+04 0.  0.
        5    1    3    3  502    0  0.10943770169E+04 -0.22783928219E+03  0.28455023327E+02  0.11182144571E+04  0.46999998093E+01 0. -1.
       -5    1    3    3    0  502 -0.10943770169E+04  0.22783928219E+03 -0.60714537720E+03  0.12720925252E+04  0.46999998093E+01 0.  1.
</event>
<event>
 5   0  0.3006265E-05  0.2284247E+04  0.7818609E-02  0.8484158E-01
       -1   -1    0    0    0  501  0.00000000000E+00  0.00000000000E+00  0.13916701934E+04  0.13916701934E+04  0.50400001928E-02 0. -1.
        1   -1    0    0  501    0  0.00000000000E+00  0.00000000000E+00 -0.93732403788E+03  0.93732403790E+03  0.50400001928E-02 0.  1.
    10030    2    1    2    0    0  0.00000000000E+00  0.00000000000E+00  0.45434615550E+03  0.23289942313E+04  0.22842468563E+04 0.  0.
        2    1    3    3  502    0  0.76678786515E+03 -0.55444373714E+03  0.87929161809E+03  0.12917140695E+04  0.25500000920E-02 0. -1.
       -2    1    3    3    0  502 -0.76678786515E+03  0.55444373714E+03 -0.42494546259E+03  0.10372801618E+04  0.25500000920E-02 0.  1.
</event>
<event>
 5   0  0.3118614E-05  0.2287306E+04  0.7818609E-02  0.8482943E-01
       -1   -1    0    0    0  501  0.00000000000E+00  0.00000000000E+00  0.15484269326E+04  0.15484269326E+04  0.50400001928E-02 0. -1.
        1   -1    0    0  501    0  0.00000000000E+00  0.00000000000E+00 -0.84469097652E+03  0.84469097654E+03  0.50400001928E-02 0.  1.
    10030    2    1    2    0    0  0.00000000000E+00  0.00000000000E+00  0.70373595610E+03  0.23931179092E+04  0.22873060642E+04 0.  0.
        3    1    3    3  502    0  0.45616119174E+03  0.30104444419E+03 -0.69921064854E+03  0.88747187643E+03  0.10100000352E+00 0.  1.
       -3    1    3    3    0  502 -0.45616119174E+03 -0.30104444419E+03  0.14029466046E+04  0.15056460327E+04  0.10100000352E+00 0. -1.
</event>
<event>
 5   0  0.2962279E-05  0.2325610E+04  0.7818609E-02  0.8467891E-01
       -1   -1    0    0    0  501  0.00000000000E+00  0.00000000000E+00  0.48895853596E+03  0.48895853598E+03  0.50400001928E-02 0. -1.
        1   -1    0    0  501    0  0.00000000000E+00  0.00000000000E+00 -0.27652975190E+04  0.27652975190E+04  0.50400001928E-02 0.  1.
    10030    2    1    2    0    0  0.00000000000E+00  0.00000000000E+00 -0.22763389831E+04  0.32542560550E+04  0.23256103082E+04 0.  0.
        1    1    3    3  502    0 -0.41047616457E+03 -0.80474080147E+03 -0.21626512184E+04  0.23437488628E+04  0.50400001928E-02 0.  1.
       -1    1    3    3    0  502  0.41047616457E+03  0.80474080147E+03 -0.11368776464E+03  0.91050719222E+03  0.50400001928E-02 0. -1.
</event>
<event>
 5   0  0.6814789E-05  0.2289636E+04  0.7818609E-02  0.8482019E-01
       -2   -1    0    0    0  501  0.00000000000E+00  0.00000000000E+00  0.94227111963E+03  0.94227111963E+03  0.25500000920E-02 0. -1.
        2   -1    0    0  501    0  0.00000000000E+00  0.00000000000E+00 -0.13909037065E+04  0.13909037065E+04  0.25500000920E-02 0.  1.
    10030    2    1    2    0    0  0.00000000000E+00  0.00000000000E+00 -0.44863258684E+03  0.23331748261E+04  0.22896361220E+04 0.  0.
        1    1    3    3  502    0 -0.68109561070E+03 -0.34391717228E+03 -0.10940316779E+04  0.13338199146E+04  0.50400001928E-02 0.  1.
       -1    1    3    3    0  502  0.68109561070E+03  0.34391717228E+03  0.64539909109E+03  0.99935491148E+03  0.50400001928E-02 0. -1.
</event>
<event>
 5   0  0.6468758E-05  0.2253607E+04  0.7818609E-02  0.8496441E-01
       -2   -1    0    0    0  501  0.00000000000E+00  0.00000000000E+00  0.54143427243E+03  0.54143427243E+03  0.25500000920E-02 0. -1.
        2   -1    0    0  501    0  0.00000000000E+00  0.00000000000E+00 -0.23450430127E+04  0.23450430127E+04  0.25500000920E-02 0.  1.
    10030    2    1    2    0    0  0.00000000000E+00  0.00000000000E+00 -0.18036087402E+04  0.28864772851E+04  0.22536074702E+04 0.  0.
        3    1    3    3  502    0  0.94670310711E+03 -0.30496873534E+03 -0.15800783566E+04  0.18670565941E+04  0.10100000352E+00 0.  1.
       -3    1    3    3    0  502 -0.94670310711E+03  0.30496873534E+03 -0.22353038365E+03  0.10194206910E+04  0.10100000352E+00 0. -1.
</event>
<event>
 5   0  0.6495405E-05  0.2377306E+04  0.7818609E-02  0.8448049E-01
        2   -1    0    0  501    0  0.00000000000E+00  0.00000000000E+00  0.18642228699E+04  0.18642228699E+04  0.25500000920E-02 0.  1.
       -2   -1    0    0    0  501  0.00000000000E+00  0.00000000000E+00 -0.75790087186E+03  0.75790087186E+03  0.25500000920E-02 0. -1.
    10030    2    1    2    0    0  0.00000000000E+00  0.00000000000E+00  0.11063219981E+04  0.26221237418E+04  0.23773061548E+04 0.  0.
        5    1    3    3  502    0  0.10733152629E+04  0.11741055290E+03  0.48971144965E+01  0.10797393034E+04  0.46999998093E+01 0. -1.
       -5    1    3    3    0  502 -0.10733152629E+04 -0.11741055290E+03  0.11014248836E+04  0.15423844384E+04  0.46999998093E+01 0.  1.
</event>
<event>
 5   0  0.6702421E-05  0.2318575E+04  0.7818609E-02  0.8470633E-01
       -2   -1    0    0    0  501  0.00000000000E+00  0.00000000000E+00  0.12461958572E+04  0.12461958572E+04  0.25500000920E-02 0. -1.
        2   -1    0    0  501    0  0.00000000000E+00  0.00000000000E+00 -0.10784398570E+04  0.10784398570E+04  0.25500000920E-02 0.  1.
    10030    2    1    2    0    0  0.00000000000E+00  0.00000000000E+00  0.16775600023E+03  0.23246357143E+04  0.23185748054E+04 0.  0.
        4    1    3    3  502    0 -0.90512121290E+03 -0.36394168782E+03 -0.54405600167E+03  0.11170033608E+04  0.12699999809E+01 0.  1.
       -4    1    3    3    0  502  0.90512121290E+03  0.36394168782E+03  0.71181200190E+03  0.12076323535E+04  0.12699999809E+01 0. -1.
</event>
<event>
 5   0  0.6814789E-05  0.2289115E+04  0.7818609E-02  0.8482225E-01
       -2   -1    0    0    0  501  0.00000000000E+00  0.00000000000E+00  0.13116993327E+04  0.13116993327E+04  0.25500000920E-02 0.  1.
        2   -1    0    0  501    0  0.00000000000E+00  0.00000000000E+00 -0.99871371141E+03  0.99871371142E+03  0.25500000920E-02 0. -1.
    10030    2    1    2    0    0  0.00000000000E+00  0.00000000000E+00  0.31298562130E+03  0.23104130441E+04  0.22891152080E+04 0.  0.
        1    1    3    3  502    0  0.59853504477E+03  0.31596260195E+03 -0.77509832185E+03  0.10290063043E+04  0.50400001928E-02 0. -1.
       -1    1    3    3    0  502 -0.59853504477E+03 -0.31596260195E+03  0.10880839431E+04  0.12814067399E+04  0.50400001928E-02 0.  1.
</event>
<event>
 5   0  0.3006265E-05  0.2300752E+04  0.7818609E-02  0.8477624E-01
        1   -1    0    0  501    0  0.00000000000E+00  0.00000000000E+00  0.13084808690E+04  0.13084808690E+04  0.50400001928E-02 0. -1.
       -1   -1    0    0    0  501  0.00000000000E+00  0.00000000000E+00 -0.10113754691E+04  0.10113754691E+04  0.50400001928E-02 0.  1.
    10030    2    1    2    0    0  0.00000000000E+00  0.00000000000E+00  0.29710539987E+03  0.23198563381E+04  0.23007524445E+04 0.  0.
        2    1    3    3  502    0 -0.41651191263E+03  0.10446407950E+04  0.39265560204E+03  0.11911905749E+04  0.25500000920E-02 0.  1.
       -2    1    3    3    0  502  0.41651191263E+03 -0.10446407950E+04 -0.95550202176E+02  0.11286657632E+04  0.25500000920E-02 0. -1.
</event>
<event>
 5   0  0.3118614E-05  0.2288666E+04  0.7818609E-02  0.8482404E-01
        1   -1    0    0  501    0  0.00000000000E+00  0.00000000000E+00  0.16835766572E+04  0.16835766572E+04  0.50400001928E-02 0. -1.
       -1   -1    0    0    0  501  0.00000000000E+00  0.00000000000E+00 -0.77780697386E+03  0.77780697388E+03  0.50400001928E-02 0.  1.
    10030    2    1    2    0    0  0.00000000000E+00  0.00000000000E+00  0.90576968335E+03  0.24613836311E+04  0.22886656943E+04 0.  0.
        3    1    3    3  502    0 -0.12351144543E+03 -0.35341331364E+03  0.16158525332E+04  0.16586547159E+04  0.10100000352E+00 0. -1.
       -3    1    3    3    0  502  0.12351144543E+03  0.35341331364E+03 -0.71008284984E+03  0.80272891517E+03  0.10100000352E+00 0.  1.
</event>
<event>
 5   0  0.6468758E-05  0.2303293E+04  0.7818609E-02  0.8476624E-01
       -2   -1    0    0    0  501  0.00000000000E+00  0.00000000000E+00  0.66521559124E+03  0.66521559124E+03  0.25500000920E-02 0. -1.
        2   -1    0    0  501    0  0.00000000000E+00  0.00000000000E+00 -0.19937736071E+04  0.19937736071E+04  0.25500000920E-02 0.  1.
    10030    2    1    2    0    0  0.00000000000E+00  0.00000000000E+00 -0.13285580159E+04  0.26589891984E+04  0.23032926769E+04 0.  0.
        3    1    3    3  502    0 -0.47320458085E+03 -0.10377325978E+04 -0.84854621636E+03  0.14215632984E+04  0.10100000352E+00 0. -1.
       -3    1    3    3    0  502  0.47320458085E+03  0.10377325978E+04 -0.48001179954E+03  0.12374258999E+04  0.10100000352E+00 0.  1.
</event>
<event>
 5   0  0.6468758E-05  0.2329437E+04  0.7818609E-02  0.8466404E-01
        2   -1    0    0  501    0  0.00000000000E+00  0.00000000000E+00  0.22837922063E+04  0.22837922063E+04  0.25500000920E-02 0. -1.
       -2   -1    0    0    0  501  0.00000000000E+00  0.00000000000E+00 -0.59399840487E+03  0.59399840488E+03  0.25500000920E-02 0.  1.
    10030    2    1    2    0    0  0.00000000000E+00  0.00000000000E+00  0.16897938015E+04  0.28777906112E+04  0.23294367797E+04 0.  0.
        3    1    3    3  502    0  0.56763015006E+03  0.15233413896E+03 -0.39737894346E+03  0.70945028864E+03  0.10100000352E+00 0.  1.
       -3    1    3    3    0  502 -0.56763015006E+03 -0.15233413896E+03  0.20871727449E+04  0.21683403226E+04  0.10100000352E+00 0. -1.
</event>
<event>
 5   0  0.3006265E-05  0.2295277E+04  0.7818609E-02  0.8479786E-01
        1   -1    0    0  501    0  0.00000000000E+00  0.00000000000E+00  0.11364694173E+04  0.11364694173E+04  0.50400001928E-02 0.  1.
       -1   -1    0    0    0  501  0.00000000000E+00  0.00000000000E+00 -0.11589172428E+04  0.11589172428E+04  0.50400001928E-02 0. -1.
    10030    2    1    2    0    0  0.00000000000E+00  0.00000000000E+00 -0.22447825478E+02  0.22953866601E+04  0.22952768928E+04 0.  0.
        2    1    3    3  502    0  0.11062246119E+04  0.21911258039E+03  0.20169655277E+03  0.11456110659E+04  0.25500000920E-02 0.  1.
       -2    1    3    3    0  502 -0.11062246119E+04 -0.21911258039E+03 -0.22414437825E+03  0.11497755943E+04  0.25500000920E-02 0. -1.
</event>
<event>
 5   0  0.2962279E-05  0.2298615E+04  0.7818609E-02  0.8478468E-01
       -1   -1    0    0    0  501  0.00000000000E+00  0.00000000000E+00  0.11579069853E+04  0.11579069853E+04  0.50400001928E-02 0. -1.
        1   -1    0    0  501    0  0.00000000000E+00  0.00000000000E+00 -0.11407713912E+04  0.11407713912E+04  0.50400001928E-02 0.  1.
    10030    2    1    2    0    0  0.00000000000E+00  0.00000000000E+00  0.17135594037E+02  0.22986783765E+04  0.22986145066E+04 0.  0.
        1    1    3    3  502    0  0.22316815131E+03  0.10838106393E+04 -0.30201713074E+03  0.11470239199E+04  0.50400001928E-02 0.  1.
       -1    1    3    3    0  502 -0.22316815131E+03 -0.10838106393E+04  0.31915272478E+03  0.11516544566E+04  0.50400001928E-02 0. -1.
</event>
<event>
 5   0  0.6495405E-05  0.2263086E+04  0.7818609E-02  0.8492619E-01
       -2   -1    0    0    0  501  0.00000000000E+00  0.00000000000E+00  0.10971971643E+04  0.10971971643E+04  0.25500000920E-02 0.  1.
        2   -1    0    0  501    0  0.00000000000E+00  0.00000000000E+00 -0.11669643475E+04  0.11669643475E+04  0.25500000920E-02 0. -1.
    10030    2    1    2    0    0  0.00000000000E+00  0.00000000000E+00 -0.69767183208E+02  0.22641615117E+04  0.22630863641E+04 0.  0.
        5    1    3    3  502    0  0.60613722511E+03 -0.36500271546E+03 -0.91833116654E+03  0.11593030404E+04  0.46999998093E+01 0. -1.
       -5    1    3    3    0  502 -0.60613722511E+03  0.36500271546E+03  0.84856398334E+03  0.11048584714E+04  0.46999998093E+01 0.  1.
</event>
<event>
 5   0  0.2982385E-05  0.2281404E+04  0.7818609E-02  0.8485290E-01
       -1   -1    0    0    0  501  0.00000000000E+00  0.00000000000E+00  0.10307982731E+04  0.10307982731E+04  0.50400001928E-02 0. -1.
        1   -1    0    0  501    0  0.00000000000E+00  0.00000000000E+00 -0.12623236111E+04  0.12623236111E+04  0.50400001928E-02 0.  1.
    10030    2    1    2    0    0  0.00000000000E+00  0.00000000000E+00 -0.23152533800E+03  0.22931218841E+04  0.22814039523E+04 0.  0.
        4    1    3    3  502    0  0.90158775675E+03  0.69418978690E+03 -0.19642097022E+03  0.11547046175E+04  0.12699999809E+01 0. -1.
       -4    1    3    3    0  502 -0.90158775675E+03 -0.69418978690E+03 -0.35104367779E+02  0.11384172666E+04  0.12699999809E+01 0.  1.
</event>
<event>
 5   0  0.2962279E-05  0.2309020E+04  0.7818609E-02  0.8474373E-01
       -1   -1    0    0    0  501  0.00000000000E+00  0.00000000000E+00  0.10023793962E+04  0.10023793962E+04  0.50400001928E-02 0.  1.
        1   -1    0    0  501    0  0.00000000000E+00  0.00000000000E+00 -0.13297298067E+04  0.13297298067E+04  0.50400001928E-02 0. -1.
    10030    2    1    2    0    0  0.00000000000E+00  0.00000000000E+00 -0.32735041050E+03  0.23321092029E+04  0.23090203644E+04 0.  0.
        1    1    3    3  502    0 -0.82152366195E+03 -0.46516666465E+03 -0.83485960147E+03  0.12602665223E+04  0.50400001928E-02 0. -1.
       -1    1    3    3    0  502  0.82152366195E+03  0.46516666465E+03  0.50750919097E+03  0.10718426806E+04  0.50400001928E-02 0.  1.
</event>
<event>
 5   0  0.6702421E-05  0.2049860E+04  0.7818609E-02  0.8583658E-01
        2   -1    0    0  501    0  0.00000000000E+00  0.00000000000E+00  0.10538482012E+04  0.10538482012E+04  0.25500000920E-02 0. -1.
       -2   -1    0    0    0  501  0.00000000000E+00  0.00000000000E+00 -0.99680490481E+03  0.99680490482E+03  0.25500000920E-02 0.  1.
    10030    2    1    2    0    0  0.00000000000E+00  0.00000000000E+00  0.57043296384E+02  0.20506531060E+04  0.20498595619E+04 0.  0.
        4    1    3    3  502    0  0.21224884792E+03  0.22268676231E+03 -0.94952777332E+03  0.99812001922E+03  0.12699999809E+01 0.  1.
       -4    1    3    3    0  502 -0.21224884792E+03 -0.22268676231E+03  0.10065710697E+04  0.10525330868E+04  0.12699999809E+01 0. -1.
</event>
<event>
 5   0  0.2962279E-05  0.2298705E+04  0.7818609E-02  0.8478432E-01
        1   -1    0    0  501    0  0.00000000000E+00  0.00000000000E+00  0.19922069429E+04  0.19922069429E+04  0.50400001928E-02 0.  1.
       -1   -1    0    0    0  501  0.00000000000E+00  0.00000000000E+00 -0.66308925297E+03  0.66308925299E+03  0.50400001928E-02 0. -1.
    10030    2    1    2    0    0  0.00000000000E+00  0.00000000000E+00  0.13291176900E+04  0.26552961959E+04  0.22987048646E+04 0.  0.
        1    1    3    3  502    0 -0.62284217684E+03 -0.47289955183E+03  0.16375054734E+04  0.18146598962E+04  0.50400001928E-02 0.  1.
       -1    1    3    3    0  502  0.62284217684E+03  0.47289955183E+03 -0.30838778347E+03  0.84063629971E+03  0.50400001928E-02 0. -1.
</event>
<event>
 5   0  0.2962279E-05  0.2343147E+04  0.7818609E-02  0.8461101E-01
       -1   -1    0    0    0  501  0.00000000000E+00  0.00000000000E+00  0.13904435435E+04  0.13904435435E+04  0.50400001928E-02 0. -1.
        1   -1    0    0  501    0  0.00000000000E+00  0.00000000000E+00 -0.98715574759E+03  0.98715574761E+03  0.50400001928E-02 0.  1.
    10030    2    1    2    0    0  0.00000000000E+00  0.00000000000E+00  0.40328779587E+03  0.23775992911E+04  0.23431468888E+04 0.  0.
        1    1    3    3  502    0 -0.35465442808E+03  0.10015579224E+04  0.70254813476E+03  0.12737628967E+04  0.50400001928E-02 0. -1.
       -1    1    3    3    0  502  0.35465442808E+03 -0.10015579224E+04 -0.29926033888E+03  0.11038363944E+04  0.50400001928E-02 0.  1.
</event>
<event>
 5   0  0.2962279E-05  0.1817524E+04  0.7818609E-02  0.8697035E-01
        1   -1    0    0  501    0  0.00000000000E+00  0.00000000000E+00  0.64138200761E+03  0.64138200763E+03  0.50400001928E-02 0.  1.
       -1   -1    0    0    0  501  0.00000000000E+00  0.00000000000E+00 -0.12876081540E+04  0.12876081540E+04  0.50400001928E-02 0. -1.
    10030    2    1    2    0    0  0.00000000000E+00  0.00000000000E+00 -0.64622614640E+03  0.19289901616E+04  0.18175243634E+04 0.  0.
        1    1    3    3  502    0  0.63484927778E+03  0.25936077775E+03  0.30973335349E+03  0.75248678979E+03  0.50400001928E-02 0.  1.
       -1    1    3    3    0  502 -0.63484927778E+03 -0.25936077775E+03 -0.95595949989E+03  0.11765033719E+04  0.50400001928E-02 0. -1.
</event>
<event>
 5   0  0.2944089E-05  0.2294568E+04  0.7818609E-02  0.8480066E-01
        1   -1    0    0  501    0  0.00000000000E+00  0.00000000000E+00  0.11990163458E+04  0.11990163458E+04  0.50400001928E-02 0. -1.
       -1   -1    0    0    0  501  0.00000000000E+00  0.00000000000E+00 -0.10977833996E+04  0.10977833996E+04  0.50400001928E-02 0.  1.
    10030    2    1    2    0    0  0.00000000000E+00  0.00000000000E+00  0.10123294626E+03  0.22967997454E+04  0.22945677068E+04 0.  0.
        5    1    3    3  502    0 -0.70506313658E+03  0.90471928041E+03  0.75280802767E+02  0.11494869691E+04  0.46999998093E+01 0.  1.
       -5    1    3    3    0  502  0.70506313658E+03 -0.90471928041E+03  0.25952143490E+02  0.11473127763E+04  0.46999998093E+01 0. -1.
</event>
<event>
 5   0  0.2944089E-05  0.2298177E+04  0.7818609E-02  0.8478640E-01
        1   -1    0    0  501    0  0.00000000000E+00  0.00000000000E+00  0.14554417351E+04  0.14554417351E+04  0.50400001928E-02 0.  1.
       -1   -1    0    0    0  501  0.00000000000E+00  0.00000000000E+00 -0.90721928527E+03  0.90721928528E+03  0.50400001928E-02 0. -1.
    10030    2    1    2    0    0  0.00000000000E+00  0.00000000000E+00  0.54822244984E+03  0.23626610204E+04  0.22981773741E+04 0.  0.
        5    1    3    3  502    0  0.46263198973E+03 -0.61743730466E+03 -0.60132491621E+03  0.97819779593E+03  0.46999998093E+01 0. -1.
       -5    1    3    3    0  502 -0.46263198973E+03  0.61743730466E+03  0.11495473660E+04  0.13844632245E+04  0.46999998093E+01 0.  1.
</event>
<event>
 5   0  0.3006265E-05  0.2313797E+04  0.7818609E-02  0.8472501E-01
        1   -1    0    0  501    0  0.00000000000E+00  0.00000000000E+00  0.96987824233E+03  0.96987824234E+03  0.50400001928E-02 0. -1.
       -1   -1    0    0    0  501  0.00000000000E+00  0.00000000000E+00 -0.13799811080E+04  0.13799811080E+04  0.50400001928E-02 0.  1.
    10030    2    1    2    0    0  0.00000000000E+00  0.00000000000E+00 -0.41010286564E+03  0.23498593503E+04  0.23137965783E+04 0.  0.
        2    1    3    3  502    0  0.35892531673E+03  0.41957566039E+03  0.82742672067E+03  0.99473920998E+03  0.25500000920E-02 0. -1.
       -2    1    3    3    0  502 -0.35892531673E+03 -0.41957566039E+03 -0.12375295863E+04  0.13551201403E+04  0.25500000920E-02 0.  1.
</event>
<event>
 5   0  0.3006265E-05  0.2309455E+04  0.7818609E-02  0.8474202E-01
        1   -1    0    0  501    0  0.00000000000E+00  0.00000000000E+00  0.11598902349E+04  0.11598902349E+04  0.50400001928E-02 0.  1.
       -1   -1    0    0    0  501  0.00000000000E+00  0.00000000000E+00 -0.11495877301E+04  0.11495877301E+04  0.50400001928E-02 0. -1.
    10030    2    1    2    0    0  0.00000000000E+00  0.00000000000E+00  0.10302504787E+02  0.23094779650E+04  0.23094549854E+04 0.  0.
        2    1    3    3  502    0  0.21551740515E+03  0.49443158441E+03  0.10261830760E+04  0.11592937717E+04  0.25500000920E-02 0.  1.
       -2    1    3    3    0  502 -0.21551740515E+03 -0.49443158441E+03 -0.10158805712E+04  0.11501841933E+04  0.25500000920E-02 0. -1.
</event>
<event>
 5   0  0.3006265E-05  0.2283961E+04  0.7818609E-02  0.8484272E-01
        1   -1    0    0  501    0  0.00000000000E+00  0.00000000000E+00  0.14995825587E+04  0.14995825587E+04  0.50400001928E-02 0.  1.
       -1   -1    0    0    0  501  0.00000000000E+00  0.00000000000E+00 -0.86965462176E+03  0.86965462177E+03  0.50400001928E-02 0. -1.
    10030    2    1    2    0    0  0.00000000000E+00  0.00000000000E+00  0.62992793698E+03  0.23692371805E+04  0.22839605101E+04 0.  0.
        2    1    3    3  502    0  0.20588387963E+02  0.49141908039E+03 -0.75414893019E+03  0.90036503886E+03  0.25500000920E-02 0. -1.
       -2    1    3    3    0  502 -0.20588387963E+02 -0.49141908039E+03  0.13840768672E+04  0.14688721417E+04  0.25500000920E-02 0.  1.
</event>
<event>
 5   0  0.6495405E-05  0.2288568E+04  0.7818609E-02  0.8482442E-01
        2   -1    0    0  501    0  0.00000000000E+00  0.00000000000E+00  0.19593889434E+04  0.19593889434E+04  0.25500000920E-02 0.  1.
       -2   -1    0    0    0  501  0.00000000000E+00  0.00000000000E+00 -0.66826215380E+03  0.66826215380E+03  0.25500000920E-02 0. -1.
    10030    2    1    2    0    0  0.00000000000E+00  0.00000000000E+00  0.12911267896E+04  0.26276510972E+04  0.22885676529E+04 0.  0.
        5    1    3    3  502    0  0.12962165487E+03 -0.76584431599E+03  0.16103246550E+04  0.17878721638E+04  0.46999998093E+01 0.  1.
       -5    1    3    3    0  502 -0.12962165487E+03  0.76584431599E+03 -0.31919786536E+03  0.83977893340E+03  0.46999998093E+01 0. -1.
</event>
<event>
 5   0  0.2962279E-05  0.2278336E+04  0.7818609E-02  0.8486512E-01
       -1   -1    0    0    0  501  0.00000000000E+00  0.00000000000E+00  0.12303311176E+04  0.12303311177E+04  0.50400001928E-02 0. -1.
        1   -1    0    0  501    0  0.00000000000E+00  0.00000000000E+00 -0.10547596002E+04  0.10547596002E+04  0.50400001928E-02 0.  1.
    10030    2    1    2    0    0  0.00000000000E+00  0.00000000000E+00  0.17557151743E+03  0.22850907179E+04  0.22783358469E+04 0.  0.
        1    1    3    3  502    0 -0.57887385904E+03  0.95123201842E+03 -0.15327295179E+03  0.11240239745E+04  0.50400001928E-02 0.  1.
       -1    1    3    3    0  502  0.57887385904E+03 -0.95123201842E+03  0.32884446922E+03  0.11610667434E+04  0.50400001928E-02 0. -1.
</event>
<event>
 5   0  0.2342500E-05  0.2294704E+04  0.7818609E-02  0.8480012E-01
        3   -1    0    0  501    0  0.00000000000E+00  0.00000000000E+00  0.11004784718E+04  0.11004784765E+04  0.10100000352E+00 0. -1.
       -3   -1    0    0    0  501  0.00000000000E+00  0.00000000000E+00 -0.11962221463E+04  0.11962221506E+04  0.10100000352E+00 0.  1.
    10030    2    1    2    0    0  0.00000000000E+00  0.00000000000E+00 -0.95743674479E+02  0.22967006271E+04  0.22947041027E+04 0.  0.
        1    1    3    3  502    0 -0.54190520816E+03 -0.10110480788E+04 -0.71070819119E+02  0.11493174208E+04  0.50400001928E-02 0. -1.
       -1    1    3    3    0  502  0.54190520816E+03  0.10110480788E+04 -0.24672855360E+02  0.11473832063E+04  0.50400001928E-02 0.  1.
</event>
<event>
 5   0  0.6468758E-05  0.2241898E+04  0.7818609E-02  0.8501189E-01
       -2   -1    0    0    0  501  0.00000000000E+00  0.00000000000E+00  0.19323449295E+04  0.19323449295E+04  0.25500000920E-02 0.  1.
        2   -1    0    0  501    0  0.00000000000E+00  0.00000000000E+00 -0.65026028515E+03  0.65026028516E+03  0.25500000920E-02 0. -1.
    10030    2    1    2    0    0  0.00000000000E+00  0.00000000000E+00  0.12820846444E+04  0.25826052147E+04  0.22418984499E+04 0.  0.
        3    1    3    3  502    0 -0.37498878901E+03 -0.50790210830E+03  0.17080611105E+04  0.18210035450E+04  0.10100000352E+00 0.  1.
       -3    1    3    3    0  502  0.37498878901E+03  0.50790210830E+03 -0.42597646608E+03  0.76160166974E+03  0.10100000352E+00 0. -1.
</event>
<event>
 5   0  0.2982385E-05  0.2249012E+04  0.7818609E-02  0.8498301E-01
        1   -1    0    0  501    0  0.00000000000E+00  0.00000000000E+00  0.17647509022E+04  0.17647509022E+04  0.50400001928E-02 0. -1.
       -1   -1    0    0    0  501  0.00000000000E+00  0.00000000000E+00 -0.71653947783E+03  0.71653947784E+03  0.50400001928E-02 0.  1.
    10030    2    1    2    0    0  0.00000000000E+00  0.00000000000E+00  0.10482114244E+04  0.24812903800E+04  0.22490119519E+04 0.  0.
        4    1    3    3  502    0  0.10489087863E+04 -0.31667736114E+03  0.80325497549E+03  0.13585707054E+04  0.12699999809E+01 0. -1.
       -4    1    3    3    0  502 -0.10489087863E+04  0.31667736114E+03  0.24495644888E+03  0.11227196746E+04  0.12699999809E+01 0.  1.
</event>
<event>
 5   0  0.6702421E-05  0.2264730E+04  0.7818609E-02  0.8491959E-01
        2   -1    0    0  501    0  0.00000000000E+00  0.00000000000E+00  0.22761359686E+04  0.22761359686E+04  0.25500000920E-02 0. -1.
       -2   -1    0    0    0  501  0.00000000000E+00  0.00000000000E+00 -0.56334523495E+03  0.56334523496E+03  0.25500000920E-02 0.  1.
    10030    2    1    2    0    0  0.00000000000E+00  0.00000000000E+00  0.17127907336E+04  0.28394812035E+04  0.22647298753E+04 0.  0.
        4    1    3    3  502    0  0.10906744637E+04  0.23737828407E+03  0.61742044940E+03  0.12755896126E+04  0.12699999809E+01 0.  1.
       -4    1    3    3    0  502 -0.10906744637E+04 -0.23737828407E+03  0.10953702842E+04  0.15638915909E+04  0.12699999809E+01 0. -1.
</event>
<event>
 5   0  0.6814789E-05  0.2308397E+04  0.7818609E-02  0.8474618E-01
        2   -1    0    0  501    0  0.00000000000E+00  0.00000000000E+00  0.98971472211E+03  0.98971472211E+03  0.25500000920E-02 0. -1.
       -2   -1    0    0    0  501  0.00000000000E+00  0.00000000000E+00 -0.13460185209E+04  0.13460185209E+04  0.25500000920E-02 0.  1.
    10030    2    1    2    0    0  0.00000000000E+00  0.00000000000E+00 -0.35630379876E+03  0.23357332430E+04  0.23083971464E+04 0.  0.
        1    1    3    3  502    0  0.13994598984E+03 -0.34009671645E+03  0.92884382734E+03  0.99900025637E+03  0.50400001928E-02 0. -1.
       -1    1    3    3    0  502 -0.13994598984E+03  0.34009671645E+03 -0.12851476261E+04  0.13367329866E+04  0.50400001928E-02 0.  1.
</event>
<event>
 5   0  0.3118614E-05  0.2285922E+04  0.7818609E-02  0.8483493E-01
       -1   -1    0    0    0  501  0.00000000000E+00  0.00000000000E+00  0.13083670925E+04  0.13083670925E+04  0.50400001928E-02 0.  1.
        1   -1    0    0  501    0  0.00000000000E+00  0.00000000000E+00 -0.99846560705E+03  0.99846560707E+03  0.50400001928E-02 0. -1.
    10030    2    1    2    0    0  0.00000000000E+00  0.00000000000E+00  0.30990148543E+03  0.23068326996E+04  0.22859217338E+04 0.  0.
        3    1    3    3  502    0 -0.99909412004E+03  0.46862755240E+03  0.45526111527E+03  0.11937602510E+04  0.10100000352E+00 0.  1.
       -3    1    3    3    0  502  0.99909412004E+03 -0.46862755240E+03 -0.14535962984E+03  0.11130724486E+04  0.10100000352E+00 0. -1.
</event>
<event>
 5   0  0.6468758E-05  0.2301692E+04  0.7818609E-02  0.8477254E-01
       -2   -1    0    0    0  501  0.00000000000E+00  0.00000000000E+00  0.70772373908E+03  0.70772373908E+03  0.25500000920E-02 0. -1.
        2   -1    0    0  501    0  0.00000000000E+00  0.00000000000E+00 -0.18714169821E+04  0.18714169821E+04  0.25500000920E-02 0.  1.
    10030    2    1    2    0    0  0.00000000000E+00  0.00000000000E+00 -0.11636932431E+04  0.25791407212E+04  0.23016917465E+04 0.  0.
        3    1    3    3  502    0 -0.14107337147E+03 -0.11394669219E+04 -0.49390267544E+03  0.12498905653E+04  0.10100000352E+00 0. -1.
       -3    1    3    3    0  502  0.14107337147E+03  0.11394669219E+04 -0.66979056761E+03  0.13292501559E+04  0.10100000352E+00 0.  1.
</event>
<event>
 5   0  0.2982385E-05  0.2308976E+04  0.7818609E-02  0.8474391E-01
       -1   -1    0    0    0  501  0.00000000000E+00  0.00000000000E+00  0.11762532876E+04  0.11762532876E+04  0.50400001928E-02 0.  1.
        1   -1    0    0  501    0  0.00000000000E+00  0.00000000000E+00 -0.11331249682E+04  0.11331249682E+04  0.50400001928E-02 0. -1.
    10030    2    1    2    0    0  0.00000000000E+00  0.00000000000E+00  0.43128319375E+02  0.23093782558E+04  0.23089755037E+04 0.  0.
        4    1    3    3  502    0  0.70446482590E+03 -0.45772962534E+03  0.81356922719E+03  0.11694800559E+04  0.12699999809E+01 0.  1.
       -4    1    3    3    0  502 -0.70446482590E+03  0.45772962534E+03 -0.77044090782E+03  0.11398981999E+04  0.12699999809E+01 0. -1.
</event>
<event>
 5   0  0.6676612E-05  0.2326785E+04  0.7818609E-02  0.8467434E-01
       -2   -1    0    0    0  501  0.00000000000E+00  0.00000000000E+00  0.14011295904E+04  0.14011295904E+04  0.25500000920E-02 0. -1.
        2   -1    0    0  501    0  0.00000000000E+00  0.00000000000E+00 -0.96599382721E+03  0.96599382722E+03  0.25500000920E-02 0.  1.
    10030    2    1    2    0    0  0.00000000000E+00  0.00000000000E+00  0.43513576319E+03  0.23671234176E+04  0.23267853665E+04 0.  0.
        2    1    3    3  502    0  0.11081912063E+04 -0.30310589179E+03  0.31304718007E+02  0.11493219378E+04  0.25500000920E-02 0.  1.
       -2    1    3    3    0  502 -0.11081912063E+04  0.30310589179E+03  0.40383104518E+03  0.12178014798E+04  0.25500000920E-02 0. -1.
</event>
<event>
 5   0  0.2982385E-05  0.2025983E+04  0.7818609E-02  0.8594568E-01
        1   -1    0    0  501    0  0.00000000000E+00  0.00000000000E+00  0.17363824811E+04  0.17363824811E+04  0.50400001928E-02 0.  1.
       -1   -1    0    0    0  501  0.00000000000E+00  0.00000000000E+00 -0.59097108552E+03  0.59097108554E+03  0.50400001928E-02 0. -1.
    10030    2    1    2    0    0  0.00000000000E+00  0.00000000000E+00  0.11454113956E+04  0.23273535666E+04  0.20259830599E+04 0.  0.
        4    1    3    3  502    0 -0.62589477309E+03  0.43710191089E+03  0.13375955046E+04  0.15401187274E+04  0.12699999809E+01 0.  1.
       -4    1    3    3    0  502  0.62589477309E+03 -0.43710191089E+03 -0.19218410905E+03  0.78723483927E+03  0.12699999809E+01 0. -1.
</event>
<event>
 5   0  0.2982385E-05  0.2316513E+04  0.7818609E-02  0.8471439E-01
        1   -1    0    0  501    0  0.00000000000E+00  0.00000000000E+00  0.22320749270E+04  0.22320749270E+04  0.50400001928E-02 0.  1.
       -1   -1    0    0    0  501  0.00000000000E+00  0.00000000000E+00 -0.60103607797E+03  0.60103607800E+03  0.50400001928E-02 0. -1.
    10030    2    1    2    0    0  0.00000000000E+00  0.00000000000E+00  0.16310388491E+04  0.28331110050E+04  0.23165125166E+04 0.  0.
        4    1    3    3  502    0 -0.11490436642E+04 -0.11479548852E+03  0.70560789712E+03  0.13532787827E+04  0.12699999809E+01 0. -1.
       -4    1    3    3    0  502  0.11490436642E+04  0.11479548852E+03  0.92543095195E+03  0.14798322223E+04  0.12699999809E+01 0.  1.
</event>
<event>
 5   0  0.3006265E-05  0.2270024E+04  0.7818609E-02  0.8489835E-01
       -1   -1    0    0    0  501  0.00000000000E+00  0.00000000000E+00  0.17687729177E+04  0.17687729177E+04  0.50400001928E-02 0.  1.
        1   -1    0    0  501    0  0.00000000000E+00  0.00000000000E+00 -0.72833101569E+03  0.72833101570E+03  0.50400001928E-02 0. -1.
    10030    2    1    2    0    0  0.00000000000E+00  0.00000000000E+00  0.10404419020E+04  0.24971039334E+04  0.22700239432E+04 0.  0.
        2    1    3    3  502    0 -0.26203162990E+03 -0.10374657863E+04  0.93657530525E+03  0.14220299347E+04  0.25500000920E-02 0.  1.
       -2    1    3    3    0  502  0.26203162990E+03  0.10374657863E+04  0.10386659677E+03  0.10750739987E+04  0.25500000920E-02 0. -1.
</event>
<event>
 5   0  0.6676612E-05  0.2309844E+04  0.7818609E-02  0.8474050E-01
        2   -1    0    0  501    0  0.00000000000E+00  0.00000000000E+00  0.16300613818E+04  0.16300613818E+04  0.25500000920E-02 0.  1.
       -2   -1    0    0    0  501  0.00000000000E+00  0.00000000000E+00 -0.81827915993E+03  0.81827915993E+03  0.25500000920E-02 0. -1.
    10030    2    1    2    0    0  0.00000000000E+00  0.00000000000E+00  0.81178222183E+03  0.24483405417E+04  0.23098443741E+04 0.  0.
        2    1    3    3  502    0  0.29720384728E+03 -0.26425058026E+03 -0.74341288823E+03  0.84310213996E+03  0.25500000920E-02 0. -1.
       -2    1    3    3    0  502 -0.29720384728E+03  0.26425058026E+03  0.15551951101E+04  0.16052384017E+04  0.25500000920E-02 0.  1.
</event>
<event>
 5   0  0.6814789E-05  0.2277100E+04  0.7818609E-02  0.8487005E-01
       -2   -1    0    0    0  501  0.00000000000E+00  0.00000000000E+00  0.16047034105E+04  0.16047034105E+04  0.25500000920E-02 0.  1.
        2   -1    0    0  501    0  0.00000000000E+00  0.00000000000E+00 -0.80781015114E+03  0.80781015115E+03  0.25500000920E-02 0. -1.
    10030    2    1    2    0    0  0.00000000000E+00  0.00000000000E+00  0.79689325939E+03  0.24125135617E+04  0.22770996505E+04 0.  0.
        1    1    3    3  502    0  0.35712111734E+03 -0.33588235562E+03 -0.69025285407E+03  0.84664127695E+03  0.50400001928E-02 0. -1.
       -1    1    3    3    0  502 -0.35712111734E+03  0.33588235562E+03  0.14871461135E+04  0.15658722847E+04  0.50400001928E-02 0.  1.
</event>
<event>
 5   0  0.6495405E-05  0.2279731E+04  0.7818609E-02  0.8485956E-01
        2   -1    0    0  501    0  0.00000000000E+00  0.00000000000E+00  0.22146457651E+04  0.22146457651E+04  0.25500000920E-02 0.  1.
       -2   -1    0    0    0  501  0.00000000000E+00  0.00000000000E+00 -0.58668200723E+03  0.58668200723E+03  0.25500000920E-02 0. -1.
    10030    2    1    2    0    0  0.00000000000E+00  0.00000000000E+00  0.16279637579E+04  0.28013277723E+04  0.22797305304E+04 0.  0.
        5    1    3    3  502    0 -0.84857710305E+03 -0.39765790152E+03  0.16629577447E+02  0.93729053089E+03  0.46999998093E+01 0. -1.
       -5    1    3    3    0  502  0.84857710305E+03  0.39765790152E+03  0.16113341804E+04  0.18640372414E+04  0.46999998093E+01 0.  1.
</event>
<event>
 5   0  0.6814789E-05  0.2303813E+04  0.7818609E-02  0.8476419E-01
       -2   -1    0    0    0  501  0.00000000000E+00  0.00000000000E+00  0.88180459160E+03  0.88180459160E+03  0.25500000920E-02 0.  1.
        2   -1    0    0  501    0  0.00000000000E+00  0.00000000000E+00 -0.15047424618E+04  0.15047424618E+04  0.25500000920E-02 0. -1.
    10030    2    1    2    0    0  0.00000000000E+00  0.00000000000E+00 -0.62293787024E+03  0.23865470534E+04  0.23038131973E+04 0.  0.
        1    1    3    3  502    0 -0.68723678583E+03 -0.51889130399E+03  0.48108559233E+03  0.98640049287E+03  0.50400001928E-02 0.  1.
       -1    1    3    3    0  502  0.68723678583E+03  0.51889130399E+03 -0.11040234626E+04  0.14001465606E+04  0.50400001928E-02 0. -1.
</event>
<event>
 5   0  0.2962279E-05  0.2292591E+04  0.7818609E-02  0.8480848E-01
       -1   -1    0    0    0  501  0.00000000000E+00  0.00000000000E+00  0.16055320741E+04  0.16055320741E+04  0.50400001928E-02 0. -1.
        1   -1    0    0  501    0  0.00000000000E+00  0.00000000000E+00 -0.81841591473E+03  0.81841591475E+03  0.50400001928E-02 0.  1.
    10030    2    1    2    0    0  0.00000000000E+00  0.00000000000E+00  0.78711615939E+03  0.24239479889E+04  0.22925906753E+04 0.  0.
        1    1    3    3  502    0 -0.99034663468E+03  0.22711698176E+03 -0.16753114826E+03  0.10297743762E+04  0.50400001928E-02 0.  1.
       -1    1    3    3    0  502  0.99034663468E+03 -0.22711698176E+03  0.95464730766E+03  0.13941736127E+04  0.50400001928E-02 0. -1.
</event>
<event>
 5   0  0.6495405E-05  0.2334647E+04  0.7818609E-02  0.8464384E-01
        2   -1    0    0  501    0  0.00000000000E+00  0.00000000000E+00  0.10528120889E+04  0.10528120889E+04  0.25500000920E-02 0. -1.
       -2   -1    0    0    0  501  0.00000000000E+00  0.00000000000E+00 -0.12942901931E+04  0.12942901931E+04  0.25500000920E-02 0.  1.
    10030    2    1    2    0    0  0.00000000000E+00  0.00000000000E+00 -0.24147810422E+03  0.23471022820E+04  0.23346471784E+04 0.  0.
        5    1    3    3  502    0  0.77888771968E+03  0.80072927526E+03  0.21987342561E+03  0.11385077362E+04  0.46999998093E+01 0. -1.
       -5    1    3    3    0  502 -0.77888771968E+03 -0.80072927526E+03 -0.46135152983E+03  0.12085945458E+04  0.46999998093E+01 0.  1.
</event>
<event>
 5   0  0.2342500E-05  0.2287613E+04  0.7818609E-02  0.8482821E-01
        3   -1    0    0  501    0  0.00000000000E+00  0.00000000000E+00  0.24904697680E+04  0.24904697701E+04  0.10100000352E+00 0.  1.
       -3   -1    0    0    0  501  0.00000000000E+00  0.00000000000E+00 -0.52531984103E+03  0.52531985074E+03  0.10100000352E+00 0. -1.
    10030    2    1    2    0    0  0.00000000000E+00  0.00000000000E+00  0.19651499270E+04  0.30157896208E+04  0.22876129046E+04 0.  0.
        5    1    3    3  502    0 -0.74981403854E+03  0.78758812331E+03  0.51507554342E+03  0.12032626687E+04  0.46999998093E+01 0.  1.
       -5    1    3    3    0  502  0.74981403854E+03 -0.78758812331E+03  0.14500743836E+04  0.18125269521E+04  0.46999998093E+01 0. -1.
</event>
<event>
 5   0  0.6702421E-05  0.2290199E+04  0.7818609E-02  0.8481796E-01
       -2   -1    0    0    0  501  0.00000000000E+00  0.00000000000E+00  0.10993141302E+04  0.10993141302E+04  0.25500000920E-02 0. -1.
        2   -1    0    0  501    0  0.00000000000E+00  0.00000000000E+00 -0.11927918071E+04  0.11927918071E+04  0.25500000920E-02 0.  1.
    10030    2    1    2    0    0  0.00000000000E+00  0.00000000000E+00 -0.93477676895E+02  0.22921059373E+04  0.22901990201E+04 0.  0.
        4    1    3    3  502    0  0.28828161817E+03  0.10754220340E+04  0.22108897425E+03  0.11351302965E+04  0.12699999809E+01 0. -1.
       -4    1    3    3    0  502 -0.28828161817E+03 -0.10754220340E+04 -0.31456665115E+03  0.11569756408E+04  0.12699999809E+01 0.  1.
</event>
<event>
 5   0  0.6702421E-05  0.2290842E+04  0.7818609E-02  0.8481541E-01
       -2   -1    0    0    0  501  0.00000000000E+00  0.00000000000E+00  0.90818138785E+03  0.90818138786E+03  0.25500000920E-02 0.  1.
        2   -1    0    0  501    0  0.00000000000E+00  0.00000000000E+00 -0.14446329955E+04  0.14446329955E+04  0.25500000920E-02 0. -1.
    10030    2    1    2    0    0  0.00000000000E+00  0.00000000000E+00 -0.53645160768E+03  0.23528143834E+04  0.22908415911E+04 0.  0.
        4    1    3    3  502    0  0.11257138476E+03  0.65704183132E+03  0.68842867084E+03  0.95828593463E+03  0.12699999809E+01 0.  1.
       -4    1    3    3    0  502 -0.11257138476E+03 -0.65704183132E+03 -0.12248802785E+04  0.13945284488E+04  0.12699999809E+01 0. -1.
</event>
<event>
 5   0  0.3006265E-05  0.2269413E+04  0.7818609E-02  0.8490080E-01
        1   -1    0    0  501    0  0.00000000000E+00  0.00000000000E+00  0.23721713342E+04  0.23721713342E+04  0.50400001928E-02 0. -1.
       -1   -1    0    0    0  501  0.00000000000E+00  0.00000000000E+00 -0.54277630767E+03  0.54277630770E+03  0.50400001928E-02 0.  1.
    10030    2    1    2    0    0  0.00000000000E+00  0.00000000000E+00  0.18293950266E+04  0.29149476419E+04  0.22694126095E+04 0.  0.
        2    1    3    3  502    0 -0.13353518821E+03 -0.65186249911E+03  0.20952757423E+04  0.21983941413E+04  0.25500000920E-02 0. -1.
       -2    1    3    3    0  502  0.13353518821E+03  0.65186249911E+03 -0.26588071575E+03  0.71655350062E+03  0.25500000920E-02 0.  1.
</event>
<event>
 5   0  0.3118614E-05  0.2316174E+04  0.7818609E-02  0.8471571E-01
        1   -1    0    0  501    0  0.00000000000E+00  0.00000000000E+00  0.93092546748E+03  0.93092546750E+03  0.50400001928E-02 0. -1.
       -1   -1    0    0    0  501  0.00000000000E+00  0.00000000000E+00 -0.14406803233E+04  0.14406803233E+04  0.50400001928E-02 0.  1.
    10030    2    1    2    0    0  0.00000000000E+00  0.00000000000E+00 -0.50975485577E+03  0.23716057908E+04  0.23161744351E+04 0.  0.
        3    1    3    3  502    0  0.30639419604E+02  0.96333309442E+03  0.40252902118E+03  0.10444994246E+04  0.10100000352E+00 0. -1.
       -3    1    3    3    0  502 -0.30639419604E+02 -0.96333309442E+03 -0.91228387695E+03  0.13271063662E+04  0.10100000352E+00 0.  1.
</event>
<event>
 5   0  0.2944089E-05  0.2282815E+04  0.7818609E-02  0.8484728E-01
       -1   -1    0    0    0  501  0.00000000000E+00  0.00000000000E+00  0.11383361629E+04  0.11383361629E+04  0.50400001928E-02 0. -1.
        1   -1    0    0  501    0  0.00000000000E+00  0.00000000000E+00 -0.11444866368E+04  0.11444866368E+04  0.50400001928E-02 0.  1.
    10030    2    1    2    0    0  0.00000000000E+00  0.00000000000E+00 -0.61504738569E+01  0.22828227997E+04  0.22828145142E+04 0.  0.
        5    1    3    3  502    0  0.39994124698E+03 -0.10494350310E+04 -0.20684435293E+03  0.11419604029E+04  0.46999998093E+01 0.  1.
       -5    1    3    3    0  502 -0.39994124698E+03  0.10494350310E+04  0.20069387907E+03  0.11408623968E+04  0.46999998093E+01 0. -1.
</event>
<event>
 5   0  0.6702421E-05  0.2302626E+04  0.7818609E-02  0.8476887E-01
        2   -1    0    0  501    0  0.00000000000E+00  0.00000000000E+00  0.17400923098E+04  0.17400923098E+04  0.25500000920E-02 0. -1.
       -2   -1    0    0    0  501  0.00000000000E+00  0.00000000000E+00 -0.76175342340E+03  0.76175342340E+03  0.25500000920E-02 0.  1.
    10030    2    1    2    0    0  0.00000000000E+00  0.00000000000E+00  0.97833888645E+03  0.25018457333E+04  0.23026256961E+04 0.  0.
        4    1    3    3  502    0  0.83122308675E+03  0.79621634540E+03  0.51638391655E+03  0.12615650006E+04  0.12699999809E+01 0. -1.
       -4    1    3    3    0  502 -0.83122308675E+03 -0.79621634540E+03  0.46195496989E+03  0.12402807326E+04  0.12699999809E+01 0.  1.
</event>
<event>
 5   0  0.6495405E-05  0.2189587E+04  0.7818609E-02  0.8522775E-01
        2   -1    0    0  501    0  0.00000000000E+00  0.00000000000E+00  0.14055747494E+04  0.14055747494E+04  0.25500000920E-02 0. -1.
       -2   -1    0    0    0  501  0.00000000000E+00  0.00000000000E+00 -0.85272782584E+03  0.85272782585E+03  0.25500000920E-02 0.  1.
    10030    2    1    2    0    0  0.00000000000E+00  0.00000000000E+00  0.55284692352E+03  0.22583025752E+04  0.21895869018E+04 0.  0.
        5    1    3    3  502    0 -0.69778836598E+03 -0.60019290691E+03  0.88782608602E+03  0.12788265630E+04  0.46999998093E+01 0. -1.
       -5    1    3    3    0  502  0.69778836598E+03  0.60019290691E+03 -0.33497916251E+03  0.97947601221E+03  0.46999998093E+01 0.  1.
</event>
<event>
 5   0  0.6814789E-05  0.2304042E+04  0.7818609E-02  0.8476329E-01
       -2   -1    0    0    0  501  0.00000000000E+00  0.00000000000E+00  0.11911718434E+04  0.11911718434E+04  0.25500000920E-02 0.  1.
        2   -1    0    0  501    0  0.00000000000E+00  0.00000000000E+00 -0.11141566340E+04  0.11141566340E+04  0.25500000920E-02 0. -1.
    10030    2    1    2    0    0  0.00000000000E+00  0.00000000000E+00  0.77015209415E+02  0.23053284774E+04  0.23040416763E+04 0.  0.
        1    1    3    3  502    0 -0.85508389355E+03  0.44041316290E+03  0.67291202760E+03  0.11738580902E+04  0.50400001928E-02 0.  1.
       -1    1    3    3    0  502  0.85508389355E+03 -0.44041316290E+03 -0.59589681819E+03  0.11314703872E+04  0.50400001928E-02 0. -1.
</event>
<event>
 5   0  0.6814789E-05  0.2286252E+04  0.7818609E-02  0.8483362E-01
        2   -1    0    0  501    0  0.00000000000E+00  0.00000000000E+00  0.19468080309E+04  0.19468080309E+04  0.25500000920E-02 0. -1.
       -2   -1    0    0    0  501  0.00000000000E+00  0.00000000000E+00 -0.67122032623E+03  0.67122032624E+03  0.25500000920E-02 0.  1.
    10030    2    1    2    0    0  0.00000000000E+00  0.00000000000E+00  0.12755877046E+04  0.26180283571E+04  0.22862520610E+04 0.  0.
        1    1    3    3  502    0 -0.76413294091E+03 -0.27269471059E+03  0.15599342418E+04  0.17583106652E+04  0.50400001928E-02 0. -1.
       -1    1    3    3    0  502  0.76413294091E+03  0.27269471059E+03 -0.28434653717E+03  0.85971769191E+03  0.50400001928E-02 0.  1.
</event>
<event>
 5   0  0.2944089E-05  0.2317616E+04  0.7818609E-02  0.8471007E-01
       -1   -1    0    0    0  501  0.00000000000E+00  0.00000000000E+00  0.13208936572E+04  0.13208936572E+04  0.50400001928E-02 0. -1.
        1   -1    0    0  501    0  0.00000000000E+00  0.00000000000E+00 -0.10166121437E+04  0.10166121438E+04  0.50400001928E-02 0.  1.
    10030    2    1    2    0    0  0.00000000000E+00  0.00000000000E+00  0.30428151344E+03  0.23375058009E+04  0.23176164760E+04 0.  0.
        5    1    3    3  502    0 -0.10494430130E+04 -0.46543964187E+03 -0.68500792566E+01  0.11480564931E+04  0.46999998093E+01 0.  1.
       -5    1    3    3    0  502  0.10494430130E+04  0.46543964187E+03  0.31113159269E+03  0.11894493078E+04  0.46999998093E+01 0. -1.
</event>
<event>
 5   0  0.2342500E-05  0.2356062E+04  0.7818609E-02  0.8456139E-01
       -3   -1    0    0    0  501  0.00000000000E+00  0.00000000000E+00  0.17852314767E+04  0.17852314796E+04  0.10100000352E+00 0.  1.
        3   -1    0    0  501    0  0.00000000000E+00  0.00000000000E+00 -0.77735385897E+03  0.77735386554E+03  0.10100000352E+00 0. -1.
    10030    2    1    2    0    0  0.00000000000E+00  0.00000000000E+00  0.10078776177E+04  0.25625853451E+04  0.23560616203E+04 0.  0.
        2    1    3    3  502    0  0.21781498228E+03  0.91511208800E+03 -0.26736452636E+03  0.97793521773E+03  0.25500000920E-02 0. -1.
       -2    1    3    3    0  502 -0.21781498228E+03 -0.91511208800E+03  0.12752421441E+04  0.15846501274E+04  0.25500000920E-02 0.  1.
</event>
<event>
 5   0  0.6702421E-05  0.2186190E+04  0.7818609E-02  0.8524198E-01
       -2   -1    0    0    0  501  0.00000000000E+00  0.00000000000E+00  0.88216315749E+03  0.88216315749E+03  0.25500000920E-02 0. -1.
        2   -1    0    0  501    0  0.00000000000E+00  0.00000000000E+00 -0.13544622831E+04  0.13544622831E+04  0.25500000920E-02 0.  1.
    10030    2    1    2    0    0  0.00000000000E+00  0.00000000000E+00 -0.47229912560E+03  0.22366254406E+04  0.21861900415E+04 0.  0.
        4    1    3    3  502    0 -0.29751629735E+03  0.92532633787E+03 -0.74779742727E+03  0.12263553253E+04  0.12699999809E+01 0.  1.
       -4    1    3    3    0  502  0.29751629735E+03 -0.92532633787E+03  0.27549830167E+03  0.10102701153E+04  0.12699999809E+01 0. -1.
</event>
<event>
 5   0  0.2982385E-05  0.2269707E+04  0.7818609E-02  0.8489962E-01
       -1   -1    0    0    0  501  0.00000000000E+00  0.00000000000E+00  0.85444208461E+03  0.85444208462E+03  0.50400001928E-02 0.  1.
        1   -1    0    0  501    0  0.00000000000E+00  0.00000000000E+00 -0.15072908260E+04  0.15072908260E+04  0.50400001928E-02 0. -1.
    10030    2    1    2    0    0  0.00000000000E+00  0.00000000000E+00 -0.65284874138E+03  0.23617329106E+04  0.22697072194E+04 0.  0.
        4    1    3    3  502    0 -0.30391145378E+03 -0.26835892254E+03  0.77651053435E+03  0.87598453520E+03  0.12699999809E+01 0.  1.
       -4    1    3    3    0  502  0.30391145378E+03  0.26835892254E+03 -0.14293592757E+04  0.14857483754E+04  0.12699999809E+01 0. -1.
</event>
<event>
 5   0  0.6702421E-05  0.2305551E+04  0.7818609E-02  0.8475736E-01
        2   -1    0    0  501    0  0.00000000000E+00  0.00000000000E+00  0.22416839473E+04  0.22416839474E+04  0.25500000920E-02 0.  1.
       -2   -1    0    0    0  501  0.00000000000E+00  0.00000000000E+00 -0.59280929337E+03  0.59280929337E+03  0.25500000920E-02 0. -1.
    10030    2    1    2    0    0  0.00000000000E+00  0.00000000000E+00  0.16488746540E+04  0.28344932407E+04  0.23055507600E+04 0.  0.
        4    1    3    3  502    0  0.10787321284E+04  0.87030637001E+02  0.13125843612E+04  0.17012103499E+04  0.12699999809E+01 0.  1.
       -4    1    3    3    0  502 -0.10787321284E+04 -0.87030637001E+02  0.33629029281E+03  0.11332828908E+04  0.12699999809E+01 0. -1.
</event>
<event>
 5   0  0.3118614E-05  0.2330922E+04  0.7818609E-02  0.8465828E-01
       -1   -1    0    0    0  501  0.00000000000E+00  0.00000000000E+00  0.76517559939E+03  0.76517559941E+03  0.50400001928E-02 0. -1.
        1   -1    0    0  501    0  0.00000000000E+00  0.00000000000E+00 -0.17751468841E+04  0.17751468842E+04  0.50400001928E-02 0.  1.
    10030    2    1    2    0    0  0.00000000000E+00  0.00000000000E+00 -0.10099712848E+04  0.25403224836E+04  0.23309217757E+04 0.  0.
        3    1    3    3  502    0 -0.47716479511E+03 -0.64335774625E+03  0.41765155091E+03  0.90334282503E+03  0.10100000352E+00 0. -1.
       -3    1    3    3    0  502  0.47716479511E+03  0.64335774625E+03 -0.14276228357E+04  0.16369796585E+04  0.10100000352E+00 0.  1.
</event>
<event>
 5   0  0.2982385E-05  0.2335007E+04  0.7818609E-02  0.8464245E-01
       -1   -1    0    0    0  501  0.00000000000E+00  0.00000000000E+00  0.16122945390E+04  0.16122945390E+04  0.50400001928E-02 0. -1.
        1   -1    0    0  501    0  0.00000000000E+00  0.00000000000E+00 -0.84541896963E+03  0.84541896965E+03  0.50400001928E-02 0.  1.
    10030    2    1    2    0    0  0.00000000000E+00  0.00000000000E+00  0.76687556939E+03  0.24577135087E+04  0.23350069704E+04 0.  0.
        4    1    3    3  502    0 -0.42768643646E+03 -0.10207545262E+04 -0.78610386949E+01  0.11067605430E+04  0.12699999809E+01 0.  1.
       -4    1    3    3    0  502  0.42768643646E+03  0.10207545262E+04  0.77473660809E+03  0.13509529657E+04  0.12699999809E+01 0. -1.
</event>
<event>
 5   0  0.3006265E-05  0.2198921E+04  0.7818609E-02  0.8518877E-01
       -1   -1    0    0    0  501  0.00000000000E+00  0.00000000000E+00  0.64366430869E+03  0.64366430871E+03  0.50400001928E-02 0. -1.
        1   -1    0    0  501    0  0.00000000000E+00  0.00000000000E+00 -0.18780190092E+04  0.18780190092E+04  0.50400001928E-02 0.  1.
    10030    2    1    2    0    0  0.00000000000E+00  0.00000000000E+00 -0.12343547005E+04  0.25216833179E+04  0.21989213786E+04 0.  0.
        2    1    3    3  502    0  0.82081782259E+03  0.72662122426E+03 -0.52059198882E+03  0.12135634801E+04  0.25500000920E-02 0.  1.
       -2    1    3    3    0  502 -0.82081782259E+03 -0.72662122426E+03 -0.71376271167E+03  0.13081198378E+04  0.25500000920E-02 0. -1.
</event>
<event>
 5   0  0.6814789E-05  0.2336096E+04  0.7818609E-02  0.8463823E-01
       -2   -1    0    0    0  501  0.00000000000E+00  0.00000000000E+00  0.13712797466E+04  0.13712797466E+04  0.25500000920E-02 0.  1.
        2   -1    0    0  501    0  0.00000000000E+00  0.00000000000E+00 -0.99493627923E+03  0.99493627923E+03  0.25500000920E-02 0. -1.
    10030    2    1    2    0    0  0.00000000000E+00  0.00000000000E+00  0.37634346737E+03  0.23662160258E+04  0.23360958618E+04 0.  0.
        1    1    3    3  502    0 -0.38839635482E+03  0.71870326103E+03 -0.65742734251E+03  0.10486166204E+04  0.50400001928E-02 0.  1.
       -1    1    3    3    0  502  0.38839635482E+03 -0.71870326103E+03  0.10337708099E+04  0.13175994054E+04  0.50400001928E-02 0. -1.
</event>
<event>
 5   0  0.2962279E-05  0.2308544E+04  0.7818609E-02  0.8474560E-01
       -1   -1    0    0    0  501  0.00000000000E+00  0.00000000000E+00  0.87334926677E+03  0.87334926679E+03  0.50400001928E-02 0. -1.
        1   -1    0    0  501    0  0.00000000000E+00  0.00000000000E+00 -0.15255566730E+04  0.15255566730E+04  0.50400001928E-02 0.  1.
    10030    2    1    2    0    0  0.00000000000E+00  0.00000000000E+00 -0.65220740625E+03  0.23989059398E+04  0.23085439583E+04 0.  0.
        1    1    3    3  502    0  0.29065108543E+03 -0.39301112646E+02  0.83398195390E+03  0.88405233463E+03  0.50400001928E-02 0. -1.
       -1    1    3    3    0  502 -0.29065108543E+03  0.39301112646E+02 -0.14861893601E+04  0.15148536052E+04  0.50400001928E-02 0.  1.
</event>
<event>
 5   0  0.6814789E-05  0.2308991E+04  0.7818609E-02  0.8474385E-01
       -2   -1    0    0    0  501  0.00000000000E+00  0.00000000000E+00  0.10908206617E+04  0.10908206617E+04  0.25500000920E-02 0.  1.
        2   -1    0    0  501    0  0.00000000000E+00  0.00000000000E+00 -0.12218868571E+04  0.12218868571E+04  0.25500000920E-02 0. -1.
    10030    2    1    2    0    0  0.00000000000E+00  0.00000000000E+00 -0.13106619543E+03  0.23127075188E+04  0.23089906279E+04 0.  0.
        1    1    3    3  502    0  0.10721330556E+04  0.13696510937E+03 -0.47193333654E+03  0.11793853502E+04  0.50400001928E-02 0.  1.
       -1    1    3    3    0  502 -0.10721330556E+04 -0.13696510937E+03  0.34086714110E+03  0.11333221686E+04  0.50400001928E-02 0. -1.
</event>
<event>
 5   0  0.6676612E-05  0.2292351E+04  0.7818609E-02  0.8480943E-01
        2   -1    0    0  501    0  0.00000000000E+00  0.00000000000E+00  0.10533861903E+04  0.10533861903E+04  0.25500000920E-02 0. -1.
       -2   -1    0    0    0  501  0.00000000000E+00  0.00000000000E+00 -0.12471386556E+04  0.12471386556E+04  0.25500000920E-02 0.  1.
    10030    2    1    2    0    0  0.00000000000E+00  0.00000000000E+00 -0.19375246532E+03  0.23005248459E+04  0.22923513144E+04 0.  0.
        2    1    3    3  502    0  0.31841520432E+03  0.27916755815E+02 -0.12015056657E+04  0.12432954003E+04  0.25500000920E-02 0.  1.
       -2    1    3    3    0  502 -0.31841520432E+03 -0.27916755815E+02  0.10077532004E+04  0.10572294456E+04  0.25500000920E-02 0. -1.
</event>
<event>
 5   0  0.6702421E-05  0.2300379E+04  0.7818609E-02  0.8477772E-01
       -2   -1    0    0    0  501  0.00000000000E+00  0.00000000000E+00  0.11884455434E+04  0.11884455434E+04  0.25500000920E-02 0.  1.
        2   -1    0    0  501    0  0.00000000000E+00  0.00000000000E+00 -0.11131648125E+04  0.11131648125E+04  0.25500000920E-02 0. -1.
    10030    2    1    2    0    0  0.00000000000E+00  0.00000000000E+00  0.75280730847E+02  0.23016103559E+04  0.23003788909E+04 0.  0.
        4    1    3    3  502    0 -0.96384903454E+03  0.11614914180E+02  0.66550660407E+03  0.11713413339E+04  0.12699999809E+01 0.  1.
       -4    1    3    3    0  502  0.96384903454E+03 -0.11614914180E+02 -0.59022587322E+03  0.11302690219E+04  0.12699999809E+01 0. -1.
</event>
<event>
 5   0  0.2982385E-05  0.2305591E+04  0.7818609E-02  0.8475720E-01
        1   -1    0    0  501    0  0.00000000000E+00  0.00000000000E+00  0.98674867981E+03  0.98674867982E+03  0.50400001928E-02 0. -1.
       -1   -1    0    0    0  501  0.00000000000E+00  0.00000000000E+00 -0.13467845041E+04  0.13467845042E+04  0.50400001928E-02 0.  1.
    10030    2    1    2    0    0  0.00000000000E+00  0.00000000000E+00 -0.36003582433E+03  0.23335331840E+04  0.23055913181E+04 0.  0.
        4    1    3    3  502    0 -0.15353312411E+03 -0.83201436471E+03 -0.97252460909E+03  0.12890407486E+04  0.12699999809E+01 0.  1.
       -4    1    3    3    0  502  0.15353312411E+03  0.83201436471E+03  0.61248878476E+03  0.10444924354E+04  0.12699999809E+01 0. -1.
</event>
<event>
 5   0  0.2962279E-05  0.2303582E+04  0.7818609E-02  0.8476510E-01
       -1   -1    0    0    0  501  0.00000000000E+00  0.00000000000E+00  0.98663553688E+03  0.98663553690E+03  0.50400001928E-02 0.  1.
        1   -1    0    0  501    0  0.00000000000E+00  0.00000000000E+00 -0.13445926481E+04  0.13445926481E+04  0.50400001928E-02 0. -1.
    10030    2    1    2    0    0  0.00000000000E+00  0.00000000000E+00 -0.35795711124E+03  0.23312281850E+04  0.23035823313E+04 0.  0.
        1    1    3    3  502    0  0.85996319182E+03  0.64710762939E+02  0.59366216905E+03  0.10469760958E+04  0.50400001928E-02 0.  1.
       -1    1    3    3    0  502 -0.85996319182E+03 -0.64710762939E+02 -0.95161928029E+03  0.12842520893E+04  0.50400001928E-02 0. -1.
</event>
<event>
 5   0  0.6702421E-05  0.2291973E+04  0.7818609E-02  0.8481093E-01
       -2   -1    0    0    0  501  0.00000000000E+00  0.00000000000E+00  0.11841685049E+04  0.11841685049E+04  0.25500000920E-02 0.  1.
        2   -1    0    0  501    0  0.00000000000E+00  0.00000000000E+00 -0.11090360389E+04  0.11090360389E+04  0.25500000920E-02 0. -1.
    10030    2    1    2    0    0  0.00000000000E+00  0.00000000000E+00  0.75132465922E+02  0.22932045438E+04  0.22919734275E+04 0.  0.
        4    1    3    3  502    0  0.58428634642E+03 -0.58322788505E+03  0.83281304010E+03  0.11726570143E+04  0.12699999809E+01 0.  1.
       -4    1    3    3    0  502 -0.58428634642E+03  0.58322788505E+03 -0.75768057418E+03  0.11205475295E+04  0.12699999809E+01 0. -1.
</event>
<event>
 5   0  0.6468758E-05  0.2551459E+04  0.7818609E-02  0.8384879E-01
       -2   -1    0    0    0  501  0.00000000000E+00  0.00000000000E+00  0.12673672598E+04  0.12673672598E+04  0.25500000920E-02 0. -1.
        2   -1    0    0  501    0  0.00000000000E+00  0.00000000000E+00 -0.12841470374E+04  0.12841470374E+04  0.25500000920E-02 0.  1.
    10030    2    1    2    0    0  0.00000000000E+00  0.00000000000E+00 -0.16779777643E+02  0.25515142972E+04  0.25514591214E+04 0.  0.
        3    1    3    3  502    0  0.77040368789E+03 -0.90345465431E+03 -0.47501946814E+03  0.12788258912E+04  0.10100000352E+00 0.  1.
       -3    1    3    3    0  502 -0.77040368789E+03  0.90345465431E+03  0.45823969049E+03  0.12726884060E+04  0.10100000352E+00 0. -1.
</event>
<event>
 5   0  0.3006265E-05  0.2313635E+04  0.7818609E-02  0.8472564E-01
       -1   -1    0    0    0  501  0.00000000000E+00  0.00000000000E+00  0.47785479642E+03  0.47785479645E+03  0.50400001928E-02 0. -1.
        1   -1    0    0  501    0  0.00000000000E+00  0.00000000000E+00 -0.28004874869E+04  0.28004874869E+04  0.50400001928E-02 0.  1.
    10030    2    1    2    0    0  0.00000000000E+00  0.00000000000E+00 -0.23226326904E+04  0.32783422833E+04  0.23136346971E+04 0.  0.
        2    1    3    3  502    0 -0.14261119757E+03 -0.68874411418E+02  0.46242109816E+03  0.48878922886E+03  0.25500000920E-02 0. -1.
       -2    1    3    3    0  502  0.14261119757E+03  0.68874411418E+02 -0.27850537886E+04  0.27895530544E+04  0.25500000920E-02 0.  1.
</event>
<event>
 5   0  0.3118614E-05  0.2215882E+04  0.7818609E-02  0.8511847E-01
       -1   -1    0    0    0  501  0.00000000000E+00  0.00000000000E+00  0.50662358515E+03  0.50662358518E+03  0.50400001928E-02 0. -1.
        1   -1    0    0  501    0  0.00000000000E+00  0.00000000000E+00 -0.24229695897E+04  0.24229695897E+04  0.50400001928E-02 0.  1.
    10030    2    1    2    0    0  0.00000000000E+00  0.00000000000E+00 -0.19163460045E+04  0.29295931748E+04  0.22158822534E+04 0.  0.
        3    1    3    3  502    0 -0.27022222519E+03 -0.74683098292E+03 -0.19794872324E+04  0.21328727766E+04  0.10100000352E+00 0.  1.
       -3    1    3    3    0  502  0.27022222519E+03  0.74683098292E+03  0.63141227867E+02  0.79672039819E+03  0.10100000352E+00 0. -1.
</event>
<event>
 5   0  0.6676612E-05  0.2231895E+04  0.7818609E-02  0.8505269E-01
        2   -1    0    0  501    0  0.00000000000E+00  0.00000000000E+00  0.20706926075E+04  0.20706926075E+04  0.25500000920E-02 0.  1.
       -2   -1    0    0    0  501  0.00000000000E+00  0.00000000000E+00 -0.60141180435E+03  0.60141180436E+03  0.25500000920E-02 0. -1.
    10030    2    1    2    0    0  0.00000000000E+00  0.00000000000E+00  0.14692808031E+04  0.26721044118E+04  0.22318951385E+04 0.  0.
        2    1    3    3  502    0 -0.22905281591E+03 -0.10552488922E+04  0.39744570365E+03  0.11506426484E+04  0.25500000920E-02 0. -1.
       -2    1    3    3    0  502  0.22905281591E+03  0.10552488922E+04  0.10718350995E+04  0.15214617634E+04  0.25500000920E-02 0.  1.
</event>
<event>
 5   0  0.6702421E-05  0.2702666E+04  0.7818609E-02  0.8334140E-01
       -2   -1    0    0    0  501  0.00000000000E+00  0.00000000000E+00  0.86767745826E+03  0.86767745827E+03  0.25500000920E-02 0. -1.
        2   -1    0    0  501    0  0.00000000000E+00  0.00000000000E+00 -0.21045855649E+04  0.21045855649E+04  0.25500000920E-02 0.  1.
    10030    2    1    2    0    0  0.00000000000E+00  0.00000000000E+00 -0.12369081067E+04  0.29722630232E+04  0.27026664268E+04 0.  0.
        4    1    3    3  502    0  0.72260616934E+03 -0.47573121383E+03 -0.17600899312E+04  0.19612236085E+04  0.12699999809E+01 0.  1.
       -4    1    3    3    0  502 -0.72260616934E+03  0.47573121383E+03  0.52318182449E+03  0.10110394147E+04  0.12699999809E+01 0. -1.
</event>
<event>
 5   0  0.2962279E-05  0.2295229E+04  0.7818609E-02  0.8479805E-01
        1   -1    0    0  501    0  0.00000000000E+00  0.00000000000E+00  0.20773241975E+04  0.20773241975E+04  0.50400001928E-02 0. -1.
       -1   -1    0    0    0  501  0.00000000000E+00  0.00000000000E+00 -0.63399793221E+03  0.63399793223E+03  0.50400001928E-02 0.  1.
    10030    2    1    2    0    0  0.00000000000E+00  0.00000000000E+00  0.14433262653E+04  0.27113221298E+04  0.22952291788E+04 0.  0.
        1    1    3    3  502    0 -0.55294971844E+03  0.98722670424E+03  0.94780857511E+03  0.14760457485E+04  0.50400001928E-02 0.  1.
       -1    1    3    3    0  502  0.55294971844E+03 -0.98722670424E+03  0.49551769021E+03  0.12352763812E+04  0.50400001928E-02 0. -1.
</event>
<event>
 5   0  0.2962279E-05  0.2364290E+04  0.7818609E-02  0.8452995E-01
       -1   -1    0    0    0  501  0.00000000000E+00  0.00000000000E+00  0.20749661481E+04  0.20749661481E+04  0.50400001928E-02 0.  1.
        1   -1    0    0  501    0  0.00000000000E+00  0.00000000000E+00 -0.67348879111E+03  0.67348879113E+03  0.50400001928E-02 0. -1.
    10030    2    1    2    0    0  0.00000000000E+00  0.00000000000E+00  0.14014773570E+04  0.27484549392E+04  0.23642896969E+04 0.  0.
        1    1    3    3  502    0 -0.14372914171E+03 -0.48813056655E+03  0.19411379196E+04  0.20067251777E+04  0.50400001928E-02 0.  1.
       -1    1    3    3    0  502  0.14372914171E+03  0.48813056655E+03 -0.53966056260E+03  0.74172976146E+03  0.50400001928E-02 0. -1.
</event>
<event>
 5   0  0.6468758E-05  0.2331968E+04  0.7818609E-02  0.8465422E-01
        2   -1    0    0  501    0  0.00000000000E+00  0.00000000000E+00  0.20838857266E+04  0.20838857266E+04  0.25500000920E-02 0.  1.
       -2   -1    0    0    0  501  0.00000000000E+00  0.00000000000E+00 -0.65239607548E+03  0.65239607549E+03  0.25500000920E-02 0. -1.
    10030    2    1    2    0    0  0.00000000000E+00  0.00000000000E+00  0.14314896511E+04  0.27362818021E+04  0.23319681557E+04 0.  0.
        3    1    3    3  502    0 -0.34793141994E+03  0.96193625064E+03  0.59133548237E+02  0.10246337931E+04  0.10100000352E+00 0. -1.
       -3    1    3    3    0  502  0.34793141994E+03 -0.96193625064E+03  0.13723561029E+04  0.17116480090E+04  0.10100000352E+00 0.  1.
</event>
<event>
 5   0  0.2982385E-05  0.2299601E+04  0.7818609E-02  0.8478078E-01
        1   -1    0    0  501    0  0.00000000000E+00  0.00000000000E+00  0.10380958428E+04  0.10380958428E+04  0.50400001928E-02 0. -1.
       -1   -1    0    0    0  501  0.00000000000E+00  0.00000000000E+00 -0.12735255758E+04  0.12735255758E+04  0.50400001928E-02 0.  1.
    10030    2    1    2    0    0  0.00000000000E+00  0.00000000000E+00 -0.23542973298E+03  0.23116214187E+04  0.22996013620E+04 0.  0.
        4    1    3    3  502    0  0.63508257621E+03 -0.72919938607E+03 -0.74304232330E+03  0.12194979009E+04  0.12699999809E+01 0.  1.
       -4    1    3    3    0  502 -0.63508257621E+03  0.72919938607E+03  0.50761259032E+03  0.10921235177E+04  0.12699999809E+01 0. -1.
</event>
<event>
 5   0  0.2962279E-05  0.2260083E+04  0.7818609E-02  0.8493828E-01
        1   -1    0    0  501    0  0.00000000000E+00  0.00000000000E+00  0.16281485912E+04  0.16281485912E+04  0.50400001928E-02 0.  1.
       -1   -1    0    0    0  501  0.00000000000E+00  0.00000000000E+00 -0.78432255480E+03  0.78432255482E+03  0.50400001928E-02 0. -1.
    10030    2    1    2    0    0  0.00000000000E+00  0.00000000000E+00  0.84382603641E+03  0.24124711460E+04  0.22600828858E+04 0.  0.
        1    1    3    3  502    0 -0.94591980495E+03  0.50058881211E+03  0.80919926210E+03  0.13416992517E+04  0.50400001928E-02 0.  1.
       -1    1    3    3    0  502  0.94591980495E+03 -0.50058881211E+03  0.34626774313E+02  0.10707718943E+04  0.50400001928E-02 0. -1.
</event>
<event>
 5   0  0.2962279E-05  0.2290927E+04  0.7818609E-02  0.8481507E-01
        1   -1    0    0  501    0  0.00000000000E+00  0.00000000000E+00  0.17593276840E+04  0.17593276840E+04  0.50400001928E-02 0. -1.
       -1   -1    0    0    0  501  0.00000000000E+00  0.00000000000E+00 -0.74578877172E+03  0.74578877174E+03  0.50400001928E-02 0.  1.
    10030    2    1    2    0    0  0.00000000000E+00  0.00000000000E+00  0.10135389123E+04  0.25051164558E+04  0.22909271770E+04 0.  0.
        1    1    3    3  502    0 -0.16916103147E+03 -0.91368257176E+02 -0.72801943205E+03  0.75297802522E+03  0.50400001928E-02 0.  1.
       -1    1    3    3    0  502  0.16916103147E+03  0.91368257176E+02  0.17415583443E+04  0.17521384305E+04  0.50400001928E-02 0. -1.
</event>
<event>
 5   0  0.3118614E-05  0.2280942E+04  0.7818609E-02  0.8485474E-01
        1   -1    0    0  501    0  0.00000000000E+00  0.00000000000E+00  0.15382234879E+04  0.15382234879E+04  0.50400001928E-02 0.  1.
       -1   -1    0    0    0  501  0.00000000000E+00  0.00000000000E+00 -0.84556902007E+03  0.84556902009E+03  0.50400001928E-02 0. -1.
    10030    2    1    2    0    0  0.00000000000E+00  0.00000000000E+00  0.69265446784E+03  0.23837925080E+04  0.22809420224E+04 0.  0.
        3    1    3    3  502    0 -0.21476348446E+03 -0.81124454469E+03  0.11534415584E+04  0.14264180679E+04  0.10100000352E+00 0.  1.
       -3    1    3    3    0  502  0.21476348446E+03  0.81124454469E+03 -0.46078709057E+03  0.95737444012E+03  0.10100000352E+00 0. -1.
</event>
<event>
 5   0  0.6495405E-05  0.2306584E+04  0.7818609E-02  0.8475329E-01
       -2   -1    0    0    0  501  0.00000000000E+00  0.00000000000E+00  0.82834412182E+03  0.82834412183E+03  0.25500000920E-02 0. -1.
        2   -1    0    0  501    0  0.00000000000E+00  0.00000000000E+00 -0.16057130725E+04  0.16057130725E+04  0.25500000920E-02 0.  1.
    10030    2    1    2    0    0  0.00000000000E+00  0.00000000000E+00 -0.77736895070E+03  0.24340571943E+04  0.23065844749E+04 0.  0.
        5    1    3    3  502    0  0.45149619719E+02 -0.84868548963E+03 -0.12113547557E+04  0.14797661919E+04  0.46999998093E+01 0.  1.
       -5    1    3    3    0  502 -0.45149619719E+02  0.84868548963E+03  0.43398580499E+03  0.95429100248E+03  0.46999998093E+01 0. -1.
</event>
<event>
 5   0  0.2982385E-05  0.2311326E+04  0.7818609E-02  0.8473469E-01
       -1   -1    0    0    0  501  0.00000000000E+00  0.00000000000E+00  0.91716723617E+03  0.91716723618E+03  0.50400001928E-02 0. -1.
        1   -1    0    0  501    0  0.00000000000E+00  0.00000000000E+00 -0.14561764324E+04  0.14561764324E+04  0.50400001928E-02 0.  1.
    10030    2    1    2    0    0  0.00000000000E+00  0.00000000000E+00 -0.53900919624E+03  0.23733436686E+04  0.23113262980E+04 0.  0.
        4    1    3    3  502    0 -0.99391077919E+03  0.35994554059E+03 -0.74908708199E+03  0.12955896335E+04  0.12699999809E+01 0.  1.
       -4    1    3    3    0  502  0.99391077919E+03 -0.35994554059E+03  0.21007788575E+03  0.10777540351E+04  0.12699999809E+01 0. -1.
</event>
<event>
 5   0  0.2962279E-05  0.2310656E+04  0.7818609E-02  0.8473731E-01
        1   -1    0    0  501    0  0.00000000000E+00  0.00000000000E+00  0.22471467638E+04  0.22471467638E+04  0.50400001928E-02 0. -1.
       -1   -1    0    0    0  501  0.00000000000E+00  0.00000000000E+00 -0.59399025469E+03  0.59399025471E+03  0.50400001928E-02 0.  1.
    10030    2    1    2    0    0  0.00000000000E+00  0.00000000000E+00  0.16531565091E+04  0.28411370185E+04  0.23106564250E+04 0.  0.
        1    1    3    3  502    0  0.78816809529E+03 -0.18927358924E+03 -0.18568044172E+03  0.83157120229E+03  0.50400001928E-02 0.  1.
       -1    1    3    3    0  502 -0.78816809529E+03  0.18927358924E+03  0.18388369508E+04  0.20095658163E+04  0.50400001928E-02 0. -1.
</event>
<event>
 5   0  0.2962279E-05  0.2323117E+04  0.7818609E-02  0.8468862E-01
       -1   -1    0    0    0  501  0.00000000000E+00  0.00000000000E+00  0.53018704650E+03  0.53018704652E+03  0.50400001928E-02 0.  1.
        1   -1    0    0  501    0  0.00000000000E+00  0.00000000000E+00 -0.25447971469E+04  0.25447971469E+04  0.50400001928E-02 0. -1.
    10030    2    1    2    0    0  0.00000000000E+00  0.00000000000E+00 -0.20146101004E+04  0.30749841934E+04  0.23231172879E+04 0.  0.
        1    1    3    3  502    0 -0.35883450013E+03 -0.18881298825E+03 -0.24480773907E+04  0.24814301227E+04  0.50400001928E-02 0. -1.
       -1    1    3    3    0  502  0.35883450013E+03  0.18881298825E+03  0.43346729033E+03  0.59355407068E+03  0.50400001928E-02 0.  1.
</event>
<event>
 5   0  0.6495405E-05  0.2296152E+04  0.7818609E-02  0.8479440E-01
        2   -1    0    0  501    0  0.00000000000E+00  0.00000000000E+00  0.96922589420E+03  0.96922589421E+03  0.25500000920E-02 0.  1.
       -2   -1    0    0    0  501  0.00000000000E+00  0.00000000000E+00 -0.13599286569E+04  0.13599286569E+04  0.25500000920E-02 0. -1.
    10030    2    1    2    0    0  0.00000000000E+00  0.00000000000E+00 -0.39070276266E+03  0.23291545511E+04  0.22961516226E+04 0.  0.
        5    1    3    3  502    0  0.10048674750E+04  0.18086708164E+03  0.33715533162E+03  0.10752522268E+04  0.46999998093E+01 0.  1.
       -5    1    3    3    0  502 -0.10048674750E+04 -0.18086708164E+03 -0.72785809428E+03  0.12539023243E+04  0.46999998093E+01 0. -1.
</event>
<event>
 5   0  0.6702421E-05  0.2288810E+04  0.7818609E-02  0.8482346E-01
        2   -1    0    0  501    0  0.00000000000E+00  0.00000000000E+00  0.14527720665E+04  0.14527720666E+04  0.25500000920E-02 0.  1.
       -2   -1    0    0    0  501  0.00000000000E+00  0.00000000000E+00 -0.90149249276E+03  0.90149249277E+03  0.25500000920E-02 0. -1.
    10030    2    1    2    0    0  0.00000000000E+00  0.00000000000E+00  0.55127957379E+03  0.23542645593E+04  0.22888102689E+04 0.  0.
        4    1    3    3  502    0  0.52024982559E+03 -0.53169598829E+03  0.11701654552E+04  0.13865963041E+04  0.12699999809E+01 0.  1.
       -4    1    3    3    0  502 -0.52024982559E+03  0.53169598829E+03 -0.61888588146E+03  0.96766825522E+03  0.12699999809E+01 0. -1.
</event>
<event>
 5   0  0.2944089E-05  0.2297232E+04  0.7818609E-02  0.8479013E-01
       -1   -1    0    0    0  501  0.00000000000E+00  0.00000000000E+00  0.19006302183E+04  0.19006302183E+04  0.50400001928E-02 0.  1.
        1   -1    0    0  501    0  0.00000000000E+00  0.00000000000E+00 -0.69414774113E+03  0.69414774115E+03  0.50400001928E-02 0. -1.
    10030    2    1    2    0    0  0.00000000000E+00  0.00000000000E+00  0.12064824771E+04  0.25947779594E+04  0.22972315275E+04 0.  0.
        5    1    3    3  502    0  0.81840850823E+03 -0.78130896703E+03  0.82647555929E+03  0.14011852584E+04  0.46999998093E+01 0. -1.
       -5    1    3    3    0  502 -0.81840850823E+03  0.78130896703E+03  0.38000691785E+03  0.11935927010E+04  0.46999998093E+01 0.  1.
</event>
<event>
 5   0  0.6702421E-05  0.2314867E+04  0.7818609E-02  0.8472082E-01
        2   -1    0    0  501    0  0.00000000000E+00  0.00000000000E+00  0.25467653173E+04  0.25467653173E+04  0.25500000920E-02 0. -1.
       -2   -1    0    0    0  501  0.00000000000E+00  0.00000000000E+00 -0.52602126985E+03  0.52602126986E+03  0.25500000920E-02 0.  1.
    10030    2    1    2    0    0  0.00000000000E+00  0.00000000000E+00  0.20207440475E+04  0.30727865872E+04  0.23148673623E+04 0.  0.
        4    1    3    3  502    0 -0.11086281606E+03 -0.60907947876E+03  0.23085138736E+04  0.23900849970E+04  0.12699999809E+01 0. -1.
       -4    1    3    3    0  502  0.11086281606E+03  0.60907947876E+03 -0.28776982616E+03  0.68270159014E+03  0.12699999809E+01 0.  1.
</event>
<event>
 5   0  0.3118614E-05  0.2294674E+04  0.7818609E-02  0.8480024E-01
        1   -1    0    0  501    0  0.00000000000E+00  0.00000000000E+00  0.44888406278E+03  0.44888406281E+03  0.50400001928E-02 0. -1.
       -1   -1    0    0    0  501  0.00000000000E+00  0.00000000000E+00 -0.29325664738E+04  0.29325664738E+04  0.50400001928E-02 0.  1.
    10030    2    1    2    0    0  0.00000000000E+00  0.00000000000E+00 -0.24836824111E+04  0.33814505366E+04  0.22946741409E+04 0.  0.
        3    1    3    3  502    0 -0.68955590449E+03 -0.24186792432E+03 -0.25452931499E+04  0.26481134166E+04  0.10100000352E+00 0.  1.
       -3    1    3    3    0  502  0.68955590449E+03  0.24186792432E+03  0.61610738842E+02  0.73333712001E+03  0.10100000352E+00 0. -1.
</event>
<event>
 5   0  0.6676612E-05  0.2282072E+04  0.7818609E-02  0.8485024E-01
        2   -1    0    0  501    0  0.00000000000E+00  0.00000000000E+00  0.14133002216E+04  0.14133002216E+04  0.25500000920E-02 0. -1.
       -2   -1    0    0    0  501  0.00000000000E+00  0.00000000000E+00 -0.92122184052E+03  0.92122184052E+03  0.25500000920E-02 0.  1.
    10030    2    1    2    0    0  0.00000000000E+00  0.00000000000E+00  0.49207838112E+03  0.23345220622E+04  0.22820718932E+04 0.  0.
        2    1    3    3  502    0 -0.87712653252E+03 -0.69863983167E+03  0.46187287747E+03  0.12127551787E+04  0.25500000920E-02 0.  1.
       -2    1    3    3    0  502  0.87712653252E+03  0.69863983167E+03  0.30205503649E+02  0.11217668835E+04  0.25500000920E-02 0. -1.
</event>
<event>
 5   0  0.6814789E-05  0.2315312E+04  0.7818609E-02  0.8471908E-01
        2   -1    0    0  501    0  0.00000000000E+00  0.00000000000E+00  0.10330582544E+04  0.10330582544E+04  0.25500000920E-02 0.  1.
       -2   -1    0    0    0  501  0.00000000000E+00  0.00000000000E+00 -0.12972810590E+04  0.12972810590E+04  0.25500000920E-02 0. -1.
    10030    2    1    2    0    0  0.00000000000E+00  0.00000000000E+00 -0.26422280451E+03  0.23303393134E+04  0.23153115612E+04 0.  0.
        1    1    3    3  502    0 -0.81280402684E+03 -0.79911394231E+03 -0.33574469169E+03  0.11882583797E+04  0.50400001928E-02 0. -1.
       -1    1    3    3    0  502  0.81280402684E+03  0.79911394231E+03  0.71521887180E+02  0.11420809337E+04  0.50400001928E-02 0.  1.
</event>
<event>
 5   0  0.2982385E-05  0.2283379E+04  0.7818609E-02  0.8484503E-01
       -1   -1    0    0    0  501  0.00000000000E+00  0.00000000000E+00  0.11261011008E+04  0.11261011008E+04  0.50400001928E-02 0.  1.
        1   -1    0    0  501    0  0.00000000000E+00  0.00000000000E+00 -0.11574940777E+04  0.11574940777E+04  0.50400001928E-02 0. -1.
    10030    2    1    2    0    0  0.00000000000E+00  0.00000000000E+00 -0.31392976944E+02  0.22835951785E+04  0.22833793860E+04 0.  0.
        4    1    3    3  502    0  0.11754864431E+03 -0.90878652583E+03 -0.69674770958E+03  0.11511601179E+04  0.12699999809E+01 0. -1.
       -4    1    3    3    0  502 -0.11754864431E+03  0.90878652583E+03  0.66535473264E+03  0.11324350606E+04  0.12699999809E+01 0.  1.
</event>
<event>
 5   0  0.6814789E-05  0.2338988E+04  0.7818609E-02  0.8462705E-01
        2   -1    0    0  501    0  0.00000000000E+00  0.00000000000E+00  0.93288024724E+03  0.93288024725E+03  0.25500000920E-02 0.  1.
       -2   -1    0    0    0  501  0.00000000000E+00  0.00000000000E+00 -0.14661217692E+04  0.14661217692E+04  0.25500000920E-02 0. -1.
    10030    2    1    2    0    0  0.00000000000E+00  0.00000000000E+00 -0.53324152199E+03  0.23990020165E+04  0.23389878483E+04 0.  0.
        1    1    3    3  502    0 -0.31028418598E+03  0.42570973964E+03  0.80430144356E+03  0.96146028032E+03  0.50400001928E-02 0.  1.
       -1    1    3    3    0  502  0.31028418598E+03 -0.42570973964E+03 -0.13375429655E+04  0.14375417362E+04  0.50400001928E-02 0. -1.
</event>
<event>
 5   0  0.3006265E-05  0.2281891E+04  0.7818609E-02  0.8485096E-01
        1   -1    0    0  501    0  0.00000000000E+00  0.00000000000E+00  0.11386906974E+04  0.11386906974E+04  0.50400001928E-02 0. -1.
       -1   -1    0    0    0  501  0.00000000000E+00  0.00000000000E+00 -0.11432047014E+04  0.11432047014E+04  0.50400001928E-02 0.  1.
    10030    2    1    2    0    0  0.00000000000E+00  0.00000000000E+00 -0.45140039899E+01  0.22818953989E+04  0.22818909341E+04 0.  0.
        2    1    3    3  502    0  0.55554296744E+03  0.12318409682E+03  0.98666062620E+03  0.11389914406E+04  0.25500000920E-02 0. -1.
       -2    1    3    3    0  502 -0.55554296744E+03 -0.12318409682E+03 -0.99117463019E+03  0.11429039583E+04  0.25500000920E-02 0.  1.
</event>
<event>
 5   0  0.6702421E-05  0.2303459E+04  0.7818609E-02  0.8476558E-01
       -2   -1    0    0    0  501  0.00000000000E+00  0.00000000000E+00  0.63497089502E+03  0.63497089503E+03  0.25500000920E-02 0. -1.
        2   -1    0    0  501    0  0.00000000000E+00  0.00000000000E+00 -0.20890421848E+04  0.20890421848E+04  0.25500000920E-02 0.  1.
    10030    2    1    2    0    0  0.00000000000E+00  0.00000000000E+00 -0.14540712898E+04  0.27240130798E+04  0.23034591256E+04 0.  0.
        4    1    3    3  502    0  0.34491349106E+03 -0.95687413068E+03 -0.13659610479E+04  0.17030633034E+04  0.12699999809E+01 0.  1.
       -4    1    3    3    0  502 -0.34491349106E+03  0.95687413068E+03 -0.88110241883E+02  0.10209497764E+04  0.12699999809E+01 0. -1.
</event>
<event>
 5   0  0.6468758E-05  0.2288616E+04  0.7818609E-02  0.8482423E-01
        2   -1    0    0  501    0  0.00000000000E+00  0.00000000000E+00  0.15672264096E+04  0.15672264096E+04  0.25500000920E-02 0. -1.
       -2   -1    0    0    0  501  0.00000000000E+00  0.00000000000E+00 -0.83551449462E+03  0.83551449462E+03  0.25500000920E-02 0.  1.
    10030    2    1    2    0    0  0.00000000000E+00  0.00000000000E+00  0.73171191496E+03  0.24027409042E+04  0.22886156353E+04 0.  0.
        3    1    3    3  502    0 -0.35431224308E+03 -0.99074332236E+03  0.83809855721E+03  0.13451835184E+04  0.10100000352E+00 0. -1.
       -3    1    3    3    0  502  0.35431224308E+03  0.99074332236E+03 -0.10638664225E+03  0.10575573858E+04  0.10100000352E+00 0.  1.
</event>
<event>
 5   0  0.3006265E-05  0.2307839E+04  0.7818609E-02  0.8474837E-01
       -1   -1    0    0    0  501  0.00000000000E+00  0.00000000000E+00  0.94065591189E+03  0.94065591191E+03  0.50400001928E-02 0.  1.
        1   -1    0    0  501    0  0.00000000000E+00  0.00000000000E+00 -0.14155343178E+04  0.14155343178E+04  0.50400001928E-02 0. -1.
    10030    2    1    2    0    0  0.00000000000E+00  0.00000000000E+00 -0.47487840589E+03  0.23561902297E+04  0.23078394438E+04 0.  0.
        2    1    3    3  502    0  0.26946706783E+03  0.22353610164E+02  0.90785566092E+03  0.94726663913E+03  0.25500000920E-02 0.  1.
       -2    1    3    3    0  502 -0.26946706783E+03 -0.22353610164E+02 -0.13827340668E+04  0.14089235906E+04  0.25500000920E-02 0. -1.
</event>
<event>
 5   0  0.2982385E-05  0.2296139E+04  0.7818609E-02  0.8479445E-01
        1   -1    0    0  501    0  0.00000000000E+00  0.00000000000E+00  0.16273001633E+04  0.16273001633E+04  0.50400001928E-02 0. -1.
       -1   -1    0    0    0  501  0.00000000000E+00  0.00000000000E+00 -0.80996977538E+03  0.80996977540E+03  0.50400001928E-02 0.  1.
    10030    2    1    2    0    0  0.00000000000E+00  0.00000000000E+00  0.81733038787E+03  0.24372699387E+04  0.22961393231E+04 0.  0.
        4    1    3    3  502    0 -0.34718223627E+03  0.85976178174E+03  0.11272824168E+04  0.14596208709E+04  0.12699999809E+01 0.  1.
       -4    1    3    3    0  502  0.34718223627E+03 -0.85976178174E+03 -0.30995202897E+03  0.97764906776E+03  0.12699999809E+01 0. -1.
</event>
<event>
 5   0  0.3118614E-05  0.2296553E+04  0.7818609E-02  0.8479281E-01
        1   -1    0    0  501    0  0.00000000000E+00  0.00000000000E+00  0.13603288840E+04  0.13603288840E+04  0.50400001928E-02 0. -1.
       -1   -1    0    0    0  501  0.00000000000E+00  0.00000000000E+00 -0.96927942141E+03  0.96927942142E+03  0.50400001928E-02 0.  1.
    10030    2    1    2    0    0  0.00000000000E+00  0.00000000000E+00  0.39104946261E+03  0.23296083055E+04  0.22965528896E+04 0.  0.
        3    1    3    3  502    0 -0.86989696916E+03  0.24408052559E+03  0.91441613367E+03  0.12854776994E+04  0.10100000352E+00 0. -1.
       -3    1    3    3    0  502  0.86989696916E+03 -0.24408052559E+03 -0.52336667106E+03  0.10441306061E+04  0.10100000352E+00 0.  1.
</event>
<event>
 5   0  0.3118614E-05  0.2266267E+04  0.7818609E-02  0.8491342E-01
       -1   -1    0    0    0  501  0.00000000000E+00  0.00000000000E+00  0.17259570877E+04  0.17259570877E+04  0.50400001928E-02 0. -1.
        1   -1    0    0  501    0  0.00000000000E+00  0.00000000000E+00 -0.74393008813E+03  0.74393008815E+03  0.50400001928E-02 0.  1.
    10030    2    1    2    0    0  0.00000000000E+00  0.00000000000E+00  0.98202699957E+03  0.24698871759E+04  0.22662668937E+04 0.  0.
        3    1    3    3  502    0 -0.73593390958E+03 -0.47640651159E+02  0.14286144197E+04  0.16077336600E+04  0.10100000352E+00 0. -1.
       -3    1    3    3    0  502  0.73593390958E+03  0.47640651159E+02 -0.44658742016E+03  0.86215351589E+03  0.10100000352E+00 0.  1.
</event>
<event>
 5   0  0.6814789E-05  0.2338507E+04  0.7818609E-02  0.8462891E-01
        2   -1    0    0  501    0  0.00000000000E+00  0.00000000000E+00  0.96942033889E+03  0.96942033889E+03  0.25500000920E-02 0. -1.
       -2   -1    0    0    0  501  0.00000000000E+00  0.00000000000E+00 -0.14102793601E+04  0.14102793601E+04  0.25500000920E-02 0.  1.
    10030    2    1    2    0    0  0.00000000000E+00  0.00000000000E+00 -0.44085902120E+03  0.23796996990E+04  0.23385067844E+04 0.  0.
        1    1    3    3  502    0  0.29478053460E+03  0.68197572707E+03 -0.11391995548E+04  0.13600595875E+04  0.50400001928E-02 0. -1.
       -1    1    3    3    0  502 -0.29478053460E+03 -0.68197572707E+03  0.69834053365E+03  0.10196401114E+04  0.50400001928E-02 0.  1.
</event>
<event>
 5   0  0.6495405E-05  0.2316857E+04  0.7818609E-02  0.8471304E-01
        2   -1    0    0  501    0  0.00000000000E+00  0.00000000000E+00  0.17059534633E+04  0.17059534633E+04  0.25500000920E-02 0.  1.
       -2   -1    0    0    0  501  0.00000000000E+00  0.00000000000E+00 -0.78663124809E+03  0.78663124809E+03  0.25500000920E-02 0. -1.
    10030    2    1    2    0    0  0.00000000000E+00  0.00000000000E+00  0.91932221519E+03  0.24925847114E+04  0.23168567517E+04 0.  0.
        5    1    3    3  502    0 -0.70927499565E+03  0.90709376865E+03  0.32338859798E+03  0.11960319393E+04  0.46999998093E+01 0.  1.
       -5    1    3    3    0  502  0.70927499565E+03 -0.90709376865E+03  0.59593361720E+03  0.12965527720E+04  0.46999998093E+01 0. -1.
</event>
<event>
 5   0  0.6676612E-05  0.2163180E+04  0.7818609E-02  0.8533911E-01
        2   -1    0    0  501    0  0.00000000000E+00  0.00000000000E+00  0.18471117138E+04  0.18471117138E+04  0.25500000920E-02 0.  1.
       -2   -1    0    0    0  501  0.00000000000E+00  0.00000000000E+00 -0.63333326102E+03  0.63333326102E+03  0.25500000920E-02 0. -1.
    10030    2    1    2    0    0  0.00000000000E+00  0.00000000000E+00  0.12137784528E+04  0.24804449748E+04  0.21631803301E+04 0.  0.
        2    1    3    3  502    0 -0.56282903882E+03  0.86952870375E+03  0.24979791228E+03  0.10654837824E+04  0.25500000920E-02 0. -1.
       -2    1    3    3    0  502  0.56282903882E+03 -0.86952870375E+03  0.96398054052E+03  0.14149611924E+04  0.25500000920E-02 0.  1.
</event>
<event>
 5   0  0.2962279E-05  0.2340167E+04  0.7818609E-02  0.8462250E-01
       -1   -1    0    0    0  501  0.00000000000E+00  0.00000000000E+00  0.14293897374E+04  0.14293897374E+04  0.50400001928E-02 0. -1.
        1   -1    0    0  501    0  0.00000000000E+00  0.00000000000E+00 -0.95781816562E+03  0.95781816564E+03  0.50400001928E-02 0.  1.
    10030    2    1    2    0    0  0.00000000000E+00  0.00000000000E+00  0.47157157180E+03  0.23872079031E+04  0.23401670507E+04 0.  0.
        1    1    3    3  502    0 -0.72004028328E+03  0.28347069276E+03 -0.65951343242E+03  0.10167455979E+04  0.50400001928E-02 0.  1.
       -1    1    3    3    0  502  0.72004028328E+03 -0.28347069276E+03  0.11310850042E+04  0.13704623052E+04  0.50400001928E-02 0. -1.
</event>
<event>
 5   0  0.6676612E-05  0.2275588E+04  0.7818609E-02  0.8487609E-01
        2   -1    0    0  501    0  0.00000000000E+00  0.00000000000E+00  0.10202255523E+04  0.10202255524E+04  0.25500000920E-02 0.  1.
       -2   -1    0    0    0  501  0.00000000000E+00  0.00000000000E+00 -0.12689102659E+04  0.12689102659E+04  0.25500000920E-02 0. -1.
    10030    2    1    2    0    0  0.00000000000E+00  0.00000000000E+00 -0.24868471353E+03  0.22891358182E+04  0.22755875522E+04 0.  0.
        2    1    3    3  502    0 -0.76043956961E+03 -0.95556139747E+01  0.72699114891E+03  0.10520816410E+04  0.25500000920E-02 0.  1.
       -2    1    3    3    0  502  0.76043956961E+03  0.95556139747E+01 -0.97567586244E+03  0.12370541772E+04  0.25500000920E-02 0. -1.
</event>
<event>
 5   0  0.2962279E-05  0.2284802E+04  0.7818609E-02  0.8483938E-01
       -1   -1    0    0    0  501  0.00000000000E+00  0.00000000000E+00  0.79950431549E+03  0.79950431550E+03  0.50400001928E-02 0.  1.
        1   -1    0    0  501    0  0.00000000000E+00  0.00000000000E+00 -0.16323617548E+04  0.16323617548E+04  0.50400001928E-02 0. -1.
    10030    2    1    2    0    0  0.00000000000E+00  0.00000000000E+00 -0.83285743928E+03  0.24318660703E+04  0.22848021949E+04 0.  0.
        1    1    3    3  502    0  0.23601303442E+02 -0.97026982815E+03 -0.10577918570E+04  0.14355849587E+04  0.50400001928E-02 0.  1.
       -1    1    3    3    0  502 -0.23601303442E+02  0.97026982815E+03  0.22493441771E+03  0.99628111156E+03  0.50400001928E-02 0. -1.
</event>
<event>
 5   0  0.2944089E-05  0.2290644E+04  0.7818609E-02  0.8481619E-01
       -1   -1    0    0    0  501  0.00000000000E+00  0.00000000000E+00  0.87855875890E+03  0.87855875891E+03  0.50400001928E-02 0. -1.
        1   -1    0    0  501    0  0.00000000000E+00  0.00000000000E+00 -0.14930843857E+04  0.14930843857E+04  0.50400001928E-02 0.  1.
    10030    2    1    2    0    0  0.00000000000E+00  0.00000000000E+00 -0.61452562676E+03  0.23716431446E+04  0.22906438962E+04 0.  0.
        5    1    3    3  502    0 -0.52698811216E+03  0.97037548395E+03 -0.62197714914E+03  0.12673684209E+04  0.46999998093E+01 0.  1.
       -5    1    3    3    0  502  0.52698811216E+03 -0.97037548395E+03  0.74515223761E+01  0.11042747237E+04  0.46999998093E+01 0. -1.
</event>
<event>
 5   0  0.6702421E-05  0.2287570E+04  0.7818609E-02  0.8482838E-01
       -2   -1    0    0    0  501  0.00000000000E+00  0.00000000000E+00  0.77290523172E+03  0.77290523172E+03  0.25500000920E-02 0. -1.
        2   -1    0    0  501    0  0.00000000000E+00  0.00000000000E+00 -0.16926326706E+04  0.16926326706E+04  0.25500000920E-02 0.  1.
    10030    2    1    2    0    0  0.00000000000E+00  0.00000000000E+00 -0.91972743892E+03  0.24655379024E+04  0.22875704549E+04 0.  0.
        4    1    3    3  502    0  0.19547541373E+03 -0.10747181907E+04 -0.82538364875E+03  0.13691200120E+04  0.12699999809E+01 0.  1.
       -4    1    3    3    0  502 -0.19547541373E+03  0.10747181907E+04 -0.94343790169E+02  0.10964178904E+04  0.12699999809E+01 0. -1.
</event>
<event>
 5   0  0.3118614E-05  0.1790901E+04  0.7818609E-02  0.8711153E-01
        1   -1    0    0  501    0  0.00000000000E+00  0.00000000000E+00  0.12580921947E+04  0.12580921947E+04  0.50400001928E-02 0. -1.
       -1   -1    0    0    0  501  0.00000000000E+00  0.00000000000E+00 -0.63733926506E+03  0.63733926508E+03  0.50400001928E-02 0.  1.
    10030    2    1    2    0    0  0.00000000000E+00  0.00000000000E+00  0.62075292963E+03  0.18954314598E+04  0.17909009518E+04 0.  0.
        3    1    3    3  502    0  0.11066649570E+03 -0.62493997968E+03 -0.35818560935E+03  0.72876195868E+03  0.10100000352E+00 0.  1.
       -3    1    3    3    0  502 -0.11066649570E+03  0.62493997968E+03  0.97893853898E+03  0.11666695011E+04  0.10100000352E+00 0. -1.
</event>
<event>
 5   0  0.2342500E-05  0.2284052E+04  0.7818609E-02  0.8484236E-01
        3   -1    0    0  501    0  0.00000000000E+00  0.00000000000E+00  0.79535609936E+03  0.79535610577E+03  0.10100000352E+00 0. -1.
       -3   -1    0    0    0  501  0.00000000000E+00  0.00000000000E+00 -0.16397976304E+04  0.16397976335E+04  0.10100000352E+00 0.  1.
    10030    2    1    2    0    0  0.00000000000E+00  0.00000000000E+00 -0.84444153103E+03  0.24351537393E+04  0.22840517145E+04 0.  0.
        1    1    3    3  502    0 -0.67272823782E+03 -0.26881186618E+03 -0.13634613414E+04  0.15439721276E+04  0.50400001928E-02 0.  1.
       -1    1    3    3    0  502  0.67272823782E+03  0.26881186618E+03  0.51901981036E+03  0.89118161165E+03  0.50400001928E-02 0. -1.
</event>
<event>
 5   0  0.2962279E-05  0.2314723E+04  0.7818609E-02  0.8472139E-01
       -1   -1    0    0    0  501  0.00000000000E+00  0.00000000000E+00  0.12871924884E+04  0.12871924884E+04  0.50400001928E-02 0. -1.
        1   -1    0    0  501    0  0.00000000000E+00  0.00000000000E+00 -0.10406253443E+04  0.10406253443E+04  0.50400001928E-02 0.  1.
    10030    2    1    2    0    0  0.00000000000E+00  0.00000000000E+00  0.24656714407E+03  0.23278178327E+04  0.23147225548E+04 0.  0.
        1    1    3    3  502    0 -0.97960930030E+03  0.48524351723E+03 -0.25885230603E+03  0.11234323160E+04  0.50400001928E-02 0.  1.
       -1    1    3    3    0  502  0.97960930030E+03 -0.48524351723E+03  0.50541945010E+03  0.12043855167E+04  0.50400001928E-02 0. -1.
</event>
<event>
 5   0  0.3006265E-05  0.2031542E+04  0.7818609E-02  0.8592014E-01
        1   -1    0    0  501    0  0.00000000000E+00  0.00000000000E+00  0.11157702032E+04  0.11157702032E+04  0.50400001928E-02 0. -1.
       -1   -1    0    0    0  501  0.00000000000E+00  0.00000000000E+00 -0.92473423911E+03  0.92473423913E+03  0.50400001928E-02 0.  1.
    10030    2    1    2    0    0  0.00000000000E+00  0.00000000000E+00  0.19103596408E+03  0.20405044423E+04  0.20315421826E+04 0.  0.
        2    1    3    3  502    0 -0.15652791768E+03  0.65175946817E+03 -0.67106554906E+03  0.94848319147E+03  0.25500000920E-02 0.  1.
       -2    1    3    3    0  502  0.15652791768E+03 -0.65175946817E+03  0.86210151314E+03  0.10920212509E+04  0.25500000920E-02 0. -1.
</event>
<event>
 5   0  0.2982385E-05  0.2288388E+04  0.7818609E-02  0.8482514E-01
       -1   -1    0    0    0  501  0.00000000000E+00  0.00000000000E+00  0.79545566054E+03  0.79545566055E+03  0.50400001928E-02 0.  1.
        1   -1    0    0  501    0  0.00000000000E+00  0.00000000000E+00 -0.16458240471E+04  0.16458240471E+04  0.50400001928E-02 0. -1.
    10030    2    1    2    0    0  0.00000000000E+00  0.00000000000E+00 -0.85036838652E+03  0.24412797076E+04  0.22883881266E+04 0.  0.
        4    1    3    3  502    0 -0.10498449159E+04 -0.40853912885E+02  0.58230004714E+02  0.10522526959E+04  0.12699999809E+01 0.  1.
       -4    1    3    3    0  502  0.10498449159E+04  0.40853912885E+02 -0.90859839123E+03  0.13890270117E+04  0.12699999809E+01 0. -1.
</event>
<event>
 5   0  0.2944089E-05  0.2318614E+04  0.7818609E-02  0.8470618E-01
        1   -1    0    0  501    0  0.00000000000E+00  0.00000000000E+00  0.26580030954E+04  0.26580030954E+04  0.50400001928E-02 0.  1.
       -1   -1    0    0    0  501  0.00000000000E+00  0.00000000000E+00 -0.50564006736E+03  0.50564006738E+03  0.50400001928E-02 0. -1.
    10030    2    1    2    0    0  0.00000000000E+00  0.00000000000E+00  0.21523630281E+04  0.31636431628E+04  0.23186141242E+04 0.  0.
        5    1    3    3  502    0  0.41159461893E+03  0.70720535176E+02  0.25517865511E+04  0.25857393947E+04  0.46999998093E+01 0.  1.
       -5    1    3    3    0  502 -0.41159461893E+03 -0.70720535176E+02 -0.39942352310E+03  0.57790376814E+03  0.46999998093E+01 0. -1.
</event>
<event>
 5   0  0.6814789E-05  0.2224923E+04  0.7818609E-02  0.8508126E-01
        2   -1    0    0  501    0  0.00000000000E+00  0.00000000000E+00  0.18609392855E+04  0.18609392856E+04  0.25500000920E-02 0.  1.
       -2   -1    0    0    0  501  0.00000000000E+00  0.00000000000E+00 -0.66502454611E+03  0.66502454612E+03  0.25500000920E-02 0. -1.
    10030    2    1    2    0    0  0.00000000000E+00  0.00000000000E+00  0.11959147394E+04  0.25259638317E+04  0.22249227436E+04 0.  0.
        1    1    3    3  502    0  0.72556391469E+03 -0.67681726010E+03  0.26858003564E+02  0.99259556228E+03  0.50400001928E-02 0. -1.
       -1    1    3    3    0  502 -0.72556391469E+03  0.67681726010E+03  0.11690567359E+04  0.15333682694E+04  0.50400001928E-02 0.  1.
</event>
<event>
 5   0  0.3006265E-05  0.2263567E+04  0.7818609E-02  0.8492426E-01
        1   -1    0    0  501    0  0.00000000000E+00  0.00000000000E+00  0.10769828050E+04  0.10769828050E+04  0.50400001928E-02 0.  1.
       -1   -1    0    0    0  501  0.00000000000E+00  0.00000000000E+00 -0.11893724510E+04  0.11893724510E+04  0.50400001928E-02 0. -1.
    10030    2    1    2    0    0  0.00000000000E+00  0.00000000000E+00 -0.11238964598E+03  0.22663552560E+04  0.22635668123E+04 0.  0.
        2    1    3    3  502    0  0.19753646267E+02  0.22997767272E+03 -0.11655551117E+04  0.11881913377E+04  0.25500000920E-02 0. -1.
       -2    1    3    3    0  502 -0.19753646267E+02 -0.22997767272E+03  0.10531654657E+04  0.10781639183E+04  0.25500000920E-02 0.  1.
</event>
<event>
 5   0  0.6468758E-05  0.2333681E+04  0.7818609E-02  0.8464758E-01
       -2   -1    0    0    0  501  0.00000000000E+00  0.00000000000E+00  0.10596148242E+04  0.10596148242E+04  0.25500000920E-02 0.  1.
        2   -1    0    0  501    0  0.00000000000E+00  0.00000000000E+00 -0.12849163929E+04  0.12849163929E+04  0.25500000920E-02 0. -1.
    10030    2    1    2    0    0  0.00000000000E+00  0.00000000000E+00 -0.22530156867E+03  0.23445312171E+04  0.23336807475E+04 0.  0.
        3    1    3    3  502    0  0.22916587512E+03  0.95082236307E+03  0.52665395270E+03  0.11108305724E+04  0.10100000352E+00 0.  1.
       -3    1    3    3    0  502 -0.22916587512E+03 -0.95082236307E+03 -0.75195552137E+03  0.12337006447E+04  0.10100000352E+00 0. -1.
</event>
<event>
 5   0  0.2982385E-05  0.2313752E+04  0.7818609E-02  0.8472519E-01
        1   -1    0    0  501    0  0.00000000000E+00  0.00000000000E+00  0.22803983807E+04  0.22803983808E+04  0.50400001928E-02 0. -1.
       -1   -1    0    0    0  501  0.00000000000E+00  0.00000000000E+00 -0.58689828976E+03  0.58689828978E+03  0.50400001928E-02 0.  1.
    10030    2    1    2    0    0  0.00000000000E+00  0.00000000000E+00  0.16935000910E+04  0.28672966705E+04  0.23137518533E+04 0.  0.
        4    1    3    3  502    0 -0.39694272286E+03  0.87446310231E+03  0.16461432966E+04  0.19057908092E+04  0.12699999809E+01 0. -1.
       -4    1    3    3    0  502  0.39694272286E+03 -0.87446310231E+03  0.47356794390E+02  0.96150586135E+03  0.12699999809E+01 0.  1.
</event>
<event>
 5   0  0.6814789E-05  0.2288950E+04  0.7818609E-02  0.8482291E-01
        2   -1    0    0  501    0  0.00000000000E+00  0.00000000000E+00  0.17222503955E+04  0.17222503955E+04  0.25500000920E-02 0.  1.
       -2   -1    0    0    0  501  0.00000000000E+00  0.00000000000E+00 -0.76053026887E+03  0.76053026887E+03  0.25500000920E-02 0. -1.
    10030    2    1    2    0    0  0.00000000000E+00  0.00000000000E+00  0.96172012659E+03  0.24827806643E+04  0.22889504637E+04 0.  0.
        1    1    3    3  502    0  0.33207855728E+03  0.38050254422E+03 -0.63312625557E+03  0.80988098501E+03  0.50400001928E-02 0. -1.
       -1    1    3    3    0  502 -0.33207855728E+03 -0.38050254422E+03  0.15948463822E+04  0.16728996793E+04  0.50400001928E-02 0.  1.
</event>
<event>
 5   0  0.3118614E-05  0.2302189E+04  0.7818609E-02  0.8477059E-01
        1   -1    0    0  501    0  0.00000000000E+00  0.00000000000E+00  0.21600796191E+04  0.21600796191E+04  0.50400001928E-02 0. -1.
       -1   -1    0    0    0  501  0.00000000000E+00  0.00000000000E+00 -0.61341166517E+03  0.61341166519E+03  0.50400001928E-02 0.  1.
    10030    2    1    2    0    0  0.00000000000E+00  0.00000000000E+00  0.15466679539E+04  0.27734912843E+04  0.23021885553E+04 0.  0.
        3    1    3    3  502    0 -0.89835505371E+03  0.24794494551E+02  0.16398626743E+04  0.18699749117E+04  0.10100000352E+00 0. -1.
       -3    1    3    3    0  502  0.89835505371E+03 -0.24794494551E+02 -0.93194720384E+02  0.90351637262E+03  0.10100000352E+00 0.  1.
</event>
<event>
 5   0  0.6702421E-05  0.2271098E+04  0.7818609E-02  0.8489405E-01
        2   -1    0    0  501    0  0.00000000000E+00  0.00000000000E+00  0.16814140650E+04  0.16814140650E+04  0.25500000920E-02 0. -1.
       -2   -1    0    0    0  501  0.00000000000E+00  0.00000000000E+00 -0.76689697696E+03  0.76689697696E+03  0.25500000920E-02 0.  1.
    10030    2    1    2    0    0  0.00000000000E+00  0.00000000000E+00  0.91451708802E+03  0.24483110419E+04  0.22710978521E+04 0.  0.
        4    1    3    3  502    0 -0.10029960874E+04  0.20283656192E+03 -0.73418971568E+02  0.10259316646E+04  0.12699999809E+01 0. -1.
       -4    1    3    3    0  502  0.10029960874E+04 -0.20283656192E+03  0.98793605959E+03  0.14223793773E+04  0.12699999809E+01 0.  1.
</event>
<event>
 5   0  0.6702421E-05  0.2310336E+04  0.7818609E-02  0.8473857E-01
        2   -1    0    0  501    0  0.00000000000E+00  0.00000000000E+00  0.14448839222E+04  0.14448839222E+04  0.25500000920E-02 0. -1.
       -2   -1    0    0    0  501  0.00000000000E+00  0.00000000000E+00 -0.92354325867E+03  0.92354325867E+03  0.25500000920E-02 0.  1.
    10030    2    1    2    0    0  0.00000000000E+00  0.00000000000E+00  0.52134066351E+03  0.23684271809E+04  0.23103357383E+04 0.  0.
        4    1    3    3  502    0  0.52553186006E+03  0.10751253275E+03  0.13094627036E+04  0.14150748622E+04  0.12699999809E+01 0. -1.
       -4    1    3    3    0  502 -0.52553186006E+03 -0.10751253275E+03 -0.78812204005E+03  0.95335231869E+03  0.12699999809E+01 0.  1.
</event>
<event>
 5   0  0.6495405E-05  0.2302213E+04  0.7818609E-02  0.8477049E-01
        2   -1    0    0  501    0  0.00000000000E+00  0.00000000000E+00  0.13098761737E+04  0.13098761737E+04  0.25500000920E-02 0.  1.
       -2   -1    0    0    0  501  0.00000000000E+00  0.00000000000E+00 -0.10115814438E+04  0.10115814438E+04  0.25500000920E-02 0. -1.
    10030    2    1    2    0    0  0.00000000000E+00  0.00000000000E+00  0.29829472991E+03  0.23214576176E+04  0.23022132230E+04 0.  0.
        5    1    3    3  502    0 -0.10943298560E+04 -0.59540882373E+01 -0.21081148589E+03  0.11144760461E+04  0.46999998093E+01 0.  1.
       -5    1    3    3    0  502  0.10943298560E+04  0.59540882373E+01  0.50910621580E+03  0.12069815714E+04  0.46999998093E+01 0. -1.
</event>
<event>
 5   0  0.6676612E-05  0.2287349E+04  0.7818609E-02  0.8482926E-01
        2   -1    0    0  501    0  0.00000000000E+00  0.00000000000E+00  0.13008974266E+04  0.13008974266E+04  0.25500000920E-02 0. -1.
       -2   -1    0    0    0  501  0.00000000000E+00  0.00000000000E+00 -0.10054533876E+04  0.10054533876E+04  0.25500000920E-02 0.  1.
    10030    2    1    2    0    0  0.00000000000E+00  0.00000000000E+00  0.29544403894E+03  0.23063508142E+04  0.22873493170E+04 0.  0.
        2    1    3    3  502    0  0.32826508502E+03  0.10753891611E+04  0.35867740927E+03  0.11801988382E+04  0.25500000920E-02 0. -1.
       -2    1    3    3    0  502 -0.32826508502E+03 -0.10753891611E+04 -0.63233370328E+02  0.11261519760E+04  0.25500000920E-02 0.  1.
</event>
<event>
 5   0  0.6468758E-05  0.2286797E+04  0.7818609E-02  0.8483145E-01
       -2   -1    0    0    0  501  0.00000000000E+00  0.00000000000E+00  0.60878385410E+03  0.60878385410E+03  0.25500000920E-02 0. -1.
        2   -1    0    0  501    0  0.00000000000E+00  0.00000000000E+00 -0.21474947803E+04  0.21474947803E+04  0.25500000920E-02 0.  1.
    10030    2    1    2    0    0  0.00000000000E+00  0.00000000000E+00 -0.15387109262E+04  0.27562786344E+04  0.22867970168E+04 0.  0.
        3    1    3    3  502    0 -0.83069497036E+03 -0.23239943996E+03 -0.16739709741E+04  0.18831469581E+04  0.10100000352E+00 0.  1.
       -3    1    3    3    0  502  0.83069497036E+03  0.23239943996E+03  0.13526004786E+03  0.87313167634E+03  0.10100000352E+00 0. -1.
</event>
<event>
 5   0  0.6468758E-05  0.2309463E+04  0.7818609E-02  0.8474199E-01
        2   -1    0    0  501    0  0.00000000000E+00  0.00000000000E+00  0.20298777474E+04  0.20298777474E+04  0.25500000920E-02 0.  1.
       -2   -1    0    0    0  501  0.00000000000E+00  0.00000000000E+00 -0.65688917056E+03  0.65688917057E+03  0.25500000920E-02 0. -1.
    10030    2    1    2    0    0  0.00000000000E+00  0.00000000000E+00  0.13729885769E+04  0.26867669180E+04  0.23094628898E+04 0.  0.
        3    1    3    3  502    0 -0.56816625436E+03  0.21030202663E+03 -0.45714632509E+03  0.75896153245E+03  0.10100000352E+00 0. -1.
       -3    1    3    3    0  502  0.56816625436E+03 -0.21030202663E+03  0.18301349019E+04  0.19278053855E+04  0.10100000352E+00 0.  1.
</event>
<event>
 5   0  0.6676612E-05  0.2330021E+04  0.7818609E-02  0.8466177E-01
        2   -1    0    0  501    0  0.00000000000E+00  0.00000000000E+00  0.87518302560E+03  0.87518302560E+03  0.25500000920E-02 0.  1.
       -2   -1    0    0    0  501  0.00000000000E+00  0.00000000000E+00 -0.15508180647E+04  0.15508180647E+04  0.25500000920E-02 0. -1.
    10030    2    1    2    0    0  0.00000000000E+00  0.00000000000E+00 -0.67563503905E+03  0.24260010903E+04  0.23300211553E+04 0.  0.
        2    1    3    3  502    0 -0.97553149955E+03 -0.23011547771E+03  0.28047460645E+03  0.10408077846E+04  0.25500000920E-02 0.  1.
       -2    1    3    3    0  502  0.97553149955E+03  0.23011547771E+03 -0.95610964551E+03  0.13851933056E+04  0.25500000920E-02 0. -1.
</event>
<event>
 5   0  0.2342500E-05  0.2347414E+04  0.7818609E-02  0.8459458E-01
       -3   -1    0    0    0  501  0.00000000000E+00  0.00000000000E+00  0.11849640605E+04  0.11849640648E+04  0.10100000352E+00 0. -1.
        3   -1    0    0  501    0  0.00000000000E+00  0.00000000000E+00 -0.11625567321E+04  0.11625567365E+04  0.10100000352E+00 0.  1.
    10030    2    1    2    0    0  0.00000000000E+00  0.00000000000E+00  0.22407328423E+02  0.23475208013E+04  0.23474138588E+04 0.  0.
        5    1    3    3  502    0  0.26775511512E+03  0.32072858916E+02  0.11535535625E+04  0.11846642484E+04  0.46999998093E+01 0. -1.
       -5    1    3    3    0  502 -0.26775511512E+03 -0.32072858916E+02 -0.11311462340E+04  0.11628565529E+04  0.46999998093E+01 0.  1.
</event>
<event>
 5   0  0.6495405E-05  0.2292620E+04  0.7818609E-02  0.8480837E-01
       -2   -1    0    0    0  501  0.00000000000E+00  0.00000000000E+00  0.88649955637E+03  0.88649955638E+03  0.25500000920E-02 0. -1.
        2   -1    0    0  501    0  0.00000000000E+00  0.00000000000E+00 -0.14822639972E+04  0.14822639972E+04  0.25500000920E-02 0.  1.
    10030    2    1    2    0    0  0.00000000000E+00  0.00000000000E+00 -0.59576444083E+03  0.23687635536E+04  0.22926197905E+04 0.  0.
        5    1    3    3  502    0 -0.98664687638E+02  0.64471228561E+03  0.67609017950E+03  0.93941932736E+03  0.46999998093E+01 0. -1.
       -5    1    3    3    0  502  0.98664687638E+02 -0.64471228561E+03 -0.12718546203E+04  0.14293442262E+04  0.46999998093E+01 0.  1.
</event>
<event>
 5   0  0.6468758E-05  0.2316302E+04  0.7818609E-02  0.8471521E-01
       -2   -1    0    0    0  501  0.00000000000E+00  0.00000000000E+00  0.68215906962E+03  0.68215906962E+03  0.25500000920E-02 0. -1.
        2   -1    0    0  501    0  0.00000000000E+00  0.00000000000E+00 -0.19662773910E+04  0.19662773910E+04  0.25500000920E-02 0.  1.
    10030    2    1    2    0    0  0.00000000000E+00  0.00000000000E+00 -0.12841183214E+04  0.26484364606E+04  0.23163021873E+04 0.  0.
        3    1    3    3  502    0  0.94952993422E+03 -0.65195345814E+03 -0.50360254113E+03  0.12570862887E+04  0.10100000352E+00 0.  1.
       -3    1    3    3    0  502 -0.94952993422E+03  0.65195345814E+03 -0.78051578026E+03  0.13913501720E+04  0.10100000352E+00 0. -1.
</event>
<event>
 5   0  0.2982385E-05  0.2298312E+04  0.7818609E-02  0.8478587E-01
       -1   -1    0    0    0  501  0.00000000000E+00  0.00000000000E+00  0.13233537547E+04  0.13233537547E+04  0.50400001928E-02 0. -1.
        1   -1    0    0  501    0  0.00000000000E+00  0.00000000000E+00 -0.99788809602E+03  0.99788809603E+03  0.50400001928E-02 0.  1.
    10030    2    1    2    0    0  0.00000000000E+00  0.00000000000E+00  0.32546565870E+03  0.23212418508E+04  0.22983115182E+04 0.  0.
        4    1    3    3  502    0 -0.36091783500E+03 -0.38193349881E+03  0.11948989521E+04  0.13053428667E+04  0.12699999809E+01 0. -1.
       -4    1    3    3    0  502  0.36091783500E+03  0.38193349881E+03 -0.86943329341E+03  0.10158989840E+04  0.12699999809E+01 0.  1.
</event>
<event>
 5   0  0.6814789E-05  0.2276929E+04  0.7818609E-02  0.8487073E-01
        2   -1    0    0  501    0  0.00000000000E+00  0.00000000000E+00  0.13279740911E+04  0.13279740911E+04  0.25500000920E-02 0.  1.
       -2   -1    0    0    0  501  0.00000000000E+00  0.00000000000E+00 -0.97599945097E+03  0.97599945097E+03  0.25500000920E-02 0. -1.
    10030    2    1    2    0    0  0.00000000000E+00  0.00000000000E+00  0.35197464012E+03  0.23039735421E+04  0.22769294972E+04 0.  0.
        1    1    3    3  502    0 -0.12038155554E+03 -0.10987798701E+04  0.45179225512E+03  0.11941210842E+04  0.50400001928E-02 0.  1.
       -1    1    3    3    0  502  0.12038155554E+03  0.10987798701E+04 -0.99817615006E+02  0.11098524579E+04  0.50400001928E-02 0. -1.
</event>
<event>
 5   0  0.6676612E-05  0.2416618E+04  0.7818609E-02  0.8433308E-01
        2   -1    0    0  501    0  0.00000000000E+00  0.00000000000E+00  0.79094465880E+03  0.79094465881E+03  0.25500000920E-02 0. -1.
       -2   -1    0    0    0  501  0.00000000000E+00  0.00000000000E+00 -0.18459073184E+04  0.18459073184E+04  0.25500000920E-02 0.  1.
    10030    2    1    2    0    0  0.00000000000E+00  0.00000000000E+00 -0.10549626596E+04  0.26368519772E+04  0.24166179128E+04 0.  0.
        2    1    3    3  502    0  0.23368081064E+03  0.73912364275E+03  0.48386437328E+03  0.91380261122E+03  0.25500000920E-02 0. -1.
       -2    1    3    3    0  502 -0.23368081064E+03 -0.73912364275E+03 -0.15388270329E+04  0.17230493660E+04  0.25500000920E-02 0.  1.
</event>
<event>
 5   0  0.3006265E-05  0.2366511E+04  0.7818609E-02  0.8452149E-01
        1   -1    0    0  501    0  0.00000000000E+00  0.00000000000E+00  0.22641128495E+04  0.22641128495E+04  0.50400001928E-02 0.  1.
       -1   -1    0    0    0  501  0.00000000000E+00  0.00000000000E+00 -0.61838514894E+03  0.61838514896E+03  0.50400001928E-02 0. -1.
    10030    2    1    2    0    0  0.00000000000E+00  0.00000000000E+00  0.16457277006E+04  0.28824979985E+04  0.23665111550E+04 0.  0.
        2    1    3    3  502    0  0.89350048561E+03 -0.54520980948E+03  0.14949917168E+04  0.18249923527E+04  0.25500000920E-02 0.  1.
       -2    1    3    3    0  502 -0.89350048561E+03  0.54520980948E+03  0.15073598384E+03  0.10575056458E+04  0.25500000920E-02 0. -1.
</event>
<event>
 5   0  0.6495405E-05  0.2318317E+04  0.7818609E-02  0.8470734E-01
       -2   -1    0    0    0  501  0.00000000000E+00  0.00000000000E+00  0.74018920129E+03  0.74018920130E+03  0.25500000920E-02 0.  1.
        2   -1    0    0  501    0  0.00000000000E+00  0.00000000000E+00 -0.18152777357E+04  0.18152777357E+04  0.25500000920E-02 0. -1.
    10030    2    1    2    0    0  0.00000000000E+00  0.00000000000E+00 -0.10750885344E+04  0.25554669370E+04  0.23183174738E+04 0.  0.
        5    1    3    3  502    0  0.46278318144E+03 -0.78831254836E+03  0.24812287779E+03  0.94720219563E+03  0.46999998093E+01 0.  1.
       -5    1    3    3    0  502 -0.46278318144E+03  0.78831254836E+03 -0.13232114122E+04  0.16082647413E+04  0.46999998093E+01 0. -1.
</event>
<event>
 5   0  0.3118614E-05  0.2307709E+04  0.7818609E-02  0.8474888E-01
        1   -1    0    0  501    0  0.00000000000E+00  0.00000000000E+00  0.18893073410E+04  0.18893073410E+04  0.50400001928E-02 0.  1.
       -1   -1    0    0    0  501  0.00000000000E+00  0.00000000000E+00 -0.70469252684E+03  0.70469252686E+03  0.50400001928E-02 0. -1.
    10030    2    1    2    0    0  0.00000000000E+00  0.00000000000E+00  0.11846148141E+04  0.25939998678E+04  0.23077094827E+04 0.  0.
        3    1    3    3  502    0 -0.35645795273E+03 -0.62642865603E+03  0.16051491432E+04  0.17595394043E+04  0.10100000352E+00 0.  1.
       -3    1    3    3    0  502  0.35645795273E+03  0.62642865603E+03 -0.42053432904E+03  0.83446046357E+03  0.10100000352E+00 0. -1.
</event>
<event>
 5   0  0.3118614E-05  0.2296463E+04  0.7818609E-02  0.8479317E-01
        1   -1    0    0  501    0  0.00000000000E+00  0.00000000000E+00  0.18888088171E+04  0.18888088171E+04  0.50400001928E-02 0.  1.
       -1   -1    0    0    0  501  0.00000000000E+00  0.00000000000E+00 -0.69802484150E+03  0.69802484152E+03  0.50400001928E-02 0. -1.
    10030    2    1    2    0    0  0.00000000000E+00  0.00000000000E+00  0.11907839756E+04  0.25868336586E+04  0.22964629108E+04 0.  0.
        3    1    3    3  502    0 -0.11570037519E+03  0.92431389930E+03 -0.16083005296E+03  0.94530898514E+03  0.10100000352E+00 0. -1.
       -3    1    3    3    0  502  0.11570037519E+03 -0.92431389930E+03  0.13516140286E+04  0.16415246735E+04  0.10100000352E+00 0.  1.
</event>
<event>
 5   0  0.2982385E-05  0.2295921E+04  0.7818609E-02  0.8479531E-01
        1   -1    0    0  501    0  0.00000000000E+00  0.00000000000E+00  0.13213852489E+04  0.13213852489E+04  0.50400001928E-02 0.  1.
       -1   -1    0    0    0  501  0.00000000000E+00  0.00000000000E+00 -0.99729681380E+03  0.99729681381E+03  0.50400001928E-02 0. -1.
    10030    2    1    2    0    0  0.00000000000E+00  0.00000000000E+00  0.32408843511E+03  0.23186820627E+04  0.22959209904E+04 0.  0.
        4    1    3    3  502    0  0.54833778061E+03 -0.46136864956E+03 -0.74366108082E+03  0.10327481631E+04  0.12699999809E+01 0. -1.
       -4    1    3    3    0  502 -0.54833778061E+03  0.46136864956E+03  0.10677495159E+04  0.12859338996E+04  0.12699999809E+01 0.  1.
</event>
<event>
 5   0  0.6702421E-05  0.2282032E+04  0.7818609E-02  0.8485040E-01
        2   -1    0    0  501    0  0.00000000000E+00  0.00000000000E+00  0.14633382438E+04  0.14633382438E+04  0.25500000920E-02 0. -1.
       -2   -1    0    0    0  501  0.00000000000E+00  0.00000000000E+00 -0.88968972062E+03  0.88968972062E+03  0.25500000920E-02 0.  1.
    10030    2    1    2    0    0  0.00000000000E+00  0.00000000000E+00  0.57364852316E+03  0.23530279644E+04  0.22820315452E+04 0.  0.
        4    1    3    3  502    0 -0.12825140654E+03  0.65109446232E+03  0.12438947253E+04  0.14098397507E+04  0.12699999809E+01 0. -1.
       -4    1    3    3    0  502  0.12825140654E+03 -0.65109446232E+03 -0.67024620211E+03  0.94318821371E+03  0.12699999809E+01 0.  1.
</event>
<event>
 5   0  0.6676612E-05  0.2294007E+04  0.7818609E-02  0.8480288E-01
       -2   -1    0    0    0  501  0.00000000000E+00  0.00000000000E+00  0.10017068513E+04  0.10017068513E+04  0.25500000920E-02 0.  1.
        2   -1    0    0  501    0  0.00000000000E+00  0.00000000000E+00 -0.13133748928E+04  0.13133748928E+04  0.25500000920E-02 0. -1.
    10030    2    1    2    0    0  0.00000000000E+00  0.00000000000E+00 -0.31166804151E+03  0.23150817441E+04  0.22940066508E+04 0.  0.
        2    1    3    3  502    0 -0.32770082068E+03  0.93789923048E+03 -0.73431375016E+03  0.12354187460E+04  0.25500000920E-02 0. -1.
       -2    1    3    3    0  502  0.32770082068E+03 -0.93789923048E+03  0.42264570865E+03  0.10796629981E+04  0.25500000920E-02 0.  1.
</event>
<event>
 5   0  0.6702421E-05  0.2186619E+04  0.7818609E-02  0.8524018E-01
       -2   -1    0    0    0  501  0.00000000000E+00  0.00000000000E+00  0.75079780773E+03  0.75079780773E+03  0.25500000920E-02 0. -1.
        2   -1    0    0  501    0  0.00000000000E+00  0.00000000000E+00 -0.15920746371E+04  0.15920746371E+04  0.25500000920E-02 0.  1.
    10030    2    1    2    0    0  0.00000000000E+00  0.00000000000E+00 -0.84127682936E+03  0.23428724448E+04  0.21866194431E+04 0.  0.
        4    1    3    3  502    0 -0.64420346520E+03 -0.83992221640E+02  0.52155813051E+03  0.83311301411E+03  0.12699999809E+01 0. -1.
       -4    1    3    3    0  502  0.64420346520E+03  0.83992221640E+02 -0.13628349599E+04  0.15097594307E+04  0.12699999809E+01 0.  1.
</event>
<event>
 5   0  0.6814789E-05  0.2228470E+04  0.7818609E-02  0.8506671E-01
       -2   -1    0    0    0  501  0.00000000000E+00  0.00000000000E+00  0.12956387813E+04  0.12956387813E+04  0.25500000920E-02 0.  1.
        2   -1    0    0  501    0  0.00000000000E+00  0.00000000000E+00 -0.95822953411E+03  0.95822953411E+03  0.25500000920E-02 0. -1.
    10030    2    1    2    0    0  0.00000000000E+00  0.00000000000E+00  0.33740924716E+03  0.22538683154E+04  0.22284697402E+04 0.  0.
        1    1    3    3  502    0  0.65373910012E+03 -0.87860635605E+03  0.37646100915E+03  0.11580357643E+04  0.50400001928E-02 0.  1.
       -1    1    3    3    0  502 -0.65373910012E+03  0.87860635605E+03 -0.39051761994E+02  0.10958325511E+04  0.50400001928E-02 0. -1.
</event>
<event>
 5   0  0.6468758E-05  0.2267488E+04  0.7818609E-02  0.8490851E-01
        2   -1    0    0  501    0  0.00000000000E+00  0.00000000000E+00  0.19729702439E+04  0.19729702439E+04  0.25500000920E-02 0. -1.
       -2   -1    0    0    0  501  0.00000000000E+00  0.00000000000E+00 -0.65149273534E+03  0.65149273534E+03  0.25500000920E-02 0.  1.
    10030    2    1    2    0    0  0.00000000000E+00  0.00000000000E+00  0.13214775085E+04  0.26244629792E+04  0.22674882852E+04 0.  0.
        3    1    3    3  502    0 -0.71699187412E+03 -0.30238917521E+03  0.16150826315E+04  0.17927655948E+04  0.10100000352E+00 0. -1.
       -3    1    3    3    0  502  0.71699187412E+03  0.30238917521E+03 -0.29360512302E+03  0.83169738445E+03  0.10100000352E+00 0.  1.
</event>
<event>
 5   0  0.2962279E-05  0.2299486E+04  0.7818609E-02  0.8478124E-01
        1   -1    0    0  501    0  0.00000000000E+00  0.00000000000E+00  0.13553015762E+04  0.13553015762E+04  0.50400001928E-02 0.  1.
       -1   -1    0    0    0  501  0.00000000000E+00  0.00000000000E+00 -0.97536135979E+03  0.97536135980E+03  0.50400001928E-02 0. -1.
    10030    2    1    2    0    0  0.00000000000E+00  0.00000000000E+00  0.37994021642E+03  0.23306629360E+04  0.22994858454E+04 0.  0.
        1    1    3    3  502    0 -0.11206380124E+04 -0.24423304380E+03  0.27124113969E+03  0.11785801162E+04  0.50400001928E-02 0.  1.
       -1    1    3    3    0  502  0.11206380124E+04  0.24423304380E+03  0.10869907673E+03  0.11520828198E+04  0.50400001928E-02 0. -1.
</event>
<event>
 5   0  0.6676612E-05  0.2299477E+04  0.7818609E-02  0.8478127E-01
        2   -1    0    0  501    0  0.00000000000E+00  0.00000000000E+00  0.18254917595E+04  0.18254917595E+04  0.25500000920E-02 0.  1.
       -2   -1    0    0    0  501  0.00000000000E+00  0.00000000000E+00 -0.72413270875E+03  0.72413270876E+03  0.25500000920E-02 0. -1.
    10030    2    1    2    0    0  0.00000000000E+00  0.00000000000E+00  0.11013590507E+04  0.25496244682E+04  0.22994767166E+04 0.  0.
        2    1    3    3  502    0 -0.33323513131E+03  0.95511551562E+03  0.11565742733E+04  0.15365400582E+04  0.25500000920E-02 0.  1.
       -2    1    3    3    0  502  0.33323513131E+03 -0.95511551562E+03 -0.55215222598E+02  0.10130844100E+04  0.25500000920E-02 0. -1.
</event>
<event>
 5   0  0.3006265E-05  0.2302929E+04  0.7818609E-02  0.8476767E-01
        1   -1    0    0  501    0  0.00000000000E+00  0.00000000000E+00  0.21211617571E+04  0.21211617571E+04  0.50400001928E-02 0. -1.
       -1   -1    0    0    0  501  0.00000000000E+00  0.00000000000E+00 -0.62506790115E+03  0.62506790117E+03  0.50400001928E-02 0.  1.
    10030    2    1    2    0    0  0.00000000000E+00  0.00000000000E+00  0.14960938560E+04  0.27462296583E+04  0.23029286811E+04 0.  0.
        2    1    3    3  502    0 -0.10361869844E+04 -0.36727530450E+03  0.33963627543E+03  0.11506204481E+04  0.25500000920E-02 0.  1.
       -2    1    3    3    0  502  0.10361869844E+04  0.36727530450E+03  0.11564575805E+04  0.15956092102E+04  0.25500000920E-02 0. -1.
</event>
<event>
 5   0  0.6676612E-05  0.2263339E+04  0.7818609E-02  0.8492518E-01
       -2   -1    0    0    0  501  0.00000000000E+00  0.00000000000E+00  0.61546808241E+03  0.61546808241E+03  0.25500000920E-02 0.  1.
        2   -1    0    0  501    0  0.00000000000E+00  0.00000000000E+00 -0.20808166360E+04  0.20808166360E+04  0.25500000920E-02 0. -1.
    10030    2    1    2    0    0  0.00000000000E+00  0.00000000000E+00 -0.14653485536E+04  0.26962847184E+04  0.22633393248E+04 0.  0.
        2    1    3    3  502    0 -0.26013024424E+02 -0.76631311640E+03  0.25886211810E+03  0.80927255360E+03  0.25500000920E-02 0.  1.
       -2    1    3    3    0  502  0.26013024424E+02  0.76631311640E+03 -0.17242106717E+04  0.18870121648E+04  0.25500000920E-02 0. -1.
</event>
<event>
 5   0  0.6702421E-05  0.2290835E+04  0.7818609E-02  0.8481544E-01
        2   -1    0    0  501    0  0.00000000000E+00  0.00000000000E+00  0.12776917913E+04  0.12776917913E+04  0.25500000920E-02 0. -1.
       -2   -1    0    0    0  501  0.00000000000E+00  0.00000000000E+00 -0.10268370611E+04  0.10268370611E+04  0.25500000920E-02 0.  1.
    10030    2    1    2    0    0  0.00000000000E+00  0.00000000000E+00  0.25085473021E+03  0.23045288524E+04  0.22908350302E+04 0.  0.
        4    1    3    3  502    0 -0.34313061088E+03 -0.90264460475E+03 -0.49426938227E+03  0.10848086162E+04  0.12699999809E+01 0.  1.
       -4    1    3    3    0  502  0.34313061088E+03  0.90264460475E+03  0.74512411248E+03  0.12197202362E+04  0.12699999809E+01 0. -1.
</event>
<event>
 5   0  0.2962279E-05  0.2298521E+04  0.7818609E-02  0.8478505E-01
       -1   -1    0    0    0  501  0.00000000000E+00  0.00000000000E+00  0.70658956138E+03  0.70658956139E+03  0.50400001928E-02 0. -1.
        1   -1    0    0  501    0  0.00000000000E+00  0.00000000000E+00 -0.18692599552E+04  0.18692599552E+04  0.50400001928E-02 0.  1.
    10030    2    1    2    0    0  0.00000000000E+00  0.00000000000E+00 -0.11626703939E+04  0.25758495166E+04  0.22985208913E+04 0.  0.
        1    1    3    3  502    0  0.10560393519E+04  0.29952629075E+03 -0.19987682275E+03  0.11157445299E+04  0.50400001928E-02 0. -1.
       -1    1    3    3    0  502 -0.10560393519E+04 -0.29952629075E+03 -0.96279357112E+03  0.14601049867E+04  0.50400001928E-02 0.  1.
</event>
<event>
 5   0  0.3118614E-05  0.2323045E+04  0.7818609E-02  0.8468890E-01
       -1   -1    0    0    0  501  0.00000000000E+00  0.00000000000E+00  0.99779624528E+03  0.99779624529E+03  0.50400001928E-02 0. -1.
        1   -1    0    0  501    0  0.00000000000E+00  0.00000000000E+00 -0.13521147812E+04  0.13521147812E+04  0.50400001928E-02 0.  1.
    10030    2    1    2    0    0  0.00000000000E+00  0.00000000000E+00 -0.35431853596E+03  0.23499110265E+04  0.23230454597E+04 0.  0.
        3    1    3    3  502    0 -0.72486115347E+03  0.74837382522E+03  0.34224549097E+03  0.10966398955E+04  0.10100000352E+00 0. -1.
       -3    1    3    3    0  502  0.72486115347E+03 -0.74837382522E+03 -0.69656402693E+03  0.12532711310E+04  0.10100000352E+00 0.  1.
</event>
<event>
 5   0  0.6468758E-05  0.2295668E+04  0.7818609E-02  0.8479631E-01
       -2   -1    0    0    0  501  0.00000000000E+00  0.00000000000E+00  0.68562555462E+03  0.68562555462E+03  0.25500000920E-02 0. -1.
        2   -1    0    0  501    0  0.00000000000E+00  0.00000000000E+00 -0.19216369510E+04  0.19216369510E+04  0.25500000920E-02 0.  1.
    10030    2    1    2    0    0  0.00000000000E+00  0.00000000000E+00 -0.12360113964E+04  0.26072625057E+04  0.22956684433E+04 0.  0.
        3    1    3    3  502    0  0.87525234858E+03  0.61902965902E+03 -0.10838756971E+04  0.15244838239E+04  0.10100000352E+00 0.  1.
       -3    1    3    3    0  502 -0.87525234858E+03 -0.61902965902E+03 -0.15213569935E+03  0.10827786818E+04  0.10100000352E+00 0. -1.
</event>
<event>
 5   0  0.2944089E-05  0.2283777E+04  0.7818609E-02  0.8484345E-01
       -1   -1    0    0    0  501  0.00000000000E+00  0.00000000000E+00  0.10009533773E+04  0.10009533773E+04  0.50400001928E-02 0.  1.
        1   -1    0    0  501    0  0.00000000000E+00  0.00000000000E+00 -0.13026673797E+04  0.13026673797E+04  0.50400001928E-02 0. -1.
    10030    2    1    2    0    0  0.00000000000E+00  0.00000000000E+00 -0.30171400240E+03  0.23036207570E+04  0.22837769709E+04 0.  0.
        5    1    3    3  502    0  0.47542954054E+03 -0.36939068307E+03 -0.11295476268E+04  0.12799932249E+04  0.46999998093E+01 0. -1.
       -5    1    3    3    0  502 -0.47542954054E+03  0.36939068307E+03  0.82783362437E+03  0.10236275321E+04  0.46999998093E+01 0.  1.
</event>
<event>
 5   0  0.2982385E-05  0.2335455E+04  0.7818609E-02  0.8464071E-01
       -1   -1    0    0    0  501  0.00000000000E+00  0.00000000000E+00  0.81491379938E+03  0.81491379939E+03  0.50400001928E-02 0.  1.
        1   -1    0    0  501    0  0.00000000000E+00  0.00000000000E+00 -0.16732911675E+04  0.16732911675E+04  0.50400001928E-02 0. -1.
    10030    2    1    2    0    0  0.00000000000E+00  0.00000000000E+00 -0.85837736811E+03  0.24882049669E+04  0.23354554697E+04 0.  0.
        4    1    3    3  502    0  0.23052977959E+03  0.95760861990E+03 -0.10974515141E+04  0.14746388327E+04  0.12699999809E+01 0. -1.
       -4    1    3    3    0  502 -0.23052977959E+03 -0.95760861990E+03  0.23907414599E+03  0.10135661342E+04  0.12699999809E+01 0.  1.
</event>
<event>
 5   0  0.6702421E-05  0.2036300E+04  0.7818609E-02  0.8589835E-01
       -2   -1    0    0    0  501  0.00000000000E+00  0.00000000000E+00  0.60242075481E+03  0.60242075482E+03  0.25500000920E-02 0. -1.
        2   -1    0    0  501    0  0.00000000000E+00  0.00000000000E+00 -0.17207737075E+04  0.17207737075E+04  0.25500000920E-02 0.  1.
    10030    2    1    2    0    0  0.00000000000E+00  0.00000000000E+00 -0.11183529527E+04  0.23231944623E+04  0.20363003666E+04 0.  0.
        4    1    3    3  502    0 -0.39389186351E+03  0.87525597701E+03 -0.94675064834E+03  0.13481699553E+04  0.12699999809E+01 0. -1.
       -4    1    3    3    0  502  0.39389186351E+03 -0.87525597701E+03 -0.17160230433E+03  0.97502450697E+03  0.12699999809E+01 0.  1.
</event>
<event>
 5   0  0.6814789E-05  0.2308810E+04  0.7818609E-02  0.8474456E-01
       -2   -1    0    0    0  501  0.00000000000E+00  0.00000000000E+00  0.69945046162E+03  0.69945046163E+03  0.25500000920E-02 0. -1.
        2   -1    0    0  501    0  0.00000000000E+00  0.00000000000E+00 -0.19052820808E+04  0.19052820808E+04  0.25500000920E-02 0.  1.
    10030    2    1    2    0    0  0.00000000000E+00  0.00000000000E+00 -0.12058316192E+04  0.26047325424E+04  0.23088095902E+04 0.  0.
        1    1    3    3  502    0  0.88901166888E+03  0.57409695521E+02 -0.14311908259E+04  0.16858068694E+04  0.50400001928E-02 0.  1.
       -1    1    3    3    0  502 -0.88901166888E+03 -0.57409695521E+02  0.22535920674E+03  0.91892567307E+03  0.50400001928E-02 0. -1.
</event>
<event>
 5   0  0.3006265E-05  0.2310486E+04  0.7818609E-02  0.8473798E-01
       -1   -1    0    0    0  501  0.00000000000E+00  0.00000000000E+00  0.11112322493E+04  0.11112322493E+04  0.50400001928E-02 0. -1.
        1   -1    0    0  501    0  0.00000000000E+00  0.00000000000E+00 -0.12009970597E+04  0.12009970597E+04  0.50400001928E-02 0.  1.
    10030    2    1    2    0    0  0.00000000000E+00  0.00000000000E+00 -0.89764810353E+02  0.23122293090E+04  0.23104862381E+04 0.  0.
        2    1    3    3  502    0 -0.25049445325E+03  0.34383839184E+03 -0.11197571064E+04  0.11978431818E+04  0.25500000920E-02 0.  1.
       -2    1    3    3    0  502  0.25049445325E+03 -0.34383839184E+03  0.10299922960E+04  0.11143861273E+04  0.25500000920E-02 0. -1.
</event>
<event>
 5   0  0.6676612E-05  0.2343058E+04  0.7818609E-02  0.8461135E-01
        2   -1    0    0  501    0  0.00000000000E+00  0.00000000000E+00  0.20063079888E+04  0.20063079888E+04  0.25500000920E-02 0.  1.
       -2   -1    0    0    0  501  0.00000000000E+00  0.00000000000E+00 -0.68408222786E+03  0.68408222786E+03  0.25500000920E-02 0. -1.
    10030    2    1    2    0    0  0.00000000000E+00  0.00000000000E+00  0.13222257609E+04  0.26903902166E+04  0.23430575228E+04 0.  0.
        2    1    3    3  502    0  0.23382395325E+03 -0.10233809294E+04  0.12583048081E+04  0.16386925148E+04  0.25500000920E-02 0.  1.
       -2    1    3    3    0  502 -0.23382395325E+03  0.10233809294E+04  0.63920952776E+02  0.10516977018E+04  0.25500000920E-02 0. -1.
</event>
<event>
 5   0  0.6814789E-05  0.2308824E+04  0.7818609E-02  0.8474450E-01
       -2   -1    0    0    0  501  0.00000000000E+00  0.00000000000E+00  0.75145945673E+03  0.75145945674E+03  0.25500000920E-02 0. -1.
        2   -1    0    0  501    0  0.00000000000E+00  0.00000000000E+00 -0.17734381940E+04  0.17734381940E+04  0.25500000920E-02 0.  1.
    10030    2    1    2    0    0  0.00000000000E+00  0.00000000000E+00 -0.10219787372E+04  0.25248976507E+04  0.23088238580E+04 0.  0.
        1    1    3    3  502    0  0.47110313985E+03 -0.41837976908E+03 -0.15688252603E+04  0.16906189686E+04  0.50400001928E-02 0.  1.
       -1    1    3    3    0  502 -0.47110313985E+03  0.41837976908E+03  0.54684652310E+03  0.83427868209E+03  0.50400001928E-02 0. -1.
</event>
<event>
 5   0  0.6468758E-05  0.2191995E+04  0.7818609E-02  0.8521767E-01
       -2   -1    0    0    0  501  0.00000000000E+00  0.00000000000E+00  0.81166489509E+03  0.81166489510E+03  0.25500000920E-02 0.  1.
        2   -1    0    0  501    0  0.00000000000E+00  0.00000000000E+00 -0.14799346469E+04  0.14799346469E+04  0.25500000920E-02 0. -1.
    10030    2    1    2    0    0  0.00000000000E+00  0.00000000000E+00 -0.66826975179E+03  0.22915995420E+04  0.21919954379E+04 0.  0.
        3    1    3    3  502    0 -0.37867191389E+03 -0.47291572929E+03 -0.12889651447E+04  0.14242446629E+04  0.10100000352E+00 0. -1.
       -3    1    3    3    0  502  0.37867191389E+03  0.47291572929E+03  0.62069539287E+03  0.86735487911E+03  0.10100000352E+00 0.  1.
</event>
<event>
 5   0  0.6676612E-05  0.2218745E+04  0.7818609E-02  0.8510666E-01
       -2   -1    0    0    0  501  0.00000000000E+00  0.00000000000E+00  0.54273031555E+03  0.54273031556E+03  0.25500000920E-02 0.  1.
        2   -1    0    0  501    0  0.00000000000E+00  0.00000000000E+00 -0.22676223325E+04  0.22676223325E+04  0.25500000920E-02 0. -1.
    10030    2    1    2    0    0  0.00000000000E+00  0.00000000000E+00 -0.17248920170E+04  0.28103526481E+04  0.22187450363E+04 0.  0.
        2    1    3    3  502    0  0.67047536640E+03  0.60512099748E+03 -0.16784209325E+04  0.19059919898E+04  0.25500000920E-02 0. -1.
       -2    1    3    3    0  502 -0.67047536640E+03 -0.60512099748E+03 -0.46471084485E+02  0.90436065828E+03  0.25500000920E-02 0.  1.
</event>
<event>
 5   0  0.2944089E-05  0.2304403E+04  0.7818609E-02  0.8476187E-01
        1   -1    0    0  501    0  0.00000000000E+00  0.00000000000E+00  0.11613748902E+04  0.11613748902E+04  0.50400001928E-02 0. -1.
       -1   -1    0    0    0  501  0.00000000000E+00  0.00000000000E+00 -0.11431005876E+04  0.11431005876E+04  0.50400001928E-02 0.  1.
    10030    2    1    2    0    0  0.00000000000E+00  0.00000000000E+00  0.18274302601E+02  0.23044754778E+04  0.23044030198E+04 0.  0.
        5    1    3    3  502    0  0.95813843333E+03 -0.32728959427E+03  0.55906215586E+03  0.11565985994E+04  0.46999998093E+01 0. -1.
       -5    1    3    3    0  502 -0.95813843333E+03  0.32728959427E+03 -0.54078785326E+03  0.11478768785E+04  0.46999998093E+01 0.  1.
</event>
<event>
 5   0  0.6702421E-05  0.2292716E+04  0.7818609E-02  0.8480799E-01
       -2   -1    0    0    0  501  0.00000000000E+00  0.00000000000E+00  0.87320471202E+03  0.87320471202E+03  0.25500000920E-02 0.  1.
        2   -1    0    0  501    0  0.00000000000E+00  0.00000000000E+00 -0.15049586452E+04  0.15049586452E+04  0.25500000920E-02 0. -1.
    10030    2    1    2    0    0  0.00000000000E+00  0.00000000000E+00 -0.63175393316E+03  0.23781633572E+04  0.22927162758E+04 0.  0.
        4    1    3    3  502    0 -0.84557694722E+03  0.36087512393E+03 -0.10261632079E+04  0.13777676767E+04  0.12699999809E+01 0. -1.
       -4    1    3    3    0  502  0.84557694722E+03 -0.36087512393E+03  0.39440927473E+03  0.10003956805E+04  0.12699999809E+01 0.  1.
</event>
<event>
 5   0  0.3118614E-05  0.2192925E+04  0.7818609E-02  0.8521378E-01
       -1   -1    0    0    0  501  0.00000000000E+00  0.00000000000E+00  0.13397102892E+04  0.13397102892E+04  0.50400001928E-02 0. -1.
        1   -1    0    0  501    0  0.00000000000E+00  0.00000000000E+00 -0.89738097121E+03  0.89738097123E+03  0.50400001928E-02 0.  1.
    10030    2    1    2    0    0  0.00000000000E+00  0.00000000000E+00  0.44232931794E+03  0.22370912604E+04  0.21929254620E+04 0.  0.
        3    1    3    3  502    0  0.12304927718E+03 -0.99102515526E+03  0.68300602273E+03  0.12098633064E+04  0.10100000352E+00 0.  1.
       -3    1    3    3    0  502 -0.12304927718E+03  0.99102515526E+03 -0.24067670479E+03  0.10272279540E+04  0.10100000352E+00 0. -1.
</event>
<event>
 5   0  0.2962279E-05  0.2222685E+04  0.7818609E-02  0.8509045E-01
       -1   -1    0    0    0  501  0.00000000000E+00  0.00000000000E+00  0.84835888347E+03  0.84835888348E+03  0.50400001928E-02 0. -1.
        1   -1    0    0  501    0  0.00000000000E+00  0.00000000000E+00 -0.14558480984E+04  0.14558480984E+04  0.50400001928E-02 0.  1.
    10030    2    1    2    0    0  0.00000000000E+00  0.00000000000E+00 -0.60748921494E+03  0.23042069819E+04  0.22226845636E+04 0.  0.
        1    1    3    3  502    0  0.40927927734E+03  0.90286369070E+03  0.21708579571E+03  0.10147899357E+04  0.50400001928E-02 0. -1.
       -1    1    3    3    0  502 -0.40927927734E+03 -0.90286369070E+03 -0.82457501065E+03  0.12894170462E+04  0.50400001928E-02 0.  1.
</event>
<event>
 5   0  0.6468758E-05  0.2297847E+04  0.7818609E-02  0.8478771E-01
       -2   -1    0    0    0  501  0.00000000000E+00  0.00000000000E+00  0.81576998396E+03  0.81576998396E+03  0.25500000920E-02 0.  1.
        2   -1    0    0  501    0  0.00000000000E+00  0.00000000000E+00 -0.16181334613E+04  0.16181334613E+04  0.25500000920E-02 0. -1.
    10030    2    1    2    0    0  0.00000000000E+00  0.00000000000E+00 -0.80236347732E+03  0.24339034452E+04  0.22978465639E+04 0.  0.
        3    1    3    3  502    0  0.52455892398E+03 -0.46785076010E+03 -0.13638278001E+04  0.15342987574E+04  0.10100000352E+00 0. -1.
       -3    1    3    3    0  502 -0.52455892398E+03  0.46785076010E+03  0.56146432277E+03  0.89960468785E+03  0.10100000352E+00 0.  1.
</event>
<event>
 5   0  0.2342500E-05  0.2310360E+04  0.7818609E-02  0.8473847E-01
       -3   -1    0    0    0  501  0.00000000000E+00  0.00000000000E+00  0.11859869062E+04  0.11859869105E+04  0.10100000352E+00 0.  1.
        3   -1    0    0  501    0  0.00000000000E+00  0.00000000000E+00 -0.11251738000E+04  0.11251738046E+04  0.10100000352E+00 0. -1.
    10030    2    1    2    0    0  0.00000000000E+00  0.00000000000E+00  0.60813106134E+02  0.23111607150E+04  0.23103604950E+04 0.  0.
        1    1    3    3  502    0  0.36808774402E+02 -0.35924386225E+03 -0.10672566784E+04  0.11266977661E+04  0.50400001928E-02 0. -1.
       -1    1    3    3    0  502 -0.36808774402E+02  0.35924386225E+03  0.11280697846E+04  0.11844629489E+04  0.50400001928E-02 0.  1.
</event>
<event>
 5   0  0.3118614E-05  0.2275105E+04  0.7818609E-02  0.8487802E-01
       -1   -1    0    0    0  501  0.00000000000E+00  0.00000000000E+00  0.11016760848E+04  0.11016760848E+04  0.50400001928E-02 0. -1.
        1   -1    0    0  501    0  0.00000000000E+00  0.00000000000E+00 -0.11745972279E+04  0.11745972279E+04  0.50400001928E-02 0.  1.
    10030    2    1    2    0    0  0.00000000000E+00  0.00000000000E+00 -0.72921143091E+02  0.22762733127E+04  0.22751049868E+04 0.  0.
        3    1    3    3  502    0 -0.44647606404E+02  0.15622892121E+03  0.10900060421E+04  0.11020499384E+04  0.10100000352E+00 0. -1.
       -3    1    3    3    0  502  0.44647606404E+02 -0.15622892121E+03 -0.11629271852E+04  0.11742233744E+04  0.10100000352E+00 0.  1.
</event>
<event>
 5   0  0.2982385E-05  0.2257958E+04  0.7818609E-02  0.8494685E-01
        1   -1    0    0  501    0  0.00000000000E+00  0.00000000000E+00  0.13289297249E+04  0.13289297249E+04  0.50400001928E-02 0. -1.
       -1   -1    0    0    0  501  0.00000000000E+00  0.00000000000E+00 -0.95911247605E+03  0.95911247606E+03  0.50400001928E-02 0.  1.
    10030    2    1    2    0    0  0.00000000000E+00  0.00000000000E+00  0.36981724885E+03  0.22880422010E+04  0.22579575540E+04 0.  0.
        4    1    3    3  502    0 -0.86342722075E+03  0.32319908292E+03 -0.47540793555E+03  0.10372938498E+04  0.12699999809E+01 0.  1.
       -4    1    3    3    0  502  0.86342722075E+03 -0.32319908292E+03  0.84522518440E+03  0.12507483512E+04  0.12699999809E+01 0. -1.
</event>
<event>
 5   0  0.2944089E-05  0.2294397E+04  0.7818609E-02  0.8480134E-01
        1   -1    0    0  501    0  0.00000000000E+00  0.00000000000E+00  0.15783188433E+04  0.15783188433E+04  0.50400001928E-02 0.  1.
       -1   -1    0    0    0  501  0.00000000000E+00  0.00000000000E+00 -0.83383922509E+03  0.83383922511E+03  0.50400001928E-02 0. -1.
    10030    2    1    2    0    0  0.00000000000E+00  0.00000000000E+00  0.74447961821E+03  0.24121580684E+04  0.22943967933E+04 0.  0.
        5    1    3    3  502    0 -0.32354983983E+03 -0.84131776271E+03 -0.37378811672E+03  0.97582771169E+03  0.46999998093E+01 0. -1.
       -5    1    3    3    0  502  0.32354983983E+03  0.84131776271E+03  0.11182677349E+04  0.14363303567E+04  0.46999998093E+01 0.  1.
</event>
<event>
 5   0  0.2982385E-05  0.2300495E+04  0.7818609E-02  0.8477726E-01
       -1   -1    0    0    0  501  0.00000000000E+00  0.00000000000E+00  0.91495143726E+03  0.91495143728E+03  0.50400001928E-02 0.  1.
        1   -1    0    0  501    0  0.00000000000E+00  0.00000000000E+00 -0.14460542487E+04  0.14460542487E+04  0.50400001928E-02 0. -1.
    10030    2    1    2    0    0  0.00000000000E+00  0.00000000000E+00 -0.53110281142E+03  0.23610056860E+04  0.23004950886E+04 0.  0.
        4    1    3    3  502    0  0.83918517322E+03 -0.33256513856E+03  0.46610745628E+03  0.10159178609E+04  0.12699999809E+01 0.  1.
       -4    1    3    3    0  502 -0.83918517322E+03  0.33256513856E+03 -0.99721026769E+03  0.13450878251E+04  0.12699999809E+01 0. -1.
</event>
<event>
 5   0  0.6468758E-05  0.2249848E+04  0.7818609E-02  0.8497962E-01
        2   -1    0    0  501    0  0.00000000000E+00  0.00000000000E+00  0.16393707319E+04  0.16393707319E+04  0.25500000920E-02 0.  1.
       -2   -1    0    0    0  501  0.00000000000E+00  0.00000000000E+00 -0.77191414566E+03  0.77191414566E+03  0.25500000920E-02 0. -1.
    10030    2    1    2    0    0  0.00000000000E+00  0.00000000000E+00  0.86745658622E+03  0.24112848775E+04  0.22498475130E+04 0.  0.
        3    1    3    3  502    0  0.18128874311E+03 -0.64233930039E+03 -0.53677989380E+03  0.85650338574E+03  0.10100000352E+00 0. -1.
       -3    1    3    3    0  502 -0.18128874311E+03  0.64233930039E+03  0.14042364800E+04  0.15547814918E+04  0.10100000352E+00 0.  1.
</event>
<event>
 5   0  0.2962279E-05  0.2404459E+04  0.7818609E-02  0.8437836E-01
        1   -1    0    0  501    0  0.00000000000E+00  0.00000000000E+00  0.10866911117E+04  0.10866911117E+04  0.50400001928E-02 0.  1.
       -1   -1    0    0    0  501  0.00000000000E+00  0.00000000000E+00 -0.13300520805E+04  0.13300520805E+04  0.50400001928E-02 0. -1.
    10030    2    1    2    0    0  0.00000000000E+00  0.00000000000E+00 -0.24336096877E+03  0.24167431922E+04  0.24044590027E+04 0.  0.
        1    1    3    3  502    0 -0.46118286351E+03  0.74700085807E+03 -0.94725119224E+03  0.12915048342E+04  0.50400001928E-02 0. -1.
       -1    1    3    3    0  502  0.46118286351E+03 -0.74700085807E+03  0.70389022348E+03  0.11252383580E+04  0.50400001928E-02 0.  1.
</event>
<event>
 5   0  0.6468758E-05  0.2036064E+04  0.7818609E-02  0.8589943E-01
       -2   -1    0    0    0  501  0.00000000000E+00  0.00000000000E+00  0.59360352264E+03  0.59360352264E+03  0.25500000920E-02 0.  1.
        2   -1    0    0  501    0  0.00000000000E+00  0.00000000000E+00 -0.17459276467E+04  0.17459276467E+04  0.25500000920E-02 0. -1.
    10030    2    1    2    0    0  0.00000000000E+00  0.00000000000E+00 -0.11523241241E+04  0.23395311694E+04  0.20360636546E+04 0.  0.
        3    1    3    3  502    0 -0.48601783853E+03 -0.43602478604E+03  0.32131423984E+03  0.72771821767E+03  0.10100000352E+00 0.  1.
       -3    1    3    3    0  502  0.48601783853E+03  0.43602478604E+03 -0.14736383639E+04  0.16118129517E+04  0.10100000352E+00 0. -1.
</event>
<event>
 5   0  0.6702421E-05  0.2294990E+04  0.7818609E-02  0.8479899E-01
       -2   -1    0    0    0  501  0.00000000000E+00  0.00000000000E+00  0.55942661002E+03  0.55942661003E+03  0.25500000920E-02 0. -1.
        2   -1    0    0  501    0  0.00000000000E+00  0.00000000000E+00 -0.23537395626E+04  0.23537395626E+04  0.25500000920E-02 0.  1.
    10030    2    1    2    0    0  0.00000000000E+00  0.00000000000E+00 -0.17943129526E+04  0.29131661726E+04  0.22949897990E+04 0.  0.
        4    1    3    3  502    0 -0.76599778228E+03  0.85300639474E+03 -0.95895770495E+03  0.14946484552E+04  0.12699999809E+01 0. -1.
       -4    1    3    3    0  502  0.76599778228E+03 -0.85300639474E+03 -0.83535524761E+03  0.14185177174E+04  0.12699999809E+01 0.  1.
</event>
<event>
 5   0  0.2982385E-05  0.2232415E+04  0.7818609E-02  0.8505056E-01
       -1   -1    0    0    0  501  0.00000000000E+00  0.00000000000E+00  0.11143189396E+04  0.11143189396E+04  0.50400001928E-02 0.  1.
        1   -1    0    0  501    0  0.00000000000E+00  0.00000000000E+00 -0.11180990405E+04  0.11180990405E+04  0.50400001928E-02 0. -1.
    10030    2    1    2    0    0  0.00000000000E+00  0.00000000000E+00 -0.37801008882E+01  0.22324179801E+04  0.22324147798E+04 0.  0.
        4    1    3    3  502    0  0.45392391436E+03  0.10184832342E+04 -0.52509347749E+02  0.11162947025E+04  0.12699999809E+01 0. -1.
       -4    1    3    3    0  502 -0.45392391436E+03 -0.10184832342E+04  0.48729246861E+02  0.11161232776E+04  0.12699999809E+01 0.  1.
</event>
<event>
 5   0  0.2962279E-05  0.2287274E+04  0.7818609E-02  0.8482956E-01
       -1   -1    0    0    0  501  0.00000000000E+00  0.00000000000E+00  0.55650482067E+03  0.55650482069E+03  0.50400001928E-02 0.  1.
        1   -1    0    0  501    0  0.00000000000E+00  0.00000000000E+00 -0.23502147672E+04  0.23502147672E+04  0.50400001928E-02 0. -1.
    10030    2    1    2    0    0  0.00000000000E+00  0.00000000000E+00 -0.17937099465E+04  0.29067195879E+04  0.22872742272E+04 0.  0.
        1    1    3    3  502    0  0.39137776390E+03 -0.99846033047E+03 -0.39202280906E+03  0.11418325045E+04  0.50400001928E-02 0.  1.
       -1    1    3    3    0  502 -0.39137776390E+03  0.99846033047E+03 -0.14016871375E+04  0.17648870833E+04  0.50400001928E-02 0. -1.
</event>
<event>
 5   0  0.6676612E-05  0.2302336E+04  0.7818609E-02  0.8477001E-01
       -2   -1    0    0    0  501  0.00000000000E+00  0.00000000000E+00  0.73956382998E+03  0.73956382998E+03  0.25500000920E-02 0.  1.
        2   -1    0    0  501    0  0.00000000000E+00  0.00000000000E+00 -0.17918509250E+04  0.17918509250E+04  0.25500000920E-02 0. -1.
    10030    2    1    2    0    0  0.00000000000E+00  0.00000000000E+00 -0.10522870950E+04  0.25314147550E+04  0.23023363202E+04 0.  0.
        2    1    3    3  502    0 -0.29911030808E+03  0.71700526579E+03  0.40786361987E+03  0.87744872214E+03  0.25500000920E-02 0.  1.
       -2    1    3    3    0  502  0.29911030808E+03 -0.71700526579E+03 -0.14601507149E+04  0.16539660328E+04  0.25500000920E-02 0. -1.
</event>
<event>
 5   0  0.6468758E-05  0.2270400E+04  0.7818609E-02  0.8489684E-01
        2   -1    0    0  501    0  0.00000000000E+00  0.00000000000E+00  0.81560105535E+03  0.81560105535E+03  0.25500000920E-02 0.  1.
       -2   -1    0    0    0  501  0.00000000000E+00  0.00000000000E+00 -0.15800354833E+04  0.15800354833E+04  0.25500000920E-02 0. -1.
    10030    2    1    2    0    0  0.00000000000E+00  0.00000000000E+00 -0.76443442792E+03  0.23956365386E+04  0.22703996191E+04 0.  0.
        3    1    3    3  502    0 -0.86778709165E+03 -0.48950957431E+03  0.19185669287E+03  0.10146344468E+04  0.10100000352E+00 0.  1.
       -3    1    3    3    0  502  0.86778709165E+03  0.48950957431E+03 -0.95629112079E+03  0.13810020918E+04  0.10100000352E+00 0. -1.
</event>
<event>
 5   0  0.2982385E-05  0.2238906E+04  0.7818609E-02  0.8502407E-01
       -1   -1    0    0    0  501  0.00000000000E+00  0.00000000000E+00  0.10681743150E+04  0.10681743150E+04  0.50400001928E-02 0. -1.
        1   -1    0    0  501    0  0.00000000000E+00  0.00000000000E+00 -0.11731934756E+04  0.11731934756E+04  0.50400001928E-02 0.  1.
    10030    2    1    2    0    0  0.00000000000E+00  0.00000000000E+00 -0.10501916055E+03  0.22413677906E+04  0.22389061054E+04 0.  0.
        4    1    3    3  502    0  0.68220562366E+03 -0.73774614802E+03 -0.54650895702E+03  0.11438302081E+04  0.12699999809E+01 0.  1.
       -4    1    3    3    0  502 -0.68220562366E+03  0.73774614802E+03  0.44148979646E+03  0.10975375826E+04  0.12699999809E+01 0. -1.
</event>
<event>
 5   0  0.3006265E-05  0.2298988E+04  0.7818609E-02  0.8478320E-01
       -1   -1    0    0    0  501  0.00000000000E+00  0.00000000000E+00  0.53084466333E+03  0.53084466336E+03  0.50400001928E-02 0. -1.
        1   -1    0    0  501    0  0.00000000000E+00  0.00000000000E+00 -0.24891197618E+04  0.24891197618E+04  0.50400001928E-02 0.  1.
    10030    2    1    2    0    0  0.00000000000E+00  0.00000000000E+00 -0.19582750985E+04  0.30199644252E+04  0.22989875528E+04 0.  0.
        2    1    3    3  502    0  0.93680626880E+03  0.53458197948E+03 -0.15012064937E+04  0.18485142182E+04  0.25500000920E-02 0.  1.
       -2    1    3    3    0  502 -0.93680626880E+03 -0.53458197948E+03 -0.45706860478E+03  0.11714502070E+04  0.25500000920E-02 0. -1.
</event>
<event>
 5   0  0.2962279E-05  0.2335345E+04  0.7818609E-02  0.8464114E-01
        1   -1    0    0  501    0  0.00000000000E+00  0.00000000000E+00  0.10022953648E+04  0.10022953648E+04  0.50400001928E-02 0.  1.
       -1   -1    0    0    0  501  0.00000000000E+00  0.00000000000E+00 -0.13603370592E+04  0.13603370592E+04  0.50400001928E-02 0. -1.
    10030    2    1    2    0    0  0.00000000000E+00  0.00000000000E+00 -0.35804169433E+03  0.23626324240E+04  0.23353453955E+04 0.  0.
        1    1    3    3  502    0  0.11556228585E+04  0.11647505858E+03 -0.30054472807E+03  0.11997323718E+04  0.50400001928E-02 0. -1.
       -1    1    3    3    0  502 -0.11556228585E+04 -0.11647505858E+03 -0.57496966266E+02  0.11629000522E+04  0.50400001928E-02 0.  1.
</event>
<event>
 5   0  0.6676612E-05  0.2264019E+04  0.7818609E-02  0.8492244E-01
       -2   -1    0    0    0  501  0.00000000000E+00  0.00000000000E+00  0.80772191761E+03  0.80772191761E+03  0.25500000920E-02 0.  1.
        2   -1    0    0  501    0  0.00000000000E+00  0.00000000000E+00 -0.15864939159E+04  0.15864939159E+04  0.25500000920E-02 0. -1.
    10030    2    1    2    0    0  0.00000000000E+00  0.00000000000E+00 -0.77877199826E+03  0.23942158335E+04  0.22640193533E+04 0.  0.
        2    1    3    3  502    0  0.97361707769E+03 -0.14171443302E+03 -0.98143182682E+03  0.13896840019E+04  0.25500000920E-02 0. -1.
       -2    1    3    3    0  502 -0.97361707769E+03  0.14171443302E+03  0.20265982856E+03  0.10045318316E+04  0.25500000920E-02 0.  1.
</event>
<event>
 5   0  0.2944089E-05  0.2358532E+04  0.7818609E-02  0.8455194E-01
       -1   -1    0    0    0  501  0.00000000000E+00  0.00000000000E+00  0.73351675038E+03  0.73351675040E+03  0.50400001928E-02 0. -1.
        1   -1    0    0  501    0  0.00000000000E+00  0.00000000000E+00 -0.18958912636E+04  0.18958912636E+04  0.50400001928E-02 0.  1.
    10030    2    1    2    0    0  0.00000000000E+00  0.00000000000E+00 -0.11623745132E+04  0.26294080140E+04  0.23585317456E+04 0.  0.
        5    1    3    3  502    0  0.61622100723E+03  0.14153848975E+03  0.52856940150E+03  0.82411721013E+03  0.46999998093E+01 0. -1.
       -5    1    3    3    0  502 -0.61622100723E+03 -0.14153848975E+03 -0.16909439147E+04  0.18052908038E+04  0.46999998093E+01 0.  1.
</event>
<event>
 5   0  0.3118614E-05  0.2257621E+04  0.7818609E-02  0.8494820E-01
        1   -1    0    0  501    0  0.00000000000E+00  0.00000000000E+00  0.16313118527E+04  0.16313118527E+04  0.50400001928E-02 0.  1.
       -1   -1    0    0    0  501  0.00000000000E+00  0.00000000000E+00 -0.78109731697E+03  0.78109731699E+03  0.50400001928E-02 0. -1.
    10030    2    1    2    0    0  0.00000000000E+00  0.00000000000E+00  0.85021453568E+03  0.24124091696E+04  0.22576211474E+04 0.  0.
        3    1    3    3  502    0 -0.84032597569E+03  0.72618092437E+03  0.20946188670E+03  0.11302038633E+04  0.10100000352E+00 0.  1.
       -3    1    3    3    0  502  0.84032597569E+03 -0.72618092437E+03  0.64075264898E+03  0.12822053064E+04  0.10100000352E+00 0. -1.
</event>
<event>
 5   0  0.6468758E-05  0.2282631E+04  0.7818609E-02  0.8484801E-01
        2   -1    0    0  501    0  0.00000000000E+00  0.00000000000E+00  0.20836064936E+04  0.20836064936E+04  0.25500000920E-02 0.  1.
       -2   -1    0    0    0  501  0.00000000000E+00  0.00000000000E+00 -0.62516659321E+03  0.62516659322E+03  0.25500000920E-02 0. -1.
    10030    2    1    2    0    0  0.00000000000E+00  0.00000000000E+00  0.14584399004E+04  0.27087730868E+04  0.22826310900E+04 0.  0.
        3    1    3    3  502    0 -0.16295400423E+03 -0.98051362560E+03  0.63572929683E+02  0.99599322541E+03  0.10100000352E+00 0. -1.
       -3    1    3    3    0  502  0.16295400423E+03  0.98051362560E+03  0.13948669707E+04  0.17127798614E+04  0.10100000352E+00 0.  1.
</event>
<event>
 5   0  0.6468758E-05  0.2284664E+04  0.7818609E-02  0.8483992E-01
       -2   -1    0    0    0  501  0.00000000000E+00  0.00000000000E+00  0.93239681932E+03  0.93239681933E+03  0.25500000920E-02 0. -1.
        2   -1    0    0  501    0  0.00000000000E+00  0.00000000000E+00 -0.13995360190E+04  0.13995360190E+04  0.25500000920E-02 0.  1.
    10030    2    1    2    0    0  0.00000000000E+00  0.00000000000E+00 -0.46713919971E+03  0.23319328384E+04  0.22846644679E+04 0.  0.
        3    1    3    3  502    0 -0.69680613054E+03  0.53189488232E+03 -0.98116587668E+03  0.13157269615E+04  0.10100000352E+00 0.  1.
       -3    1    3    3    0  502  0.69680613054E+03 -0.53189488232E+03  0.51402667697E+03  0.10162058769E+04  0.10100000352E+00 0. -1.
</event>
<event>
 5   0  0.2962279E-05  0.2325621E+04  0.7818609E-02  0.8467887E-01
        1   -1    0    0  501    0  0.00000000000E+00  0.00000000000E+00  0.11141303836E+04  0.11141303836E+04  0.50400001928E-02 0.  1.
       -1   -1    0    0    0  501  0.00000000000E+00  0.00000000000E+00 -0.12136172282E+04  0.12136172282E+04  0.50400001928E-02 0. -1.
    10030    2    1    2    0    0  0.00000000000E+00  0.00000000000E+00 -0.99486844685E+02  0.23277476118E+04  0.23256206294E+04 0.  0.
        1    1    3    3  502    0 -0.11573208424E+04 -0.67042084351E+02  0.41123166558E+02  0.11599902104E+04  0.50400001928E-02 0.  1.
       -1    1    3    3    0  502  0.11573208424E+04  0.67042084351E+02 -0.14061001124E+03  0.11677574014E+04  0.50400001928E-02 0. -1.
</event>
<event>
 5   0  0.6814789E-05  0.2309971E+04  0.7818609E-02  0.8474000E-01
       -2   -1    0    0    0  501  0.00000000000E+00  0.00000000000E+00  0.90570236168E+03  0.90570236169E+03  0.25500000920E-02 0.  1.
        2   -1    0    0  501    0  0.00000000000E+00  0.00000000000E+00 -0.14728804916E+04  0.14728804916E+04  0.25500000920E-02 0. -1.
    10030    2    1    2    0    0  0.00000000000E+00  0.00000000000E+00 -0.56717812990E+03  0.23785828533E+04  0.23099708567E+04 0.  0.
        1    1    3    3  502    0 -0.15510770195E+02 -0.33110200469E+03 -0.14228525382E+04  0.14609512199E+04  0.50400001928E-02 0. -1.
       -1    1    3    3    0  502  0.15510770195E+02  0.33110200469E+03  0.85567440830E+03  0.91763163336E+03  0.50400001928E-02 0.  1.
</event>
<event>
 5   0  0.3006265E-05  0.2300275E+04  0.7818609E-02  0.8477813E-01
        1   -1    0    0  501    0  0.00000000000E+00  0.00000000000E+00  0.16603627995E+04  0.16603627995E+04  0.50400001928E-02 0.  1.
       -1   -1    0    0    0  501  0.00000000000E+00  0.00000000000E+00 -0.79670326065E+03  0.79670326067E+03  0.50400001928E-02 0. -1.
    10030    2    1    2    0    0  0.00000000000E+00  0.00000000000E+00  0.86365953889E+03  0.24570660602E+04  0.23002751629E+04 0.  0.
        2    1    3    3  502    0  0.10694565624E+04 -0.39385048474E+03  0.26648566071E+03  0.11704145208E+04  0.25500000920E-02 0. -1.
       -2    1    3    3    0  502 -0.10694565624E+04  0.39385048474E+03  0.59717387818E+03  0.12866515394E+04  0.25500000920E-02 0.  1.
</event>
<event>
 5   0  0.2962279E-05  0.2260772E+04  0.7818609E-02  0.8493551E-01
        1   -1    0    0  501    0  0.00000000000E+00  0.00000000000E+00  0.11088421576E+04  0.11088421577E+04  0.50400001928E-02 0.  1.
       -1   -1    0    0    0  501  0.00000000000E+00  0.00000000000E+00 -0.11523481393E+04  0.11523481393E+04  0.50400001928E-02 0. -1.
    10030    2    1    2    0    0  0.00000000000E+00  0.00000000000E+00 -0.43505981616E+02  0.22611902969E+04  0.22607717241E+04 0.  0.
        1    1    3    3  502    0 -0.79821757044E+03 -0.73765466962E+03 -0.33243325606E+03  0.11365727302E+04  0.50400001928E-02 0. -1.
       -1    1    3    3    0  502  0.79821757044E+03  0.73765466962E+03  0.28892727444E+03  0.11246175667E+04  0.50400001928E-02 0.  1.
</event>
<event>
 5   0  0.6495405E-05  0.2298473E+04  0.7818609E-02  0.8478523E-01
        2   -1    0    0  501    0  0.00000000000E+00  0.00000000000E+00  0.10649020669E+04  0.10649020669E+04  0.25500000920E-02 0. -1.
       -2   -1    0    0    0  501  0.00000000000E+00  0.00000000000E+00 -0.12402496618E+04  0.12402496618E+04  0.25500000920E-02 0.  1.
    10030    2    1    2    0    0  0.00000000000E+00  0.00000000000E+00 -0.17534759492E+03  0.23051517288E+04  0.22984729090E+04 0.  0.
        5    1    3    3  502    0 -0.21230324852E+03 -0.87328094956E+03 -0.80601624533E+03  0.12072185237E+04  0.46999998093E+01 0.  1.
       -5    1    3    3    0  502  0.21230324852E+03  0.87328094956E+03  0.63066865041E+03  0.10979332051E+04  0.46999998093E+01 0. -1.
</event>
<event>
 5   0  0.6814789E-05  0.2167432E+04  0.7818609E-02  0.8532107E-01
       -2   -1    0    0    0  501  0.00000000000E+00  0.00000000000E+00  0.15314121558E+04  0.15314121558E+04  0.25500000920E-02 0.  1.
        2   -1    0    0  501    0  0.00000000000E+00  0.00000000000E+00 -0.76690004011E+03  0.76690004011E+03  0.25500000920E-02 0. -1.
    10030    2    1    2    0    0  0.00000000000E+00  0.00000000000E+00  0.76451211567E+03  0.22983121959E+04  0.21674317001E+04 0.  0.
        1    1    3    3  502    0 -0.37412756975E+03  0.31812590604E+03  0.14066475830E+04  0.14899103843E+04  0.50400001928E-02 0.  1.
       -1    1    3    3    0  502  0.37412756975E+03 -0.31812590604E+03 -0.64213546732E+03  0.80840181157E+03  0.50400001928E-02 0. -1.
</event>
<event>
 5   0  0.3006265E-05  0.2342445E+04  0.7818609E-02  0.8461371E-01
       -1   -1    0    0    0  501  0.00000000000E+00  0.00000000000E+00  0.59999638047E+03  0.59999638049E+03  0.50400001928E-02 0.  1.
        1   -1    0    0  501    0  0.00000000000E+00  0.00000000000E+00 -0.22862841790E+04  0.22862841790E+04  0.50400001928E-02 0. -1.
    10030    2    1    2    0    0  0.00000000000E+00  0.00000000000E+00 -0.16862877986E+04  0.28862805595E+04  0.23424450749E+04 0.  0.
        2    1    3    3  502    0  0.88597121910E+03 -0.75482955653E+03 -0.10040327185E+04  0.15371383673E+04  0.25500000920E-02 0.  1.
       -2    1    3    3    0  502 -0.88597121910E+03  0.75482955653E+03 -0.68225508007E+03  0.13491421922E+04  0.25500000920E-02 0. -1.
</event>
<event>
 5   0  0.3006265E-05  0.2301191E+04  0.7818609E-02  0.8477452E-01
       -1   -1    0    0    0  501  0.00000000000E+00  0.00000000000E+00  0.88968070662E+03  0.88968070663E+03  0.50400001928E-02 0.  1.
        1   -1    0    0  501    0  0.00000000000E+00  0.00000000000E+00 -0.14880280892E+04  0.14880280892E+04  0.50400001928E-02 0. -1.
    10030    2    1    2    0    0  0.00000000000E+00  0.00000000000E+00 -0.59834738254E+03  0.23777087958E+04  0.23011908933E+04 0.  0.
        2    1    3    3  502    0 -0.30414370692E+03  0.48201813878E+03  0.73357391281E+03  0.92896478197E+03  0.25500000920E-02 0.  1.
       -2    1    3    3    0  502  0.30414370692E+03 -0.48201813878E+03 -0.13319212953E+04  0.14487440138E+04  0.25500000920E-02 0. -1.
</event>
<event>
 5   0  0.6676612E-05  0.2308754E+04  0.7818609E-02  0.8474477E-01
       -2   -1    0    0    0  501  0.00000000000E+00  0.00000000000E+00  0.75367408266E+03  0.75367408267E+03  0.25500000920E-02 0.  1.
        2   -1    0    0  501    0  0.00000000000E+00  0.00000000000E+00 -0.17681204338E+04  0.17681204338E+04  0.25500000920E-02 0. -1.
    10030    2    1    2    0    0  0.00000000000E+00  0.00000000000E+00 -0.10144463512E+04  0.25217945165E+04  0.23087542494E+04 0.  0.
        2    1    3    3  502    0  0.19480575535E+03 -0.93202378801E+03  0.20566423593E+03  0.97412288839E+03  0.25500000920E-02 0.  1.
       -2    1    3    3    0  502 -0.19480575535E+03  0.93202378801E+03 -0.12201105871E+04  0.15476716281E+04  0.25500000920E-02 0. -1.
</event>
<event>
 5   0  0.3118614E-05  0.2392861E+04  0.7818609E-02  0.8442181E-01
       -1   -1    0    0    0  501  0.00000000000E+00  0.00000000000E+00  0.12199654434E+04  0.12199654435E+04  0.50400001928E-02 0.  1.
        1   -1    0    0  501    0  0.00000000000E+00  0.00000000000E+00 -0.11733495945E+04  0.11733495945E+04  0.50400001928E-02 0. -1.
    10030    2    1    2    0    0  0.00000000000E+00  0.00000000000E+00  0.46615848990E+02  0.23933150379E+04  0.23928610142E+04 0.  0.
        3    1    3    3  502    0 -0.96627817404E+03  0.41106624018E+03 -0.55019164957E+03  0.11854871677E+04  0.10100000352E+00 0. -1.
       -3    1    3    3    0  502  0.96627817404E+03 -0.41106624018E+03  0.59680749856E+03  0.12078278702E+04  0.10100000352E+00 0.  1.
</event>
<event>
 5   0  0.6495405E-05  0.2292272E+04  0.7818609E-02  0.8480974E-01
       -2   -1    0    0    0  501  0.00000000000E+00  0.00000000000E+00  0.84983315035E+03  0.84983315036E+03  0.25500000920E-02 0.  1.
        2   -1    0    0  501    0  0.00000000000E+00  0.00000000000E+00 -0.15457479731E+04  0.15457479731E+04  0.25500000920E-02 0. -1.
    10030    2    1    2    0    0  0.00000000000E+00  0.00000000000E+00 -0.69591482272E+03  0.23955811234E+04  0.22922721214E+04 0.  0.
        5    1    3    3  502    0  0.10601710620E+03  0.41341281618E+03 -0.14595958202E+04  0.15207208264E+04  0.46999998093E+01 0. -1.
       -5    1    3    3    0  502 -0.10601710620E+03 -0.41341281618E+03  0.76368099751E+03  0.87486029704E+03  0.46999998093E+01 0.  1.
</event>
<event>
 5   0  0.3118614E-05  0.2156741E+04  0.7818609E-02  0.8536652E-01
       -1   -1    0    0    0  501  0.00000000000E+00  0.00000000000E+00  0.61527134502E+03  0.61527134504E+03  0.50400001928E-02 0.  1.
        1   -1    0    0  501    0  0.00000000000E+00  0.00000000000E+00 -0.18900324654E+04  0.18900324655E+04  0.50400001928E-02 0. -1.
    10030    2    1    2    0    0  0.00000000000E+00  0.00000000000E+00 -0.12747611204E+04  0.25053038105E+04  0.21567408905E+04 0.  0.
        3    1    3    3  502    0  0.74704018700E+03 -0.73157791852E+03 -0.94385234095E+03  0.14085923980E+04  0.10100000352E+00 0.  1.
       -3    1    3    3    0  502 -0.74704018700E+03  0.73157791852E+03 -0.33090877948E+03  0.10967114125E+04  0.10100000352E+00 0. -1.
</event>
<event>
 5   0  0.6676612E-05  0.2289769E+04  0.7818609E-02  0.8481966E-01
       -2   -1    0    0    0  501  0.00000000000E+00  0.00000000000E+00  0.93942173375E+03  0.93942173375E+03  0.25500000920E-02 0. -1.
        2   -1    0    0  501    0  0.00000000000E+00  0.00000000000E+00 -0.13952844767E+04  0.13952844767E+04  0.25500000920E-02 0.  1.
    10030    2    1    2    0    0  0.00000000000E+00  0.00000000000E+00 -0.45586274297E+03  0.23347062105E+04  0.22897690383E+04 0.  0.
        2    1    3    3  502    0  0.23702712851E+03  0.59500220816E+03  0.73966612131E+03  0.97842498864E+03  0.25500000920E-02 0. -1.
       -2    1    3    3    0  502 -0.23702712851E+03 -0.59500220816E+03 -0.11955288643E+04  0.13562812218E+04  0.25500000920E-02 0.  1.
</event>
<event>
 5   0  0.6676612E-05  0.2338361E+04  0.7818609E-02  0.8462948E-01
       -2   -1    0    0    0  501  0.00000000000E+00  0.00000000000E+00  0.91498676823E+03  0.91498676823E+03  0.25500000920E-02 0. -1.
        2   -1    0    0  501    0  0.00000000000E+00  0.00000000000E+00 -0.14939923157E+04  0.14939923157E+04  0.25500000920E-02 0.  1.
    10030    2    1    2    0    0  0.00000000000E+00  0.00000000000E+00 -0.57900554744E+03  0.24089790839E+04  0.23383611361E+04 0.  0.
        2    1    3    3  502    0  0.55727996017E+03 -0.98840784522E+03 -0.57992443344E+03  0.12742932830E+04  0.25500000920E-02 0.  1.
       -2    1    3    3    0  502 -0.55727996017E+03  0.98840784522E+03  0.91888599948E+00  0.11346858009E+04  0.25500000920E-02 0. -1.
</event>
<event>
 5   0  0.2962279E-05  0.2209929E+04  0.7818609E-02  0.8514307E-01
        1   -1    0    0  501    0  0.00000000000E+00  0.00000000000E+00  0.10361508116E+04  0.10361508117E+04  0.50400001928E-02 0.  1.
       -1   -1    0    0    0  501  0.00000000000E+00  0.00000000000E+00 -0.11783481007E+04  0.11783481007E+04  0.50400001928E-02 0. -1.
    10030    2    1    2    0    0  0.00000000000E+00  0.00000000000E+00 -0.14219728906E+03  0.22144989124E+04  0.22099288142E+04 0.  0.
        1    1    3    3  502    0  0.86043695044E+03 -0.69271734957E+03 -0.43889797705E+02  0.11055023231E+04  0.50400001928E-02 0.  1.
       -1    1    3    3    0  502 -0.86043695044E+03  0.69271734957E+03 -0.98307491350E+02  0.11089965892E+04  0.50400001928E-02 0. -1.
</event>
<event>
 5   0  0.6468758E-05  0.2325779E+04  0.7818609E-02  0.8467826E-01
        2   -1    0    0  501    0  0.00000000000E+00  0.00000000000E+00  0.13699406940E+04  0.13699406940E+04  0.25500000920E-02 0.  1.
       -2   -1    0    0    0  501  0.00000000000E+00  0.00000000000E+00 -0.98713205979E+03  0.98713205979E+03  0.25500000920E-02 0. -1.
    10030    2    1    2    0    0  0.00000000000E+00  0.00000000000E+00  0.38280863421E+03  0.23570727538E+04  0.23257793352E+04 0.  0.
        3    1    3    3  502    0 -0.36989394684E+03  0.30490078335E+03  0.12651532675E+04  0.13529223260E+04  0.10100000352E+00 0.  1.
       -3    1    3    3    0  502  0.36989394684E+03 -0.30490078335E+03 -0.88234463330E+03  0.10041504278E+04  0.10100000352E+00 0. -1.
</event>
<event>
 5   0  0.6676612E-05  0.2342065E+04  0.7818609E-02  0.8461518E-01
       -2   -1    0    0    0  501  0.00000000000E+00  0.00000000000E+00  0.61425166269E+03  0.61425166270E+03  0.25500000920E-02 0.  1.
        2   -1    0    0  501    0  0.00000000000E+00  0.00000000000E+00 -0.22325009110E+04  0.22325009110E+04  0.25500000920E-02 0. -1.
    10030    2    1    2    0    0  0.00000000000E+00  0.00000000000E+00 -0.16182492483E+04  0.28467525737E+04  0.23420652395E+04 0.  0.
        2    1    3    3  502    0  0.12020781079E+03  0.39510420210E+03  0.52279760279E+03  0.66623913258E+03  0.25500000920E-02 0.  1.
       -2    1    3    3    0  502 -0.12020781079E+03 -0.39510420210E+03 -0.21410468511E+04  0.21805134411E+04  0.25500000920E-02 0. -1.
</event>
<event>
 5   0  0.3118614E-05  0.2273473E+04  0.7818609E-02  0.8488454E-01
        1   -1    0    0  501    0  0.00000000000E+00  0.00000000000E+00  0.83112372866E+03  0.83112372868E+03  0.50400001928E-02 0. -1.
       -1   -1    0    0    0  501  0.00000000000E+00  0.00000000000E+00 -0.15547259728E+04  0.15547259729E+04  0.50400001928E-02 0.  1.
    10030    2    1    2    0    0  0.00000000000E+00  0.00000000000E+00 -0.72360224419E+03  0.23858497015E+04  0.22734728040E+04 0.  0.
        3    1    3    3  502    0 -0.65239926651E+03  0.92044661686E+03 -0.50767886052E+03  0.12371679809E+04  0.10100000352E+00 0. -1.
       -3    1    3    3    0  502  0.65239926651E+03 -0.92044661686E+03 -0.21592338367E+03  0.11486817206E+04  0.10100000352E+00 0.  1.
</event>
<event>
 5   0  0.3118614E-05  0.2064960E+04  0.7818609E-02  0.8576838E-01
        1   -1    0    0  501    0  0.00000000000E+00  0.00000000000E+00  0.12664886901E+04  0.12664886901E+04  0.50400001928E-02 0. -1.
       -1   -1    0    0    0  501  0.00000000000E+00  0.00000000000E+00 -0.84170938868E+03  0.84170938869E+03  0.50400001928E-02 0.  1.
    10030    2    1    2    0    0  0.00000000000E+00  0.00000000000E+00  0.42477930139E+03  0.21081980788E+04  0.20649604559E+04 0.  0.
        3    1    3    3  502    0  0.95276426504E+03 -0.39716946829E+03  0.18928664811E+03  0.10494440322E+04  0.10100000352E+00 0. -1.
       -3    1    3    3    0  502 -0.95276426504E+03  0.39716946829E+03  0.23549265328E+03  0.10587540466E+04  0.10100000352E+00 0.  1.
</event>
<event>
 5   0  0.2982385E-05  0.2289544E+04  0.7818609E-02  0.8482055E-01
        1   -1    0    0  501    0  0.00000000000E+00  0.00000000000E+00  0.10264920946E+04  0.10264920946E+04  0.50400001928E-02 0. -1.
       -1   -1    0    0    0  501  0.00000000000E+00  0.00000000000E+00 -0.12766814498E+04  0.12766814498E+04  0.50400001928E-02 0.  1.
    10030    2    1    2    0    0  0.00000000000E+00  0.00000000000E+00 -0.25018935517E+03  0.23031735445E+04  0.22895444225E+04 0.  0.
        4    1    3    3  502    0  0.72398117477E+03  0.54247087595E+03 -0.83075344938E+03  0.12282411405E+04  0.12699999809E+01 0.  1.
       -4    1    3    3    0  502 -0.72398117477E+03 -0.54247087595E+03  0.58056409421E+03  0.10749324039E+04  0.12699999809E+01 0. -1.
</event>
<event>
 5   0  0.6468758E-05  0.1856995E+04  0.7818609E-02  0.8676564E-01
        2   -1    0    0  501    0  0.00000000000E+00  0.00000000000E+00  0.14148583308E+04  0.14148583308E+04  0.25500000920E-02 0.  1.
       -2   -1    0    0    0  501  0.00000000000E+00  0.00000000000E+00 -0.60932438598E+03  0.60932438599E+03  0.25500000920E-02 0. -1.
    10030    2    1    2    0    0  0.00000000000E+00  0.00000000000E+00  0.80553394486E+03  0.20241827168E+04  0.18569950821E+04 0.  0.
        3    1    3    3  502    0 -0.26492203567E+03  0.29901773041E+03 -0.51085377089E+03  0.64851127478E+03  0.10100000352E+00 0. -1.
       -3    1    3    3    0  502  0.26492203567E+03 -0.29901773041E+03  0.13163877158E+04  0.13756714421E+04  0.10100000352E+00 0.  1.
</event>
<event>
 5   0  0.6676612E-05  0.2112733E+04  0.7818609E-02  0.8555655E-01
       -2   -1    0    0    0  501  0.00000000000E+00  0.00000000000E+00  0.47281573397E+03  0.47281573397E+03  0.25500000920E-02 0. -1.
        2   -1    0    0  501    0  0.00000000000E+00  0.00000000000E+00 -0.23601383313E+04  0.23601383313E+04  0.25500000920E-02 0.  1.
    10030    2    1    2    0    0  0.00000000000E+00  0.00000000000E+00 -0.18873225974E+04  0.28329540653E+04  0.21127333361E+04 0.  0.
        2    1    3    3  502    0  0.92567254698E+03  0.19729761791E+03 -0.31456200601E+03  0.99736917433E+03  0.25500000920E-02 0. -1.
       -2    1    3    3    0  502 -0.92567254698E+03 -0.19729761791E+03 -0.15727605914E+04  0.18355848910E+04  0.25500000920E-02 0.  1.
</event>
<event>
 5   0  0.6702421E-05  0.2399633E+04  0.7818609E-02  0.8439641E-01
       -2   -1    0    0    0  501  0.00000000000E+00  0.00000000000E+00  0.81690092312E+03  0.81690092312E+03  0.25500000920E-02 0. -1.
        2   -1    0    0  501    0  0.00000000000E+00  0.00000000000E+00 -0.17622203136E+04  0.17622203136E+04  0.25500000920E-02 0.  1.
    10030    2    1    2    0    0  0.00000000000E+00  0.00000000000E+00 -0.94531939044E+03  0.25791212367E+04  0.23996328060E+04 0.  0.
        4    1    3    3  502    0 -0.79613664558E+03 -0.75501074027E+03  0.49124723636E+02  0.10983121723E+04  0.12699999809E+01 0. -1.
       -4    1    3    3    0  502  0.79613664558E+03  0.75501074027E+03 -0.99444411408E+03  0.14808090644E+04  0.12699999809E+01 0.  1.
</event>
<event>
 5   0  0.3006265E-05  0.2335100E+04  0.7818609E-02  0.8464209E-01
       -1   -1    0    0    0  501  0.00000000000E+00  0.00000000000E+00  0.91544744265E+03  0.91544744267E+03  0.50400001928E-02 0. -1.
        1   -1    0    0  501    0  0.00000000000E+00  0.00000000000E+00 -0.14890786265E+04  0.14890786265E+04  0.50400001928E-02 0.  1.
    10030    2    1    2    0    0  0.00000000000E+00  0.00000000000E+00 -0.57363118382E+03  0.24045260692E+04  0.23351001868E+04 0.  0.
        2    1    3    3  502    0 -0.42496600118E+03  0.84403521919E+03  0.41926913437E+03  0.10338172761E+04  0.25500000920E-02 0. -1.
       -2    1    3    3    0  502  0.42496600118E+03 -0.84403521919E+03 -0.99290031819E+03  0.13707087930E+04  0.25500000920E-02 0.  1.
</event>
<event>
 5   0  0.2342500E-05  0.2115848E+04  0.7818609E-02  0.8554294E-01
        3   -1    0    0  501    0  0.00000000000E+00  0.00000000000E+00  0.82808161685E+03  0.82808162300E+03  0.10100000352E+00 0. -1.
       -3   -1    0    0    0  501  0.00000000000E+00  0.00000000000E+00 -0.13515615747E+04  0.13515615784E+04  0.10100000352E+00 0.  1.
    10030    2    1    2    0    0  0.00000000000E+00  0.00000000000E+00 -0.52347995781E+03  0.21796432014E+04  0.21158481088E+04 0.  0.
        3    1    3    3  502    0 -0.27854912615E+03  0.80618841161E+03  0.38296830284E+03  0.93498347680E+03  0.10100000352E+00 0. -1.
       -3    1    3    3    0  502  0.27854912615E+03 -0.80618841161E+03 -0.90644826065E+03  0.12446597246E+04  0.10100000352E+00 0.  1.
</event>
<event>
 5   0  0.6814789E-05  0.2358564E+04  0.7818609E-02  0.8455181E-01
       -2   -1    0    0    0  501  0.00000000000E+00  0.00000000000E+00  0.11561450927E+04  0.11561450927E+04  0.25500000920E-02 0. -1.
        2   -1    0    0  501    0  0.00000000000E+00  0.00000000000E+00 -0.12028820521E+04  0.12028820521E+04  0.25500000920E-02 0.  1.
    10030    2    1    2    0    0  0.00000000000E+00  0.00000000000E+00 -0.46736959361E+02  0.23590271449E+04  0.23585641239E+04 0.  0.
        1    1    3    3  502    0  0.13409091098E+03 -0.33405971822E+03  0.10998523888E+04  0.11572603617E+04  0.50400001928E-02 0. -1.
       -1    1    3    3    0  502 -0.13409091098E+03  0.33405971822E+03 -0.11465893481E+04  0.12017667831E+04  0.50400001928E-02 0.  1.
</event>
<event>
 5   0  0.6676612E-05  0.2302603E+04  0.7818609E-02  0.8476895E-01
        2   -1    0    0  501    0  0.00000000000E+00  0.00000000000E+00  0.14727880316E+04  0.14727880316E+04  0.25500000920E-02 0.  1.
       -2   -1    0    0    0  501  0.00000000000E+00  0.00000000000E+00 -0.89999058732E+03  0.89999058733E+03  0.25500000920E-02 0. -1.
    10030    2    1    2    0    0  0.00000000000E+00  0.00000000000E+00  0.57279744432E+03  0.23727786190E+04  0.23026031926E+04 0.  0.
        2    1    3    3  502    0  0.82137750091E+03 -0.32616332190E+03 -0.47395882032E+03  0.10028362154E+04  0.25500000920E-02 0. -1.
       -2    1    3    3    0  502 -0.82137750091E+03  0.32616332190E+03  0.10467562646E+04  0.13699424036E+04  0.25500000920E-02 0.  1.
</event>
<event>
 5   0  0.2962279E-05  0.2317304E+04  0.7818609E-02  0.8471130E-01
        1   -1    0    0  501    0  0.00000000000E+00  0.00000000000E+00  0.17996083998E+04  0.17996083998E+04  0.50400001928E-02 0.  1.
       -1   -1    0    0    0  501  0.00000000000E+00  0.00000000000E+00 -0.74598126961E+03  0.74598126962E+03  0.50400001928E-02 0. -1.
    10030    2    1    2    0    0  0.00000000000E+00  0.00000000000E+00  0.10536271302E+04  0.25455896695E+04  0.23173037427E+04 0.  0.
        1    1    3    3  502    0  0.20513430801E+03  0.10410216604E+04  0.10381453633E+04  0.14844365858E+04  0.50400001928E-02 0. -1.
       -1    1    3    3    0  502 -0.20513430801E+03 -0.10410216604E+04  0.15481766886E+02  0.10611530837E+04  0.50400001928E-02 0.  1.
</event>
<event>
 5   0  0.3118614E-05  0.2307009E+04  0.7818609E-02  0.8475163E-01
        1   -1    0    0  501    0  0.00000000000E+00  0.00000000000E+00  0.14344217569E+04  0.14344217569E+04  0.50400001928E-02 0. -1.
       -1   -1    0    0    0  501  0.00000000000E+00  0.00000000000E+00 -0.92760247588E+03  0.92760247590E+03  0.50400001928E-02 0.  1.
    10030    2    1    2    0    0  0.00000000000E+00  0.00000000000E+00  0.50681928098E+03  0.23620242328E+04  0.23070094696E+04 0.  0.
        3    1    3    3  502    0 -0.98543184907E+03  0.47580769702E+03  0.62694435085E+03  0.12611614183E+04  0.10100000352E+00 0. -1.
       -3    1    3    3    0  502  0.98543184907E+03 -0.47580769702E+03 -0.12012506987E+03  0.11008628145E+04  0.10100000352E+00 0.  1.
</event>
<event>
 5   0  0.2982385E-05  0.2279779E+04  0.7818609E-02  0.8485937E-01
        1   -1    0    0  501    0  0.00000000000E+00  0.00000000000E+00  0.10340638106E+04  0.10340638106E+04  0.50400001928E-02 0.  1.
       -1   -1    0    0    0  501  0.00000000000E+00  0.00000000000E+00 -0.12565449411E+04  0.12565449411E+04  0.50400001928E-02 0. -1.
    10030    2    1    2    0    0  0.00000000000E+00  0.00000000000E+00 -0.22248113049E+03  0.22906087517E+04  0.22797786296E+04 0.  0.
        4    1    3    3  502    0  0.10283146316E+04 -0.14428804982E+03 -0.58368277715E+03  0.11911915128E+04  0.12699999809E+01 0. -1.
       -4    1    3    3    0  502 -0.10283146316E+04  0.14428804982E+03  0.36120164666E+03  0.10994172390E+04  0.12699999809E+01 0.  1.
</event>
<event>
 5   0  0.2962279E-05  0.2294109E+04  0.7818609E-02  0.8480247E-01
        1   -1    0    0  501    0  0.00000000000E+00  0.00000000000E+00  0.14508093592E+04  0.14508093592E+04  0.50400001928E-02 0. -1.
       -1   -1    0    0    0  501  0.00000000000E+00  0.00000000000E+00 -0.90689654889E+03  0.90689654890E+03  0.50400001928E-02 0.  1.
    10030    2    1    2    0    0  0.00000000000E+00  0.00000000000E+00  0.54391281033E+03  0.23577059081E+04  0.22941089782E+04 0.  0.
        1    1    3    3  502    0 -0.34525199357E+03 -0.41098067712E+03 -0.76986664701E+03  0.93850876940E+03  0.50400001928E-02 0.  1.
       -1    1    3    3    0  502  0.34525199357E+03  0.41098067712E+03  0.13137794573E+04  0.14191971387E+04  0.50400001928E-02 0. -1.
</event>
<event>
 5   0  0.6468758E-05  0.2296039E+04  0.7818609E-02  0.8479484E-01
        2   -1    0    0  501    0  0.00000000000E+00  0.00000000000E+00  0.11339893091E+04  0.11339893091E+04  0.25500000920E-02 0.  1.
       -2   -1    0    0    0  501  0.00000000000E+00  0.00000000000E+00 -0.11622233849E+04  0.11622233849E+04  0.25500000920E-02 0. -1.
    10030    2    1    2    0    0  0.00000000000E+00  0.00000000000E+00 -0.28234075809E+02  0.22962126941E+04  0.22960391054E+04 0.  0.
        3    1    3    3  502    0 -0.71030403714E+03  0.29365804095E+03  0.83869711078E+03  0.11376202020E+04  0.10100000352E+00 0.  1.
       -3    1    3    3    0  502  0.71030403714E+03 -0.29365804095E+03 -0.86693118659E+03  0.11585924921E+04  0.10100000352E+00 0. -1.
</event>
<event>
 5   0  0.3006265E-05  0.2295486E+04  0.7818609E-02  0.8479703E-01
        1   -1    0    0  501    0  0.00000000000E+00  0.00000000000E+00  0.16790194164E+04  0.16790194165E+04  0.50400001928E-02 0. -1.
       -1   -1    0    0    0  501  0.00000000000E+00  0.00000000000E+00 -0.78457335967E+03  0.78457335968E+03  0.50400001928E-02 0.  1.
    10030    2    1    2    0    0  0.00000000000E+00  0.00000000000E+00  0.89444605678E+03  0.24635927761E+04  0.22954859220E+04 0.  0.
        2    1    3    3  502    0  0.53320175317E+03  0.77229075085E+03  0.11563509903E+04  0.14892564340E+04  0.25500000920E-02 0. -1.
       -2    1    3    3    0  502 -0.53320175317E+03 -0.77229075085E+03 -0.26190493351E+03  0.97433634215E+03  0.25500000920E-02 0.  1.
</event>
<event>
 5   0  0.6814789E-05  0.2244157E+04  0.7818609E-02  0.8500271E-01
        2   -1    0    0  501    0  0.00000000000E+00  0.00000000000E+00  0.26408752714E+04  0.26408752714E+04  0.25500000920E-02 0. -1.
       -2   -1    0    0    0  501  0.00000000000E+00  0.00000000000E+00 -0.47675855599E+03  0.47675855600E+03  0.25500000920E-02 0.  1.
    10030    2    1    2    0    0  0.00000000000E+00  0.00000000000E+00  0.21641167154E+04  0.31176338274E+04  0.22441567512E+04 0.  0.
        1    1    3    3  502    0  0.76684820087E+03 -0.62216840360E+03  0.34183563801E+03  0.10449886550E+04  0.50400001928E-02 0.  1.
       -1    1    3    3    0  502 -0.76684820087E+03  0.62216840360E+03  0.18222810774E+04  0.20726451724E+04  0.50400001928E-02 0. -1.
</event>
<event>
 5   0  0.3006265E-05  0.2301902E+04  0.7818609E-02  0.8477172E-01
       -1   -1    0    0    0  501  0.00000000000E+00  0.00000000000E+00  0.64540678736E+03  0.64540678738E+03  0.50400001928E-02 0.  1.
        1   -1    0    0  501    0  0.00000000000E+00  0.00000000000E+00 -0.20524852042E+04  0.20524852042E+04  0.50400001928E-02 0. -1.
    10030    2    1    2    0    0  0.00000000000E+00  0.00000000000E+00 -0.14070784168E+04  0.26978919915E+04  0.23019017197E+04 0.  0.
        2    1    3    3  502    0  0.92318576323E+03 -0.11427632162E+03  0.90812585062E+02  0.93465392350E+03  0.25500000920E-02 0.  1.
       -2    1    3    3    0  502 -0.92318576323E+03  0.11427632162E+03 -0.14978910019E+04  0.17632380680E+04  0.25500000920E-02 0. -1.
</event>
<event>
 5   0  0.3118614E-05  0.2322098E+04  0.7818609E-02  0.8469259E-01
        1   -1    0    0  501    0  0.00000000000E+00  0.00000000000E+00  0.13106915429E+04  0.13106915429E+04  0.50400001928E-02 0.  1.
       -1   -1    0    0    0  501  0.00000000000E+00  0.00000000000E+00 -0.10284909135E+04  0.10284909135E+04  0.50400001928E-02 0. -1.
    10030    2    1    2    0    0  0.00000000000E+00  0.00000000000E+00  0.28220062945E+03  0.23391824564E+04  0.23220976227E+04 0.  0.
        3    1    3    3  502    0 -0.67394378809E+03 -0.75138019812E+03  0.71913561929E+03  0.12393258170E+04  0.10100000352E+00 0.  1.
       -3    1    3    3    0  502  0.67394378809E+03  0.75138019812E+03 -0.43693498984E+03  0.10998566394E+04  0.10100000352E+00 0. -1.
</event>
<event>
 5   0  0.6702421E-05  0.2275798E+04  0.7818609E-02  0.8487525E-01
       -2   -1    0    0    0  501  0.00000000000E+00  0.00000000000E+00  0.57149428231E+03  0.57149428231E+03  0.25500000920E-02 0. -1.
        2   -1    0    0  501    0  0.00000000000E+00  0.00000000000E+00 -0.22656643492E+04  0.22656643492E+04  0.25500000920E-02 0.  1.
    10030    2    1    2    0    0  0.00000000000E+00  0.00000000000E+00 -0.16941700668E+04  0.28371586315E+04  0.22757980764E+04 0.  0.
        4    1    3    3  502    0 -0.99295809278E+03 -0.28793673116E+02 -0.15519389081E+03  0.10054260820E+04  0.12699999809E+01 0. -1.
       -4    1    3    3    0  502  0.99295809278E+03  0.28793673116E+02 -0.15389761760E+04  0.18317325495E+04  0.12699999809E+01 0.  1.
</event>
<event>
 5   0  0.2982385E-05  0.2206961E+04  0.7818609E-02  0.8515536E-01
       -1   -1    0    0    0  501  0.00000000000E+00  0.00000000000E+00  0.89664002017E+03  0.89664002019E+03  0.50400001928E-02 0. -1.
        1   -1    0    0  501    0  0.00000000000E+00  0.00000000000E+00 -0.13580362450E+04  0.13580362450E+04  0.50400001928E-02 0.  1.
    10030    2    1    2    0    0  0.00000000000E+00  0.00000000000E+00 -0.46139622479E+03  0.22546762652E+04  0.22069613917E+04 0.  0.
        4    1    3    3  502    0  0.69577178774E+03  0.56719715331E+03 -0.88633398143E+03  0.12615072457E+04  0.12699999809E+01 0.  1.
       -4    1    3    3    0  502 -0.69577178774E+03 -0.56719715331E+03  0.42493775664E+03  0.99316901948E+03  0.12699999809E+01 0. -1.
</event>
<event>
 5   0  0.6676612E-05  0.2179771E+04  0.7818609E-02  0.8526895E-01
       -2   -1    0    0    0  501  0.00000000000E+00  0.00000000000E+00  0.88298886067E+03  0.88298886067E+03  0.25500000920E-02 0. -1.
        2   -1    0    0  501    0  0.00000000000E+00  0.00000000000E+00 -0.13452612204E+04  0.13452612204E+04  0.25500000920E-02 0.  1.
    10030    2    1    2    0    0  0.00000000000E+00  0.00000000000E+00 -0.46227235975E+03  0.22282500811E+04  0.21797712470E+04 0.  0.
        2    1    3    3  502    0  0.97671001469E+03  0.26180035803E+03 -0.64681081545E+03  0.12003608254E+04  0.25500000920E-02 0.  1.
       -2    1    3    3    0  502 -0.97671001469E+03 -0.26180035803E+03  0.18453845570E+03  0.10278892557E+04  0.25500000920E-02 0. -1.
</event>
<event>
 5   0  0.2944089E-05  0.2317847E+04  0.7818609E-02  0.8470917E-01
       -1   -1    0    0    0  501  0.00000000000E+00  0.00000000000E+00  0.12662520995E+04  0.12662520995E+04  0.50400001928E-02 0.  1.
        1   -1    0    0  501    0  0.00000000000E+00  0.00000000000E+00 -0.10606921191E+04  0.10606921191E+04  0.50400001928E-02 0. -1.
    10030    2    1    2    0    0  0.00000000000E+00  0.00000000000E+00  0.20555998035E+03  0.23269442186E+04  0.23178469516E+04 0.  0.
        5    1    3    3  502    0 -0.31587329974E+03 -0.10915227511E+04 -0.12589390100E+03  0.11432712810E+04  0.46999998093E+01 0. -1.
       -5    1    3    3    0  502  0.31587329974E+03  0.10915227511E+04  0.33145388135E+03  0.11836729376E+04  0.46999998093E+01 0.  1.
</event>
<event>
 5   0  0.6468758E-05  0.2346524E+04  0.7818609E-02  0.8459800E-01
        2   -1    0    0  501    0  0.00000000000E+00  0.00000000000E+00  0.22389328503E+04  0.22389328503E+04  0.25500000920E-02 0.  1.
       -2   -1    0    0    0  501  0.00000000000E+00  0.00000000000E+00 -0.61482116413E+03  0.61482116414E+03  0.25500000920E-02 0. -1.
    10030    2    1    2    0    0  0.00000000000E+00  0.00000000000E+00  0.16241116862E+04  0.28537540144E+04  0.23465236427E+04 0.  0.
        3    1    3    3  502    0 -0.83385489366E+03  0.51376718686E+03  0.15976559382E+04  0.18739731089E+04  0.10100000352E+00 0.  1.
       -3    1    3    3    0  502  0.83385489366E+03 -0.51376718686E+03  0.26455747965E+02  0.97978090549E+03  0.10100000352E+00 0. -1.
</event>
<event>
 5   0  0.3006265E-05  0.2307625E+04  0.7818609E-02  0.8474921E-01
       -1   -1    0    0    0  501  0.00000000000E+00  0.00000000000E+00  0.13163385128E+04  0.13163385128E+04  0.50400001928E-02 0. -1.
        1   -1    0    0  501    0  0.00000000000E+00  0.00000000000E+00 -0.10113530122E+04  0.10113530122E+04  0.50400001928E-02 0.  1.
    10030    2    1    2    0    0  0.00000000000E+00  0.00000000000E+00  0.30498550061E+03  0.23276915251E+04  0.23076246836E+04 0.  0.
        2    1    3    3  502    0 -0.75417163437E+03 -0.60201799636E+03  0.79051374806E+03  0.12474423866E+04  0.25500000920E-02 0. -1.
       -2    1    3    3    0  502  0.75417163437E+03  0.60201799636E+03 -0.48552824746E+03  0.10802491384E+04  0.25500000920E-02 0.  1.
</event>
<event>
 5   0  0.6676612E-05  0.1909968E+04  0.7818609E-02  0.8649911E-01
       -2   -1    0    0    0  501  0.00000000000E+00  0.00000000000E+00  0.10594154420E+04  0.10594154420E+04  0.25500000920E-02 0. -1.
        2   -1    0    0  501    0  0.00000000000E+00  0.00000000000E+00 -0.86084683311E+03  0.86084683311E+03  0.25500000920E-02 0.  1.
    10030    2    1    2    0    0  0.00000000000E+00  0.00000000000E+00  0.19856860891E+03  0.19202622751E+04  0.19099679874E+04 0.  0.
        2    1    3    3  502    0  0.16322980435E+03  0.65256583966E+03  0.78080827349E+03  0.10306055036E+04  0.25500000920E-02 0. -1.
       -2    1    3    3    0  502 -0.16322980435E+03 -0.65256583966E+03 -0.58223966457E+03  0.88965677153E+03  0.25500000920E-02 0.  1.
</event>
<event>
 5   0  0.6814789E-05  0.2464178E+04  0.7818609E-02  0.8415859E-01
        2   -1    0    0  501    0  0.00000000000E+00  0.00000000000E+00  0.16298479686E+04  0.16298479686E+04  0.25500000920E-02 0.  1.
       -2   -1    0    0    0  501  0.00000000000E+00  0.00000000000E+00 -0.93140203620E+03  0.93140203620E+03  0.25500000920E-02 0. -1.
    10030    2    1    2    0    0  0.00000000000E+00  0.00000000000E+00  0.69844593243E+03  0.25612500048E+04  0.24641783350E+04 0.  0.
        1    1    3    3  502    0  0.18072043274E+03 -0.11201961115E+04 -0.14984217139E+03  0.11445312924E+04  0.50400001928E-02 0.  1.
       -1    1    3    3    0  502 -0.18072043274E+03  0.11201961115E+04  0.84828810381E+03  0.14167187124E+04  0.50400001928E-02 0. -1.
</event>
<event>
 5   0  0.3118614E-05  0.2270040E+04  0.7818609E-02  0.8489828E-01
       -1   -1    0    0    0  501  0.00000000000E+00  0.00000000000E+00  0.12774412705E+04  0.12774412705E+04  0.50400001928E-02 0.  1.
        1   -1    0    0  501    0  0.00000000000E+00  0.00000000000E+00 -0.10084773510E+04  0.10084773510E+04  0.50400001928E-02 0. -1.
    10030    2    1    2    0    0  0.00000000000E+00  0.00000000000E+00  0.26896391951E+03  0.22859186216E+04  0.22700401658E+04 0.  0.
        3    1    3    3  502    0 -0.19058368209E+03  0.77602914213E+03 -0.67721281662E+03  0.10474543324E+04  0.10100000352E+00 0. -1.
       -3    1    3    3    0  502  0.19058368209E+03 -0.77602914213E+03  0.94617673614E+03  0.12384642892E+04  0.10100000352E+00 0.  1.
</event>
<event>
 5   0  0.2982385E-05  0.2241589E+04  0.7818609E-02  0.8501315E-01
        1   -1    0    0  501    0  0.00000000000E+00  0.00000000000E+00  0.20927610894E+04  0.20927610894E+04  0.50400001928E-02 0. -1.
       -1   -1    0    0    0  501  0.00000000000E+00  0.00000000000E+00 -0.60025020451E+03  0.60025020453E+03  0.50400001928E-02 0.  1.
    10030    2    1    2    0    0  0.00000000000E+00  0.00000000000E+00  0.14925108848E+04  0.26930112939E+04  0.22415889649E+04 0.  0.
        4    1    3    3  502    0 -0.11158420292E+04  0.96879471943E+02  0.69687292511E+03  0.13191370485E+04  0.12699999809E+01 0. -1.
       -4    1    3    3    0  502  0.11158420292E+04 -0.96879471943E+02  0.79563795974E+03  0.13738742454E+04  0.12699999809E+01 0.  1.
</event>
<event>
 5   0  0.6676612E-05  0.2297586E+04  0.7818609E-02  0.8478873E-01
       -2   -1    0    0    0  501  0.00000000000E+00  0.00000000000E+00  0.10112947418E+04  0.10112947418E+04  0.25500000920E-02 0. -1.
        2   -1    0    0  501    0  0.00000000000E+00  0.00000000000E+00 -0.13049859685E+04  0.13049859685E+04  0.25500000920E-02 0.  1.
    10030    2    1    2    0    0  0.00000000000E+00  0.00000000000E+00 -0.29369122668E+03  0.23162807102E+04  0.22975860793E+04 0.  0.
        2    1    3    3  502    0  0.81149172812E+03 -0.48877006815E+03  0.50829618721E+03  0.10750720991E+04  0.25500000920E-02 0. -1.
       -2    1    3    3    0  502 -0.81149172812E+03  0.48877006815E+03 -0.80198741389E+03  0.12412086111E+04  0.25500000920E-02 0.  1.
</event>
<event>
 5   0  0.6702421E-05  0.2278338E+04  0.7818609E-02  0.8486511E-01
        2   -1    0    0  501    0  0.00000000000E+00  0.00000000000E+00  0.14418159825E+04  0.14418159825E+04  0.25500000920E-02 0.  1.
       -2   -1    0    0    0  501  0.00000000000E+00  0.00000000000E+00 -0.90004970087E+03  0.90004970088E+03  0.25500000920E-02 0. -1.
    10030    2    1    2    0    0  0.00000000000E+00  0.00000000000E+00  0.54176628167E+03  0.23418656834E+04  0.22783380292E+04 0.  0.
        4    1    3    3  502    0 -0.77353385184E+03  0.76959706101E+03 -0.65456517701E+02  0.10931241580E+04  0.12699999809E+01 0. -1.
       -4    1    3    3    0  502  0.77353385184E+03 -0.76959706101E+03  0.60722279937E+03  0.12487415254E+04  0.12699999809E+01 0.  1.
</event>
<event>
 5   0  0.6468758E-05  0.2443161E+04  0.7818609E-02  0.8423519E-01
        2   -1    0    0  501    0  0.00000000000E+00  0.00000000000E+00  0.12365927718E+04  0.12365927718E+04  0.25500000920E-02 0.  1.
       -2   -1    0    0    0  501  0.00000000000E+00  0.00000000000E+00 -0.12067508552E+04  0.12067508552E+04  0.25500000920E-02 0. -1.
    10030    2    1    2    0    0  0.00000000000E+00  0.00000000000E+00  0.29841916607E+02  0.24433436270E+04  0.24431613822E+04 0.  0.
        3    1    3    3  502    0 -0.33359457889E+03  0.76564521560E+03 -0.87663947628E+03  0.12107826893E+04  0.10100000352E+00 0. -1.
       -3    1    3    3    0  502  0.33359457889E+03 -0.76564521560E+03  0.90648139289E+03  0.12325609377E+04  0.10100000352E+00 0.  1.
</event>
<event>
 5   0  0.6495405E-05  0.2289290E+04  0.7818609E-02  0.8482156E-01
        2   -1    0    0  501    0  0.00000000000E+00  0.00000000000E+00  0.16417090124E+04  0.16417090124E+04  0.25500000920E-02 0.  1.
       -2   -1    0    0    0  501  0.00000000000E+00  0.00000000000E+00 -0.79807810414E+03  0.79807810414E+03  0.25500000920E-02 0. -1.
    10030    2    1    2    0    0  0.00000000000E+00  0.00000000000E+00  0.84363090830E+03  0.24397871166E+04  0.22892898604E+04 0.  0.
        5    1    3    3  502    0  0.84144420246E+03  0.47011245366E+03  0.10797799360E+04  0.14474048726E+04  0.46999998093E+01 0.  1.
       -5    1    3    3    0  502 -0.84144420246E+03 -0.47011245366E+03 -0.23614902771E+03  0.99238224401E+03  0.46999998093E+01 0. -1.
</event>
<event>
 5   0  0.2982385E-05  0.2413113E+04  0.7818609E-02  0.8434610E-01
        1   -1    0    0  501    0  0.00000000000E+00  0.00000000000E+00  0.98517016904E+03  0.98517016905E+03  0.50400001928E-02 0.  1.
       -1   -1    0    0    0  501  0.00000000000E+00  0.00000000000E+00 -0.14776929965E+04  0.14776929965E+04  0.50400001928E-02 0. -1.
    10030    2    1    2    0    0  0.00000000000E+00  0.00000000000E+00 -0.49252282750E+03  0.24628631656E+04  0.24131133908E+04 0.  0.
        4    1    3    3  502    0 -0.48608852499E+03 -0.10138792947E+04  0.20041911391E+03  0.11421045103E+04  0.12699999809E+01 0.  1.
       -4    1    3    3    0  502  0.48608852499E+03  0.10138792947E+04 -0.69294194140E+03  0.13207586553E+04  0.12699999809E+01 0. -1.
</event>
<event>
 5   0  0.2944089E-05  0.2362586E+04  0.7818609E-02  0.8453645E-01
       -1   -1    0    0    0  501  0.00000000000E+00  0.00000000000E+00  0.82344745986E+03  0.82344745988E+03  0.50400001928E-02 0.  1.
        1   -1    0    0  501    0  0.00000000000E+00  0.00000000000E+00 -0.16946475520E+04  0.16946475520E+04  0.50400001928E-02 0. -1.
    10030    2    1    2    0    0  0.00000000000E+00  0.00000000000E+00 -0.87120009212E+03  0.25180950119E+04  0.23625860594E+04 0.  0.
        5    1    3    3  502    0  0.30875910218E+03 -0.69050346962E+03  0.53148476853E+03  0.92445950366E+03  0.46999998093E+01 0.  1.
       -5    1    3    3    0  502 -0.30875910218E+03  0.69050346962E+03 -0.14026848607E+04  0.15936355082E+04  0.46999998093E+01 0. -1.
</event>
<event>
 5   0  0.2962279E-05  0.2323267E+04  0.7818609E-02  0.8468803E-01
       -1   -1    0    0    0  501  0.00000000000E+00  0.00000000000E+00  0.11140322727E+04  0.11140322727E+04  0.50400001928E-02 0. -1.
        1   -1    0    0  501    0  0.00000000000E+00  0.00000000000E+00 -0.12112687746E+04  0.12112687746E+04  0.50400001928E-02 0.  1.
    10030    2    1    2    0    0  0.00000000000E+00  0.00000000000E+00 -0.97236501940E+02  0.23253010473E+04  0.23232671011E+04 0.  0.
        1    1    3    3  502    0  0.11566671062E+04  0.36340738611E+02  0.52430831735E+02  0.11584249807E+04  0.50400001928E-02 0. -1.
       -1    1    3    3    0  502 -0.11566671062E+04 -0.36340738611E+02 -0.14966733368E+03  0.11668760665E+04  0.50400001928E-02 0.  1.
</event>
<event>
 5   0  0.6702421E-05  0.2265761E+04  0.7818609E-02  0.8491545E-01
        2   -1    0    0  501    0  0.00000000000E+00  0.00000000000E+00  0.12975197290E+04  0.12975197290E+04  0.25500000920E-02 0. -1.
       -2   -1    0    0    0  501  0.00000000000E+00  0.00000000000E+00 -0.98913195732E+03  0.98913195732E+03  0.25500000920E-02 0.  1.
    10030    2    1    2    0    0  0.00000000000E+00  0.00000000000E+00  0.30838777164E+03  0.22866516863E+04  0.22657610017E+04 0.  0.
        4    1    3    3  502    0 -0.10502509401E+04 -0.37861849593E+03  0.34841990843E+03  0.11695200076E+04  0.12699999809E+01 0.  1.
       -4    1    3    3    0  502  0.10502509401E+04  0.37861849593E+03 -0.40032136794E+02  0.11171316787E+04  0.12699999809E+01 0. -1.
</event>
<event>
 5   0  0.6702421E-05  0.2301893E+04  0.7818609E-02  0.8477175E-01
        2   -1    0    0  501    0  0.00000000000E+00  0.00000000000E+00  0.98918858072E+03  0.98918858072E+03  0.25500000920E-02 0.  1.
       -2   -1    0    0    0  501  0.00000000000E+00  0.00000000000E+00 -0.13391562092E+04  0.13391562092E+04  0.25500000920E-02 0. -1.
    10030    2    1    2    0    0  0.00000000000E+00  0.00000000000E+00 -0.34996762851E+03  0.23283447900E+04  0.23018931600E+04 0.  0.
        4    1    3    3  502    0  0.10969929120E+04  0.23841219786E+03 -0.43175638585E+03  0.12027672321E+04  0.12699999809E+01 0.  1.
       -4    1    3    3    0  502 -0.10969929120E+04 -0.23841219786E+03  0.81788757339E+02  0.11255775578E+04  0.12699999809E+01 0. -1.
</event>
<event>
 5   0  0.2342500E-05  0.2305446E+04  0.7818609E-02  0.8475777E-01
        3   -1    0    0  501    0  0.00000000000E+00  0.00000000000E+00  0.17891775469E+04  0.17891775497E+04  0.10100000352E+00 0. -1.
       -3   -1    0    0    0  501  0.00000000000E+00  0.00000000000E+00 -0.74267117430E+03  0.74267118117E+03  0.10100000352E+00 0.  1.
    10030    2    1    2    0    0  0.00000000000E+00  0.00000000000E+00  0.10465063726E+04  0.25318487309E+04  0.23054462493E+04 0.  0.
        2    1    3    3  502    0 -0.46628039739E+03  0.26291208042E+03 -0.59789915470E+03  0.80251079134E+03  0.25500000920E-02 0.  1.
       -2    1    3    3    0  502  0.46628039739E+03 -0.26291208042E+03  0.16444055273E+04  0.17293379396E+04  0.25500000920E-02 0. -1.
</event>
<event>
 5   0  0.6676612E-05  0.2270216E+04  0.7818609E-02  0.8489758E-01
       -2   -1    0    0    0  501  0.00000000000E+00  0.00000000000E+00  0.15555996731E+04  0.15555996731E+04  0.25500000920E-02 0. -1.
        2   -1    0    0  501    0  0.00000000000E+00  0.00000000000E+00 -0.82827908362E+03  0.82827908362E+03  0.25500000920E-02 0.  1.
    10030    2    1    2    0    0  0.00000000000E+00  0.00000000000E+00  0.72732058949E+03  0.23838787567E+04  0.22702164405E+04 0.  0.
        2    1    3    3  502    0  0.10339482411E+04  0.38212008527E+03  0.64816045906E+03  0.12787402807E+04  0.25500000920E-02 0. -1.
       -2    1    3    3    0  502 -0.10339482411E+04 -0.38212008527E+03  0.79160130425E+02  0.11051384760E+04  0.25500000920E-02 0.  1.
</event>
<event>
 5   0  0.3006265E-05  0.2301772E+04  0.7818609E-02  0.8477223E-01
       -1   -1    0    0    0  501  0.00000000000E+00  0.00000000000E+00  0.64335761723E+03  0.64335761725E+03  0.50400001928E-02 0.  1.
        1   -1    0    0  501    0  0.00000000000E+00  0.00000000000E+00 -0.20587903296E+04  0.20587903296E+04  0.50400001928E-02 0. -1.
    10030    2    1    2    0    0  0.00000000000E+00  0.00000000000E+00 -0.14154327123E+04  0.27021479468E+04  0.23017718747E+04 0.  0.
        2    1    3    3  502    0 -0.18057390778E+03  0.10675650941E+04 -0.11657590057E+04  0.15910047850E+04  0.25500000920E-02 0. -1.
       -2    1    3    3    0  502  0.18057390778E+03 -0.10675650941E+04 -0.24967370661E+03  0.11111431619E+04  0.25500000920E-02 0.  1.
</event>
<event>
 5   0  0.3118614E-05  0.2344115E+04  0.7818609E-02  0.8460727E-01
       -1   -1    0    0    0  501  0.00000000000E+00  0.00000000000E+00  0.74449893950E+03  0.74449893952E+03  0.50400001928E-02 0.  1.
        1   -1    0    0  501    0  0.00000000000E+00  0.00000000000E+00 -0.18451590200E+04  0.18451590200E+04  0.50400001928E-02 0. -1.
    10030    2    1    2    0    0  0.00000000000E+00  0.00000000000E+00 -0.11006600805E+04  0.25896579596E+04  0.23441151283E+04 0.  0.
        3    1    3    3  502    0 -0.57249946699E+03 -0.62479250197E+03  0.34417367912E+03  0.91464574663E+03  0.10100000352E+00 0.  1.
       -3    1    3    3    0  502  0.57249946699E+03  0.62479250197E+03 -0.14448337596E+04  0.16750122129E+04  0.10100000352E+00 0. -1.
</event>
<event>
 5   0  0.6495405E-05  0.2288604E+04  0.7818609E-02  0.8482428E-01
        2   -1    0    0  501    0  0.00000000000E+00  0.00000000000E+00  0.10134694129E+04  0.10134694129E+04  0.25500000920E-02 0. -1.
       -2   -1    0    0    0  501  0.00000000000E+00  0.00000000000E+00 -0.12920243470E+04  0.12920243470E+04  0.25500000920E-02 0.  1.
    10030    2    1    2    0    0  0.00000000000E+00  0.00000000000E+00 -0.27855493411E+03  0.23054937599E+04  0.22886040779E+04 0.  0.
        5    1    3    3  502    0 -0.66291230090E+03 -0.91901147257E+03  0.21178455254E+02  0.11333602350E+04  0.46999998093E+01 0. -1.
       -5    1    3    3    0  502  0.66291230090E+03  0.91901147257E+03 -0.29973338937E+03  0.11721335249E+04  0.46999998093E+01 0.  1.
</event>
<event>
 5   0  0.6814789E-05  0.2283044E+04  0.7818609E-02  0.8484637E-01
        2   -1    0    0  501    0  0.00000000000E+00  0.00000000000E+00  0.12203048686E+04  0.12203048687E+04  0.25500000920E-02 0. -1.
       -2   -1    0    0    0  501  0.00000000000E+00  0.00000000000E+00 -0.10678255696E+04  0.10678255696E+04  0.25500000920E-02 0.  1.
    10030    2    1    2    0    0  0.00000000000E+00  0.00000000000E+00  0.15247929902E+03  0.22881304383E+04  0.22830442322E+04 0.  0.
        1    1    3    3  502    0  0.17820668267E+03 -0.52988920223E+03 -0.92123261626E+03  0.10775944143E+04  0.50400001928E-02 0.  1.
       -1    1    3    3    0  502 -0.17820668267E+03  0.52988920223E+03  0.10737119153E+04  0.12105360240E+04  0.50400001928E-02 0. -1.
</event>
<event>
 5   0  0.2982385E-05  0.2227568E+04  0.7818609E-02  0.8507040E-01
       -1   -1    0    0    0  501  0.00000000000E+00  0.00000000000E+00  0.93677893781E+03  0.93677893782E+03  0.50400001928E-02 0.  1.
        1   -1    0    0  501    0  0.00000000000E+00  0.00000000000E+00 -0.13242344760E+04  0.13242344760E+04  0.50400001928E-02 0. -1.
    10030    2    1    2    0    0  0.00000000000E+00  0.00000000000E+00 -0.38745553819E+03  0.22610134138E+04  0.22275681501E+04 0.  0.
        4    1    3    3  502    0  0.56735706764E+03  0.75809364802E+03  0.40151844906E+03  0.10285031352E+04  0.12699999809E+01 0.  1.
       -4    1    3    3    0  502 -0.56735706764E+03 -0.75809364802E+03 -0.78897398725E+03  0.12325102786E+04  0.12699999809E+01 0. -1.
</event>
<event>
 5   0  0.2982385E-05  0.2287985E+04  0.7818609E-02  0.8482674E-01
        1   -1    0    0  501    0  0.00000000000E+00  0.00000000000E+00  0.99349985410E+03  0.99349985412E+03  0.50400001928E-02 0.  1.
       -1   -1    0    0    0  501  0.00000000000E+00  0.00000000000E+00 -0.13172808911E+04  0.13172808911E+04  0.50400001928E-02 0. -1.
    10030    2    1    2    0    0  0.00000000000E+00  0.00000000000E+00 -0.32378103696E+03  0.23107807452E+04  0.22879845918E+04 0.  0.
        4    1    3    3  502    0  0.10057158688E+04 -0.26093143234E+03 -0.64537419534E+03  0.12231349419E+04  0.12699999809E+01 0. -1.
       -4    1    3    3    0  502 -0.10057158688E+04  0.26093143234E+03  0.32159315838E+03  0.10876458033E+04  0.12699999809E+01 0.  1.
</event>
<event>
 5   0  0.2944089E-05  0.2287225E+04  0.7818609E-02  0.8482975E-01
       -1   -1    0    0    0  501  0.00000000000E+00  0.00000000000E+00  0.10802483782E+04  0.10802483782E+04  0.50400001928E-02 0. -1.
        1   -1    0    0  501    0  0.00000000000E+00  0.00000000000E+00 -0.12106938710E+04  0.12106938710E+04  0.50400001928E-02 0.  1.
    10030    2    1    2    0    0  0.00000000000E+00  0.00000000000E+00 -0.13044549278E+03  0.22909422492E+04  0.22872254726E+04 0.  0.
        5    1    3    3  502    0  0.18641509078E+03  0.86775817505E+03 -0.78755562763E+03  0.11866005196E+04  0.46999998093E+01 0.  1.
       -5    1    3    3    0  502 -0.18641509078E+03 -0.86775817505E+03  0.65711013484E+03  0.11043417296E+04  0.46999998093E+01 0. -1.
</event>
<event>
 5   0  0.6702421E-05  0.2363906E+04  0.7818609E-02  0.8453141E-01
       -2   -1    0    0    0  501  0.00000000000E+00  0.00000000000E+00  0.95839298837E+03  0.95839298838E+03  0.25500000920E-02 0. -1.
        2   -1    0    0  501    0  0.00000000000E+00  0.00000000000E+00 -0.14576622375E+04  0.14576622375E+04  0.25500000920E-02 0.  1.
    10030    2    1    2    0    0  0.00000000000E+00  0.00000000000E+00 -0.49926924911E+03  0.24160552259E+04  0.23639063161E+04 0.  0.
        4    1    3    3  502    0 -0.48515587123E+03  0.10099630761E+04  0.13497804737E+03  0.11285487675E+04  0.12699999809E+01 0. -1.
       -4    1    3    3    0  502  0.48515587123E+03 -0.10099630761E+04 -0.63424729648E+03  0.12875064584E+04  0.12699999809E+01 0.  1.
</event>
<event>
 5   0  0.2944089E-05  0.2103782E+04  0.7818609E-02  0.8559579E-01
        1   -1    0    0  501    0  0.00000000000E+00  0.00000000000E+00  0.19201136300E+04  0.19201136300E+04  0.50400001928E-02 0. -1.
       -1   -1    0    0    0  501  0.00000000000E+00  0.00000000000E+00 -0.57625477159E+03  0.57625477161E+03  0.50400001928E-02 0.  1.
    10030    2    1    2    0    0  0.00000000000E+00  0.00000000000E+00  0.13438588584E+04  0.24963684016E+04  0.21037819671E+04 0.  0.
        5    1    3    3  502    0  0.47270465489E+03  0.69994606573E+03  0.14158858894E+04  0.16486749612E+04  0.46999998093E+01 0. -1.
       -5    1    3    3    0  502 -0.47270465489E+03 -0.69994606573E+03 -0.72027031079E+02  0.84769344039E+03  0.46999998093E+01 0.  1.
</event>
<event>
 5   0  0.6468758E-05  0.2295169E+04  0.7818609E-02  0.8479828E-01
        2   -1    0    0  501    0  0.00000000000E+00  0.00000000000E+00  0.15594022630E+04  0.15594022630E+04  0.25500000920E-02 0. -1.
       -2   -1    0    0    0  501  0.00000000000E+00  0.00000000000E+00 -0.84452253389E+03  0.84452253390E+03  0.25500000920E-02 0.  1.
    10030    2    1    2    0    0  0.00000000000E+00  0.00000000000E+00  0.71487972914E+03  0.24039247969E+04  0.22951691446E+04 0.  0.
        3    1    3    3  502    0 -0.95663432713E+03 -0.96821846046E+02 -0.29868337196E+03  0.10068443140E+04  0.10100000352E+00 0.  1.
       -3    1    3    3    0  502  0.95663432713E+03  0.96821846046E+02  0.10135631011E+04  0.13970804830E+04  0.10100000352E+00 0. -1.
</event>
<event>
 5   0  0.6468758E-05  0.2317136E+04  0.7818609E-02  0.8471195E-01
        2   -1    0    0  501    0  0.00000000000E+00  0.00000000000E+00  0.98496535749E+03  0.98496535749E+03  0.25500000920E-02 0.  1.
       -2   -1    0    0    0  501  0.00000000000E+00  0.00000000000E+00 -0.13627686447E+04  0.13627686447E+04  0.25500000920E-02 0. -1.
    10030    2    1    2    0    0  0.00000000000E+00  0.00000000000E+00 -0.37780328725E+03  0.23477340022E+04  0.23171360818E+04 0.  0.
        3    1    3    3  502    0  0.60975778612E+03  0.50981929547E+03  0.66517650902E+03  0.10364265869E+04  0.10100000352E+00 0.  1.
       -3    1    3    3    0  502 -0.60975778612E+03 -0.50981929547E+03 -0.10429797963E+04  0.13113074153E+04  0.10100000352E+00 0. -1.
</event>
<event>
 5   0  0.2342500E-05  0.2327508E+04  0.7818609E-02  0.8467153E-01
       -3   -1    0    0    0  501  0.00000000000E+00  0.00000000000E+00  0.77178993435E+03  0.77178994095E+03  0.10100000352E+00 0.  1.
        3   -1    0    0  501    0  0.00000000000E+00  0.00000000000E+00 -0.17547825093E+04  0.17547825122E+04  0.10100000352E+00 0. -1.
    10030    2    1    2    0    0  0.00000000000E+00  0.00000000000E+00 -0.98299257494E+03  0.25265724532E+04  0.23275081007E+04 0.  0.
        1    1    3    3  502    0  0.33175786102E+03 -0.56081873285E+03 -0.15381955339E+04  0.16705168153E+04  0.50400001928E-02 0. -1.
       -1    1    3    3    0  502 -0.33175786102E+03  0.56081873285E+03  0.55520295899E+03  0.85605563788E+03  0.50400001928E-02 0.  1.
</event>
<event>
 5   0  0.2944089E-05  0.2249221E+04  0.7818609E-02  0.8498216E-01
       -1   -1    0    0    0  501  0.00000000000E+00  0.00000000000E+00  0.89740758671E+03  0.89740758673E+03  0.50400001928E-02 0. -1.
        1   -1    0    0  501    0  0.00000000000E+00  0.00000000000E+00 -0.14093356255E+04  0.14093356255E+04  0.50400001928E-02 0.  1.
    10030    2    1    2    0    0  0.00000000000E+00  0.00000000000E+00 -0.51192803878E+03  0.23067432122E+04  0.22492207384E+04 0.  0.
        5    1    3    3  502    0 -0.64823154684E+03  0.70963121943E+03  0.34287464920E+03  0.10204732828E+04  0.46999998093E+01 0. -1.
       -5    1    3    3    0  502  0.64823154684E+03 -0.70963121943E+03 -0.85480268797E+03  0.12862699294E+04  0.46999998093E+01 0.  1.
</event>
<event>
 5   0  0.6468758E-05  0.2294213E+04  0.7818609E-02  0.8480206E-01
        2   -1    0    0  501    0  0.00000000000E+00  0.00000000000E+00  0.19501780776E+04  0.19501780776E+04  0.25500000920E-02 0.  1.
       -2   -1    0    0    0  501  0.00000000000E+00  0.00000000000E+00 -0.67473478553E+03  0.67473478553E+03  0.25500000920E-02 0. -1.
    10030    2    1    2    0    0  0.00000000000E+00  0.00000000000E+00  0.12754432920E+04  0.26249128631E+04  0.22942127076E+04 0.  0.
        3    1    3    3  502    0 -0.85303916789E+03 -0.11347040519E+03 -0.23009706421E+03  0.89078393787E+03  0.10100000352E+00 0.  1.
       -3    1    3    3    0  502  0.85303916789E+03  0.11347040519E+03  0.15055403562E+04  0.17341289252E+04  0.10100000352E+00 0. -1.
</event>
<event>
 5   0  0.2342500E-05  0.2320556E+04  0.7818609E-02  0.8469860E-01
       -3   -1    0    0    0  501  0.00000000000E+00  0.00000000000E+00  0.15872642425E+04  0.15872642457E+04  0.10100000352E+00 0. -1.
        3   -1    0    0  501    0  0.00000000000E+00  0.00000000000E+00 -0.84815446205E+03  0.84815446807E+03  0.10100000352E+00 0.  1.
    10030    2    1    2    0    0  0.00000000000E+00  0.00000000000E+00  0.73910978042E+03  0.24354187137E+04  0.23205561928E+04 0.  0.
        5    1    3    3  502    0 -0.10211232245E+04 -0.10430000447E+03 -0.19819535120E+03  0.10454064367E+04  0.46999998093E+01 0.  1.
       -5    1    3    3    0  502  0.10211232245E+04  0.10430000447E+03  0.93730513162E+03  0.13900122771E+04  0.46999998093E+01 0. -1.
</event>
<event>
 5   0  0.6676612E-05  0.2292443E+04  0.7818609E-02  0.8480907E-01
       -2   -1    0    0    0  501  0.00000000000E+00  0.00000000000E+00  0.16275381834E+04  0.16275381834E+04  0.25500000920E-02 0.  1.
        2   -1    0    0  501    0  0.00000000000E+00  0.00000000000E+00 -0.80724607801E+03  0.80724607802E+03  0.25500000920E-02 0. -1.
    10030    2    1    2    0    0  0.00000000000E+00  0.00000000000E+00  0.82029210543E+03  0.24347842615E+04  0.22924430771E+04 0.  0.
        2    1    3    3  502    0 -0.60944356203E+03 -0.19483165632E+03 -0.59992639007E+03  0.87709321233E+03  0.25500000920E-02 0. -1.
       -2    1    3    3    0  502  0.60944356203E+03  0.19483165632E+03  0.14202184955E+04  0.15576910491E+04  0.25500000920E-02 0.  1.
</event>
<event>
 5   0  0.6814789E-05  0.2301809E+04  0.7818609E-02  0.8477208E-01
       -2   -1    0    0    0  501  0.00000000000E+00  0.00000000000E+00  0.90930455257E+03  0.90930455257E+03  0.25500000920E-02 0.  1.
        2   -1    0    0  501    0  0.00000000000E+00  0.00000000000E+00 -0.14566970001E+04  0.14566970001E+04  0.25500000920E-02 0. -1.
    10030    2    1    2    0    0  0.00000000000E+00  0.00000000000E+00 -0.54739244753E+03  0.23660015527E+04  0.23018090398E+04 0.  0.
        1    1    3    3  502    0  0.29288314418E+03  0.13475866617E+03 -0.14093335838E+04  0.14457391136E+04  0.50400001928E-02 0. -1.
       -1    1    3    3    0  502 -0.29288314418E+03 -0.13475866617E+03  0.86194113628E+03  0.92026243903E+03  0.50400001928E-02 0.  1.
</event>
<event>
 5   0  0.2962279E-05  0.2296165E+04  0.7818609E-02  0.8479435E-01
        1   -1    0    0  501    0  0.00000000000E+00  0.00000000000E+00  0.87538118398E+03  0.87538118400E+03  0.50400001928E-02 0.  1.
       -1   -1    0    0    0  501  0.00000000000E+00  0.00000000000E+00 -0.15057365327E+04  0.15057365327E+04  0.50400001928E-02 0. -1.
    10030    2    1    2    0    0  0.00000000000E+00  0.00000000000E+00 -0.63035534868E+03  0.23811177167E+04  0.22961650017E+04 0.  0.
        1    1    3    3  502    0 -0.62293254521E+03  0.24409545541E+03 -0.12826836364E+04  0.14466875469E+04  0.50400001928E-02 0. -1.
       -1    1    3    3    0  502  0.62293254521E+03 -0.24409545541E+03  0.65232828771E+03  0.93443016978E+03  0.50400001928E-02 0.  1.
</event>
<event>
 5   0  0.6702421E-05  0.2293186E+04  0.7818609E-02  0.8480613E-01
       -2   -1    0    0    0  501  0.00000000000E+00  0.00000000000E+00  0.60514096402E+03  0.60514096403E+03  0.25500000920E-02 0. -1.
        2   -1    0    0  501    0  0.00000000000E+00  0.00000000000E+00 -0.21725114339E+04  0.21725114339E+04  0.25500000920E-02 0.  1.
    10030    2    1    2    0    0  0.00000000000E+00  0.00000000000E+00 -0.15673704699E+04  0.27776523979E+04  0.22931861359E+04 0.  0.
        4    1    3    3  502    0  0.15673108302E+03 -0.11357067758E+04 -0.80393680768E+03  0.14002537329E+04  0.12699999809E+01 0. -1.
       -4    1    3    3    0  502 -0.15673108302E+03  0.11357067758E+04 -0.76343366220E+03  0.13773986650E+04  0.12699999809E+01 0.  1.
</event>
<event>
 5   0  0.6702421E-05  0.2198581E+04  0.7818609E-02  0.8519019E-01
        2   -1    0    0  501    0  0.00000000000E+00  0.00000000000E+00  0.24078298502E+04  0.24078298502E+04  0.25500000920E-02 0.  1.
       -2   -1    0    0    0  501  0.00000000000E+00  0.00000000000E+00 -0.50187930158E+03  0.50187930159E+03  0.25500000920E-02 0. -1.
    10030    2    1    2    0    0  0.00000000000E+00  0.00000000000E+00  0.19059505486E+04  0.29097091518E+04  0.21985813276E+04 0.  0.
        4    1    3    3  502    0  0.75562615977E+02 -0.47832587707E+03  0.22590607046E+04  0.23103814044E+04  0.12699999809E+01 0.  1.
       -4    1    3    3    0  502 -0.75562615977E+02  0.47832587707E+03 -0.35311015603E+03  0.59932774739E+03  0.12699999809E+01 0. -1.
</event>
<event>
 5   0  0.6468758E-05  0.2458772E+04  0.7818609E-02  0.8417822E-01
        2   -1    0    0  501    0  0.00000000000E+00  0.00000000000E+00  0.77821249567E+03  0.77821249567E+03  0.25500000920E-02 0.  1.
       -2   -1    0    0    0  501  0.00000000000E+00  0.00000000000E+00 -0.19421308235E+04  0.19421308235E+04  0.25500000920E-02 0. -1.
    10030    2    1    2    0    0  0.00000000000E+00  0.00000000000E+00 -0.11639183279E+04  0.27203433192E+04  0.24587724377E+04 0.  0.
        3    1    3    3  502    0  0.18671656717E+03  0.31570885340E+02 -0.19258979919E+04  0.19351854905E+04  0.10100000352E+00 0. -1.
       -3    1    3    3    0  502 -0.18671656717E+03 -0.31570885340E+02  0.76197966407E+03  0.78515782867E+03  0.10100000352E+00 0.  1.
</event>
<event>
 5   0  0.2982385E-05  0.2275255E+04  0.7818609E-02  0.8487742E-01
        1   -1    0    0  501    0  0.00000000000E+00  0.00000000000E+00  0.16092380196E+04  0.16092380196E+04  0.50400001928E-02 0.  1.
       -1   -1    0    0    0  501  0.00000000000E+00  0.00000000000E+00 -0.80422912424E+03  0.80422912426E+03  0.50400001928E-02 0. -1.
    10030    2    1    2    0    0  0.00000000000E+00  0.00000000000E+00  0.80500889531E+03  0.24134671438E+04  0.22752547841E+04 0.  0.
        4    1    3    3  502    0  0.62015139767E+03 -0.63692421701E+03  0.11555102026E+04  0.14578976835E+04  0.12699999809E+01 0.  1.
       -4    1    3    3    0  502 -0.62015139767E+03  0.63692421701E+03 -0.35050130729E+03  0.95556946035E+03  0.12699999809E+01 0. -1.
</event>
<event>
 5   0  0.3006265E-05  0.2344635E+04  0.7818609E-02  0.8460527E-01
       -1   -1    0    0    0  501  0.00000000000E+00  0.00000000000E+00  0.97160806260E+03  0.97160806262E+03  0.50400001928E-02 0.  1.
        1   -1    0    0  501    0  0.00000000000E+00  0.00000000000E+00 -0.14144887981E+04  0.14144887981E+04  0.50400001928E-02 0. -1.
    10030    2    1    2    0    0  0.00000000000E+00  0.00000000000E+00 -0.44288073552E+03  0.23860968607E+04  0.23446353412E+04 0.  0.
        2    1    3    3  502    0 -0.62773640326E+03 -0.81557690502E+03 -0.79271361092E+03  0.12990818099E+04  0.25500000920E-02 0. -1.
       -2    1    3    3    0  502  0.62773640326E+03  0.81557690502E+03  0.34983287540E+03  0.10870150508E+04  0.25500000920E-02 0.  1.
</event>
<event>
 5   0  0.6468758E-05  0.2252941E+04  0.7818609E-02  0.8496710E-01
        2   -1    0    0  501    0  0.00000000000E+00  0.00000000000E+00  0.95368572755E+03  0.95368572756E+03  0.25500000920E-02 0.  1.
       -2   -1    0    0    0  501  0.00000000000E+00  0.00000000000E+00 -0.13305598446E+04  0.13305598446E+04  0.25500000920E-02 0. -1.
    10030    2    1    2    0    0  0.00000000000E+00  0.00000000000E+00 -0.37687411703E+03  0.22842455721E+04  0.22529411297E+04 0.  0.
        3    1    3    3  502    0 -0.68826865868E+03  0.24246006580E+03 -0.10585191803E+04  0.12856762793E+04  0.10100000352E+00 0. -1.
       -3    1    3    3    0  502  0.68826865868E+03 -0.24246006580E+03  0.68164506327E+03  0.99856929279E+03  0.10100000352E+00 0.  1.
</event>
<event>
 5   0  0.6702421E-05  0.2356111E+04  0.7818609E-02  0.8456120E-01
        2   -1    0    0  501    0  0.00000000000E+00  0.00000000000E+00  0.19188835923E+04  0.19188835923E+04  0.25500000920E-02 0. -1.
       -2   -1    0    0    0  501  0.00000000000E+00  0.00000000000E+00 -0.72324069854E+03  0.72324069855E+03  0.25500000920E-02 0.  1.
    10030    2    1    2    0    0  0.00000000000E+00  0.00000000000E+00  0.11956428938E+04  0.26421242908E+04  0.23561109564E+04 0.  0.
        4    1    3    3  502    0 -0.65314111155E+03 -0.97797034349E+03  0.67546351943E+03  0.13561975827E+04  0.12699999809E+01 0. -1.
       -4    1    3    3    0  502  0.65314111155E+03  0.97797034349E+03  0.52017937433E+03  0.12859267081E+04  0.12699999809E+01 0.  1.
</event>
<event>
 5   0  0.6702421E-05  0.2339014E+04  0.7818609E-02  0.8462695E-01
       -2   -1    0    0    0  501  0.00000000000E+00  0.00000000000E+00  0.14245504998E+04  0.14245504998E+04  0.25500000920E-02 0. -1.
        2   -1    0    0  501    0  0.00000000000E+00  0.00000000000E+00 -0.96012543217E+03  0.96012543217E+03  0.25500000920E-02 0.  1.
    10030    2    1    2    0    0  0.00000000000E+00  0.00000000000E+00  0.46442506766E+03  0.23846759320E+04  0.23390144628E+04 0.  0.
        4    1    3    3  502    0  0.38150693388E+03  0.35104979513E+03  0.13009912815E+04  0.14004868535E+04  0.12699999809E+01 0. -1.
       -4    1    3    3    0  502 -0.38150693388E+03 -0.35104979513E+03 -0.83656621385E+03  0.98418907854E+03  0.12699999809E+01 0.  1.
</event>
<event>
 5   0  0.3118614E-05  0.2319553E+04  0.7818609E-02  0.8470251E-01
       -1   -1    0    0    0  501  0.00000000000E+00  0.00000000000E+00  0.92069467723E+03  0.92069467725E+03  0.50400001928E-02 0.  1.
        1   -1    0    0  501    0  0.00000000000E+00  0.00000000000E+00 -0.14609423582E+04  0.14609423582E+04  0.50400001928E-02 0. -1.
    10030    2    1    2    0    0  0.00000000000E+00  0.00000000000E+00 -0.54024768100E+03  0.23816370355E+04  0.23195532785E+04 0.  0.
        3    1    3    3  502    0 -0.60085568807E+03 -0.88776416487E+02 -0.12845831354E+04  0.14209372442E+04  0.10100000352E+00 0. -1.
       -3    1    3    3    0  502  0.60085568807E+03  0.88776416487E+02  0.74433545443E+03  0.96069979126E+03  0.10100000352E+00 0.  1.
</event>
<event>
 5   0  0.2962279E-05  0.2305329E+04  0.7818609E-02  0.8475823E-01
       -1   -1    0    0    0  501  0.00000000000E+00  0.00000000000E+00  0.71809967543E+03  0.71809967545E+03  0.50400001928E-02 0. -1.
        1   -1    0    0  501    0  0.00000000000E+00  0.00000000000E+00 -0.18502103720E+04  0.18502103720E+04  0.50400001928E-02 0.  1.
    10030    2    1    2    0    0  0.00000000000E+00  0.00000000000E+00 -0.11321106966E+04  0.25683100474E+04  0.23053290157E+04 0.  0.
        1    1    3    3  502    0  0.70718351610E+03  0.87139705560E+03 -0.27300036582E+03  0.11549764299E+04  0.50400001928E-02 0. -1.
       -1    1    3    3    0  502 -0.70718351610E+03 -0.87139705560E+03 -0.85911033073E+03  0.14133336175E+04  0.50400001928E-02 0.  1.
</event>
<event>
 5   0  0.3006265E-05  0.2251575E+04  0.7818609E-02  0.8497263E-01
       -1   -1    0    0    0  501  0.00000000000E+00  0.00000000000E+00  0.13425836839E+04  0.13425836839E+04  0.50400001928E-02 0.  1.
        1   -1    0    0  501    0  0.00000000000E+00  0.00000000000E+00 -0.94399892748E+03  0.94399892749E+03  0.50400001928E-02 0. -1.
    10030    2    1    2    0    0  0.00000000000E+00  0.00000000000E+00  0.39858475640E+03  0.22865826114E+04  0.22515750555E+04 0.  0.
        2    1    3    3  502    0  0.73575583358E+03 -0.44127589953E+03 -0.54096933805E+03  0.10142528732E+04  0.25500000920E-02 0. -1.
       -2    1    3    3    0  502 -0.73575583358E+03  0.44127589953E+03  0.93955409445E+03  0.12723297381E+04  0.25500000920E-02 0.  1.
</event>
<event>
 5   0  0.6814789E-05  0.2289506E+04  0.7818609E-02  0.8482070E-01
       -2   -1    0    0    0  501  0.00000000000E+00  0.00000000000E+00  0.95006038950E+03  0.95006038951E+03  0.25500000920E-02 0.  1.
        2   -1    0    0  501    0  0.00000000000E+00  0.00000000000E+00 -0.13793427460E+04  0.13793427460E+04  0.25500000920E-02 0. -1.
    10030    2    1    2    0    0  0.00000000000E+00  0.00000000000E+00 -0.42928235646E+03  0.23294031355E+04  0.22895055418E+04 0.  0.
        1    1    3    3  502    0  0.18125025005E+03 -0.16925512032E+03 -0.13516850296E+04  0.13742457452E+04  0.50400001928E-02 0. -1.
       -1    1    3    3    0  502 -0.18125025005E+03  0.16925512032E+03  0.92240267311E+03  0.95515739032E+03  0.50400001928E-02 0.  1.
</event>
<event>
 5   0  0.6702421E-05  0.2416427E+04  0.7818609E-02  0.8433379E-01
       -2   -1    0    0    0  501  0.00000000000E+00  0.00000000000E+00  0.92882195654E+03  0.92882195654E+03  0.25500000920E-02 0.  1.
        2   -1    0    0  501    0  0.00000000000E+00  0.00000000000E+00 -0.15716468954E+04  0.15716468954E+04  0.25500000920E-02 0. -1.
    10030    2    1    2    0    0  0.00000000000E+00  0.00000000000E+00 -0.64282493889E+03  0.25004688520E+04  0.24164272341E+04 0.  0.
        4    1    3    3  502    0  0.10634445716E+04 -0.43661694029E+02  0.27027667182E+03  0.10981219389E+04  0.12699999809E+01 0.  1.
       -4    1    3    3    0  502 -0.10634445716E+04  0.43661694029E+02 -0.91310161071E+03  0.14023469131E+04  0.12699999809E+01 0. -1.
</event>
<event>
 5   0  0.2944089E-05  0.2289367E+04  0.7818609E-02  0.8482125E-01
       -1   -1    0    0    0  501  0.00000000000E+00  0.00000000000E+00  0.27318297194E+04  0.27318297194E+04  0.50400001928E-02 0.  1.
        1   -1    0    0  501    0  0.00000000000E+00  0.00000000000E+00 -0.47964207309E+03  0.47964207311E+03  0.50400001928E-02 0. -1.
    10030    2    1    2    0    0  0.00000000000E+00  0.00000000000E+00  0.22521876463E+04  0.32114717925E+04  0.22893671352E+04 0.  0.
        5    1    3    3  502    0  0.53241042606E+02  0.11431827277E+04  0.11597903375E+04  0.16293670779E+04  0.46999998093E+01 0.  1.
       -5    1    3    3    0  502 -0.53241042606E+02 -0.11431827277E+04  0.10923973088E+04  0.15821047146E+04  0.46999998093E+01 0. -1.
</event>
<event>
 5   0  0.6814789E-05  0.2325769E+04  0.7818609E-02  0.8467830E-01
        2   -1    0    0  501    0  0.00000000000E+00  0.00000000000E+00  0.99548887669E+03  0.99548887669E+03  0.25500000920E-02 0.  1.
       -2   -1    0    0    0  501  0.00000000000E+00  0.00000000000E+00 -0.13584282381E+04  0.13584282381E+04  0.25500000920E-02 0. -1.
    10030    2    1    2    0    0  0.00000000000E+00  0.00000000000E+00 -0.36293936139E+03  0.23539171148E+04  0.23257688628E+04 0.  0.
        1    1    3    3  502    0  0.73013894462E+03 -0.87302909781E+03 -0.42314303163E+03  0.12142210298E+04  0.50400001928E-02 0. -1.
       -1    1    3    3    0  502 -0.73013894462E+03  0.87302909781E+03  0.60203670238E+02  0.11396960849E+04  0.50400001928E-02 0.  1.
</event>
<event>
 5   0  0.3118614E-05  0.2279407E+04  0.7818609E-02  0.8486085E-01
        1   -1    0    0  501    0  0.00000000000E+00  0.00000000000E+00  0.20731168721E+04  0.20731168721E+04  0.50400001928E-02 0. -1.
       -1   -1    0    0    0  501  0.00000000000E+00  0.00000000000E+00 -0.62655602293E+03  0.62655602295E+03  0.50400001928E-02 0.  1.
    10030    2    1    2    0    0  0.00000000000E+00  0.00000000000E+00  0.14465608491E+04  0.26996728950E+04  0.22794068197E+04 0.  0.
        3    1    3    3  502    0  0.17269794548E+03 -0.10452599770E+04  0.22565837914E+03  0.10831965261E+04  0.10100000352E+00 0.  1.
       -3    1    3    3    0  502 -0.17269794548E+03  0.10452599770E+04  0.12209024700E+04  0.16164763689E+04  0.10100000352E+00 0. -1.
</event>
<event>
 5   0  0.2944089E-05  0.2312868E+04  0.7818609E-02  0.8472865E-01
       -1   -1    0    0    0  501  0.00000000000E+00  0.00000000000E+00  0.87132419759E+03  0.87132419760E+03  0.50400001928E-02 0. -1.
        1   -1    0    0  501    0  0.00000000000E+00  0.00000000000E+00 -0.15348357181E+04  0.15348357181E+04  0.50400001928E-02 0.  1.
    10030    2    1    2    0    0  0.00000000000E+00  0.00000000000E+00 -0.66351152049E+03  0.24061599157E+04  0.23128679171E+04 0.  0.
        5    1    3    3  502    0 -0.21353138869E+03 -0.13537547381E+03 -0.15057210768E+04  0.15268071994E+04  0.46999998093E+01 0.  1.
       -5    1    3    3    0  502  0.21353138869E+03  0.13537547381E+03  0.84220955635E+03  0.87935271630E+03  0.46999998093E+01 0. -1.
</event>
<event>
 5   0  0.2944089E-05  0.2281383E+04  0.7818609E-02  0.8485298E-01
        1   -1    0    0  501    0  0.00000000000E+00  0.00000000000E+00  0.10866380710E+04  0.10866380710E+04  0.50400001928E-02 0.  1.
       -1   -1    0    0    0  501  0.00000000000E+00  0.00000000000E+00 -0.11974341615E+04  0.11974341615E+04  0.50400001928E-02 0. -1.
    10030    2    1    2    0    0  0.00000000000E+00  0.00000000000E+00 -0.11079609054E+03  0.22840722325E+04  0.22813833938E+04 0.  0.
        5    1    3    3  502    0 -0.59244698857E+03  0.66060773347E+03  0.66221688848E+03  0.11072259522E+04  0.46999998093E+01 0.  1.
       -5    1    3    3    0  502  0.59244698857E+03 -0.66060773347E+03 -0.77301297902E+03  0.11768462803E+04  0.46999998093E+01 0. -1.
</event>
<event>
 5   0  0.6495405E-05  0.2324193E+04  0.7818609E-02  0.8468443E-01
        2   -1    0    0  501    0  0.00000000000E+00  0.00000000000E+00  0.24878707522E+04  0.24878707522E+04  0.25500000920E-02 0.  1.
       -2   -1    0    0    0  501  0.00000000000E+00  0.00000000000E+00 -0.54282069553E+03  0.54282069554E+03  0.25500000920E-02 0. -1.
    10030    2    1    2    0    0  0.00000000000E+00  0.00000000000E+00  0.19450500567E+04  0.30306914477E+04  0.23241925326E+04 0.  0.
        5    1    3    3  502    0  0.10844749188E+04  0.41746054744E+03  0.98465158549E+03  0.15231283573E+04  0.46999998093E+01 0.  1.
       -5    1    3    3    0  502 -0.10844749188E+04 -0.41746054744E+03  0.96039847120E+03  0.15075630904E+04  0.46999998093E+01 0. -1.
</event>
<event>
 5   0  0.6495405E-05  0.2228576E+04  0.7818609E-02  0.8506627E-01
       -2   -1    0    0    0  501  0.00000000000E+00  0.00000000000E+00  0.89756825933E+03  0.89756825933E+03  0.25500000920E-02 0.  1.
        2   -1    0    0  501    0  0.00000000000E+00  0.00000000000E+00 -0.13833350861E+04  0.13833350861E+04  0.25500000920E-02 0. -1.
    10030    2    1    2    0    0  0.00000000000E+00  0.00000000000E+00 -0.48576682678E+03  0.22809033454E+04  0.22285759267E+04 0.  0.
        5    1    3    3  502    0 -0.17431418223E+03 -0.87483973042E+03 -0.92630889032E+03  0.12860016479E+04  0.46999998093E+01 0. -1.
       -5    1    3    3    0  502  0.17431418223E+03  0.87483973042E+03  0.44054206355E+03  0.99490169756E+03  0.46999998093E+01 0.  1.
</event>
<event>
 5   0  0.6702421E-05  0.2314437E+04  0.7818609E-02  0.8472250E-01
       -2   -1    0    0    0  501  0.00000000000E+00  0.00000000000E+00  0.11070048751E+04  0.11070048751E+04  0.25500000920E-02 0.  1.
        2   -1    0    0  501    0  0.00000000000E+00  0.00000000000E+00 -0.12097102365E+04  0.12097102365E+04  0.25500000920E-02 0. -1.
    10030    2    1    2    0    0  0.00000000000E+00  0.00000000000E+00 -0.10270536139E+03  0.23167151115E+04  0.23144374083E+04 0.  0.
        4    1    3    3  502    0  0.98392972907E+02 -0.17783484276E+03  0.10889993969E+04  0.11078030997E+04  0.12699999809E+01 0.  1.
       -4    1    3    3    0  502 -0.98392972907E+02  0.17783484276E+03 -0.11917047583E+04  0.12089120118E+04  0.12699999809E+01 0. -1.
</event>
<event>
 5   0  0.2962279E-05  0.2298410E+04  0.7818609E-02  0.8478548E-01
       -1   -1    0    0    0  501  0.00000000000E+00  0.00000000000E+00  0.95739817897E+03  0.95739817899E+03  0.50400001928E-02 0.  1.
        1   -1    0    0  501    0  0.00000000000E+00  0.00000000000E+00 -0.13794392535E+04  0.13794392535E+04  0.50400001928E-02 0. -1.
    10030    2    1    2    0    0  0.00000000000E+00  0.00000000000E+00 -0.42204107448E+03  0.23368374324E+04  0.22984104327E+04 0.  0.
        1    1    3    3  502    0 -0.96644175326E+03 -0.36332938333E+02  0.42011783932E+03  0.10544329015E+04  0.50400001928E-02 0.  1.
       -1    1    3    3    0  502  0.96644175326E+03  0.36332938333E+02 -0.84215891380E+03  0.12824045309E+04  0.50400001928E-02 0. -1.
</event>
<event>
 5   0  0.6495405E-05  0.2199855E+04  0.7818609E-02  0.8518489E-01
       -2   -1    0    0    0  501  0.00000000000E+00  0.00000000000E+00  0.10764740816E+04  0.10764740816E+04  0.25500000920E-02 0.  1.
        2   -1    0    0  501    0  0.00000000000E+00  0.00000000000E+00 -0.11238915249E+04  0.11238915249E+04  0.25500000920E-02 0. -1.
    10030    2    1    2    0    0  0.00000000000E+00  0.00000000000E+00 -0.47417443268E+02  0.22003656065E+04  0.21998546289E+04 0.  0.
        5    1    3    3  502    0 -0.83672808274E+03  0.53206329258E+03 -0.49985792284E+03  0.11104437243E+04  0.46999998093E+01 0. -1.
       -5    1    3    3    0  502  0.83672808274E+03 -0.53206329258E+03  0.45244047957E+03  0.10899218822E+04  0.46999998093E+01 0.  1.
</event>
<event>
 5   0  0.2944089E-05  0.2312701E+04  0.7818609E-02  0.8472930E-01
        1   -1    0    0  501    0  0.00000000000E+00  0.00000000000E+00  0.58432533183E+03  0.58432533185E+03  0.50400001928E-02 0.  1.
       -1   -1    0    0    0  501  0.00000000000E+00  0.00000000000E+00 -0.22883601705E+04  0.22883601705E+04  0.50400001928E-02 0. -1.
    10030    2    1    2    0    0  0.00000000000E+00  0.00000000000E+00 -0.17040348387E+04  0.28726855024E+04  0.23127012916E+04 0.  0.
        5    1    3    3  502    0  0.48295162174E+03  0.41201406988E+03  0.34850830531E+03  0.72420852770E+03  0.46999998093E+01 0.  1.
       -5    1    3    3    0  502 -0.48295162174E+03 -0.41201406988E+03 -0.20525431440E+04  0.21484769747E+04  0.46999998093E+01 0. -1.
</event>
<event>
 5   0  0.6468758E-05  0.2264365E+04  0.7818609E-02  0.8492105E-01
        2   -1    0    0  501    0  0.00000000000E+00  0.00000000000E+00  0.22730395664E+04  0.22730395664E+04  0.25500000920E-02 0.  1.
       -2   -1    0    0    0  501  0.00000000000E+00  0.00000000000E+00 -0.56393088549E+03  0.56393088549E+03  0.25500000920E-02 0. -1.
    10030    2    1    2    0    0  0.00000000000E+00  0.00000000000E+00  0.17091086809E+04  0.28369704519E+04  0.22643650019E+04 0.  0.
        3    1    3    3  502    0 -0.16875998660E+02 -0.23259699547E+03 -0.53351278430E+03  0.58225601143E+03  0.10100000352E+00 0. -1.
       -3    1    3    3    0  502  0.16875998660E+02  0.23259699547E+03  0.22426214652E+04  0.22547144405E+04  0.10100000352E+00 0.  1.
</event>
<event>
 5   0  0.6495405E-05  0.2288307E+04  0.7818609E-02  0.8482546E-01
       -2   -1    0    0    0  501  0.00000000000E+00  0.00000000000E+00  0.11075330081E+04  0.11075330081E+04  0.25500000920E-02 0. -1.
        2   -1    0    0  501    0  0.00000000000E+00  0.00000000000E+00 -0.11819845577E+04  0.11819845577E+04  0.25500000920E-02 0.  1.
    10030    2    1    2    0    0  0.00000000000E+00  0.00000000000E+00 -0.74451549559E+02  0.22895175658E+04  0.22883067213E+04 0.  0.
        5    1    3    3  502    0  0.43469331857E+03  0.53173352720E+03 -0.95278702717E+03  0.11745314105E+04  0.46999998093E+01 0.  1.
       -5    1    3    3    0  502 -0.43469331857E+03 -0.53173352720E+03  0.87833547761E+03  0.11149861552E+04  0.46999998093E+01 0. -1.
</event>
<event>
 5   0  0.2982385E-05  0.2253407E+04  0.7818609E-02  0.8496522E-01
       -1   -1    0    0    0  501  0.00000000000E+00  0.00000000000E+00  0.94442904228E+03  0.94442904229E+03  0.50400001928E-02 0. -1.
        1   -1    0    0  501    0  0.00000000000E+00  0.00000000000E+00 -0.13441563211E+04  0.13441563211E+04  0.50400001928E-02 0.  1.
    10030    2    1    2    0    0  0.00000000000E+00  0.00000000000E+00 -0.39972727878E+03  0.22885853634E+04  0.22534065474E+04 0.  0.
        4    1    3    3  502    0  0.63077075582E+03 -0.93295895794E+03 -0.16505778369E+03  0.11382134459E+04  0.12699999809E+01 0. -1.
       -4    1    3    3    0  502 -0.63077075582E+03  0.93295895794E+03 -0.23466949509E+03  0.11503719174E+04  0.12699999809E+01 0.  1.
</event>
<event>
 5   0  0.6468758E-05  0.1948464E+04  0.7818609E-02  0.8631102E-01
        2   -1    0    0  501    0  0.00000000000E+00  0.00000000000E+00  0.31919524843E+04  0.31919524843E+04  0.25500000920E-02 0. -1.
       -2   -1    0    0    0  501  0.00000000000E+00  0.00000000000E+00 -0.29735036314E+03  0.29735036315E+03  0.25500000920E-02 0.  1.
    10030    2    1    2    0    0  0.00000000000E+00  0.00000000000E+00  0.28946021212E+04  0.34893028474E+04  0.19484642469E+04 0.  0.
        3    1    3    3  502    0 -0.13408440258E+02  0.57450545996E+03  0.38487164629E+02  0.57594928756E+03  0.10100000352E+00 0.  1.
       -3    1    3    3    0  502  0.13408440258E+02 -0.57450545996E+03  0.28561149565E+04  0.29133535599E+04  0.10100000352E+00 0. -1.
</event>
<event>
 5   0  0.6676612E-05  0.2307171E+04  0.7818609E-02  0.8475099E-01
        2   -1    0    0  501    0  0.00000000000E+00  0.00000000000E+00  0.90980127762E+03  0.90980127763E+03  0.25500000920E-02 0.  1.
       -2   -1    0    0    0  501  0.00000000000E+00  0.00000000000E+00 -0.14626921989E+04  0.14626921989E+04  0.25500000920E-02 0. -1.
    10030    2    1    2    0    0  0.00000000000E+00  0.00000000000E+00 -0.55289092129E+03  0.23724934765E+04  0.23071707621E+04 0.  0.
        2    1    3    3  502    0  0.71379376268E+03  0.49388890284E+02  0.65406035755E+03  0.96939968509E+03  0.25500000920E-02 0.  1.
       -2    1    3    3    0  502 -0.71379376268E+03 -0.49388890284E+02 -0.12069512788E+04  0.14030937915E+04  0.25500000920E-02 0. -1.
</event>
<event>
 5   0  0.6702421E-05  0.2261125E+04  0.7818609E-02  0.8493409E-01
       -2   -1    0    0    0  501  0.00000000000E+00  0.00000000000E+00  0.50920962985E+03  0.50920962985E+03  0.25500000920E-02 0. -1.
        2   -1    0    0  501    0  0.00000000000E+00  0.00000000000E+00 -0.25101085749E+04  0.25101085749E+04  0.25500000920E-02 0.  1.
    10030    2    1    2    0    0  0.00000000000E+00  0.00000000000E+00 -0.20008989450E+04  0.30193182047E+04  0.22611249044E+04 0.  0.
        4    1    3    3  502    0 -0.34214843596E+03 -0.39679750147E+03 -0.23382050876E+04  0.23961883177E+04  0.12699999809E+01 0.  1.
       -4    1    3    3    0  502  0.34214843596E+03  0.39679750147E+03  0.33730614255E+03  0.62312988703E+03  0.12699999809E+01 0. -1.
</event>
<event>
 5   0  0.6468758E-05  0.2308329E+04  0.7818609E-02  0.8474645E-01
       -2   -1    0    0    0  501  0.00000000000E+00  0.00000000000E+00  0.66528232063E+03  0.66528232063E+03  0.25500000920E-02 0.  1.
        2   -1    0    0  501    0  0.00000000000E+00  0.00000000000E+00 -0.20023006033E+04  0.20023006033E+04  0.25500000920E-02 0. -1.
    10030    2    1    2    0    0  0.00000000000E+00  0.00000000000E+00 -0.13370182826E+04  0.26675829239E+04  0.23083285658E+04 0.  0.
        3    1    3    3  502    0  0.38896002995E+03  0.33043226083E+03  0.52779241266E+03  0.73419358820E+03  0.10100000352E+00 0.  1.
       -3    1    3    3    0  502 -0.38896002995E+03 -0.33043226083E+03 -0.18648106953E+04  0.19333893357E+04  0.10100000352E+00 0. -1.
</event>
<event>
 5   0  0.6814789E-05  0.2198597E+04  0.7818609E-02  0.8519012E-01
       -2   -1    0    0    0  501  0.00000000000E+00  0.00000000000E+00  0.94131366514E+03  0.94131366515E+03  0.25500000920E-02 0.  1.
        2   -1    0    0  501    0  0.00000000000E+00  0.00000000000E+00 -0.12837982293E+04  0.12837982293E+04  0.25500000920E-02 0. -1.
    10030    2    1    2    0    0  0.00000000000E+00  0.00000000000E+00 -0.34248456413E+03  0.22251118944E+04  0.21985966583E+04 0.  0.
        1    1    3    3  502    0 -0.84558294765E+02 -0.62609571732E+03 -0.10817087947E+04  0.12526930466E+04  0.50400001928E-02 0. -1.
       -1    1    3    3    0  502  0.84558294765E+02  0.62609571732E+03  0.73922423058E+03  0.97241884780E+03  0.50400001928E-02 0.  1.
</event>
<event>
 5   0  0.6814789E-05  0.2288960E+04  0.7818609E-02  0.8482287E-01
       -2   -1    0    0    0  501  0.00000000000E+00  0.00000000000E+00  0.69633797569E+03  0.69633797570E+03  0.25500000920E-02 0.  1.
        2   -1    0    0  501    0  0.00000000000E+00  0.00000000000E+00 -0.18810323964E+04  0.18810323964E+04  0.25500000920E-02 0. -1.
    10030    2    1    2    0    0  0.00000000000E+00  0.00000000000E+00 -0.11846944207E+04  0.25773703721E+04  0.22889598433E+04 0.  0.
        1    1    3    3  502    0  0.25830961913E+03 -0.50728505333E+03  0.52561459104E+03  0.77481138544E+03  0.50400001928E-02 0.  1.
       -1    1    3    3    0  502 -0.25830961913E+03  0.50728505333E+03 -0.17103090117E+04  0.18025589866E+04  0.50400001928E-02 0. -1.
</event>
<event>
 5   0  0.2962279E-05  0.2290733E+04  0.7818609E-02  0.8481584E-01
        1   -1    0    0  501    0  0.00000000000E+00  0.00000000000E+00  0.91039072826E+03  0.91039072827E+03  0.50400001928E-02 0. -1.
       -1   -1    0    0    0  501  0.00000000000E+00  0.00000000000E+00 -0.14409908824E+04  0.14409908824E+04  0.50400001928E-02 0.  1.
    10030    2    1    2    0    0  0.00000000000E+00  0.00000000000E+00 -0.53060015416E+03  0.23513816107E+04  0.22907332790E+04 0.  0.
        1    1    3    3  502    0 -0.79693371793E+03  0.15949655747E+02 -0.11095766499E+04  0.13662057254E+04  0.50400001928E-02 0.  1.
       -1    1    3    3    0  502  0.79693371793E+03 -0.15949655747E+02  0.57897649571E+03  0.98517588526E+03  0.50400001928E-02 0. -1.
</event>
<event>
 5   0  0.3006265E-05  0.2292574E+04  0.7818609E-02  0.8480855E-01
        1   -1    0    0  501    0  0.00000000000E+00  0.00000000000E+00  0.22056914403E+04  0.22056914403E+04  0.50400001928E-02 0.  1.
       -1   -1    0    0    0  501  0.00000000000E+00  0.00000000000E+00 -0.59571983470E+03  0.59571983472E+03  0.50400001928E-02 0. -1.
    10030    2    1    2    0    0  0.00000000000E+00  0.00000000000E+00  0.16099716056E+04  0.28014112750E+04  0.22925742215E+04 0.  0.
        2    1    3    3  502    0 -0.64329530818E+03 -0.37477622428E+03  0.18700385581E+04  0.20127916635E+04  0.25500000920E-02 0.  1.
       -2    1    3    3    0  502  0.64329530818E+03  0.37477622428E+03 -0.26006695256E+03  0.78861961149E+03  0.25500000920E-02 0. -1.
</event>
<event>
 5   0  0.6814789E-05  0.2289379E+04  0.7818609E-02  0.8482121E-01
       -2   -1    0    0    0  501  0.00000000000E+00  0.00000000000E+00  0.10511265953E+04  0.10511265953E+04  0.25500000920E-02 0.  1.
        2   -1    0    0  501    0  0.00000000000E+00  0.00000000000E+00 -0.12465804324E+04  0.12465804324E+04  0.25500000920E-02 0. -1.
    10030    2    1    2    0    0  0.00000000000E+00  0.00000000000E+00 -0.19545383717E+03  0.22977070277E+04  0.22893788203E+04 0.  0.
        1    1    3    3  502    0  0.99455831305E+03  0.85516153059E+02 -0.65999216112E+03  0.11966824572E+04  0.50400001928E-02 0. -1.
       -1    1    3    3    0  502 -0.99455831305E+03 -0.85516153059E+02  0.46453832395E+03  0.11010245705E+04  0.50400001928E-02 0.  1.
</event>
<event>
 5   0  0.2944089E-05  0.2363074E+04  0.7818609E-02  0.8453459E-01
       -1   -1    0    0    0  501  0.00000000000E+00  0.00000000000E+00  0.10235577049E+04  0.10235577049E+04  0.50400001928E-02 0.  1.
        1   -1    0    0  501    0  0.00000000000E+00  0.00000000000E+00 -0.13638990506E+04  0.13638990506E+04  0.50400001928E-02 0. -1.
    10030    2    1    2    0    0  0.00000000000E+00  0.00000000000E+00 -0.34034134566E+03  0.23874567555E+04  0.23630737458E+04 0.  0.
        5    1    3    3  502    0 -0.11175125111E+04  0.15438696830E+03 -0.52498915861E+03  0.12443091477E+04  0.46999998093E+01 0.  1.
       -5    1    3    3    0  502  0.11175125111E+04 -0.15438696830E+03  0.18464781295E+03  0.11431476078E+04  0.46999998093E+01 0. -1.
</event>
<event>
 5   0  0.6495405E-05  0.2331878E+04  0.7818609E-02  0.8465457E-01
        2   -1    0    0  501    0  0.00000000000E+00  0.00000000000E+00  0.19247221179E+04  0.19247221179E+04  0.25500000920E-02 0.  1.
       -2   -1    0    0    0  501  0.00000000000E+00  0.00000000000E+00 -0.70629108419E+03  0.70629108419E+03  0.25500000920E-02 0. -1.
    10030    2    1    2    0    0  0.00000000000E+00  0.00000000000E+00  0.12184310337E+04  0.26310132021E+04  0.23318782742E+04 0.  0.
        5    1    3    3  502    0  0.38148590114E+03 -0.92324870730E+02 -0.62949927721E+03  0.74185362743E+03  0.46999998093E+01 0. -1.
       -5    1    3    3    0  502 -0.38148590114E+03  0.92324870730E+02  0.18479303110E+04  0.18891595747E+04  0.46999998093E+01 0.  1.
</event>
<event>
 5   0  0.3118614E-05  0.2304157E+04  0.7818609E-02  0.8476284E-01
       -1   -1    0    0    0  501  0.00000000000E+00  0.00000000000E+00  0.97431547622E+03  0.97431547623E+03  0.50400001928E-02 0.  1.
        1   -1    0    0  501    0  0.00000000000E+00  0.00000000000E+00 -0.13622744316E+04  0.13622744316E+04  0.50400001928E-02 0. -1.
    10030    2    1    2    0    0  0.00000000000E+00  0.00000000000E+00 -0.38795895541E+03  0.23365899079E+04  0.23041571662E+04 0.  0.
        3    1    3    3  502    0 -0.19547248809E+01 -0.72685349193E+03 -0.11004096178E+04  0.13187953430E+04  0.10100000352E+00 0. -1.
       -3    1    3    3    0  502  0.19547248809E+01  0.72685349193E+03  0.71245066238E+03  0.10177945648E+04  0.10100000352E+00 0.  1.
</event>
<event>
 5   0  0.6676612E-05  0.2321524E+04  0.7818609E-02  0.8469483E-01
        2   -1    0    0  501    0  0.00000000000E+00  0.00000000000E+00  0.13402429664E+04  0.13402429664E+04  0.25500000920E-02 0.  1.
       -2   -1    0    0    0  501  0.00000000000E+00  0.00000000000E+00 -0.10053162472E+04  0.10053162472E+04  0.25500000920E-02 0. -1.
    10030    2    1    2    0    0  0.00000000000E+00  0.00000000000E+00  0.33492671921E+03  0.23455592136E+04  0.23215236629E+04 0.  0.
        2    1    3    3  502    0  0.99040514463E+03  0.55504303450E+03  0.41161145509E+03  0.12076419629E+04  0.25500000920E-02 0. -1.
       -2    1    3    3    0  502 -0.99040514463E+03 -0.55504303450E+03 -0.76684735887E+02  0.11379172507E+04  0.25500000920E-02 0.  1.
</event>
<event>
 5   0  0.2982385E-05  0.2303082E+04  0.7818609E-02  0.8476707E-01
        1   -1    0    0  501    0  0.00000000000E+00  0.00000000000E+00  0.15290852580E+04  0.15290852581E+04  0.50400001928E-02 0.  1.
       -1   -1    0    0    0  501  0.00000000000E+00  0.00000000000E+00 -0.86721587823E+03  0.86721587825E+03  0.50400001928E-02 0. -1.
    10030    2    1    2    0    0  0.00000000000E+00  0.00000000000E+00  0.66186937982E+03  0.23963011363E+04  0.23030822955E+04 0.  0.
        4    1    3    3  502    0 -0.67456542410E+03 -0.63645851408E+03 -0.37928234675E+03  0.10019853607E+04  0.12699999809E+01 0. -1.
       -4    1    3    3    0  502  0.67456542410E+03  0.63645851408E+03  0.10411517266E+04  0.13943157756E+04  0.12699999809E+01 0.  1.
</event>
<event>
 5   0  0.2944089E-05  0.2324712E+04  0.7818609E-02  0.8468241E-01
       -1   -1    0    0    0  501  0.00000000000E+00  0.00000000000E+00  0.65970424129E+03  0.65970424131E+03  0.50400001928E-02 0. -1.
        1   -1    0    0  501    0  0.00000000000E+00  0.00000000000E+00 -0.20479963901E+04  0.20479963901E+04  0.50400001928E-02 0.  1.
    10030    2    1    2    0    0  0.00000000000E+00  0.00000000000E+00 -0.13882921488E+04  0.27077006314E+04  0.23247123733E+04 0.  0.
        5    1    3    3  502    0  0.10252407262E+04  0.53205531255E+03 -0.54296030553E+03  0.12763343549E+04  0.46999998093E+01 0. -1.
       -5    1    3    3    0  502 -0.10252407262E+04 -0.53205531255E+03 -0.84533184324E+03  0.14313662765E+04  0.46999998093E+01 0.  1.
</event>
<event>
 5   0  0.2962279E-05  0.2304305E+04  0.7818609E-02  0.8476226E-01
        1   -1    0    0  501    0  0.00000000000E+00  0.00000000000E+00  0.12685763021E+04  0.12685763021E+04  0.50400001928E-02 0.  1.
       -1   -1    0    0    0  501  0.00000000000E+00  0.00000000000E+00 -0.10464136402E+04  0.10464136402E+04  0.50400001928E-02 0. -1.
    10030    2    1    2    0    0  0.00000000000E+00  0.00000000000E+00  0.22216266194E+03  0.23149899423E+04  0.23043051414E+04 0.  0.
        1    1    3    3  502    0 -0.40486779927E+02 -0.75468348611E+03 -0.76258847592E+03  0.10736514924E+04  0.50400001928E-02 0. -1.
       -1    1    3    3    0  502  0.40486779927E+02  0.75468348611E+03  0.98475113786E+03  0.12413384499E+04  0.50400001928E-02 0.  1.
</event>
<event>
 5   0  0.3006265E-05  0.2313463E+04  0.7818609E-02  0.8472632E-01
        1   -1    0    0  501    0  0.00000000000E+00  0.00000000000E+00  0.10726794115E+04  0.10726794116E+04  0.50400001928E-02 0. -1.
       -1   -1    0    0    0  501  0.00000000000E+00  0.00000000000E+00 -0.12473695591E+04  0.12473695591E+04  0.50400001928E-02 0.  1.
    10030    2    1    2    0    0  0.00000000000E+00  0.00000000000E+00 -0.17469014758E+03  0.23200489707E+04  0.23134628976E+04 0.  0.
        2    1    3    3  502    0  0.10866835318E+04 -0.16218474134E+02  0.30986774738E+03  0.11301159932E+04  0.25500000920E-02 0. -1.
       -2    1    3    3    0  502 -0.10866835318E+04  0.16218474134E+02 -0.48455789496E+03  0.11899329775E+04  0.25500000920E-02 0.  1.
</event>
<event>
 5   0  0.6468758E-05  0.2314624E+04  0.7818609E-02  0.8472177E-01
       -2   -1    0    0    0  501  0.00000000000E+00  0.00000000000E+00  0.90245519544E+03  0.90245519545E+03  0.25500000920E-02 0. -1.
        2   -1    0    0  501    0  0.00000000000E+00  0.00000000000E+00 -0.14841408789E+04  0.14841408789E+04  0.25500000920E-02 0.  1.
    10030    2    1    2    0    0  0.00000000000E+00  0.00000000000E+00 -0.58168568345E+03  0.23865960744E+04  0.23146236385E+04 0.  0.
        3    1    3    3  502    0  0.45317630583E+03  0.97499478711E+03  0.15071017419E+03  0.10856782055E+04  0.10100000352E+00 0. -1.
       -3    1    3    3    0  502 -0.45317630583E+03 -0.97499478711E+03 -0.73239585764E+03  0.13009178689E+04  0.10100000352E+00 0.  1.
</event>
<event>
 5   0  0.6814789E-05  0.2430219E+04  0.7818609E-02  0.8428276E-01
       -2   -1    0    0    0  501  0.00000000000E+00  0.00000000000E+00  0.19572326174E+04  0.19572326174E+04  0.25500000920E-02 0. -1.
        2   -1    0    0  501    0  0.00000000000E+00  0.00000000000E+00 -0.75437681310E+03  0.75437681310E+03  0.25500000920E-02 0.  1.
    10030    2    1    2    0    0  0.00000000000E+00  0.00000000000E+00  0.12028558043E+04  0.27116094305E+04  0.24302188415E+04 0.  0.
        1    1    3    3  502    0 -0.30724528302E+03 -0.11623708247E+04  0.79783611761E+03  0.14429303755E+04  0.50400001928E-02 0. -1.
       -1    1    3    3    0  502  0.30724528302E+03  0.11623708247E+04  0.40501968673E+03  0.12686790550E+04  0.50400001928E-02 0.  1.
</event>
<event>
 5   0  0.3006265E-05  0.2273019E+04  0.7818609E-02  0.8488636E-01
       -1   -1    0    0    0  501  0.00000000000E+00  0.00000000000E+00  0.21767862529E+04  0.21767862529E+04  0.50400001928E-02 0.  1.
        1   -1    0    0  501    0  0.00000000000E+00  0.00000000000E+00 -0.59337668242E+03  0.59337668244E+03  0.50400001928E-02 0. -1.
    10030    2    1    2    0    0  0.00000000000E+00  0.00000000000E+00  0.15834095704E+04  0.27701629353E+04  0.22730193181E+04 0.  0.
        2    1    3    3  502    0  0.15631564070E+03  0.32145194099E+03 -0.52308957942E+03  0.63355239562E+03  0.25500000920E-02 0. -1.
       -2    1    3    3    0  502 -0.15631564070E+03 -0.32145194099E+03  0.21064991499E+04  0.21366105397E+04  0.25500000920E-02 0.  1.
</event>
<event>
 5   0  0.2982385E-05  0.2335435E+04  0.7818609E-02  0.8464079E-01
       -1   -1    0    0    0  501  0.00000000000E+00  0.00000000000E+00  0.13646155542E+04  0.13646155542E+04  0.50400001928E-02 0. -1.
        1   -1    0    0  501    0  0.00000000000E+00  0.00000000000E+00 -0.99922932727E+03  0.99922932728E+03  0.50400001928E-02 0.  1.
    10030    2    1    2    0    0  0.00000000000E+00  0.00000000000E+00  0.36538622696E+03  0.23638448815E+04  0.23354347623E+04 0.  0.
        4    1    3    3  502    0 -0.53266319402E+00 -0.58860896241E+03  0.12034759895E+04  0.13397077534E+04  0.12699999809E+01 0. -1.
       -4    1    3    3    0  502  0.53266319402E+00  0.58860896241E+03 -0.83808976249E+03  0.10241371281E+04  0.12699999809E+01 0.  1.
</event>
<event>
 5   0  0.3118614E-05  0.2325737E+04  0.7818609E-02  0.8467842E-01
        1   -1    0    0  501    0  0.00000000000E+00  0.00000000000E+00  0.14625658382E+04  0.14625658382E+04  0.50400001928E-02 0.  1.
       -1   -1    0    0    0  501  0.00000000000E+00  0.00000000000E+00 -0.92458259812E+03  0.92458259813E+03  0.50400001928E-02 0. -1.
    10030    2    1    2    0    0  0.00000000000E+00  0.00000000000E+00  0.53798324012E+03  0.23871484364E+04  0.23257368060E+04 0.  0.
        3    1    3    3  502    0 -0.86837681780E+03  0.60051084836E+03  0.76927477368E+03  0.13063212715E+04  0.10100000352E+00 0.  1.
       -3    1    3    3    0  502  0.86837681780E+03 -0.60051084836E+03 -0.23129153356E+03  0.10808271649E+04  0.10100000352E+00 0. -1.
</event>
<event>
 5   0  0.2982385E-05  0.2303747E+04  0.7818609E-02  0.8476445E-01
       -1   -1    0    0    0  501  0.00000000000E+00  0.00000000000E+00  0.10025923280E+04  0.10025923280E+04  0.50400001928E-02 0.  1.
        1   -1    0    0  501    0  0.00000000000E+00  0.00000000000E+00 -0.13233821742E+04  0.13233821742E+04  0.50400001928E-02 0. -1.
    10030    2    1    2    0    0  0.00000000000E+00  0.00000000000E+00 -0.32078984620E+03  0.23259745023E+04  0.23037472213E+04 0.  0.
        4    1    3    3  502    0 -0.10420880284E+04 -0.48792161746E+03 -0.10700525573E+03  0.11556239446E+04  0.12699999809E+01 0.  1.
       -4    1    3    3    0  502  0.10420880284E+04  0.48792161746E+03 -0.21378459046E+03  0.11703505576E+04  0.12699999809E+01 0. -1.
</event>
<event>
 5   0  0.6676612E-05  0.2305812E+04  0.7818609E-02  0.8475633E-01
        2   -1    0    0  501    0  0.00000000000E+00  0.00000000000E+00  0.14541776933E+04  0.14541776933E+04  0.25500000920E-02 0.  1.
       -2   -1    0    0    0  501  0.00000000000E+00  0.00000000000E+00 -0.91405090552E+03  0.91405090552E+03  0.25500000920E-02 0. -1.
    10030    2    1    2    0    0  0.00000000000E+00  0.00000000000E+00  0.54012678778E+03  0.23682285988E+04  0.23058121670E+04 0.  0.
        2    1    3    3  502    0 -0.55927269583E+02 -0.55345978422E+02  0.14514168246E+04  0.14535480163E+04  0.25500000920E-02 0.  1.
       -2    1    3    3    0  502  0.55927269583E+02  0.55345978422E+02 -0.91129003685E+03  0.91468058254E+03  0.25500000920E-02 0. -1.
</event>
<event>
 5   0  0.6814789E-05  0.2298136E+04  0.7818609E-02  0.8478656E-01
       -2   -1    0    0    0  501  0.00000000000E+00  0.00000000000E+00  0.11228330507E+04  0.11228330507E+04  0.25500000920E-02 0. -1.
        2   -1    0    0  501    0  0.00000000000E+00  0.00000000000E+00 -0.11759158321E+04  0.11759158321E+04  0.25500000920E-02 0.  1.
    10030    2    1    2    0    0  0.00000000000E+00  0.00000000000E+00 -0.53082781395E+02  0.22987488828E+04  0.22981359065E+04 0.  0.
        1    1    3    3  502    0 -0.87664875158E+01 -0.11488243505E+04 -0.45600510770E+01  0.11488668476E+04  0.50400001928E-02 0. -1.
       -1    1    3    3    0  502  0.87664875158E+01  0.11488243505E+04 -0.48522730318E+02  0.11498820352E+04  0.50400001928E-02 0.  1.
</event>
<event>
 5   0  0.2962279E-05  0.2291833E+04  0.7818609E-02  0.8481148E-01
        1   -1    0    0  501    0  0.00000000000E+00  0.00000000000E+00  0.68201730788E+03  0.68201730789E+03  0.50400001928E-02 0. -1.
       -1   -1    0    0    0  501  0.00000000000E+00  0.00000000000E+00 -0.19253539357E+04  0.19253539357E+04  0.50400001928E-02 0.  1.
    10030    2    1    2    0    0  0.00000000000E+00  0.00000000000E+00 -0.12433366278E+04  0.26073712436E+04  0.22918330724E+04 0.  0.
        1    1    3    3  502    0  0.85406393760E+03 -0.60026758317E+03 -0.11593687717E+04  0.15600904876E+04  0.50400001928E-02 0.  1.
       -1    1    3    3    0  502 -0.85406393760E+03  0.60026758317E+03 -0.83967856160E+02  0.10472807560E+04  0.50400001928E-02 0. -1.
</event>
<event>
 5   0  0.6676612E-05  0.2263787E+04  0.7818609E-02  0.8492338E-01
        2   -1    0    0  501    0  0.00000000000E+00  0.00000000000E+00  0.94449383294E+03  0.94449383294E+03  0.25500000920E-02 0. -1.
       -2   -1    0    0    0  501  0.00000000000E+00  0.00000000000E+00 -0.13564750836E+04  0.13564750836E+04  0.25500000920E-02 0.  1.
    10030    2    1    2    0    0  0.00000000000E+00  0.00000000000E+00 -0.41198125066E+03  0.23009689165E+04  0.22637865191E+04 0.  0.
        2    1    3    3  502    0 -0.44344798472E+03  0.10282989851E+04 -0.38550451641E+02  0.11205048216E+04  0.25500000920E-02 0.  1.
       -2    1    3    3    0  502  0.44344798472E+03 -0.10282989851E+04 -0.37343079901E+03  0.11804640950E+04  0.25500000920E-02 0. -1.
</event>
<event>
 5   0  0.3118614E-05  0.2299141E+04  0.7818609E-02  0.8478260E-01
       -1   -1    0    0    0  501  0.00000000000E+00  0.00000000000E+00  0.10730931333E+04  0.10730931333E+04  0.50400001928E-02 0.  1.
        1   -1    0    0  501    0  0.00000000000E+00  0.00000000000E+00 -0.12314980030E+04  0.12314980031E+04  0.50400001928E-02 0. -1.
    10030    2    1    2    0    0  0.00000000000E+00  0.00000000000E+00 -0.15840486972E+03  0.23045911364E+04  0.22991407532E+04 0.  0.
        3    1    3    3  502    0  0.27834533785E+03  0.66494184286E+03 -0.97680741823E+03  0.12139919786E+04  0.10100000352E+00 0. -1.
       -3    1    3    3    0  502 -0.27834533785E+03 -0.66494184286E+03  0.81840254851E+03  0.10905991578E+04  0.10100000352E+00 0.  1.
</event>
<event>
 5   0  0.6814789E-05  0.2280235E+04  0.7818609E-02  0.8485755E-01
        2   -1    0    0  501    0  0.00000000000E+00  0.00000000000E+00  0.11684419747E+04  0.11684419747E+04  0.25500000920E-02 0.  1.
       -2   -1    0    0    0  501  0.00000000000E+00  0.00000000000E+00 -0.11124797759E+04  0.11124797759E+04  0.25500000920E-02 0. -1.
    10030    2    1    2    0    0  0.00000000000E+00  0.00000000000E+00  0.55962198876E+02  0.22809217506E+04  0.22802351336E+04 0.  0.
        1    1    3    3  502    0  0.79741614369E+03 -0.79297278291E+03 -0.15966463348E+03  0.11358570050E+04  0.50400001928E-02 0.  1.
       -1    1    3    3    0  502 -0.79741614369E+03  0.79297278291E+03  0.21562683236E+03  0.11450647456E+04  0.50400001928E-02 0. -1.
</event>
<event>
 5   0  0.3118614E-05  0.2086283E+04  0.7818609E-02  0.8567310E-01
       -1   -1    0    0    0  501  0.00000000000E+00  0.00000000000E+00  0.63898847787E+03  0.63898847789E+03  0.50400001928E-02 0.  1.
        1   -1    0    0  501    0  0.00000000000E+00  0.00000000000E+00 -0.17029169800E+04  0.17029169800E+04  0.50400001928E-02 0. -1.
    10030    2    1    2    0    0  0.00000000000E+00  0.00000000000E+00 -0.10639285021E+04  0.23419054578E+04  0.20862831342E+04 0.  0.
        3    1    3    3  502    0  0.21643478802E+03  0.81148956880E-01 -0.16774352738E+04  0.16913406316E+04  0.10100000352E+00 0. -1.
       -3    1    3    3    0  502 -0.21643478802E+03 -0.81148956880E-01  0.61350677171E+03  0.65056482627E+03  0.10100000352E+00 0.  1.
</event>
<event>
 5   0  0.6495405E-05  0.2160052E+04  0.7818609E-02  0.8535242E-01
        2   -1    0    0  501    0  0.00000000000E+00  0.00000000000E+00  0.22838575156E+04  0.22838575156E+04  0.25500000920E-02 0.  1.
       -2   -1    0    0    0  501  0.00000000000E+00  0.00000000000E+00 -0.51073936638E+03  0.51073936639E+03  0.25500000920E-02 0. -1.
    10030    2    1    2    0    0  0.00000000000E+00  0.00000000000E+00  0.17731181493E+04  0.27945968820E+04  0.21600517961E+04 0.  0.
        5    1    3    3  502    0 -0.48598803031E+03  0.12877180297E+03 -0.35009732033E+03  0.61266366510E+03  0.46999998093E+01 0. -1.
       -5    1    3    3    0  502  0.48598803031E+03 -0.12877180297E+03  0.21232154696E+04  0.21819332169E+04  0.46999998093E+01 0.  1.
</event>
<event>
 5   0  0.6814789E-05  0.2295509E+04  0.7818609E-02  0.8479694E-01
       -2   -1    0    0    0  501  0.00000000000E+00  0.00000000000E+00  0.94631348929E+03  0.94631348929E+03  0.25500000920E-02 0.  1.
        2   -1    0    0  501    0  0.00000000000E+00  0.00000000000E+00 -0.13920757819E+04  0.13920757819E+04  0.25500000920E-02 0. -1.
    10030    2    1    2    0    0  0.00000000000E+00  0.00000000000E+00 -0.44576229261E+03  0.23383892712E+04  0.22955087371E+04 0.  0.
        1    1    3    3  502    0  0.49059218272E+03 -0.61333979405E+02  0.83227561253E+03  0.96805229301E+03  0.50400001928E-02 0.  1.
       -1    1    3    3    0  502 -0.49059218272E+03  0.61333979405E+02 -0.12780379051E+04  0.13703369782E+04  0.50400001928E-02 0. -1.
</event>
<event>
 5   0  0.3006265E-05  0.2260394E+04  0.7818609E-02  0.8493703E-01
        1   -1    0    0  501    0  0.00000000000E+00  0.00000000000E+00  0.13714254160E+04  0.13714254160E+04  0.50400001928E-02 0. -1.
       -1   -1    0    0    0  501  0.00000000000E+00  0.00000000000E+00 -0.93140005348E+03  0.93140005350E+03  0.50400001928E-02 0.  1.
    10030    2    1    2    0    0  0.00000000000E+00  0.00000000000E+00  0.44002536255E+03  0.23028254695E+04  0.22603943956E+04 0.  0.
        2    1    3    3  502    0 -0.73650070406E+03  0.46935087688E+03  0.95085056193E+03  0.12910617041E+04  0.25500000920E-02 0. -1.
       -2    1    3    3    0  502  0.73650070406E+03 -0.46935087688E+03 -0.51082519937E+03  0.10117637654E+04  0.25500000920E-02 0.  1.
</event>
<event>
 5   0  0.6676612E-05  0.2288814E+04  0.7818609E-02  0.8482345E-01
        2   -1    0    0  501    0  0.00000000000E+00  0.00000000000E+00  0.18465290337E+04  0.18465290337E+04  0.25500000920E-02 0.  1.
       -2   -1    0    0    0  501  0.00000000000E+00  0.00000000000E+00 -0.70925896880E+03  0.70925896880E+03  0.25500000920E-02 0. -1.
    10030    2    1    2    0    0  0.00000000000E+00  0.00000000000E+00  0.11372700649E+04  0.25557880025E+04  0.22888139097E+04 0.  0.
        2    1    3    3  502    0  0.77445347339E+03  0.61324808802E+03  0.12137956341E+04  0.15649764348E+04  0.25500000920E-02 0.  1.
       -2    1    3    3    0  502 -0.77445347339E+03 -0.61324808802E+03 -0.76525569294E+02  0.99081156769E+03  0.25500000920E-02 0. -1.
</event>
<event>
 5   0  0.6814789E-05  0.2304776E+04  0.7818609E-02  0.8476040E-01
        2   -1    0    0  501    0  0.00000000000E+00  0.00000000000E+00  0.52409251306E+03  0.52409251306E+03  0.25500000920E-02 0. -1.
       -2   -1    0    0    0  501  0.00000000000E+00  0.00000000000E+00 -0.25339006740E+04  0.25339006740E+04  0.25500000920E-02 0.  1.
    10030    2    1    2    0    0  0.00000000000E+00  0.00000000000E+00 -0.20098081609E+04  0.30579931871E+04  0.23047762339E+04 0.  0.
        1    1    3    3  502    0 -0.70165222389E+03 -0.74931429858E+03 -0.31011997505E+03  0.10723628865E+04  0.50400001928E-02 0. -1.
       -1    1    3    3    0  502  0.70165222389E+03  0.74931429858E+03 -0.16996881859E+04  0.19856303006E+04  0.50400001928E-02 0.  1.
</event>
<event>
 5   0  0.3006265E-05  0.2300926E+04  0.7818609E-02  0.8477556E-01
        1   -1    0    0  501    0  0.00000000000E+00  0.00000000000E+00  0.10585739770E+04  0.10585739770E+04  0.50400001928E-02 0. -1.
       -1   -1    0    0    0  501  0.00000000000E+00  0.00000000000E+00 -0.12503279831E+04  0.12503279831E+04  0.50400001928E-02 0.  1.
    10030    2    1    2    0    0  0.00000000000E+00  0.00000000000E+00 -0.19175400612E+03  0.23089019601E+04  0.23009256099E+04 0.  0.
        2    1    3    3  502    0 -0.53335534933E+03  0.45508719075E+03 -0.10111751652E+04  0.12304663728E+04  0.25500000920E-02 0.  1.
       -2    1    3    3    0  502  0.53335534933E+03 -0.45508719075E+03  0.81942115912E+03  0.10784355873E+04  0.25500000920E-02 0. -1.
</event>
<event>
 5   0  0.2982385E-05  0.1844422E+04  0.7818609E-02  0.8683027E-01
        1   -1    0    0  501    0  0.00000000000E+00  0.00000000000E+00  0.23293098100E+04  0.23293098100E+04  0.50400001928E-02 0.  1.
       -1   -1    0    0    0  501  0.00000000000E+00  0.00000000000E+00 -0.36511794621E+03  0.36511794624E+03  0.50400001928E-02 0. -1.
    10030    2    1    2    0    0  0.00000000000E+00  0.00000000000E+00  0.19641918638E+04  0.26944277563E+04  0.18444216589E+04 0.  0.
        4    1    3    3  502    0 -0.86357388698E+03 -0.32148090837E+03  0.10359966009E+04  0.13865065462E+04  0.12699999809E+01 0. -1.
       -4    1    3    3    0  502  0.86357388698E+03  0.32148090837E+03  0.92819526287E+03  0.13079212100E+04  0.12699999809E+01 0.  1.
</event>
<event>
 5   0  0.6495405E-05  0.2301969E+04  0.7818609E-02  0.8477145E-01
        2   -1    0    0  501    0  0.00000000000E+00  0.00000000000E+00  0.14704707967E+04  0.14704707967E+04  0.25500000920E-02 0. -1.
       -2   -1    0    0    0  501  0.00000000000E+00  0.00000000000E+00 -0.90091243650E+03  0.90091243650E+03  0.25500000920E-02 0.  1.
    10030    2    1    2    0    0  0.00000000000E+00  0.00000000000E+00  0.56955836022E+03  0.23713832332E+04  0.23019690947E+04 0.  0.
        5    1    3    3  502    0  0.58229823719E+03 -0.15370813464E+01  0.13075255998E+04  0.14313346513E+04  0.46999998093E+01 0. -1.
       -5    1    3    3    0  502 -0.58229823719E+03  0.15370813464E+01 -0.73796723963E+03  0.94004858195E+03  0.46999998093E+01 0.  1.
</event>
<event>
 5   0  0.3118614E-05  0.2305756E+04  0.7818609E-02  0.8475655E-01
       -1   -1    0    0    0  501  0.00000000000E+00  0.00000000000E+00  0.73040094131E+03  0.73040094133E+03  0.50400001928E-02 0. -1.
        1   -1    0    0  501    0  0.00000000000E+00  0.00000000000E+00 -0.18197238156E+04  0.18197238156E+04  0.50400001928E-02 0.  1.
    10030    2    1    2    0    0  0.00000000000E+00  0.00000000000E+00 -0.10893228743E+04  0.25501247570E+04  0.23057562646E+04 0.  0.
        3    1    3    3  502    0  0.18821430060E+03  0.94803594484E+03  0.15037688966E+03  0.97816664981E+03  0.10100000352E+00 0. -1.
       -3    1    3    3    0  502 -0.18821430060E+03 -0.94803594484E+03 -0.12396997640E+04  0.15719581072E+04  0.10100000352E+00 0.  1.
</event>
<event>
 5   0  0.3118614E-05  0.2292416E+04  0.7818609E-02  0.8480917E-01
       -1   -1    0    0    0  501  0.00000000000E+00  0.00000000000E+00  0.73275114563E+03  0.73275114565E+03  0.50400001928E-02 0.  1.
        1   -1    0    0  501    0  0.00000000000E+00  0.00000000000E+00 -0.17929586146E+04  0.17929586146E+04  0.50400001928E-02 0. -1.
    10030    2    1    2    0    0  0.00000000000E+00  0.00000000000E+00 -0.10602074690E+04  0.25257097603E+04  0.22924157380E+04 0.  0.
        3    1    3    3  502    0 -0.92320776236E+03 -0.54990678550E+02 -0.12761037809E+04  0.15760004495E+04  0.10100000352E+00 0. -1.
       -3    1    3    3    0  502  0.92320776236E+03  0.54990678550E+02  0.21589631189E+03  0.94970931073E+03  0.10100000352E+00 0.  1.
</event>
<event>
 5   0  0.6468758E-05  0.2422898E+04  0.7818609E-02  0.8430980E-01
        2   -1    0    0  501    0  0.00000000000E+00  0.00000000000E+00  0.17398243722E+04  0.17398243722E+04  0.25500000920E-02 0.  1.
       -2   -1    0    0    0  501  0.00000000000E+00  0.00000000000E+00 -0.84353841805E+03  0.84353841806E+03  0.25500000920E-02 0. -1.
    10030    2    1    2    0    0  0.00000000000E+00  0.00000000000E+00  0.89628595418E+03  0.25833627903E+04  0.24228980157E+04 0.  0.
        3    1    3    3  502    0 -0.41112863682E+03 -0.10631195651E+04  0.88563292281E+03  0.14434665393E+04  0.10100000352E+00 0.  1.
       -3    1    3    3    0  502  0.41112863682E+03  0.10631195651E+04  0.10653031368E+02  0.11398962510E+04  0.10100000352E+00 0. -1.
</event>
<event>
 5   0  0.6495405E-05  0.2339904E+04  0.7818609E-02  0.8462352E-01
       -2   -1    0    0    0  501  0.00000000000E+00  0.00000000000E+00  0.20183665189E+04  0.20183665189E+04  0.25500000920E-02 0. -1.
        2   -1    0    0  501    0  0.00000000000E+00  0.00000000000E+00 -0.67816581791E+03  0.67816581791E+03  0.25500000920E-02 0.  1.
    10030    2    1    2    0    0  0.00000000000E+00  0.00000000000E+00  0.13402007010E+04  0.26965323368E+04  0.23399035716E+04 0.  0.
        5    1    3    3  502    0  0.41835781332E+03  0.10893243529E+04  0.57289877234E+03  0.12999561143E+04  0.46999998093E+01 0. -1.
       -5    1    3    3    0  502 -0.41835781332E+03 -0.10893243529E+04  0.76730192867E+03  0.13965762226E+04  0.46999998093E+01 0.  1.
</event>
<event>
 5   0  0.2944089E-05  0.2271695E+04  0.7818609E-02  0.8489166E-01
        1   -1    0    0  501    0  0.00000000000E+00  0.00000000000E+00  0.17450892923E+04  0.17450892923E+04  0.50400001928E-02 0.  1.
       -1   -1    0    0    0  501  0.00000000000E+00  0.00000000000E+00 -0.73930287473E+03  0.73930287475E+03  0.50400001928E-02 0. -1.
    10030    2    1    2    0    0  0.00000000000E+00  0.00000000000E+00  0.10057864176E+04  0.24843921671E+04  0.22716949888E+04 0.  0.
        5    1    3    3  502    0  0.41686732156E+03  0.53980445906E+03 -0.49042097196E+03  0.84006073444E+03  0.46999998093E+01 0. -1.
       -5    1    3    3    0  502 -0.41686732156E+03 -0.53980445906E+03  0.14962073895E+04  0.16443314326E+04  0.46999998093E+01 0.  1.
</event>
<event>
 5   0  0.3006265E-05  0.2317840E+04  0.7818609E-02  0.8470920E-01
       -1   -1    0    0    0  501  0.00000000000E+00  0.00000000000E+00  0.10206693449E+04  0.10206693449E+04  0.50400001928E-02 0. -1.
        1   -1    0    0  501    0  0.00000000000E+00  0.00000000000E+00 -0.13158970743E+04  0.13158970743E+04  0.50400001928E-02 0.  1.
    10030    2    1    2    0    0  0.00000000000E+00  0.00000000000E+00 -0.29522772938E+03  0.23365664192E+04  0.23178402057E+04 0.  0.
        2    1    3    3  502    0  0.59358339162E+03  0.12749148827E+03  0.84752953766E+03  0.10425457494E+04  0.25500000920E-02 0. -1.
       -2    1    3    3    0  502 -0.59358339162E+03 -0.12749148827E+03 -0.11427572670E+04  0.12940206698E+04  0.25500000920E-02 0.  1.
</event>
<event>
 5   0  0.6702421E-05  0.2277102E+04  0.7818609E-02  0.8487005E-01
       -2   -1    0    0    0  501  0.00000000000E+00  0.00000000000E+00  0.14584401977E+04  0.14584401977E+04  0.25500000920E-02 0. -1.
        2   -1    0    0  501    0  0.00000000000E+00  0.00000000000E+00 -0.88882519479E+03  0.88882519479E+03  0.25500000920E-02 0.  1.
    10030    2    1    2    0    0  0.00000000000E+00  0.00000000000E+00  0.56961500288E+03  0.23472653925E+04  0.22771020116E+04 0.  0.
        4    1    3    3  502    0  0.26609043896E+03  0.29202998993E+03  0.13855160749E+04  0.14407435731E+04  0.12699999809E+01 0. -1.
       -4    1    3    3    0  502 -0.26609043896E+03 -0.29202998993E+03 -0.81590107203E+03  0.90652181935E+03  0.12699999809E+01 0.  1.
</event>
<event>
 5   0  0.6495405E-05  0.2269354E+04  0.7818609E-02  0.8490103E-01
       -2   -1    0    0    0  501  0.00000000000E+00  0.00000000000E+00  0.85540745281E+03  0.85540745281E+03  0.25500000920E-02 0.  1.
        2   -1    0    0  501    0  0.00000000000E+00  0.00000000000E+00 -0.15051212265E+04  0.15051212265E+04  0.25500000920E-02 0. -1.
    10030    2    1    2    0    0  0.00000000000E+00  0.00000000000E+00 -0.64971377367E+03  0.23605286793E+04  0.22693540178E+04 0.  0.
        5    1    3    3  502    0 -0.10091120152E+04  0.98508551272E+01  0.21469873324E+03  0.10317566256E+04  0.46999998093E+01 0.  1.
       -5    1    3    3    0  502  0.10091120152E+04 -0.98508551272E+01 -0.86441250691E+03  0.13287720537E+04  0.46999998093E+01 0. -1.
</event>
<event>
 5   0  0.2962279E-05  0.2299158E+04  0.7818609E-02  0.8478253E-01
       -1   -1    0    0    0  501  0.00000000000E+00  0.00000000000E+00  0.68365141457E+03  0.68365141459E+03  0.50400001928E-02 0.  1.
        1   -1    0    0  501    0  0.00000000000E+00  0.00000000000E+00 -0.19330485419E+04  0.19330485419E+04  0.50400001928E-02 0. -1.
    10030    2    1    2    0    0  0.00000000000E+00  0.00000000000E+00 -0.12493971273E+04  0.26166999565E+04  0.22991575589E+04 0.  0.
        1    1    3    3  502    0 -0.86410264316E+03  0.70539435621E+03 -0.30831803866E+03  0.11572875998E+04  0.50400001928E-02 0. -1.
       -1    1    3    3    0  502  0.86410264316E+03 -0.70539435621E+03 -0.94107908866E+03  0.14594123567E+04  0.50400001928E-02 0.  1.
</event>
<event>
 5   0  0.6676612E-05  0.2285390E+04  0.7818609E-02  0.8483704E-01
       -2   -1    0    0    0  501  0.00000000000E+00  0.00000000000E+00  0.98020392890E+03  0.98020392891E+03  0.25500000920E-02 0. -1.
        2   -1    0    0  501    0  0.00000000000E+00  0.00000000000E+00 -0.13321229586E+04  0.13321229586E+04  0.25500000920E-02 0.  1.
    10030    2    1    2    0    0  0.00000000000E+00  0.00000000000E+00 -0.35191902971E+03  0.23123268875E+04  0.22853902580E+04 0.  0.
        2    1    3    3  502    0 -0.93710213557E+03 -0.63813642923E+03 -0.31540890598E+02  0.11341839986E+04  0.25500000920E-02 0.  1.
       -2    1    3    3    0  502  0.93710213557E+03  0.63813642923E+03 -0.32037813912E+03  0.11781428890E+04  0.25500000920E-02 0. -1.
</event>
<event>
 5   0  0.3006265E-05  0.2361511E+04  0.7818609E-02  0.8454055E-01
        1   -1    0    0  501    0  0.00000000000E+00  0.00000000000E+00  0.82541063980E+03  0.82541063982E+03  0.50400001928E-02 0. -1.
       -1   -1    0    0    0  501  0.00000000000E+00  0.00000000000E+00 -0.16890790702E+04  0.16890790702E+04  0.50400001928E-02 0.  1.
    10030    2    1    2    0    0  0.00000000000E+00  0.00000000000E+00 -0.86366843037E+03  0.25144897100E+04  0.23615112416E+04 0.  0.
        2    1    3    3  502    0 -0.92966858377E+03  0.70485047964E+03 -0.62551285512E+03  0.13237689399E+04  0.25500000920E-02 0. -1.
       -2    1    3    3    0  502  0.92966858377E+03 -0.70485047964E+03 -0.23815557525E+03  0.11907207701E+04  0.25500000920E-02 0.  1.
</event>
<event>
 5   0  0.6814789E-05  0.2122610E+04  0.7818609E-02  0.8551349E-01
       -2   -1    0    0    0  501  0.00000000000E+00  0.00000000000E+00  0.57286406724E+03  0.57286406725E+03  0.25500000920E-02 0. -1.
        2   -1    0    0  501    0  0.00000000000E+00  0.00000000000E+00 -0.19662044664E+04  0.19662044664E+04  0.25500000920E-02 0.  1.
    10030    2    1    2    0    0  0.00000000000E+00  0.00000000000E+00 -0.13933403992E+04  0.25390685337E+04  0.21226096087E+04 0.  0.
        1    1    3    3  502    0 -0.23929373664E+03  0.18132979603E+03  0.52100516335E+03  0.60132218285E+03  0.50400001928E-02 0. -1.
       -1    1    3    3    0  502  0.23929373664E+03 -0.18132979603E+03 -0.19143455626E+04  0.19377463508E+04  0.50400001928E-02 0.  1.
</event>
<event>
 5   0  0.3118614E-05  0.2219654E+04  0.7818609E-02  0.8510292E-01
        1   -1    0    0  501    0  0.00000000000E+00  0.00000000000E+00  0.14719847182E+04  0.14719847182E+04  0.50400001928E-02 0. -1.
       -1   -1    0    0    0  501  0.00000000000E+00  0.00000000000E+00 -0.83677245819E+03  0.83677245820E+03  0.50400001928E-02 0.  1.
    10030    2    1    2    0    0  0.00000000000E+00  0.00000000000E+00  0.63521225999E+03  0.23087571764E+04  0.22196542713E+04 0.  0.
        3    1    3    3  502    0  0.18279100838E+03 -0.35674892956E+03 -0.75884553529E+03  0.85821262407E+03  0.10100000352E+00 0.  1.
       -3    1    3    3    0  502 -0.18279100838E+03  0.35674892956E+03  0.13940577953E+04  0.14505445523E+04  0.10100000352E+00 0. -1.
</event>
<event>
 5   0  0.3118614E-05  0.2298228E+04  0.7818609E-02  0.8478620E-01
       -1   -1    0    0    0  501  0.00000000000E+00  0.00000000000E+00  0.99604266889E+03  0.99604266890E+03  0.50400001928E-02 0. -1.
        1   -1    0    0  501    0  0.00000000000E+00  0.00000000000E+00 -0.13257089868E+04  0.13257089868E+04  0.50400001928E-02 0.  1.
    10030    2    1    2    0    0  0.00000000000E+00  0.00000000000E+00 -0.32966631790E+03  0.23217516557E+04  0.22982277671E+04 0.  0.
        3    1    3    3  502    0  0.98535352009E+03 -0.58671863050E+03 -0.91270268135E+02  0.11504306076E+04  0.10100000352E+00 0.  1.
       -3    1    3    3    0  502 -0.98535352009E+03  0.58671863050E+03 -0.23839604977E+03  0.11713210481E+04  0.10100000352E+00 0. -1.
</event>
<event>
 5   0  0.6702421E-05  0.2165563E+04  0.7818609E-02  0.8532900E-01
        2   -1    0    0  501    0  0.00000000000E+00  0.00000000000E+00  0.14620931016E+04  0.14620931016E+04  0.25500000920E-02 0.  1.
       -2   -1    0    0    0  501  0.00000000000E+00  0.00000000000E+00 -0.80187495626E+03  0.80187495627E+03  0.25500000920E-02 0. -1.
    10030    2    1    2    0    0  0.00000000000E+00  0.00000000000E+00  0.66021814531E+03  0.22639680578E+04  0.21655630602E+04 0.  0.
        4    1    3    3  502    0 -0.67130779472E+03 -0.68344318926E+03  0.85768442929E+03  0.12858355032E+04  0.12699999809E+01 0.  1.
       -4    1    3    3    0  502  0.67130779472E+03  0.68344318926E+03 -0.19746628398E+03  0.97813255462E+03  0.12699999809E+01 0. -1.
</event>
<event>
 5   0  0.6814789E-05  0.2462059E+04  0.7818609E-02  0.8416628E-01
        2   -1    0    0  501    0  0.00000000000E+00  0.00000000000E+00  0.11588773602E+04  0.11588773602E+04  0.25500000920E-02 0.  1.
       -2   -1    0    0    0  501  0.00000000000E+00  0.00000000000E+00 -0.13076734007E+04  0.13076734007E+04  0.25500000920E-02 0. -1.
    10030    2    1    2    0    0  0.00000000000E+00  0.00000000000E+00 -0.14879604056E+03  0.24665507609E+04  0.24620585685E+04 0.  0.
        1    1    3    3  502    0  0.77554486749E+03 -0.60911207176E+03 -0.81259097008E+03  0.12778072790E+04  0.50400001928E-02 0.  1.
       -1    1    3    3    0  502 -0.77554486749E+03  0.60911207176E+03  0.66379492952E+03  0.11887434820E+04  0.50400001928E-02 0. -1.
</event>
<event>
 5   0  0.6495405E-05  0.2661136E+04  0.7818609E-02  0.8347726E-01
       -2   -1    0    0    0  501  0.00000000000E+00  0.00000000000E+00  0.12154375458E+04  0.12154375458E+04  0.25500000920E-02 0.  1.
        2   -1    0    0  501    0  0.00000000000E+00  0.00000000000E+00 -0.14566040223E+04  0.14566040223E+04  0.25500000920E-02 0. -1.
    10030    2    1    2    0    0  0.00000000000E+00  0.00000000000E+00 -0.24116647652E+03  0.26720415680E+04  0.26611360115E+04 0.  0.
        5    1    3    3  502    0  0.27341051915E+03 -0.71278934694E+03 -0.12148046990E+04  0.14347803008E+04  0.46999998093E+01 0. -1.
       -5    1    3    3    0  502 -0.27341051915E+03  0.71278934694E+03  0.97363822244E+03  0.12372612672E+04  0.46999998093E+01 0.  1.
</event>
<event>
 5   0  0.2982385E-05  0.2328980E+04  0.7818609E-02  0.8466582E-01
       -1   -1    0    0    0  501  0.00000000000E+00  0.00000000000E+00  0.11872595436E+04  0.11872595436E+04  0.50400001928E-02 0.  1.
        1   -1    0    0  501    0  0.00000000000E+00  0.00000000000E+00 -0.11421569311E+04  0.11421569311E+04  0.50400001928E-02 0. -1.
    10030    2    1    2    0    0  0.00000000000E+00  0.00000000000E+00  0.45102612528E+02  0.23294164747E+04  0.23289797910E+04 0.  0.
        4    1    3    3  502    0  0.11590619513E+04  0.72064386636E+02 -0.63588131550E+02  0.11630403889E+04  0.12699999809E+01 0. -1.
       -4    1    3    3    0  502 -0.11590619513E+04 -0.72064386636E+02  0.10869074408E+03  0.11663760858E+04  0.12699999809E+01 0.  1.
</event>
<event>
 5   0  0.2944089E-05  0.2309312E+04  0.7818609E-02  0.8474259E-01
       -1   -1    0    0    0  501  0.00000000000E+00  0.00000000000E+00  0.10141277799E+04  0.10141277799E+04  0.50400001928E-02 0.  1.
        1   -1    0    0  501    0  0.00000000000E+00  0.00000000000E+00 -0.13146569050E+04  0.13146569050E+04  0.50400001928E-02 0. -1.
    10030    2    1    2    0    0  0.00000000000E+00  0.00000000000E+00 -0.30052912511E+03  0.23287846850E+04  0.23093116624E+04 0.  0.
        5    1    3    3  502    0  0.11684051070E+03 -0.82759410324E+03  0.65309871773E+03  0.10607184969E+04  0.46999998093E+01 0.  1.
       -5    1    3    3    0  502 -0.11684051070E+03  0.82759410324E+03 -0.95362784284E+03  0.12680661881E+04  0.46999998093E+01 0. -1.
</event>
<event>
 5   0  0.6676612E-05  0.2340549E+04  0.7818609E-02  0.8462103E-01
       -2   -1    0    0    0  501  0.00000000000E+00  0.00000000000E+00  0.91534794588E+03  0.91534794589E+03  0.25500000920E-02 0. -1.
        2   -1    0    0  501    0  0.00000000000E+00  0.00000000000E+00 -0.14961982655E+04  0.14961982655E+04  0.25500000920E-02 0.  1.
    10030    2    1    2    0    0  0.00000000000E+00  0.00000000000E+00 -0.58085031964E+03  0.24115462114E+04  0.23405486613E+04 0.  0.
        2    1    3    3  502    0 -0.11468403083E+04  0.21484688597E+03 -0.19746569126E+03  0.11833826838E+04  0.25500000920E-02 0. -1.
       -2    1    3    3    0  502  0.11468403083E+04 -0.21484688597E+03 -0.38338462839E+03  0.12281635276E+04  0.25500000920E-02 0.  1.
</event>
<event>
 5   0  0.2982385E-05  0.2295495E+04  0.7818609E-02  0.8479700E-01
        1   -1    0    0  501    0  0.00000000000E+00  0.00000000000E+00  0.19177364093E+04  0.19177364093E+04  0.50400001928E-02 0. -1.
       -1   -1    0    0    0  501  0.00000000000E+00  0.00000000000E+00 -0.68691616617E+03  0.68691616619E+03  0.50400001928E-02 0.  1.
    10030    2    1    2    0    0  0.00000000000E+00  0.00000000000E+00  0.12308202431E+04  0.26046525755E+04  0.22954948417E+04 0.  0.
        4    1    3    3  502    0  0.61617651164E+03  0.96597059557E+03  0.53887306777E+03  0.12661589478E+04  0.12699999809E+01 0.  1.
       -4    1    3    3    0  502 -0.61617651164E+03 -0.96597059557E+03  0.69194717533E+03  0.13384936277E+04  0.12699999809E+01 0. -1.
</event>
<event>
 5   0  0.6495405E-05  0.2270635E+04  0.7818609E-02  0.8489590E-01
        2   -1    0    0  501    0  0.00000000000E+00  0.00000000000E+00  0.22873708001E+04  0.22873708001E+04  0.25500000920E-02 0.  1.
       -2   -1    0    0    0  501  0.00000000000E+00  0.00000000000E+00 -0.56350522100E+03  0.56350522100E+03  0.25500000920E-02 0. -1.
    10030    2    1    2    0    0  0.00000000000E+00  0.00000000000E+00  0.17238655791E+04  0.28508760211E+04  0.22706346146E+04 0.  0.
        5    1    3    3  502    0  0.10069468944E+04 -0.13512492138E+03  0.22577763798E+03  0.10407681895E+04  0.46999998093E+01 0. -1.
       -5    1    3    3    0  502 -0.10069468944E+04  0.13512492138E+03  0.14980879411E+04  0.18101078315E+04  0.46999998093E+01 0.  1.
</event>
<event>
 5   0  0.2944089E-05  0.2321827E+04  0.7818609E-02  0.8469364E-01
       -1   -1    0    0    0  501  0.00000000000E+00  0.00000000000E+00  0.10402675395E+04  0.10402675395E+04  0.50400001928E-02 0. -1.
        1   -1    0    0  501    0  0.00000000000E+00  0.00000000000E+00 -0.12955517441E+04  0.12955517441E+04  0.50400001928E-02 0.  1.
    10030    2    1    2    0    0  0.00000000000E+00  0.00000000000E+00 -0.25528420464E+03  0.23358192836E+04  0.23218272332E+04 0.  0.
        5    1    3    3  502    0  0.62956603479E+03 -0.83859792014E+02  0.84997142645E+03  0.10610652066E+04  0.46999998093E+01 0. -1.
       -5    1    3    3    0  502 -0.62956603479E+03  0.83859792014E+02 -0.11052556311E+04  0.12747540770E+04  0.46999998093E+01 0.  1.
</event>
<event>
 5   0  0.2962279E-05  0.2300383E+04  0.7818609E-02  0.8477770E-01
       -1   -1    0    0    0  501  0.00000000000E+00  0.00000000000E+00  0.94160278045E+03  0.94160278047E+03  0.50400001928E-02 0. -1.
        1   -1    0    0  501    0  0.00000000000E+00  0.00000000000E+00 -0.14049876016E+04  0.14049876016E+04  0.50400001928E-02 0.  1.
    10030    2    1    2    0    0  0.00000000000E+00  0.00000000000E+00 -0.46338482118E+03  0.23465903821E+04  0.23003827788E+04 0.  0.
        1    1    3    3  502    0  0.87075897034E+03  0.31494458015E+03  0.46430965704E+03  0.10358545895E+04  0.50400001928E-02 0. -1.
       -1    1    3    3    0  502 -0.87075897034E+03 -0.31494458015E+03 -0.92769447823E+03  0.13107357926E+04  0.50400001928E-02 0.  1.
</event>
<event>
 5   0  0.6676612E-05  0.2286787E+04  0.7818609E-02  0.8483149E-01
       -2   -1    0    0    0  501  0.00000000000E+00  0.00000000000E+00  0.91388430925E+03  0.91388430925E+03  0.25500000920E-02 0.  1.
        2   -1    0    0  501    0  0.00000000000E+00  0.00000000000E+00 -0.14305405295E+04  0.14305405295E+04  0.25500000920E-02 0. -1.
    10030    2    1    2    0    0  0.00000000000E+00  0.00000000000E+00 -0.51665622027E+03  0.23444248388E+04  0.22867868669E+04 0.  0.
        2    1    3    3  502    0 -0.38152289118E+02 -0.52231776156E+03 -0.13003503603E+04  0.14018496713E+04  0.25500000920E-02 0. -1.
       -2    1    3    3    0  502  0.38152289118E+02  0.52231776156E+03  0.78369414006E+03  0.94257516750E+03  0.25500000920E-02 0.  1.
</event>
<event>
 5   0  0.2944089E-05  0.2314953E+04  0.7818609E-02  0.8472049E-01
        1   -1    0    0  501    0  0.00000000000E+00  0.00000000000E+00  0.10231380044E+04  0.10231380044E+04  0.50400001928E-02 0. -1.
       -1   -1    0    0    0  501  0.00000000000E+00  0.00000000000E+00 -0.13094532056E+04  0.13094532056E+04  0.50400001928E-02 0.  1.
    10030    2    1    2    0    0  0.00000000000E+00  0.00000000000E+00 -0.28631520126E+03  0.23325912100E+04  0.23149525607E+04 0.  0.
        5    1    3    3  502    0  0.12189162248E+03 -0.36433132541E+03 -0.12433259412E+04  0.13013363779E+04  0.46999998093E+01 0.  1.
       -5    1    3    3    0  502 -0.12189162248E+03  0.36433132541E+03  0.95701073996E+03  0.10312548321E+04  0.46999998093E+01 0. -1.
</event>
<event>
 5   0  0.6814789E-05  0.2299907E+04  0.7818609E-02  0.8477958E-01
       -2   -1    0    0    0  501  0.00000000000E+00  0.00000000000E+00  0.73978622167E+03  0.73978622167E+03  0.25500000920E-02 0. -1.
        2   -1    0    0  501    0  0.00000000000E+00  0.00000000000E+00 -0.17875348114E+04  0.17875348114E+04  0.25500000920E-02 0.  1.
    10030    2    1    2    0    0  0.00000000000E+00  0.00000000000E+00 -0.10477485897E+04  0.25273210331E+04  0.22999074975E+04 0.  0.
        1    1    3    3  502    0  0.92068322483E+03  0.31859378302E+03  0.14746281866E+03  0.98534505731E+03  0.50400001928E-02 0. -1.
       -1    1    3    3    0  502 -0.92068322483E+03 -0.31859378302E+03 -0.11952114084E+04  0.15419759758E+04  0.50400001928E-02 0.  1.
</event>
<event>
 5   0  0.2962279E-05  0.2263735E+04  0.7818609E-02  0.8492359E-01
        1   -1    0    0  501    0  0.00000000000E+00  0.00000000000E+00  0.26736358714E+04  0.26736358714E+04  0.50400001928E-02 0.  1.
       -1   -1    0    0    0  501  0.00000000000E+00  0.00000000000E+00 -0.47916913161E+03  0.47916913164E+03  0.50400001928E-02 0. -1.
    10030    2    1    2    0    0  0.00000000000E+00  0.00000000000E+00  0.21944667398E+04  0.31528050031E+04  0.22637347714E+04 0.  0.
        1    1    3    3  502    0 -0.77968481519E+03  0.81358271555E+03  0.94919217127E+03  0.14733604529E+04  0.50400001928E-02 0. -1.
       -1    1    3    3    0  502  0.77968481519E+03 -0.81358271555E+03  0.12452745686E+04  0.16794445502E+04  0.50400001928E-02 0.  1.
</event>
<event>
 5   0  0.3006265E-05  0.2280914E+04  0.7818609E-02  0.8485485E-01
        1   -1    0    0  501    0  0.00000000000E+00  0.00000000000E+00  0.16110321027E+04  0.16110321027E+04  0.50400001928E-02 0. -1.
       -1   -1    0    0    0  501  0.00000000000E+00  0.00000000000E+00 -0.80733457554E+03  0.80733457555E+03  0.50400001928E-02 0.  1.
    10030    2    1    2    0    0  0.00000000000E+00  0.00000000000E+00  0.80369752713E+03  0.24183666782E+04  0.22809137808E+04 0.  0.
        2    1    3    3  502    0 -0.69403869815E+02  0.15720933718E+03  0.15972257509E+04  0.16064438279E+04  0.25500000920E-02 0. -1.
       -2    1    3    3    0  502  0.69403869815E+02 -0.15720933718E+03 -0.79352822381E+03  0.81192285029E+03  0.25500000920E-02 0.  1.
</event>
<event>
 5   0  0.6702421E-05  0.2298364E+04  0.7818609E-02  0.8478566E-01
        2   -1    0    0  501    0  0.00000000000E+00  0.00000000000E+00  0.20166761270E+04  0.20166761270E+04  0.25500000920E-02 0. -1.
       -2   -1    0    0    0  501  0.00000000000E+00  0.00000000000E+00 -0.65484947660E+03  0.65484947660E+03  0.25500000920E-02 0.  1.
    10030    2    1    2    0    0  0.00000000000E+00  0.00000000000E+00  0.13618266504E+04  0.26715256036E+04  0.22983640323E+04 0.  0.
        4    1    3    3  502    0  0.30047631945E+03 -0.10586453391E+04  0.10657258605E+04  0.15319233646E+04  0.12699999809E+01 0. -1.
       -4    1    3    3    0  502 -0.30047631945E+03  0.10586453391E+04  0.29610078996E+03  0.11396022390E+04  0.12699999809E+01 0.  1.
</event>
<event>
 5   0  0.6676612E-05  0.2182922E+04  0.7818609E-02  0.8525570E-01
        2   -1    0    0  501    0  0.00000000000E+00  0.00000000000E+00  0.20508207407E+04  0.20508207407E+04  0.25500000920E-02 0.  1.
       -2   -1    0    0    0  501  0.00000000000E+00  0.00000000000E+00 -0.58088333896E+03  0.58088333897E+03  0.25500000920E-02 0. -1.
    10030    2    1    2    0    0  0.00000000000E+00  0.00000000000E+00  0.14699374017E+04  0.26317040797E+04  0.21829224443E+04 0.  0.
        2    1    3    3  502    0  0.10150439949E+04 -0.54544655899E+00  0.25126962968E+03  0.10456820912E+04  0.25500000920E-02 0. -1.
       -2    1    3    3    0  502 -0.10150439949E+04  0.54544655899E+00  0.12186677721E+04  0.15860219884E+04  0.25500000920E-02 0.  1.
</event>
<event>
 5   0  0.6702421E-05  0.2307559E+04  0.7818609E-02  0.8474947E-01
       -2   -1    0    0    0  501  0.00000000000E+00  0.00000000000E+00  0.69184812029E+03  0.69184812030E+03  0.25500000920E-02 0.  1.
        2   -1    0    0  501    0  0.00000000000E+00  0.00000000000E+00 -0.19241313061E+04  0.19241313062E+04  0.25500000920E-02 0. -1.
    10030    2    1    2    0    0  0.00000000000E+00  0.00000000000E+00 -0.12322831859E+04  0.26159794264E+04  0.23075585604E+04 0.  0.
        4    1    3    3  502    0  0.10985588478E+04  0.35178635072E+03 -0.58791750258E+03  0.12946944741E+04  0.12699999809E+01 0.  1.
       -4    1    3    3    0  502 -0.10985588478E+04 -0.35178635072E+03 -0.64436568328E+03  0.13212849523E+04  0.12699999809E+01 0. -1.
</event>
<event>
 5   0  0.3006265E-05  0.2021070E+04  0.7818609E-02  0.8596833E-01
        1   -1    0    0  501    0  0.00000000000E+00  0.00000000000E+00  0.24053393254E+04  0.24053393254E+04  0.50400001928E-02 0. -1.
       -1   -1    0    0    0  501  0.00000000000E+00  0.00000000000E+00 -0.42454761515E+03  0.42454761518E+03  0.50400001928E-02 0.  1.
    10030    2    1    2    0    0  0.00000000000E+00  0.00000000000E+00  0.19807917102E+04  0.28298869406E+04  0.20210700871E+04 0.  0.
        2    1    3    3  502    0 -0.35710722245E+03  0.72755429762E+02 -0.32932699022E+03  0.49119770702E+03  0.25500000920E-02 0.  1.
       -2    1    3    3    0  502  0.35710722245E+03 -0.72755429762E+02  0.23101187004E+04  0.23386892335E+04  0.25500000920E-02 0. -1.
</event>
<event>
 5   0  0.6814789E-05  0.2315097E+04  0.7818609E-02  0.8471992E-01
        2   -1    0    0  501    0  0.00000000000E+00  0.00000000000E+00  0.13319341182E+04  0.13319341182E+04  0.25500000920E-02 0. -1.
       -2   -1    0    0    0  501  0.00000000000E+00  0.00000000000E+00 -0.10059947497E+04  0.10059947497E+04  0.25500000920E-02 0.  1.
    10030    2    1    2    0    0  0.00000000000E+00  0.00000000000E+00  0.32593936850E+03  0.23379288679E+04  0.23150971728E+04 0.  0.
        1    1    3    3  502    0  0.32121717559E+03  0.90957464814E+03  0.80913325086E+03  0.12590485027E+04  0.50400001928E-02 0. -1.
       -1    1    3    3    0  502 -0.32121717559E+03 -0.90957464814E+03 -0.48319388236E+03  0.10788803652E+04  0.50400001928E-02 0.  1.
</event>
<event>
 5   0  0.2982385E-05  0.2258985E+04  0.7818609E-02  0.8494270E-01
        1   -1    0    0  501    0  0.00000000000E+00  0.00000000000E+00  0.14490913068E+04  0.14490913068E+04  0.50400001928E-02 0.  1.
       -1   -1    0    0    0  501  0.00000000000E+00  0.00000000000E+00 -0.88038193146E+03  0.88038193147E+03  0.50400001928E-02 0. -1.
    10030    2    1    2    0    0  0.00000000000E+00  0.00000000000E+00  0.56870937531E+03  0.23294732383E+04  0.22589854391E+04 0.  0.
        4    1    3    3  502    0 -0.89826362818E+03  0.34376812442E+03  0.89503091477E+03  0.13138249580E+04  0.12699999809E+01 0.  1.
       -4    1    3    3    0  502  0.89826362818E+03 -0.34376812442E+03 -0.32632153946E+03  0.10156482802E+04  0.12699999809E+01 0. -1.
</event>
<event>
 5   0  0.3006265E-05  0.2102506E+04  0.7818609E-02  0.8560140E-01
       -1   -1    0    0    0  501  0.00000000000E+00  0.00000000000E+00  0.54767235459E+03  0.54767235461E+03  0.50400001928E-02 0.  1.
        1   -1    0    0  501    0  0.00000000000E+00  0.00000000000E+00 -0.20178727697E+04  0.20178727697E+04  0.50400001928E-02 0. -1.
    10030    2    1    2    0    0  0.00000000000E+00  0.00000000000E+00 -0.14702004151E+04  0.25655451243E+04  0.21025062483E+04 0.  0.
        2    1    3    3  502    0  0.74992586445E+03 -0.61771260552E+02 -0.16308938884E+04  0.17961122922E+04  0.25500000920E-02 0. -1.
       -2    1    3    3    0  502 -0.74992586445E+03  0.61771260552E+02  0.16069347332E+03  0.76943283214E+03  0.25500000920E-02 0.  1.
</event>
<event>
 5   0  0.2962279E-05  0.2159761E+04  0.7818609E-02  0.8535366E-01
        1   -1    0    0  501    0  0.00000000000E+00  0.00000000000E+00  0.85375037040E+03  0.85375037041E+03  0.50400001928E-02 0.  1.
       -1   -1    0    0    0  501  0.00000000000E+00  0.00000000000E+00 -0.13659052973E+04  0.13659052973E+04  0.50400001928E-02 0. -1.
    10030    2    1    2    0    0  0.00000000000E+00  0.00000000000E+00 -0.51215492687E+03  0.22196556677E+04  0.21597612400E+04 0.  0.
        1    1    3    3  502    0 -0.92196510953E+03 -0.27665868062E+03  0.24696816527E+03  0.99375699415E+03  0.50400001928E-02 0.  1.
       -1    1    3    3    0  502  0.92196510953E+03  0.27665868062E+03 -0.75912309214E+03  0.12258986735E+04  0.50400001928E-02 0. -1.
</event>
<event>
 5   0  0.6814789E-05  0.2294571E+04  0.7818609E-02  0.8480065E-01
       -2   -1    0    0    0  501  0.00000000000E+00  0.00000000000E+00  0.60052647200E+03  0.60052647200E+03  0.25500000920E-02 0. -1.
        2   -1    0    0  501    0  0.00000000000E+00  0.00000000000E+00 -0.21918494732E+04  0.21918494732E+04  0.25500000920E-02 0.  1.
    10030    2    1    2    0    0  0.00000000000E+00  0.00000000000E+00 -0.15913230012E+04  0.27923759452E+04  0.22945706625E+04 0.  0.
        1    1    3    3  502    0 -0.25940018570E+03  0.59660627521E+03 -0.19456856647E+04  0.20515653072E+04  0.50400001928E-02 0.  1.
       -1    1    3    3    0  502  0.25940018570E+03 -0.59660627521E+03  0.35436266353E+03  0.74081063794E+03  0.50400001928E-02 0. -1.
</event>
<event>
 5   0  0.3118614E-05  0.2230083E+04  0.7818609E-02  0.8506010E-01
        1   -1    0    0  501    0  0.00000000000E+00  0.00000000000E+00  0.24135802468E+04  0.24135802468E+04  0.50400001928E-02 0.  1.
       -1   -1    0    0    0  501  0.00000000000E+00  0.00000000000E+00 -0.51513400814E+03  0.51513400816E+03  0.50400001928E-02 0. -1.
    10030    2    1    2    0    0  0.00000000000E+00  0.00000000000E+00  0.18984462387E+04  0.29287142550E+04  0.22300827487E+04 0.  0.
        3    1    3    3  502    0  0.20893122250E+03 -0.26024622545E+03  0.23464506437E+04  0.23700656081E+04  0.10100000352E+00 0.  1.
       -3    1    3    3    0  502 -0.20893122250E+03  0.26024622545E+03 -0.44800440495E+03  0.55864864687E+03  0.10100000352E+00 0. -1.
</event>
<event>
 5   0  0.2944089E-05  0.2325072E+04  0.7818609E-02  0.8468101E-01
       -1   -1    0    0    0  501  0.00000000000E+00  0.00000000000E+00  0.10051999315E+04  0.10051999315E+04  0.50400001928E-02 0. -1.
        1   -1    0    0  501    0  0.00000000000E+00  0.00000000000E+00 -0.13444983741E+04  0.13444983741E+04  0.50400001928E-02 0.  1.
    10030    2    1    2    0    0  0.00000000000E+00  0.00000000000E+00 -0.33929844256E+03  0.23496983056E+04  0.23250717611E+04 0.  0.
        5    1    3    3  502    0 -0.10705110695E+04 -0.32293922112E+03 -0.49111254796E+03  0.12212687318E+04  0.46999998093E+01 0. -1.
       -5    1    3    3    0  502  0.10705110695E+04  0.32293922112E+03  0.15181410540E+03  0.11284295738E+04  0.46999998093E+01 0.  1.
</event>
<event>
 5   0  0.3118614E-05  0.2318634E+04  0.7818609E-02  0.8470610E-01
       -1   -1    0    0    0  501  0.00000000000E+00  0.00000000000E+00  0.68011966018E+03  0.68011966020E+03  0.50400001928E-02 0. -1.
        1   -1    0    0  501    0  0.00000000000E+00  0.00000000000E+00 -0.19761456911E+04  0.19761456911E+04  0.50400001928E-02 0.  1.
    10030    2    1    2    0    0  0.00000000000E+00  0.00000000000E+00 -0.12960260309E+04  0.26562653513E+04  0.23186336804E+04 0.  0.
        3    1    3    3  502    0  0.12462705543E+03  0.86217362424E+03 -0.15243463036E+04  0.17557069587E+04  0.10100000352E+00 0.  1.
       -3    1    3    3    0  502 -0.12462705543E+03 -0.86217362424E+03  0.22832027275E+03  0.90055839257E+03  0.10100000352E+00 0. -1.
</event>
<event>
 5   0  0.6676612E-05  0.2350319E+04  0.7818609E-02  0.8458341E-01
        2   -1    0    0  501    0  0.00000000000E+00  0.00000000000E+00  0.16961006508E+04  0.16961006508E+04  0.25500000920E-02 0.  1.
       -2   -1    0    0    0  501  0.00000000000E+00  0.00000000000E+00 -0.81422072093E+03  0.81422072093E+03  0.25500000920E-02 0. -1.
    10030    2    1    2    0    0  0.00000000000E+00  0.00000000000E+00  0.88187992983E+03  0.25103213717E+04  0.23503193780E+04 0.  0.
        2    1    3    3  502    0  0.11234886550E+04  0.34461787466E+03  0.44464870635E+03  0.12564635727E+04  0.25500000920E-02 0.  1.
       -2    1    3    3    0  502 -0.11234886550E+04 -0.34461787466E+03  0.43723122347E+03  0.12538577990E+04  0.25500000920E-02 0. -1.
</event>
<event>
 5   0  0.6676612E-05  0.2560561E+04  0.7818609E-02  0.8381722E-01
       -2   -1    0    0    0  501  0.00000000000E+00  0.00000000000E+00  0.13675701573E+04  0.13675701573E+04  0.25500000920E-02 0.  1.
        2   -1    0    0  501    0  0.00000000000E+00  0.00000000000E+00 -0.11985625534E+04  0.11985625534E+04  0.25500000920E-02 0. -1.
    10030    2    1    2    0    0  0.00000000000E+00  0.00000000000E+00  0.16900760387E+03  0.25661327108E+04  0.25605611727E+04 0.  0.
        2    1    3    3  502    0 -0.14420430298E+03 -0.48828460801E+03 -0.10927443637E+04  0.12055318262E+04  0.25500000920E-02 0. -1.
       -2    1    3    3    0  502  0.14420430298E+03  0.48828460801E+03  0.12617519676E+04  0.13606008846E+04  0.25500000920E-02 0.  1.
</event>
<event>
 5   0  0.6702421E-05  0.2574873E+04  0.7818609E-02  0.8376787E-01
        2   -1    0    0  501    0  0.00000000000E+00  0.00000000000E+00  0.22613950699E+04  0.22613950699E+04  0.25500000920E-02 0. -1.
       -2   -1    0    0    0  501  0.00000000000E+00  0.00000000000E+00 -0.73295150149E+03  0.73295150150E+03  0.25500000920E-02 0.  1.
    10030    2    1    2    0    0  0.00000000000E+00  0.00000000000E+00  0.15284435684E+04  0.29943465714E+04  0.25748731324E+04 0.  0.
        4    1    3    3  502    0  0.67968453609E+03  0.95036360428E+03  0.13929781074E+04  0.18181176171E+04  0.12699999809E+01 0. -1.
       -4    1    3    3    0  502 -0.67968453609E+03 -0.95036360428E+03  0.13546546101E+03  0.11762289543E+04  0.12699999809E+01 0.  1.
</event>
<event>
 5   0  0.2342500E-05  0.2303116E+04  0.7818609E-02  0.8476693E-01
        3   -1    0    0  501    0  0.00000000000E+00  0.00000000000E+00  0.95071525074E+03  0.95071525611E+03  0.10100000352E+00 0. -1.
       -3   -1    0    0    0  501  0.00000000000E+00  0.00000000000E+00 -0.13948299819E+04  0.13948299856E+04  0.10100000352E+00 0.  1.
    10030    2    1    2    0    0  0.00000000000E+00  0.00000000000E+00 -0.44411473120E+03  0.23455452417E+04  0.23031162772E+04 0.  0.
        1    1    3    3  502    0 -0.12311116935E+03  0.56542042666E+03 -0.12360039226E+04  0.13647572369E+04  0.50400001928E-02 0.  1.
       -1    1    3    3    0  502  0.12311116935E+03 -0.56542042666E+03  0.79188919141E+03  0.98078800482E+03  0.50400001928E-02 0. -1.
</event>
<event>
 5   0  0.3118614E-05  0.2425913E+04  0.7818609E-02  0.8429865E-01
        1   -1    0    0  501    0  0.00000000000E+00  0.00000000000E+00  0.15921128178E+04  0.15921128179E+04  0.50400001928E-02 0.  1.
       -1   -1    0    0    0  501  0.00000000000E+00  0.00000000000E+00 -0.92409517970E+03  0.92409517971E+03  0.50400001928E-02 0. -1.
    10030    2    1    2    0    0  0.00000000000E+00  0.00000000000E+00  0.66801763815E+03  0.25162079976E+04  0.24259132553E+04 0.  0.
        3    1    3    3  502    0  0.35563642637E+03 -0.92345383369E+03 -0.39354049768E+03  0.10649499445E+04  0.10100000352E+00 0. -1.
       -3    1    3    3    0  502 -0.35563642637E+03  0.92345383369E+03  0.10615581358E+04  0.14512580531E+04  0.10100000352E+00 0.  1.
</event>
<event>
 5   0  0.2982385E-05  0.2377510E+04  0.7818609E-02  0.8447972E-01
       -1   -1    0    0    0  501  0.00000000000E+00  0.00000000000E+00  0.11714938367E+04  0.11714938367E+04  0.50400001928E-02 0. -1.
        1   -1    0    0  501    0  0.00000000000E+00  0.00000000000E+00 -0.12062708928E+04  0.12062708928E+04  0.50400001928E-02 0.  1.
    10030    2    1    2    0    0  0.00000000000E+00  0.00000000000E+00 -0.34777056066E+02  0.23777647295E+04  0.23775103922E+04 0.  0.
        4    1    3    3  502    0  0.96158262792E+02  0.10675193833E+04  0.49676106820E+03  0.11813624410E+04  0.12699999809E+01 0. -1.
       -4    1    3    3    0  502 -0.96158262792E+02 -0.10675193833E+04 -0.53153812426E+03  0.11964022884E+04  0.12699999809E+01 0.  1.
</event>
<event>
 5   0  0.6495405E-05  0.2184600E+04  0.7818609E-02  0.8524865E-01
       -2   -1    0    0    0  501  0.00000000000E+00  0.00000000000E+00  0.60490243613E+03  0.60490243614E+03  0.25500000920E-02 0. -1.
        2   -1    0    0  501    0  0.00000000000E+00  0.00000000000E+00 -0.19724156644E+04  0.19724156644E+04  0.25500000920E-02 0.  1.
    10030    2    1    2    0    0  0.00000000000E+00  0.00000000000E+00 -0.13675132283E+04  0.25773181005E+04  0.21845997716E+04 0.  0.
        5    1    3    3  502    0  0.60196338345E+03  0.46204730823E+02  0.39015655984E+03  0.71884561858E+03  0.46999998093E+01 0. -1.
       -5    1    3    3    0  502 -0.60196338345E+03 -0.46204730823E+02 -0.17576697881E+04  0.18584724820E+04  0.46999998093E+01 0.  1.
</event>
<event>
 5   0  0.2944089E-05  0.2240980E+04  0.7818609E-02  0.8501562E-01
       -1   -1    0    0    0  501  0.00000000000E+00  0.00000000000E+00  0.73405780799E+03  0.73405780801E+03  0.50400001928E-02 0. -1.
        1   -1    0    0  501    0  0.00000000000E+00  0.00000000000E+00 -0.17103523320E+04  0.17103523320E+04  0.50400001928E-02 0.  1.
    10030    2    1    2    0    0  0.00000000000E+00  0.00000000000E+00 -0.97629452404E+03  0.24444101401E+04  0.22409796820E+04 0.  0.
        5    1    3    3  502    0  0.96736362648E+01  0.28119213502E+03 -0.16711821945E+04  0.16947078254E+04  0.46999998093E+01 0.  1.
       -5    1    3    3    0  502 -0.96736362648E+01 -0.28119213502E+03  0.69488767050E+03  0.74970231468E+03  0.46999998093E+01 0. -1.
</event>
<event>
 5   0  0.3006265E-05  0.2303110E+04  0.7818609E-02  0.8476696E-01
        1   -1    0    0  501    0  0.00000000000E+00  0.00000000000E+00  0.12526211431E+04  0.12526211432E+04  0.50400001928E-02 0. -1.
       -1   -1    0    0    0  501  0.00000000000E+00  0.00000000000E+00 -0.10586429582E+04  0.10586429582E+04  0.50400001928E-02 0.  1.
    10030    2    1    2    0    0  0.00000000000E+00  0.00000000000E+00  0.19397818498E+03  0.23112641013E+04  0.23031096825E+04 0.  0.
        2    1    3    3  502    0 -0.62869743937E+03  0.93203804450E+03  0.34711676519E+03  0.11766245941E+04  0.25500000920E-02 0. -1.
       -2    1    3    3    0  502  0.62869743937E+03 -0.93203804450E+03 -0.15313858020E+03  0.11346395073E+04  0.25500000920E-02 0.  1.
</event>
<event>
 5   0  0.6468758E-05  0.2315666E+04  0.7818609E-02  0.8471770E-01
        2   -1    0    0  501    0  0.00000000000E+00  0.00000000000E+00  0.23557214630E+04  0.23557214630E+04  0.25500000920E-02 0. -1.
       -2   -1    0    0    0  501  0.00000000000E+00  0.00000000000E+00 -0.56907280160E+03  0.56907280160E+03  0.25500000920E-02 0.  1.
    10030    2    1    2    0    0  0.00000000000E+00  0.00000000000E+00  0.17866486614E+04  0.29247942646E+04  0.23156657900E+04 0.  0.
        3    1    3    3  502    0 -0.10198009915E+04  0.54524436408E+03  0.82086105968E+03  0.14181319996E+04  0.10100000352E+00 0.  1.
       -3    1    3    3    0  502  0.10198009915E+04 -0.54524436408E+03  0.96578760173E+03  0.15066622650E+04  0.10100000352E+00 0. -1.
</event>
<event>
 5   0  0.3118614E-05  0.2228190E+04  0.7818609E-02  0.8506785E-01
       -1   -1    0    0    0  501  0.00000000000E+00  0.00000000000E+00  0.63793055471E+03  0.63793055473E+03  0.50400001928E-02 0. -1.
        1   -1    0    0  501    0  0.00000000000E+00  0.00000000000E+00 -0.19456791143E+04  0.19456791143E+04  0.50400001928E-02 0.  1.
    10030    2    1    2    0    0  0.00000000000E+00  0.00000000000E+00 -0.13077485596E+04  0.25836096691E+04  0.22281904378E+04 0.  0.
        3    1    3    3  502    0  0.10951023468E+04 -0.46437639659E+02 -0.42254532206E+03  0.11747128005E+04  0.10100000352E+00 0. -1.
       -3    1    3    3    0  502 -0.10951023468E+04  0.46437639659E+02 -0.88520323757E+03  0.14088968686E+04  0.10100000352E+00 0.  1.
</event>
<event>
 5   0  0.3118614E-05  0.2285477E+04  0.7818609E-02  0.8483669E-01
       -1   -1    0    0    0  501  0.00000000000E+00  0.00000000000E+00  0.15358347870E+04  0.15358347870E+04  0.50400001928E-02 0. -1.
        1   -1    0    0  501    0  0.00000000000E+00  0.00000000000E+00 -0.85025506596E+03  0.85025506597E+03  0.50400001928E-02 0.  1.
    10030    2    1    2    0    0  0.00000000000E+00  0.00000000000E+00  0.68557972100E+03  0.23860898529E+04  0.22854770251E+04 0.  0.
        3    1    3    3  502    0 -0.50454397540E+03 -0.10110026076E+04  0.52107152881E+03  0.12442694419E+04  0.10100000352E+00 0.  1.
       -3    1    3    3    0  502  0.50454397540E+03  0.10110026076E+04  0.16450819219E+03  0.11418204111E+04  0.10100000352E+00 0. -1.
</event>
<event>
 5   0  0.3118614E-05  0.2315369E+04  0.7818609E-02  0.8471886E-01
       -1   -1    0    0    0  501  0.00000000000E+00  0.00000000000E+00  0.60632561881E+03  0.60632561883E+03  0.50400001928E-02 0.  1.
        1   -1    0    0  501    0  0.00000000000E+00  0.00000000000E+00 -0.22104186901E+04  0.22104186901E+04  0.50400001928E-02 0. -1.
    10030    2    1    2    0    0  0.00000000000E+00  0.00000000000E+00 -0.16040930713E+04  0.28167443089E+04  0.23153690679E+04 0.  0.
        3    1    3    3  502    0  0.36325193546E+02  0.88650190803E+03 -0.17067388132E+04  0.19235806558E+04  0.10100000352E+00 0. -1.
       -3    1    3    3    0  502 -0.36325193546E+02 -0.88650190803E+03  0.10264574199E+03  0.89316365308E+03  0.10100000352E+00 0.  1.
</event>
<event>
 5   0  0.2342500E-05  0.2314183E+04  0.7818609E-02  0.8472350E-01
        4   -1    0    0  501    0  0.00000000000E+00  0.00000000000E+00  0.11290127495E+04  0.11290134638E+04  0.12699999809E+01 0.  1.
       -4   -1    0    0    0  501  0.00000000000E+00  0.00000000000E+00 -0.11858671419E+04  0.11858678219E+04  0.12699999809E+01 0. -1.
    10030    2    1    2    0    0  0.00000000000E+00  0.00000000000E+00 -0.56854392414E+02  0.23148812857E+04  0.23141829973E+04 0.  0.
        2    1    3    3  502    0 -0.20656057357E+03 -0.86118720449E+03 -0.77333308161E+03  0.11757358236E+04  0.25500000920E-02 0. -1.
       -2    1    3    3    0  502  0.20656057357E+03  0.86118720449E+03  0.71647868920E+03  0.11391454621E+04  0.25500000920E-02 0.  1.
</event>
<event>
 5   0  0.2982385E-05  0.2282485E+04  0.7818609E-02  0.8484859E-01
        1   -1    0    0  501    0  0.00000000000E+00  0.00000000000E+00  0.10424473883E+04  0.10424473884E+04  0.50400001928E-02 0. -1.
       -1   -1    0    0    0  501  0.00000000000E+00  0.00000000000E+00 -0.12494007223E+04  0.12494007223E+04  0.50400001928E-02 0.  1.
    10030    2    1    2    0    0  0.00000000000E+00  0.00000000000E+00 -0.20695333394E+03  0.22918481106E+04  0.22824850667E+04 0.  0.
        4    1    3    3  502    0 -0.62861028792E+03  0.71227584367E+03 -0.73848305839E+03  0.12032649800E+04  0.12699999809E+01 0.  1.
       -4    1    3    3    0  502  0.62861028792E+03 -0.71227584367E+03  0.53152972445E+03  0.10885831307E+04  0.12699999809E+01 0. -1.
</event>
<event>
 5   0  0.2982385E-05  0.2284573E+04  0.7818609E-02  0.8484029E-01
       -1   -1    0    0    0  501  0.00000000000E+00  0.00000000000E+00  0.81179042662E+03  0.81179042664E+03  0.50400001928E-02 0.  1.
        1   -1    0    0  501    0  0.00000000000E+00  0.00000000000E+00 -0.16073334266E+04  0.16073334266E+04  0.50400001928E-02 0. -1.
    10030    2    1    2    0    0  0.00000000000E+00  0.00000000000E+00 -0.79554300001E+03  0.24191238533E+04  0.22845725098E+04 0.  0.
        4    1    3    3  502    0  0.10667310897E+04 -0.24614885122E+03 -0.74302961423E+03  0.13231020728E+04  0.12699999809E+01 0. -1.
       -4    1    3    3    0  502 -0.10667310897E+04  0.24614885122E+03 -0.52513385784E+02  0.10960217804E+04  0.12699999809E+01 0.  1.
</event>
<event>
 5   0  0.6468758E-05  0.2324251E+04  0.7818609E-02  0.8468420E-01
        2   -1    0    0  501    0  0.00000000000E+00  0.00000000000E+00  0.16711292601E+04  0.16711292601E+04  0.25500000920E-02 0.  1.
       -2   -1    0    0    0  501  0.00000000000E+00  0.00000000000E+00 -0.80815776894E+03  0.80815776894E+03  0.25500000920E-02 0. -1.
    10030    2    1    2    0    0  0.00000000000E+00  0.00000000000E+00  0.86297149119E+03  0.24792870291E+04  0.23242513586E+04 0.  0.
        3    1    3    3  502    0  0.18570233939E+03  0.11908487970E+02 -0.79216260499E+03  0.81372524472E+03  0.10100000352E+00 0. -1.
       -3    1    3    3    0  502 -0.18570233939E+03 -0.11908487970E+02  0.16551340962E+04  0.16655617843E+04  0.10100000352E+00 0.  1.
</event>
<event>
 5   0  0.6702421E-05  0.2282877E+04  0.7818609E-02  0.8484703E-01
       -2   -1    0    0    0  501  0.00000000000E+00  0.00000000000E+00  0.52725195369E+03  0.52725195370E+03  0.25500000920E-02 0. -1.
        2   -1    0    0  501    0  0.00000000000E+00  0.00000000000E+00 -0.24710802440E+04  0.24710802440E+04  0.25500000920E-02 0.  1.
    10030    2    1    2    0    0  0.00000000000E+00  0.00000000000E+00 -0.19438282903E+04  0.29983321976E+04  0.22828770325E+04 0.  0.
        4    1    3    3  502    0 -0.41481440148E+02 -0.79312093830E+03 -0.20486774140E+04  0.21972351472E+04  0.12699999809E+01 0.  1.
       -4    1    3    3    0  502  0.41481440148E+02  0.79312093830E+03  0.10484912369E+03  0.80109705047E+03  0.12699999809E+01 0. -1.
</event>
<event>
 5   0  0.6702421E-05  0.2299907E+04  0.7818609E-02  0.8477958E-01
        2   -1    0    0  501    0  0.00000000000E+00  0.00000000000E+00  0.17824806461E+04  0.17824806461E+04  0.25500000920E-02 0.  1.
       -2   -1    0    0    0  501  0.00000000000E+00  0.00000000000E+00 -0.74188385098E+03  0.74188385098E+03  0.25500000920E-02 0. -1.
    10030    2    1    2    0    0  0.00000000000E+00  0.00000000000E+00  0.10405967951E+04  0.25243644971E+04  0.22999074816E+04 0.  0.
        4    1    3    3  502    0  0.60546044265E+03 -0.77643912608E+03 -0.13177949640E+03  0.99338185644E+03  0.12699999809E+01 0. -1.
       -4    1    3    3    0  502 -0.60546044265E+03  0.77643912608E+03  0.11723762915E+04  0.15309826406E+04  0.12699999809E+01 0.  1.
</event>
<event>
 5   0  0.2944089E-05  0.2306180E+04  0.7818609E-02  0.8475488E-01
        1   -1    0    0  501    0  0.00000000000E+00  0.00000000000E+00  0.15937306779E+04  0.15937306779E+04  0.50400001928E-02 0. -1.
       -1   -1    0    0    0  501  0.00000000000E+00  0.00000000000E+00 -0.83427924056E+03  0.83427924057E+03  0.50400001928E-02 0.  1.
    10030    2    1    2    0    0  0.00000000000E+00  0.00000000000E+00  0.75945143732E+03  0.24280099185E+04  0.23061798886E+04 0.  0.
        5    1    3    3  502    0 -0.20169369846E+03  0.83380574346E+03 -0.43148597722E+03  0.96026798570E+03  0.46999998093E+01 0.  1.
       -5    1    3    3    0  502  0.20169369846E+03 -0.83380574346E+03  0.11909374145E+04  0.14677419328E+04  0.46999998093E+01 0. -1.
</event>
<event>
 5   0  0.3118614E-05  0.2261056E+04  0.7818609E-02  0.8493436E-01
        1   -1    0    0  501    0  0.00000000000E+00  0.00000000000E+00  0.12822500414E+04  0.12822500414E+04  0.50400001928E-02 0. -1.
       -1   -1    0    0    0  501  0.00000000000E+00  0.00000000000E+00 -0.99675857215E+03  0.99675857217E+03  0.50400001928E-02 0.  1.
    10030    2    1    2    0    0  0.00000000000E+00  0.00000000000E+00  0.28549146928E+03  0.22790086136E+04  0.22610561430E+04 0.  0.
        3    1    3    3  502    0  0.90197224713E+02 -0.76981937435E+03  0.97228471121E+03  0.12434206763E+04  0.10100000352E+00 0. -1.
       -3    1    3    3    0  502 -0.90197224713E+02  0.76981937435E+03 -0.68679324193E+03  0.10355879373E+04  0.10100000352E+00 0.  1.
</event>
<event>
 5   0  0.6702421E-05  0.2282546E+04  0.7818609E-02  0.8484835E-01
        2   -1    0    0  501    0  0.00000000000E+00  0.00000000000E+00  0.11221081585E+04  0.11221081585E+04  0.25500000920E-02 0. -1.
       -2   -1    0    0    0  501  0.00000000000E+00  0.00000000000E+00 -0.11607651824E+04  0.11607651824E+04  0.25500000920E-02 0.  1.
    10030    2    1    2    0    0  0.00000000000E+00  0.00000000000E+00 -0.38657023864E+02  0.22828733409E+04  0.22825460182E+04 0.  0.
        4    1    3    3  502    0  0.74451411402E+01 -0.93180965056E+03 -0.67834470797E+03  0.11525961178E+04  0.12699999809E+01 0.  1.
       -4    1    3    3    0  502 -0.74451411402E+01  0.93180965056E+03  0.63968768411E+03  0.11302772231E+04  0.12699999809E+01 0. -1.
</event>
<event>
 5   0  0.6495405E-05  0.2301440E+04  0.7818609E-02  0.8477353E-01
        2   -1    0    0  501    0  0.00000000000E+00  0.00000000000E+00  0.13818810906E+04  0.13818810906E+04  0.25500000920E-02 0.  1.
       -2   -1    0    0    0  501  0.00000000000E+00  0.00000000000E+00 -0.95822782560E+03  0.95822782561E+03  0.25500000920E-02 0. -1.
    10030    2    1    2    0    0  0.00000000000E+00  0.00000000000E+00  0.42365326503E+03  0.23401089162E+04  0.23014403427E+04 0.  0.
        5    1    3    3  502    0  0.83047886596E+03  0.48364328763E+01  0.10217119223E+04  0.13166760726E+04  0.46999998093E+01 0.  1.
       -5    1    3    3    0  502 -0.83047886596E+03 -0.48364328763E+01 -0.59805865731E+03  0.10234328437E+04  0.46999998093E+01 0. -1.
</event>
<event>
 5   0  0.2944089E-05  0.2322542E+04  0.7818609E-02  0.8469086E-01
        1   -1    0    0  501    0  0.00000000000E+00  0.00000000000E+00  0.92552804195E+03  0.92552804196E+03  0.50400001928E-02 0. -1.
       -1   -1    0    0    0  501  0.00000000000E+00  0.00000000000E+00 -0.14570602280E+04  0.14570602280E+04  0.50400001928E-02 0.  1.
    10030    2    1    2    0    0  0.00000000000E+00  0.00000000000E+00 -0.53153218609E+03  0.23825882700E+04  0.23225417972E+04 0.  0.
        5    1    3    3  502    0 -0.38024105738E+03 -0.83519115999E+03  0.46425013229E+03  0.10284346410E+04  0.46999998093E+01 0. -1.
       -5    1    3    3    0  502  0.38024105738E+03  0.83519115999E+03 -0.99578231837E+03  0.13541536290E+04  0.46999998093E+01 0.  1.
</event>
<event>
 5   0  0.3118614E-05  0.2302834E+04  0.7818609E-02  0.8476805E-01
       -1   -1    0    0    0  501  0.00000000000E+00  0.00000000000E+00  0.53686127310E+03  0.53686127312E+03  0.50400001928E-02 0. -1.
        1   -1    0    0  501    0  0.00000000000E+00  0.00000000000E+00 -0.24694670857E+04  0.24694670857E+04  0.50400001928E-02 0.  1.
    10030    2    1    2    0    0  0.00000000000E+00  0.00000000000E+00 -0.19326058126E+04  0.30063283588E+04  0.23028341178E+04 0.  0.
        3    1    3    3  502    0 -0.52546405274E+03 -0.82160085480E+03 -0.17653450775E+04  0.20168251506E+04  0.10100000352E+00 0.  1.
       -3    1    3    3    0  502  0.52546405274E+03  0.82160085480E+03 -0.16726073510E+03  0.98950320820E+03  0.10100000352E+00 0. -1.
</event>
<event>
 5   0  0.6676612E-05  0.2282549E+04  0.7818609E-02  0.8484834E-01
        2   -1    0    0  501    0  0.00000000000E+00  0.00000000000E+00  0.19985753524E+04  0.19985753524E+04  0.25500000920E-02 0.  1.
       -2   -1    0    0    0  501  0.00000000000E+00  0.00000000000E+00 -0.65171823024E+03  0.65171823024E+03  0.25500000920E-02 0. -1.
    10030    2    1    2    0    0  0.00000000000E+00  0.00000000000E+00  0.13468571221E+04  0.26502935826E+04  0.22825494445E+04 0.  0.
        2    1    3    3  502    0  0.56713380804E+03 -0.63376315686E+03 -0.21024605049E+03  0.87607071459E+03  0.25500000920E-02 0. -1.
       -2    1    3    3    0  502 -0.56713380804E+03  0.63376315686E+03  0.15571031726E+04  0.17742228680E+04  0.25500000920E-02 0.  1.
</event>
<event>
 5   0  0.6495405E-05  0.1958342E+04  0.7818609E-02  0.8626349E-01
        2   -1    0    0  501    0  0.00000000000E+00  0.00000000000E+00  0.85829975487E+03  0.85829975488E+03  0.25500000920E-02 0.  1.
       -2   -1    0    0    0  501  0.00000000000E+00  0.00000000000E+00 -0.11170640422E+04  0.11170640422E+04  0.25500000920E-02 0. -1.
    10030    2    1    2    0    0  0.00000000000E+00  0.00000000000E+00 -0.25876428729E+03  0.19753637970E+04  0.19583419452E+04 0.  0.
        5    1    3    3  502    0 -0.68890100909E+03 -0.44654726694E+03  0.40888961658E+03  0.91717057873E+03  0.46999998093E+01 0. -1.
       -5    1    3    3    0  502  0.68890100909E+03  0.44654726694E+03 -0.66765390387E+03  0.10581932183E+04  0.46999998093E+01 0.  1.
</event>
<event>
 5   0  0.6814789E-05  0.2242719E+04  0.7818609E-02  0.8500855E-01
       -2   -1    0    0    0  501  0.00000000000E+00  0.00000000000E+00  0.62391013417E+03  0.62391013418E+03  0.25500000920E-02 0.  1.
        2   -1    0    0  501    0  0.00000000000E+00  0.00000000000E+00 -0.20154297424E+04  0.20154297424E+04  0.25500000920E-02 0. -1.
    10030    2    1    2    0    0  0.00000000000E+00  0.00000000000E+00 -0.13915196083E+04  0.26393398766E+04  0.22427189222E+04 0.  0.
        1    1    3    3  502    0 -0.22114765445E+03 -0.10805050157E+04 -0.45732190248E+03  0.11939600900E+04  0.50400001928E-02 0.  1.
       -1    1    3    3    0  502  0.22114765445E+03  0.10805050157E+04 -0.93419770578E+03  0.14453797866E+04  0.50400001928E-02 0. -1.
</event>
<event>
 5   0  0.6702421E-05  0.2080305E+04  0.7818609E-02  0.8569969E-01
       -2   -1    0    0    0  501  0.00000000000E+00  0.00000000000E+00  0.11428652155E+04  0.11428652155E+04  0.25500000920E-02 0. -1.
        2   -1    0    0  501    0  0.00000000000E+00  0.00000000000E+00 -0.94667101002E+03  0.94667101002E+03  0.25500000920E-02 0.  1.
    10030    2    1    2    0    0  0.00000000000E+00  0.00000000000E+00  0.19619420547E+03  0.20895362255E+04  0.20803051390E+04 0.  0.
        4    1    3    3  502    0 -0.56896369410E+03  0.48511472319E+03 -0.62820195163E+03  0.97657323575E+03  0.12699999809E+01 0.  1.
       -4    1    3    3    0  502  0.56896369410E+03 -0.48511472319E+03  0.82439615710E+03  0.11129629898E+04  0.12699999809E+01 0. -1.
</event>
<event>
 5   0  0.6495405E-05  0.2220690E+04  0.7818609E-02  0.8509866E-01
       -2   -1    0    0    0  501  0.00000000000E+00  0.00000000000E+00  0.59697081093E+03  0.59697081094E+03  0.25500000920E-02 0. -1.
        2   -1    0    0  501    0  0.00000000000E+00  0.00000000000E+00 -0.20652027058E+04  0.20652027058E+04  0.25500000920E-02 0.  1.
    10030    2    1    2    0    0  0.00000000000E+00  0.00000000000E+00 -0.14682318949E+04  0.26621735167E+04  0.22206897433E+04 0.  0.
        5    1    3    3  502    0  0.56081476794E+01  0.75363366524E+03 -0.17116003042E+04  0.18701852432E+04  0.46999998093E+01 0. -1.
       -5    1    3    3    0  502 -0.56081476794E+01 -0.75363366524E+03  0.24336840933E+03  0.79198827350E+03  0.46999998093E+01 0.  1.
</event>
<event>
 5   0  0.6468758E-05  0.2023193E+04  0.7818609E-02  0.8595853E-01
       -2   -1    0    0    0  501  0.00000000000E+00  0.00000000000E+00  0.54592184316E+03  0.54592184316E+03  0.25500000920E-02 0. -1.
        2   -1    0    0  501    0  0.00000000000E+00  0.00000000000E+00 -0.18744947763E+04  0.18744947763E+04  0.25500000920E-02 0.  1.
    10030    2    1    2    0    0  0.00000000000E+00  0.00000000000E+00 -0.13285729331E+04  0.24204166194E+04  0.20231931626E+04 0.  0.
        3    1    3    3  502    0 -0.72461417844E+02  0.90943610808E+03 -0.11871312812E+04  0.14971991787E+04  0.10100000352E+00 0.  1.
       -3    1    3    3    0  502  0.72461417844E+02 -0.90943610808E+03 -0.14144165191E+03  0.92321744072E+03  0.10100000352E+00 0. -1.
</event>
<event>
 5   0  0.2982385E-05  0.2275650E+04  0.7818609E-02  0.8487584E-01
       -1   -1    0    0    0  501  0.00000000000E+00  0.00000000000E+00  0.67536863629E+03  0.67536863631E+03  0.50400001928E-02 0. -1.
        1   -1    0    0  501    0  0.00000000000E+00  0.00000000000E+00 -0.19169471983E+04  0.19169471983E+04  0.50400001928E-02 0.  1.
    10030    2    1    2    0    0  0.00000000000E+00  0.00000000000E+00 -0.12415785620E+04  0.25923158346E+04  0.22756502501E+04 0.  0.
        4    1    3    3  502    0  0.39608518481E+03 -0.83781913369E+03 -0.13728207075E+04  0.16563401469E+04  0.12699999809E+01 0.  1.
       -4    1    3    3    0  502 -0.39608518481E+03  0.83781913369E+03  0.13124214545E+03  0.93597568774E+03  0.12699999809E+01 0. -1.
</event>
<event>
 5   0  0.6495405E-05  0.2177786E+04  0.7818609E-02  0.8527731E-01
        2   -1    0    0  501    0  0.00000000000E+00  0.00000000000E+00  0.10999291977E+04  0.10999291977E+04  0.25500000920E-02 0.  1.
       -2   -1    0    0    0  501  0.00000000000E+00  0.00000000000E+00 -0.10779677417E+04  0.10779677417E+04  0.25500000920E-02 0. -1.
    10030    2    1    2    0    0  0.00000000000E+00  0.00000000000E+00  0.21961456081E+02  0.21778969394E+04  0.21777862092E+04 0.  0.
        5    1    3    3  502    0  0.18095064708E+03  0.74183778398E+03 -0.76533167629E+03  0.10811202982E+04  0.46999998093E+01 0. -1.
       -5    1    3    3    0  502 -0.18095064708E+03 -0.74183778398E+03  0.78729313238E+03  0.10967766412E+04  0.46999998093E+01 0.  1.
</event>
<event>
 5   0  0.2944089E-05  0.2323985E+04  0.7818609E-02  0.8468524E-01
       -1   -1    0    0    0  501  0.00000000000E+00  0.00000000000E+00  0.12067005511E+04  0.12067005511E+04  0.50400001928E-02 0.  1.
        1   -1    0    0  501    0  0.00000000000E+00  0.00000000000E+00 -0.11189404911E+04  0.11189404911E+04  0.50400001928E-02 0. -1.
    10030    2    1    2    0    0  0.00000000000E+00  0.00000000000E+00  0.87760060002E+02  0.23256410423E+04  0.23239846018E+04 0.  0.
        5    1    3    3  502    0  0.58358084181E+03 -0.97382966248E+03 -0.20387108018E+03  0.11534714204E+04  0.46999998093E+01 0. -1.
       -5    1    3    3    0  502 -0.58358084181E+03  0.97382966248E+03  0.29163114018E+03  0.11721696218E+04  0.46999998093E+01 0.  1.
</event>
<event>
 5   0  0.2944089E-05  0.2307762E+04  0.7818609E-02  0.8474867E-01
       -1   -1    0    0    0  501  0.00000000000E+00  0.00000000000E+00  0.11807048134E+04  0.11807048134E+04  0.50400001928E-02 0.  1.
        1   -1    0    0  501    0  0.00000000000E+00  0.00000000000E+00 -0.11276668715E+04  0.11276668715E+04  0.50400001928E-02 0. -1.
    10030    2    1    2    0    0  0.00000000000E+00  0.00000000000E+00  0.53037941938E+02  0.23083716849E+04  0.23077622955E+04 0.  0.
        5    1    3    3  502    0  0.62065712554E+03 -0.97136939246E+03  0.77970370533E+02  0.11553680075E+04  0.46999998093E+01 0. -1.
       -5    1    3    3    0  502 -0.62065712554E+03  0.97136939246E+03 -0.24932428596E+02  0.11530036774E+04  0.46999998093E+01 0.  1.
</event>
<event>
 5   0  0.2944089E-05  0.2287317E+04  0.7818609E-02  0.8482939E-01
        1   -1    0    0  501    0  0.00000000000E+00  0.00000000000E+00  0.15285933636E+04  0.15285933636E+04  0.50400001928E-02 0.  1.
       -1   -1    0    0    0  501  0.00000000000E+00  0.00000000000E+00 -0.85565935631E+03  0.85565935632E+03  0.50400001928E-02 0. -1.
    10030    2    1    2    0    0  0.00000000000E+00  0.00000000000E+00  0.67293400730E+03  0.23842527199E+04  0.22873173926E+04 0.  0.
        5    1    3    3  502    0  0.89103238414E+03  0.49808297750E+03 -0.20104895328E+03  0.10404172882E+04  0.46999998093E+01 0. -1.
       -5    1    3    3    0  502 -0.89103238414E+03 -0.49808297750E+03  0.87398296059E+03  0.13438354317E+04  0.46999998093E+01 0.  1.
</event>
<event>
 5   0  0.2962279E-05  0.2046283E+04  0.7818609E-02  0.8585282E-01
       -1   -1    0    0    0  501  0.00000000000E+00  0.00000000000E+00  0.10079655083E+04  0.10079655083E+04  0.50400001928E-02 0.  1.
        1   -1    0    0  501    0  0.00000000000E+00  0.00000000000E+00 -0.10385458848E+04  0.10385458848E+04  0.50400001928E-02 0. -1.
    10030    2    1    2    0    0  0.00000000000E+00  0.00000000000E+00 -0.30580376530E+02  0.20465113931E+04  0.20462829038E+04 0.  0.
        1    1    3    3  502    0 -0.41155486085E+02 -0.91707804868E+03 -0.46710662217E+03  0.10300070475E+04  0.50400001928E-02 0. -1.
       -1    1    3    3    0  502  0.41155486085E+02  0.91707804868E+03  0.43652624564E+03  0.10165043456E+04  0.50400001928E-02 0.  1.
</event>
<event>
 5   0  0.6468758E-05  0.2306559E+04  0.7818609E-02  0.8475340E-01
        2   -1    0    0  501    0  0.00000000000E+00  0.00000000000E+00  0.14935694708E+04  0.14935694708E+04  0.25500000920E-02 0. -1.
       -2   -1    0    0    0  501  0.00000000000E+00  0.00000000000E+00 -0.89052002886E+03  0.89052002887E+03  0.25500000920E-02 0.  1.
    10030    2    1    2    0    0  0.00000000000E+00  0.00000000000E+00  0.60304944195E+03  0.23840894997E+04  0.23065589334E+04 0.  0.
        3    1    3    3  502    0  0.72179342688E+03  0.63638441149E+03 -0.35551723115E+03  0.10258476408E+04  0.10100000352E+00 0.  1.
       -3    1    3    3    0  502 -0.72179342688E+03 -0.63638441149E+03  0.95856667310E+03  0.13582418589E+04  0.10100000352E+00 0. -1.
</event>
<event>
 5   0  0.6495405E-05  0.2331446E+04  0.7818609E-02  0.8465625E-01
       -2   -1    0    0    0  501  0.00000000000E+00  0.00000000000E+00  0.52477251916E+03  0.52477251917E+03  0.25500000920E-02 0. -1.
        2   -1    0    0  501    0  0.00000000000E+00  0.00000000000E+00 -0.25895225060E+04  0.25895225060E+04  0.25500000920E-02 0.  1.
    10030    2    1    2    0    0  0.00000000000E+00  0.00000000000E+00 -0.20647499869E+04  0.31142950252E+04  0.23314461168E+04 0.  0.
        5    1    3    3  502    0  0.43063982301E+03  0.82421505190E+03 -0.19713302434E+04  0.21796665175E+04  0.46999998093E+01 0.  1.
       -5    1    3    3    0  502 -0.43063982301E+03 -0.82421505190E+03 -0.93419743458E+02  0.93462850770E+03  0.46999998093E+01 0. -1.
</event>
<event>
 5   0  0.2982385E-05  0.2256126E+04  0.7818609E-02  0.8495424E-01
        1   -1    0    0  501    0  0.00000000000E+00  0.00000000000E+00  0.11165710043E+04  0.11165710043E+04  0.50400001928E-02 0. -1.
       -1   -1    0    0    0  501  0.00000000000E+00  0.00000000000E+00 -0.11396736324E+04  0.11396736324E+04  0.50400001928E-02 0.  1.
    10030    2    1    2    0    0  0.00000000000E+00  0.00000000000E+00 -0.23102628137E+02  0.22562446367E+04  0.22561263549E+04 0.  0.
        4    1    3    3  502    0  0.93555413791E+03  0.56780596585E+03 -0.28517077452E+03  0.11309240219E+04  0.12699999809E+01 0.  1.
       -4    1    3    3    0  502 -0.93555413791E+03 -0.56780596585E+03  0.26206814638E+03  0.11253206148E+04  0.12699999809E+01 0. -1.
</event>
<event>
 5   0  0.6676612E-05  0.2339885E+04  0.7818609E-02  0.8462359E-01
       -2   -1    0    0    0  501  0.00000000000E+00  0.00000000000E+00  0.10586975149E+04  0.10586975149E+04  0.25500000920E-02 0.  1.
        2   -1    0    0  501    0  0.00000000000E+00  0.00000000000E+00 -0.12928766475E+04  0.12928766475E+04  0.25500000920E-02 0. -1.
    10030    2    1    2    0    0  0.00000000000E+00  0.00000000000E+00 -0.23417913264E+03  0.23515741624E+04  0.23398848636E+04 0.  0.
        2    1    3    3  502    0 -0.18330019236E+03  0.10501571053E+04 -0.60151039450E+03  0.12240276390E+04  0.25500000920E-02 0. -1.
       -2    1    3    3    0  502  0.18330019236E+03 -0.10501571053E+04  0.36733126186E+03  0.11275465234E+04  0.25500000920E-02 0.  1.
</event>
<event>
 5   0  0.6676612E-05  0.2299537E+04  0.7818609E-02  0.8478104E-01
        2   -1    0    0  501    0  0.00000000000E+00  0.00000000000E+00  0.16282127534E+04  0.16282127534E+04  0.25500000920E-02 0.  1.
       -2   -1    0    0    0  501  0.00000000000E+00  0.00000000000E+00 -0.81191302659E+03  0.81191302660E+03  0.25500000920E-02 0. -1.
    10030    2    1    2    0    0  0.00000000000E+00  0.00000000000E+00  0.81629972685E+03  0.24401257800E+04  0.22995366008E+04 0.  0.
        2    1    3    3  502    0  0.10682502081E+04  0.40446916023E+03  0.26892897275E+03  0.11734890716E+04  0.25500000920E-02 0. -1.
       -2    1    3    3    0  502 -0.10682502081E+04 -0.40446916023E+03  0.54737075410E+03  0.12666367085E+04  0.25500000920E-02 0.  1.
</event>
<event>
 5   0  0.2962279E-05  0.2322833E+04  0.7818609E-02  0.8468972E-01
        1   -1    0    0  501    0  0.00000000000E+00  0.00000000000E+00  0.16484481392E+04  0.16484481392E+04  0.50400001928E-02 0. -1.
       -1   -1    0    0    0  501  0.00000000000E+00  0.00000000000E+00 -0.81827776064E+03  0.81827776065E+03  0.50400001928E-02 0.  1.
    10030    2    1    2    0    0  0.00000000000E+00  0.00000000000E+00  0.83017037854E+03  0.24667258998E+04  0.23228331424E+04 0.  0.
        1    1    3    3  502    0  0.61637376623E+03 -0.84411417594E+03 -0.12268705142E+03  0.10523770590E+04  0.50400001928E-02 0.  1.
       -1    1    3    3    0  502 -0.61637376623E+03  0.84411417594E+03  0.95285742996E+03  0.14143488408E+04  0.50400001928E-02 0. -1.
</event>
<event>
 5   0  0.6495405E-05  0.2086773E+04  0.7818609E-02  0.8567092E-01
       -2   -1    0    0    0  501  0.00000000000E+00  0.00000000000E+00  0.78492568642E+03  0.78492568642E+03  0.25500000920E-02 0.  1.
        2   -1    0    0  501    0  0.00000000000E+00  0.00000000000E+00 -0.13869534423E+04  0.13869534423E+04  0.25500000920E-02 0. -1.
    10030    2    1    2    0    0  0.00000000000E+00  0.00000000000E+00 -0.60202775587E+03  0.21718791287E+04  0.20867729946E+04 0.  0.
        5    1    3    3  502    0  0.53103201562E+03 -0.10863486959E+03 -0.12289101187E+04  0.13431450801E+04  0.46999998093E+01 0. -1.
       -5    1    3    3    0  502 -0.53103201562E+03  0.10863486959E+03  0.62688236280E+03  0.82873404859E+03  0.46999998093E+01 0.  1.
</event>
<event>
 5   0  0.3118614E-05  0.2286498E+04  0.7818609E-02  0.8483264E-01
        1   -1    0    0  501    0  0.00000000000E+00  0.00000000000E+00  0.57201910923E+03  0.57201910925E+03  0.50400001928E-02 0.  1.
       -1   -1    0    0    0  501  0.00000000000E+00  0.00000000000E+00 -0.22849213606E+04  0.22849213607E+04  0.50400001928E-02 0. -1.
    10030    2    1    2    0    0  0.00000000000E+00  0.00000000000E+00 -0.17129022514E+04  0.28569404699E+04  0.22864983546E+04 0.  0.
        3    1    3    3  502    0 -0.11409718853E+04 -0.41180655136E+02 -0.93043466925E+03  0.14728276794E+04  0.10100000352E+00 0. -1.
       -3    1    3    3    0  502  0.11409718853E+04  0.41180655136E+02 -0.78246758217E+03  0.13841127905E+04  0.10100000352E+00 0.  1.
</event>
<event>
 5   0  0.6702421E-05  0.2253173E+04  0.7818609E-02  0.8496617E-01
       -2   -1    0    0    0  501  0.00000000000E+00  0.00000000000E+00  0.10289085812E+04  0.10289085812E+04  0.25500000920E-02 0. -1.
        2   -1    0    0  501    0  0.00000000000E+00  0.00000000000E+00 -0.12335371689E+04  0.12335371689E+04  0.25500000920E-02 0.  1.
    10030    2    1    2    0    0  0.00000000000E+00  0.00000000000E+00 -0.20462858764E+03  0.22624457501E+04  0.22531728548E+04 0.  0.
        4    1    3    3  502    0 -0.66437736057E+03 -0.84857919516E+03 -0.43185917900E+03  0.11610288072E+04  0.12699999809E+01 0.  1.
       -4    1    3    3    0  502  0.66437736057E+03  0.84857919516E+03  0.22723059136E+03  0.11014169430E+04  0.12699999809E+01 0. -1.
</event>
<event>
 5   0  0.6495405E-05  0.2301154E+04  0.7818609E-02  0.8477466E-01
        2   -1    0    0  501    0  0.00000000000E+00  0.00000000000E+00  0.11489009241E+04  0.11489009241E+04  0.25500000920E-02 0.  1.
       -2   -1    0    0    0  501  0.00000000000E+00  0.00000000000E+00 -0.11522552218E+04  0.11522552218E+04  0.25500000920E-02 0. -1.
    10030    2    1    2    0    0  0.00000000000E+00  0.00000000000E+00 -0.33542977280E+01  0.23011561459E+04  0.23011537012E+04 0.  0.
        5    1    3    3  502    0  0.48391198551E+03  0.62939275839E+03 -0.83444387409E+03  0.11517919617E+04  0.46999998093E+01 0. -1.
       -5    1    3    3    0  502 -0.48391198551E+03 -0.62939275839E+03  0.83108957636E+03  0.11493641842E+04  0.46999998093E+01 0.  1.
</event>
<event>
 5   0  0.2962279E-05  0.2318994E+04  0.7818609E-02  0.8470469E-01
       -1   -1    0    0    0  501  0.00000000000E+00  0.00000000000E+00  0.73172611787E+03  0.73172611789E+03  0.50400001928E-02 0. -1.
        1   -1    0    0  501    0  0.00000000000E+00  0.00000000000E+00 -0.18373455943E+04  0.18373455943E+04  0.50400001928E-02 0.  1.
    10030    2    1    2    0    0  0.00000000000E+00  0.00000000000E+00 -0.11056194764E+04  0.25690717122E+04  0.23189944018E+04 0.  0.
        1    1    3    3  502    0  0.80055014713E+03 -0.75201708951E+03 -0.14123086566E+03  0.11074097699E+04  0.50400001928E-02 0. -1.
       -1    1    3    3    0  502 -0.80055014713E+03  0.75201708951E+03 -0.96438861074E+03  0.14616619423E+04  0.50400001928E-02 0.  1.
</event>
<event>
 5   0  0.2962279E-05  0.1764651E+04  0.7818609E-02  0.8725327E-01
       -1   -1    0    0    0  501  0.00000000000E+00  0.00000000000E+00  0.11566632711E+04  0.11566632711E+04  0.50400001928E-02 0. -1.
        1   -1    0    0  501    0  0.00000000000E+00  0.00000000000E+00 -0.67305504742E+03  0.67305504744E+03  0.50400001928E-02 0.  1.
    10030    2    1    2    0    0  0.00000000000E+00  0.00000000000E+00  0.48360822365E+03  0.18297183185E+04  0.17646507335E+04 0.  0.
        1    1    3    3  502    0  0.65539854184E+03  0.15741752888E+02 -0.37048046211E+03  0.75302777124E+03  0.50400001928E-02 0.  1.
       -1    1    3    3    0  502 -0.65539854184E+03 -0.15741752888E+02  0.85408868576E+03  0.10766905473E+04  0.50400001928E-02 0. -1.
</event>
<event>
 5   0  0.3118614E-05  0.2371452E+04  0.7818609E-02  0.8450269E-01
       -1   -1    0    0    0  501  0.00000000000E+00  0.00000000000E+00  0.13687672617E+04  0.13687672617E+04  0.50400001928E-02 0.  1.
        1   -1    0    0  501    0  0.00000000000E+00  0.00000000000E+00 -0.10271624298E+04  0.10271624298E+04  0.50400001928E-02 0. -1.
    10030    2    1    2    0    0  0.00000000000E+00  0.00000000000E+00  0.34160483192E+03  0.23959296916E+04  0.23714521344E+04 0.  0.
        3    1    3    3  502    0  0.95988218013E+03 -0.69310938642E+03  0.10554568000E+03  0.11886607262E+04  0.10100000352E+00 0. -1.
       -3    1    3    3    0  502 -0.95988218013E+03  0.69310938642E+03  0.23605915193E+03  0.12072689653E+04  0.10100000352E+00 0.  1.
</event>
<event>
 5   0  0.6702421E-05  0.2269456E+04  0.7818609E-02  0.8490062E-01
        2   -1    0    0  501    0  0.00000000000E+00  0.00000000000E+00  0.15708070282E+04  0.15708070282E+04  0.25500000920E-02 0.  1.
       -2   -1    0    0    0  501  0.00000000000E+00  0.00000000000E+00 -0.81971094668E+03  0.81971094668E+03  0.25500000920E-02 0. -1.
    10030    2    1    2    0    0  0.00000000000E+00  0.00000000000E+00  0.75109608151E+03  0.23905179749E+04  0.22694560724E+04 0.  0.
        4    1    3    3  502    0  0.41744950807E+03 -0.98522456486E+03  0.77342016821E+03  0.13202696333E+04  0.12699999809E+01 0. -1.
       -4    1    3    3    0  502 -0.41744950807E+03  0.98522456486E+03 -0.22324086697E+02  0.10702483416E+04  0.12699999809E+01 0.  1.
</event>
<event>
 5   0  0.6814789E-05  0.2079424E+04  0.7818609E-02  0.8570362E-01
        2   -1    0    0  501    0  0.00000000000E+00  0.00000000000E+00  0.87723219218E+03  0.87723219219E+03  0.25500000920E-02 0.  1.
       -2   -1    0    0    0  501  0.00000000000E+00  0.00000000000E+00 -0.12322861976E+04  0.12322861976E+04  0.25500000920E-02 0. -1.
    10030    2    1    2    0    0  0.00000000000E+00  0.00000000000E+00 -0.35505400545E+03  0.21095183898E+04  0.20794240766E+04 0.  0.
        1    1    3    3  502    0 -0.30099476011E+03  0.82167648572E+03  0.39207106125E+03  0.95888988413E+03  0.50400001928E-02 0.  1.
       -1    1    3    3    0  502  0.30099476011E+03 -0.82167648572E+03 -0.74712506669E+03  0.11506285057E+04  0.50400001928E-02 0. -1.
</event>
<event>
 5   0  0.6495405E-05  0.2258017E+04  0.7818609E-02  0.8494661E-01
        2   -1    0    0  501    0  0.00000000000E+00  0.00000000000E+00  0.26480665464E+04  0.26480665464E+04  0.25500000920E-02 0.  1.
       -2   -1    0    0    0  501  0.00000000000E+00  0.00000000000E+00 -0.48135517054E+03  0.48135517054E+03  0.25500000920E-02 0. -1.
    10030    2    1    2    0    0  0.00000000000E+00  0.00000000000E+00  0.21667113759E+04  0.31294217170E+04  0.22580172932E+04 0.  0.
        5    1    3    3  502    0 -0.34429604169E+03  0.67721781678E+03 -0.74091161905E+02  0.76333172733E+03  0.46999998093E+01 0. -1.
       -5    1    3    3    0  502  0.34429604169E+03 -0.67721781678E+03  0.22408025378E+04  0.23660899896E+04  0.46999998093E+01 0.  1.
</event>
<event>
 5   0  0.3006265E-05  0.2342870E+04  0.7818609E-02  0.8461207E-01
        1   -1    0    0  501    0  0.00000000000E+00  0.00000000000E+00  0.15945070813E+04  0.15945070813E+04  0.50400001928E-02 0. -1.
       -1   -1    0    0    0  501  0.00000000000E+00  0.00000000000E+00 -0.86061673182E+03  0.86061673184E+03  0.50400001928E-02 0.  1.
    10030    2    1    2    0    0  0.00000000000E+00  0.00000000000E+00  0.73389034946E+03  0.24551238131E+04  0.23428695851E+04 0.  0.
        2    1    3    3  502    0 -0.17932422818E+03  0.11315692110E+04  0.11100236123E+03  0.11510549867E+04  0.25500000920E-02 0.  1.
       -2    1    3    3    0  502  0.17932422818E+03 -0.11315692110E+04  0.62288798823E+03  0.13040688264E+04  0.25500000920E-02 0. -1.
</event>
<event>
 5   0  0.2944089E-05  0.2281225E+04  0.7818609E-02  0.8485361E-01
       -1   -1    0    0    0  501  0.00000000000E+00  0.00000000000E+00  0.11925302575E+04  0.11925302575E+04  0.50400001928E-02 0. -1.
        1   -1    0    0  501    0  0.00000000000E+00  0.00000000000E+00 -0.10909552062E+04  0.10909552062E+04  0.50400001928E-02 0.  1.
    10030    2    1    2    0    0  0.00000000000E+00  0.00000000000E+00  0.10157505133E+03  0.22834854637E+04  0.22812251909E+04 0.  0.
        5    1    3    3  502    0 -0.48450356511E+03  0.58902621721E+03 -0.79815620978E+03  0.11039796259E+04  0.46999998093E+01 0.  1.
       -5    1    3    3    0  502  0.48450356511E+03 -0.58902621721E+03  0.89973126111E+03  0.11795058378E+04  0.46999998093E+01 0. -1.
</event>
<event>
 5   0  0.6702421E-05  0.2046899E+04  0.7818609E-02  0.8585002E-01
        2   -1    0    0  501    0  0.00000000000E+00  0.00000000000E+00  0.19186740521E+04  0.19186740521E+04  0.25500000920E-02 0. -1.
       -2   -1    0    0    0  501  0.00000000000E+00  0.00000000000E+00 -0.54592347780E+03  0.54592347780E+03  0.25500000920E-02 0.  1.
    10030    2    1    2    0    0  0.00000000000E+00  0.00000000000E+00  0.13727505743E+04  0.24645975299E+04  0.20468993246E+04 0.  0.
        4    1    3    3  502    0 -0.78821260469E+03 -0.33247294743E+03  0.13628301455E+04  0.16090758184E+04  0.12699999809E+01 0. -1.
       -4    1    3    3    0  502  0.78821260469E+03  0.33247294743E+03  0.99204287431E+01  0.85552171145E+03  0.12699999809E+01 0.  1.
</event>
<event>
 5   0  0.3118614E-05  0.2113445E+04  0.7818609E-02  0.8555344E-01
        1   -1    0    0  501    0  0.00000000000E+00  0.00000000000E+00  0.54875185984E+03  0.54875185986E+03  0.50400001928E-02 0. -1.
       -1   -1    0    0    0  501  0.00000000000E+00  0.00000000000E+00 -0.20349127852E+04  0.20349127852E+04  0.50400001928E-02 0.  1.
    10030    2    1    2    0    0  0.00000000000E+00  0.00000000000E+00 -0.14861609253E+04  0.25836646450E+04  0.21134447478E+04 0.  0.
        3    1    3    3  502    0  0.36683038953E+03 -0.98547669783E+03 -0.87090700698E+03  0.13653599824E+04  0.10100000352E+00 0.  1.
       -3    1    3    3    0  502 -0.36683038953E+03  0.98547669783E+03 -0.61525391834E+03  0.12183046626E+04  0.10100000352E+00 0. -1.
</event>
<event>
 5   0  0.6702421E-05  0.2323372E+04  0.7818609E-02  0.8468762E-01
       -2   -1    0    0    0  501  0.00000000000E+00  0.00000000000E+00  0.43837163583E+03  0.43837163584E+03  0.25500000920E-02 0. -1.
        2   -1    0    0  501    0  0.00000000000E+00  0.00000000000E+00 -0.30784713009E+04  0.30784713009E+04  0.25500000920E-02 0.  1.
    10030    2    1    2    0    0  0.00000000000E+00  0.00000000000E+00 -0.26400996650E+04  0.35168429367E+04  0.23233721183E+04 0.  0.
        4    1    3    3  502    0  0.45684035209E+03 -0.10074170917E+04 -0.18571837325E+04  0.21616487535E+04  0.12699999809E+01 0.  1.
       -4    1    3    3    0  502 -0.45684035209E+03  0.10074170917E+04 -0.78291593247E+03  0.13551941832E+04  0.12699999809E+01 0. -1.
</event>
<event>
 5   0  0.3118614E-05  0.2285815E+04  0.7818609E-02  0.8483535E-01
        1   -1    0    0  501    0  0.00000000000E+00  0.00000000000E+00  0.29618804408E+04  0.29618804408E+04  0.50400001928E-02 0.  1.
       -1   -1    0    0    0  501  0.00000000000E+00  0.00000000000E+00 -0.44101621762E+03  0.44101621765E+03  0.50400001928E-02 0. -1.
    10030    2    1    2    0    0  0.00000000000E+00  0.00000000000E+00  0.25208642232E+04  0.34028966585E+04  0.22858147861E+04 0.  0.
        3    1    3    3  502    0 -0.83354497757E+03 -0.78194192881E+03  0.12643395643E+04  0.17043429684E+04  0.10100000352E+00 0.  1.
       -3    1    3    3    0  502  0.83354497757E+03  0.78194192881E+03  0.12565246589E+04  0.16985536901E+04  0.10100000352E+00 0. -1.
</event>
<event>
 5   0  0.2962279E-05  0.2306927E+04  0.7818609E-02  0.8475195E-01
       -1   -1    0    0    0  501  0.00000000000E+00  0.00000000000E+00  0.22738702674E+04  0.22738702674E+04  0.50400001928E-02 0. -1.
        1   -1    0    0  501    0  0.00000000000E+00  0.00000000000E+00 -0.58511626729E+03  0.58511626731E+03  0.50400001928E-02 0.  1.
    10030    2    1    2    0    0  0.00000000000E+00  0.00000000000E+00  0.16887540001E+04  0.28589865347E+04  0.23069273792E+04 0.  0.
        1    1    3    3  502    0  0.47705853410E+03 -0.65633903669E+03  0.18603899413E+04  0.20296345754E+04  0.50400001928E-02 0. -1.
       -1    1    3    3    0  502 -0.47705853410E+03  0.65633903669E+03 -0.17163594119E+03  0.82935195929E+03  0.50400001928E-02 0.  1.
</event>
<event>
 5   0  0.6702421E-05  0.2303638E+04  0.7818609E-02  0.8476488E-01
        2   -1    0    0  501    0  0.00000000000E+00  0.00000000000E+00  0.12318212784E+04  0.12318212784E+04  0.25500000920E-02 0. -1.
       -2   -1    0    0    0  501  0.00000000000E+00  0.00000000000E+00 -0.10770122467E+04  0.10770122467E+04  0.25500000920E-02 0.  1.
    10030    2    1    2    0    0  0.00000000000E+00  0.00000000000E+00  0.15480903172E+03  0.23088335251E+04  0.23036376474E+04 0.  0.
        4    1    3    3  502    0 -0.85089057490E+03 -0.68445230160E+03 -0.28974845811E+03  0.11297988783E+04  0.12699999809E+01 0.  1.
       -4    1    3    3    0  502  0.85089057490E+03  0.68445230160E+03  0.44455748983E+03  0.11790346468E+04  0.12699999809E+01 0. -1.
</event>
<event>
 5   0  0.6814789E-05  0.2296129E+04  0.7818609E-02  0.8479449E-01
        2   -1    0    0  501    0  0.00000000000E+00  0.00000000000E+00  0.11168207062E+04  0.11168207062E+04  0.25500000920E-02 0.  1.
       -2   -1    0    0    0  501  0.00000000000E+00  0.00000000000E+00 -0.11801820324E+04  0.11801820324E+04  0.25500000920E-02 0. -1.
    10030    2    1    2    0    0  0.00000000000E+00  0.00000000000E+00 -0.63361326244E+02  0.22970027386E+04  0.22961286818E+04 0.  0.
        1    1    3    3  502    0 -0.79864479216E+03 -0.75088014424E+03  0.30961959980E+03  0.11390868236E+04  0.50400001928E-02 0.  1.
       -1    1    3    3    0  502  0.79864479216E+03  0.75088014424E+03 -0.37298092604E+03  0.11579159150E+04  0.50400001928E-02 0. -1.
</event>
<event>
 5   0  0.6676612E-05  0.2276881E+04  0.7818609E-02  0.8487093E-01
       -2   -1    0    0    0  501  0.00000000000E+00  0.00000000000E+00  0.87549406412E+03  0.87549406412E+03  0.25500000920E-02 0. -1.
        2   -1    0    0  501    0  0.00000000000E+00  0.00000000000E+00 -0.14803597978E+04  0.14803597978E+04  0.25500000920E-02 0.  1.
    10030    2    1    2    0    0  0.00000000000E+00  0.00000000000E+00 -0.60486573372E+03  0.23558538620E+04  0.22768805114E+04 0.  0.
        2    1    3    3  502    0  0.85108556426E+03  0.45342743134E+03  0.32361830878E+03  0.10171882240E+04  0.25500000920E-02 0.  1.
       -2    1    3    3    0  502 -0.85108556426E+03 -0.45342743134E+03 -0.92848404251E+03  0.13386656380E+04  0.25500000920E-02 0. -1.
</event>
<event>
 5   0  0.6702421E-05  0.2435129E+04  0.7818609E-02  0.8426468E-01
       -2   -1    0    0    0  501  0.00000000000E+00  0.00000000000E+00  0.13055678019E+04  0.13055678019E+04  0.25500000920E-02 0. -1.
        2   -1    0    0  501    0  0.00000000000E+00  0.00000000000E+00 -0.11354927531E+04  0.11354927531E+04  0.25500000920E-02 0.  1.
    10030    2    1    2    0    0  0.00000000000E+00  0.00000000000E+00  0.17007504886E+03  0.24410605550E+04  0.24351285615E+04 0.  0.
        4    1    3    3  502    0 -0.30059878660E+03 -0.10411501618E+04 -0.47138929914E+03  0.11817625710E+04  0.12699999809E+01 0.  1.
       -4    1    3    3    0  502  0.30059878660E+03  0.10411501618E+04  0.64146434800E+03  0.12592979840E+04  0.12699999809E+01 0. -1.
</event>
<event>
 5   0  0.2962279E-05  0.2397871E+04  0.7818609E-02  0.8440301E-01
       -1   -1    0    0    0  501  0.00000000000E+00  0.00000000000E+00  0.11535533020E+04  0.11535533021E+04  0.50400001928E-02 0.  1.
        1   -1    0    0  501    0  0.00000000000E+00  0.00000000000E+00 -0.12461033684E+04  0.12461033684E+04  0.50400001928E-02 0. -1.
    10030    2    1    2    0    0  0.00000000000E+00  0.00000000000E+00 -0.92550066312E+02  0.23996566704E+04  0.23978712687E+04 0.  0.
        1    1    3    3  502    0 -0.36169047110E+03  0.53955008695E+03  0.96220163043E+03  0.11609333619E+04  0.50400001928E-02 0.  1.
       -1    1    3    3    0  502  0.36169047110E+03 -0.53955008695E+03 -0.10547516967E+04  0.12387233085E+04  0.50400001928E-02 0. -1.
</event>
<event>
 5   0  0.3118614E-05  0.2289737E+04  0.7818609E-02  0.8481979E-01
        1   -1    0    0  501    0  0.00000000000E+00  0.00000000000E+00  0.67131803070E+03  0.67131803072E+03  0.50400001928E-02 0.  1.
       -1   -1    0    0    0  501  0.00000000000E+00  0.00000000000E+00 -0.19524634157E+04  0.19524634157E+04  0.50400001928E-02 0. -1.
    10030    2    1    2    0    0  0.00000000000E+00  0.00000000000E+00 -0.12811453850E+04  0.26237814464E+04  0.22897370114E+04 0.  0.
        3    1    3    3  502    0  0.83695194278E+03  0.28358840708E+03  0.19349891094E+03  0.90462853034E+03  0.10100000352E+00 0.  1.
       -3    1    3    3    0  502 -0.83695194278E+03 -0.28358840708E+03 -0.14746442960E+04  0.17191529161E+04  0.10100000352E+00 0. -1.
</event>
<event>
 5   0  0.6676612E-05  0.2292537E+04  0.7818609E-02  0.8480869E-01
       -2   -1    0    0    0  501  0.00000000000E+00  0.00000000000E+00  0.10301609315E+04  0.10301609315E+04  0.25500000920E-02 0. -1.
        2   -1    0    0  501    0  0.00000000000E+00  0.00000000000E+00 -0.12754622861E+04  0.12754622861E+04  0.25500000920E-02 0.  1.
    10030    2    1    2    0    0  0.00000000000E+00  0.00000000000E+00 -0.24530135453E+03  0.23056232176E+04  0.22925369500E+04 0.  0.
        2    1    3    3  502    0 -0.36336667638E+03 -0.96188681146E+03  0.38686718089E+03  0.10986026557E+04  0.25500000920E-02 0. -1.
       -2    1    3    3    0  502  0.36336667638E+03  0.96188681146E+03 -0.63216853542E+03  0.12070205619E+04  0.25500000920E-02 0.  1.
</event>
<event>
 5   0  0.3006265E-05  0.2199646E+04  0.7818609E-02  0.8518575E-01
       -1   -1    0    0    0  501  0.00000000000E+00  0.00000000000E+00  0.14450252297E+04  0.14450252298E+04  0.50400001928E-02 0. -1.
        1   -1    0    0  501    0  0.00000000000E+00  0.00000000000E+00 -0.83708615120E+03  0.83708615121E+03  0.50400001928E-02 0.  1.
    10030    2    1    2    0    0  0.00000000000E+00  0.00000000000E+00  0.60793907854E+03  0.22821113810E+04  0.21996459788E+04 0.  0.
        2    1    3    3  502    0 -0.32296418057E+03  0.85022991708E+03 -0.33761050204E+03  0.97014309507E+03  0.25500000920E-02 0.  1.
       -2    1    3    3    0  502  0.32296418057E+03 -0.85022991708E+03  0.94554958059E+03  0.13119682859E+04  0.25500000920E-02 0. -1.
</event>
<event>
 5   0  0.2982385E-05  0.2284600E+04  0.7818609E-02  0.8484018E-01
        1   -1    0    0  501    0  0.00000000000E+00  0.00000000000E+00  0.80436244422E+03  0.80436244424E+03  0.50400001928E-02 0. -1.
       -1   -1    0    0    0  501  0.00000000000E+00  0.00000000000E+00 -0.16222158793E+04  0.16222158793E+04  0.50400001928E-02 0.  1.
    10030    2    1    2    0    0  0.00000000000E+00  0.00000000000E+00 -0.81785343503E+03  0.24265783235E+04  0.22846002099E+04 0.  0.
        4    1    3    3  502    0  0.73380550897E+03  0.57790511635E+03  0.28951228741E+03  0.97788743010E+03  0.12699999809E+01 0. -1.
       -4    1    3    3    0  502 -0.73380550897E+03 -0.57790511635E+03 -0.11073657224E+04  0.14486908934E+04  0.12699999809E+01 0.  1.
</event>
<event>
 5   0  0.2982385E-05  0.2336204E+04  0.7818609E-02  0.8463782E-01
        1   -1    0    0  501    0  0.00000000000E+00  0.00000000000E+00  0.19497807754E+04  0.19497807754E+04  0.50400001928E-02 0. -1.
       -1   -1    0    0    0  501  0.00000000000E+00  0.00000000000E+00 -0.69980290882E+03  0.69980290884E+03  0.50400001928E-02 0.  1.
    10030    2    1    2    0    0  0.00000000000E+00  0.00000000000E+00  0.12499778666E+04  0.26495836842E+04  0.23362039793E+04 0.  0.
        4    1    3    3  502    0  0.76501400410E+02 -0.56551439047E+03  0.17809233589E+04  0.18701199462E+04  0.12699999809E+01 0. -1.
       -4    1    3    3    0  502 -0.76501400410E+02  0.56551439047E+03 -0.53094549235E+03  0.77946373799E+03  0.12699999809E+01 0.  1.
</event>
<event>
 5   0  0.6676612E-05  0.2264887E+04  0.7818609E-02  0.8491896E-01
        2   -1    0    0  501    0  0.00000000000E+00  0.00000000000E+00  0.22377480229E+04  0.22377480229E+04  0.25500000920E-02 0. -1.
       -2   -1    0    0    0  501  0.00000000000E+00  0.00000000000E+00 -0.57308859112E+03  0.57308859112E+03  0.25500000920E-02 0.  1.
    10030    2    1    2    0    0  0.00000000000E+00  0.00000000000E+00  0.16646594318E+04  0.28108366140E+04  0.22648866300E+04 0.  0.
        2    1    3    3  502    0 -0.16008161133E+03 -0.10544119911E+04  0.13049351715E+04  0.16853090432E+04  0.25500000920E-02 0. -1.
       -2    1    3    3    0  502  0.16008161133E+03  0.10544119911E+04  0.35972426026E+03  0.11255275708E+04  0.25500000920E-02 0.  1.
</event>
<event>
 5   0  0.2962279E-05  0.2406811E+04  0.7818609E-02  0.8436958E-01
       -1   -1    0    0    0  501  0.00000000000E+00  0.00000000000E+00  0.90247411039E+03  0.90247411040E+03  0.50400001928E-02 0.  1.
        1   -1    0    0  501    0  0.00000000000E+00  0.00000000000E+00 -0.16046822911E+04  0.16046822911E+04  0.50400001928E-02 0. -1.
    10030    2    1    2    0    0  0.00000000000E+00  0.00000000000E+00 -0.70220818075E+03  0.25071564016E+04  0.24068105228E+04 0.  0.
        1    1    3    3  502    0 -0.10886721389E+04  0.36668241551E+03  0.22341139874E+02  0.11489830923E+04  0.50400001928E-02 0.  1.
       -1    1    3    3    0  502  0.10886721389E+04 -0.36668241551E+03 -0.72454932063E+03  0.13581733092E+04  0.50400001928E-02 0. -1.
</event>
<event>
 5   0  0.6676612E-05  0.2314512E+04  0.7818609E-02  0.8472221E-01
       -2   -1    0    0    0  501  0.00000000000E+00  0.00000000000E+00  0.11496248970E+04  0.11496248970E+04  0.25500000920E-02 0.  1.
        2   -1    0    0  501    0  0.00000000000E+00  0.00000000000E+00 -0.11649377728E+04  0.11649377728E+04  0.25500000920E-02 0. -1.
    10030    2    1    2    0    0  0.00000000000E+00  0.00000000000E+00 -0.15312875771E+02  0.23145626698E+04  0.23145120151E+04 0.  0.
        2    1    3    3  502    0 -0.48940929987E+03  0.39553573169E+03  0.96358646576E+03  0.11508557055E+04  0.25500000920E-02 0.  1.
       -2    1    3    3    0  502  0.48940929987E+03 -0.39553573169E+03 -0.97889934153E+03  0.11637069643E+04  0.25500000920E-02 0. -1.
</event>
<event>
 5   0  0.6676612E-05  0.2323736E+04  0.7818609E-02  0.8468621E-01
       -2   -1    0    0    0  501  0.00000000000E+00  0.00000000000E+00  0.57267260132E+03  0.57267260133E+03  0.25500000920E-02 0.  1.
        2   -1    0    0  501    0  0.00000000000E+00  0.00000000000E+00 -0.23572586088E+04  0.23572586088E+04  0.25500000920E-02 0. -1.
    10030    2    1    2    0    0  0.00000000000E+00  0.00000000000E+00 -0.17845860075E+04  0.29299312102E+04  0.23237361464E+04 0.  0.
        2    1    3    3  502    0  0.89712973905E+03  0.73793853890E+03 -0.92165704955E+03  0.14828508937E+04  0.25500000920E-02 0. -1.
       -2    1    3    3    0  502 -0.89712973905E+03 -0.73793853890E+03 -0.86292895796E+03  0.14470803165E+04  0.25500000920E-02 0.  1.
</event>
<event>
 5   0  0.6676612E-05  0.2106243E+04  0.7818609E-02  0.8558498E-01
        2   -1    0    0  501    0  0.00000000000E+00  0.00000000000E+00  0.11424523863E+04  0.11424523863E+04  0.25500000920E-02 0.  1.
       -2   -1    0    0    0  501  0.00000000000E+00  0.00000000000E+00 -0.97077523536E+03  0.97077523537E+03  0.25500000920E-02 0. -1.
    10030    2    1    2    0    0  0.00000000000E+00  0.00000000000E+00  0.17167715093E+03  0.21132276217E+04  0.21062426111E+04 0.  0.
        2    1    3    3  502    0 -0.34855330737E+03 -0.13923811153E+03  0.10730670936E+04  0.11368155731E+04  0.25500000920E-02 0.  1.
       -2    1    3    3    0  502  0.34855330737E+03  0.13923811153E+03 -0.90138994270E+03  0.97641204857E+03  0.25500000920E-02 0. -1.
</event>
<event>
 5   0  0.6814789E-05  0.2290729E+04  0.7818609E-02  0.8481585E-01
       -2   -1    0    0    0  501  0.00000000000E+00  0.00000000000E+00  0.11965094453E+04  0.11965094453E+04  0.25500000920E-02 0. -1.
        2   -1    0    0  501    0  0.00000000000E+00  0.00000000000E+00 -0.10964059632E+04  0.10964059632E+04  0.25500000920E-02 0.  1.
    10030    2    1    2    0    0  0.00000000000E+00  0.00000000000E+00  0.10010348209E+03  0.22929154085E+04  0.22907292209E+04 0.  0.
        1    1    3    3  502    0  0.44983733310E+03  0.58050271544E+03 -0.82971999111E+03  0.11080488674E+04  0.50400001928E-02 0.  1.
       -1    1    3    3    0  502 -0.44983733310E+03 -0.58050271544E+03  0.92982347320E+03  0.11848665411E+04  0.50400001928E-02 0. -1.
</event>
<event>
 5   0  0.3006265E-05  0.2251578E+04  0.7818609E-02  0.8497262E-01
       -1   -1    0    0    0  501  0.00000000000E+00  0.00000000000E+00  0.10560233719E+04  0.10560233719E+04  0.50400001928E-02 0.  1.
        1   -1    0    0  501    0  0.00000000000E+00  0.00000000000E+00 -0.12001638620E+04  0.12001638620E+04  0.50400001928E-02 0. -1.
    10030    2    1    2    0    0  0.00000000000E+00  0.00000000000E+00 -0.14414049008E+03  0.22561872339E+04  0.22515781917E+04 0.  0.
        2    1    3    3  502    0 -0.75298514334E+02 -0.10779520974E+04  0.24440929583E+03  0.11078747648E+04  0.25500000920E-02 0.  1.
       -2    1    3    3    0  502  0.75298514334E+02  0.10779520974E+04 -0.38854978591E+03  0.11483124691E+04  0.25500000920E-02 0. -1.
</event>
<event>
 5   0  0.6702421E-05  0.2269918E+04  0.7818609E-02  0.8489877E-01
        2   -1    0    0  501    0  0.00000000000E+00  0.00000000000E+00  0.14626357202E+04  0.14626357202E+04  0.25500000920E-02 0. -1.
       -2   -1    0    0    0  501  0.00000000000E+00  0.00000000000E+00 -0.88069257050E+03  0.88069257050E+03  0.25500000920E-02 0.  1.
    10030    2    1    2    0    0  0.00000000000E+00  0.00000000000E+00  0.58194314972E+03  0.23433282907E+04  0.22699184233E+04 0.  0.
        4    1    3    3  502    0  0.76789821368E+02  0.54742276601E+03 -0.73232840315E+03  0.91753739126E+03  0.12699999809E+01 0.  1.
       -4    1    3    3    0  502 -0.76789821368E+02 -0.54742276601E+03  0.13142715529E+04  0.14257908995E+04  0.12699999809E+01 0. -1.
</event>
<event>
 5   0  0.6495405E-05  0.2475520E+04  0.7818609E-02  0.8411759E-01
        2   -1    0    0  501    0  0.00000000000E+00  0.00000000000E+00  0.12277658345E+04  0.12277658345E+04  0.25500000920E-02 0.  1.
       -2   -1    0    0    0  501  0.00000000000E+00  0.00000000000E+00 -0.12478359165E+04  0.12478359165E+04  0.25500000920E-02 0. -1.
    10030    2    1    2    0    0  0.00000000000E+00  0.00000000000E+00 -0.20070081974E+02  0.24756017511E+04  0.24755203941E+04 0.  0.
        5    1    3    3  502    0 -0.25739155587E+03 -0.11127579303E+04  0.46700012293E+03  0.12339334785E+04  0.46999998093E+01 0. -1.
       -5    1    3    3    0  502  0.25739155587E+03  0.11127579303E+04 -0.48707020491E+03  0.12416682726E+04  0.46999998093E+01 0.  1.
</event>
<event>
 5   0  0.3118614E-05  0.2335583E+04  0.7818609E-02  0.8464022E-01
        1   -1    0    0  501    0  0.00000000000E+00  0.00000000000E+00  0.67239298809E+03  0.67239298811E+03  0.50400001928E-02 0. -1.
       -1   -1    0    0    0  501  0.00000000000E+00  0.00000000000E+00 -0.20281849402E+04  0.20281849402E+04  0.50400001928E-02 0.  1.
    10030    2    1    2    0    0  0.00000000000E+00  0.00000000000E+00 -0.13557919521E+04  0.27005779283E+04  0.23355832954E+04 0.  0.
        3    1    3    3  502    0 -0.23196625103E+03  0.42965594221E+03  0.54869647962E+03  0.73449329966E+03  0.10100000352E+00 0. -1.
       -3    1    3    3    0  502  0.23196625103E+03 -0.42965594221E+03 -0.19044884318E+04  0.19660846287E+04  0.10100000352E+00 0.  1.
</event>
<event>
 5   0  0.6495405E-05  0.2282991E+04  0.7818609E-02  0.8484658E-01
       -2   -1    0    0    0  501  0.00000000000E+00  0.00000000000E+00  0.12268334313E+04  0.12268334313E+04  0.25500000920E-02 0. -1.
        2   -1    0    0  501    0  0.00000000000E+00  0.00000000000E+00 -0.10620940576E+04  0.10620940576E+04  0.25500000920E-02 0.  1.
    10030    2    1    2    0    0  0.00000000000E+00  0.00000000000E+00  0.16473937376E+03  0.22889274889E+04  0.22829914560E+04 0.  0.
        5    1    3    3  502    0 -0.61728486890E+03  0.36414525958E+03 -0.80839299207E+03  0.10803535065E+04  0.46999998093E+01 0.  1.
       -5    1    3    3    0  502  0.61728486890E+03 -0.36414525958E+03  0.97313236583E+03  0.12085739824E+04  0.46999998093E+01 0. -1.
</event>
<event>
 5   0  0.2944089E-05  0.2303926E+04  0.7818609E-02  0.8476375E-01
       -1   -1    0    0    0  501  0.00000000000E+00  0.00000000000E+00  0.97811931367E+03  0.97811931369E+03  0.50400001928E-02 0.  1.
        1   -1    0    0  501    0  0.00000000000E+00  0.00000000000E+00 -0.13567039306E+04  0.13567039306E+04  0.50400001928E-02 0. -1.
    10030    2    1    2    0    0  0.00000000000E+00  0.00000000000E+00 -0.37858461688E+03  0.23348232443E+04  0.23039256216E+04 0.  0.
        5    1    3    3  502    0  0.82469398229E+03  0.74694676838E+03 -0.49153109773E+03  0.12164187393E+04  0.46999998093E+01 0. -1.
       -5    1    3    3    0  502 -0.82469398229E+03 -0.74694676838E+03  0.11294648085E+03  0.11184045050E+04  0.46999998093E+01 0.  1.
</event>
<event>
 5   0  0.6495405E-05  0.2289351E+04  0.7818609E-02  0.8482132E-01
        2   -1    0    0  501    0  0.00000000000E+00  0.00000000000E+00  0.16118208790E+04  0.16118208790E+04  0.25500000920E-02 0. -1.
       -2   -1    0    0    0  501  0.00000000000E+00  0.00000000000E+00 -0.81292004585E+03  0.81292004585E+03  0.25500000920E-02 0.  1.
    10030    2    1    2    0    0  0.00000000000E+00  0.00000000000E+00  0.79890083310E+03  0.24247409248E+04  0.22893505654E+04 0.  0.
        5    1    3    3  502    0 -0.67721090895E+02 -0.73957106793E+03 -0.52310050180E+03  0.90840945374E+03  0.46999998093E+01 0.  1.
       -5    1    3    3    0  502  0.67721090895E+02  0.73957106793E+03  0.13220013349E+04  0.15163314711E+04  0.46999998093E+01 0. -1.
</event>
<event>
 5   0  0.6676612E-05  0.2311098E+04  0.7818609E-02  0.8473558E-01
       -2   -1    0    0    0  501  0.00000000000E+00  0.00000000000E+00  0.71877297076E+03  0.71877297077E+03  0.25500000920E-02 0.  1.
        2   -1    0    0  501    0  0.00000000000E+00  0.00000000000E+00 -0.18577409822E+04  0.18577409822E+04  0.25500000920E-02 0. -1.
    10030    2    1    2    0    0  0.00000000000E+00  0.00000000000E+00 -0.11389680115E+04  0.25765139530E+04  0.23110984442E+04 0.  0.
        2    1    3    3  502    0  0.64835095172E+03  0.64364684122E+03 -0.13583128969E+04  0.16369649167E+04  0.25500000920E-02 0. -1.
       -2    1    3    3    0  502 -0.64835095172E+03 -0.64364684122E+03  0.21934488539E+03  0.93954903627E+03  0.25500000920E-02 0.  1.
</event>
<event>
 5   0  0.2962279E-05  0.2255210E+04  0.7818609E-02  0.8495793E-01
       -1   -1    0    0    0  501  0.00000000000E+00  0.00000000000E+00  0.88777068918E+03  0.88777068920E+03  0.50400001928E-02 0.  1.
        1   -1    0    0  501    0  0.00000000000E+00  0.00000000000E+00 -0.14322315958E+04  0.14322315958E+04  0.50400001928E-02 0. -1.
    10030    2    1    2    0    0  0.00000000000E+00  0.00000000000E+00 -0.54446090657E+03  0.23200022850E+04  0.22552101728E+04 0.  0.
        1    1    3    3  502    0  0.10536632346E+03 -0.98568049958E+03  0.28063426152E+03  0.10302541910E+04  0.50400001928E-02 0.  1.
       -1    1    3    3    0  502 -0.10536632346E+03  0.98568049958E+03 -0.82509516809E+03  0.12897480939E+04  0.50400001928E-02 0. -1.
</event>
<event>
 5   0  0.3118614E-05  0.2309424E+04  0.7818609E-02  0.8474215E-01
       -1   -1    0    0    0  501  0.00000000000E+00  0.00000000000E+00  0.19342119836E+04  0.19342119836E+04  0.50400001928E-02 0.  1.
        1   -1    0    0  501    0  0.00000000000E+00  0.00000000000E+00 -0.68935563034E+03  0.68935563036E+03  0.50400001928E-02 0. -1.
    10030    2    1    2    0    0  0.00000000000E+00  0.00000000000E+00  0.12448563533E+04  0.26235676140E+04  0.23094241024E+04 0.  0.
        3    1    3    3  502    0  0.11043372869E+04 -0.25044938361E+02  0.24025718855E+03  0.11304475304E+04  0.10100000352E+00 0.  1.
       -3    1    3    3    0  502 -0.11043372869E+04  0.25044938361E+02  0.10045991647E+04  0.14931200836E+04  0.10100000352E+00 0. -1.
</event>
<event>
 5   0  0.6702421E-05  0.2311241E+04  0.7818609E-02  0.8473502E-01
        2   -1    0    0  501    0  0.00000000000E+00  0.00000000000E+00  0.17280121058E+04  0.17280121058E+04  0.25500000920E-02 0.  1.
       -2   -1    0    0    0  501  0.00000000000E+00  0.00000000000E+00 -0.77282982849E+03  0.77282982850E+03  0.25500000920E-02 0. -1.
    10030    2    1    2    0    0  0.00000000000E+00  0.00000000000E+00  0.95518227734E+03  0.25008419343E+04  0.23112414840E+04 0.  0.
        4    1    3    3  502    0  0.68025455583E+02 -0.93786568316E+03  0.12044395416E+04  0.15280365587E+04  0.12699999809E+01 0.  1.
       -4    1    3    3    0  502 -0.68025455583E+02  0.93786568316E+03 -0.24925726428E+03  0.97280537568E+03  0.12699999809E+01 0. -1.
</event>
<event>
 5   0  0.6702421E-05  0.2300262E+04  0.7818609E-02  0.8477818E-01
        2   -1    0    0  501    0  0.00000000000E+00  0.00000000000E+00  0.12305498508E+04  0.12305498508E+04  0.25500000920E-02 0.  1.
       -2   -1    0    0    0  501  0.00000000000E+00  0.00000000000E+00 -0.10749678171E+04  0.10749678171E+04  0.25500000920E-02 0. -1.
    10030    2    1    2    0    0  0.00000000000E+00  0.00000000000E+00  0.15558203368E+03  0.23055176679E+04  0.23002621477E+04 0.  0.
        4    1    3    3  502    0 -0.44525971406E+03 -0.47851480343E+03 -0.87071528817E+03  0.10887512829E+04  0.12699999809E+01 0. -1.
       -4    1    3    3    0  502  0.44525971406E+03  0.47851480343E+03  0.10262973218E+04  0.12167663850E+04  0.12699999809E+01 0.  1.
</event>
<event>
 5   0  0.6814789E-05  0.2278826E+04  0.7818609E-02  0.8486317E-01
        2   -1    0    0  501    0  0.00000000000E+00  0.00000000000E+00  0.10971453901E+04  0.10971453901E+04  0.25500000920E-02 0. -1.
       -2   -1    0    0    0  501  0.00000000000E+00  0.00000000000E+00 -0.11833091085E+04  0.11833091085E+04  0.25500000920E-02 0.  1.
    10030    2    1    2    0    0  0.00000000000E+00  0.00000000000E+00 -0.86163718371E+02  0.22804544986E+04  0.22788261307E+04 0.  0.
        1    1    3    3  502    0 -0.90636481543E+03  0.27777605525E+02  0.64733385492E+03  0.11141408770E+04  0.50400001928E-02 0. -1.
       -1    1    3    3    0  502  0.90636481543E+03 -0.27777605525E+02 -0.73349757329E+03  0.11663136217E+04  0.50400001928E-02 0.  1.
</event>
<event>
 5   0  0.6495405E-05  0.2015850E+04  0.7818609E-02  0.8599246E-01
       -2   -1    0    0    0  501  0.00000000000E+00  0.00000000000E+00  0.56484143299E+03  0.56484143300E+03  0.25500000920E-02 0.  1.
        2   -1    0    0  501    0  0.00000000000E+00  0.00000000000E+00 -0.17985811819E+04  0.17985811819E+04  0.25500000920E-02 0. -1.
    10030    2    1    2    0    0  0.00000000000E+00  0.00000000000E+00 -0.12337397489E+04  0.23634226149E+04  0.20158503636E+04 0.  0.
        5    1    3    3  502    0 -0.20171031163E+03  0.73699794621E+03  0.15375690888E+03  0.77943331951E+03  0.46999998093E+01 0.  1.
       -5    1    3    3    0  502  0.20171031163E+03 -0.73699794621E+03 -0.13874966578E+04  0.15839892954E+04  0.46999998093E+01 0. -1.
</event>
<event>
 5   0  0.3118614E-05  0.2248228E+04  0.7818609E-02  0.8498619E-01
        1   -1    0    0  501    0  0.00000000000E+00  0.00000000000E+00  0.20419931739E+04  0.20419931739E+04  0.50400001928E-02 0. -1.
       -1   -1    0    0    0  501  0.00000000000E+00  0.00000000000E+00 -0.61882275949E+03  0.61882275951E+03  0.50400001928E-02 0.  1.
    10030    2    1    2    0    0  0.00000000000E+00  0.00000000000E+00  0.14231704144E+04  0.26608159334E+04  0.22482276137E+04 0.  0.
        3    1    3    3  502    0 -0.55636389649E+03  0.91616758363E+03  0.31070991213E+03  0.11159948415E+04  0.10100000352E+00 0. -1.
       -3    1    3    3    0  502  0.55636389649E+03 -0.91616758363E+03  0.11124605023E+04  0.15448210919E+04  0.10100000352E+00 0.  1.
</event>
<event>
 5   0  0.2962279E-05  0.2157751E+04  0.7818609E-02  0.8536222E-01
       -1   -1    0    0    0  501  0.00000000000E+00  0.00000000000E+00  0.11542410998E+04  0.11542410998E+04  0.50400001928E-02 0.  1.
        1   -1    0    0  501    0  0.00000000000E+00  0.00000000000E+00 -0.10084309924E+04  0.10084309924E+04  0.50400001928E-02 0. -1.
    10030    2    1    2    0    0  0.00000000000E+00  0.00000000000E+00  0.14581010742E+03  0.21626720922E+04  0.21577511421E+04 0.  0.
        1    1    3    3  502    0 -0.70830934553E+03 -0.60119778632E+03  0.62263708246E+03  0.11183996798E+04  0.50400001928E-02 0.  1.
       -1    1    3    3    0  502  0.70830934553E+03  0.60119778632E+03 -0.47682697504E+03  0.10442724124E+04  0.50400001928E-02 0. -1.
</event>
<event>
 5   0  0.6676612E-05  0.2260542E+04  0.7818609E-02  0.8493643E-01
       -2   -1    0    0    0  501  0.00000000000E+00  0.00000000000E+00  0.21988973492E+04  0.21988973492E+04  0.25500000920E-02 0. -1.
        2   -1    0    0  501    0  0.00000000000E+00  0.00000000000E+00 -0.58097857384E+03  0.58097857385E+03  0.25500000920E-02 0.  1.
    10030    2    1    2    0    0  0.00000000000E+00  0.00000000000E+00  0.16179187753E+04  0.27798759230E+04  0.22605417456E+04 0.  0.
        2    1    3    3  502    0  0.35497329976E+03  0.10653591120E+04  0.96699955682E+03  0.14819191017E+04  0.25500000920E-02 0.  1.
       -2    1    3    3    0  502 -0.35497329976E+03 -0.10653591120E+04  0.65091921849E+03  0.12979568213E+04  0.25500000920E-02 0. -1.
</event>
<event>
 5   0  0.2944089E-05  0.2294809E+04  0.7818609E-02  0.8479971E-01
       -1   -1    0    0    0  501  0.00000000000E+00  0.00000000000E+00  0.78981580675E+03  0.78981580676E+03  0.50400001928E-02 0. -1.
        1   -1    0    0  501    0  0.00000000000E+00  0.00000000000E+00 -0.16668907471E+04  0.16668907471E+04  0.50400001928E-02 0.  1.
    10030    2    1    2    0    0  0.00000000000E+00  0.00000000000E+00 -0.87707494035E+03  0.24567065539E+04  0.22948086284E+04 0.  0.
        5    1    3    3  502    0  0.42371858927E+03 -0.89161154876E+03 -0.10646085690E+04  0.14518684830E+04  0.46999998093E+01 0.  1.
       -5    1    3    3    0  502 -0.42371858927E+03  0.89161154876E+03  0.18753362865E+03  0.10048380709E+04  0.46999998093E+01 0. -1.
</event>
<event>
 5   0  0.2962279E-05  0.2321760E+04  0.7818609E-02  0.8469391E-01
       -1   -1    0    0    0  501  0.00000000000E+00  0.00000000000E+00  0.77441393942E+03  0.77441393944E+03  0.50400001928E-02 0. -1.
        1   -1    0    0  501    0  0.00000000000E+00  0.00000000000E+00 -0.17402093098E+04  0.17402093098E+04  0.50400001928E-02 0.  1.
    10030    2    1    2    0    0  0.00000000000E+00  0.00000000000E+00 -0.96579537034E+03  0.25146232492E+04  0.23217599764E+04 0.  0.
        1    1    3    3  502    0 -0.59343226126E+03  0.11519730521E+03  0.59049294372E+03  0.84505277021E+03  0.50400001928E-02 0. -1.
       -1    1    3    3    0  502  0.59343226126E+03 -0.11519730521E+03 -0.15562883141E+04  0.16695704790E+04  0.50400001928E-02 0.  1.
</event>
<event>
 5   0  0.3006265E-05  0.2244194E+04  0.7818609E-02  0.8500256E-01
       -1   -1    0    0    0  501  0.00000000000E+00  0.00000000000E+00  0.44232055012E+03  0.44232055015E+03  0.50400001928E-02 0.  1.
        1   -1    0    0  501    0  0.00000000000E+00  0.00000000000E+00 -0.28465807579E+04  0.28465807579E+04  0.50400001928E-02 0. -1.
    10030    2    1    2    0    0  0.00000000000E+00  0.00000000000E+00 -0.24042602078E+04  0.32889013081E+04  0.22441935450E+04 0.  0.
        2    1    3    3  502    0 -0.33853325700E+03  0.28869325739E+03  0.30753096193E+03  0.54085474530E+03  0.25500000920E-02 0.  1.
       -2    1    3    3    0  502  0.33853325700E+03 -0.28869325739E+03 -0.27117911697E+04  0.27480465628E+04  0.25500000920E-02 0. -1.
</event>
<event>
 5   0  0.6676612E-05  0.2349355E+04  0.7818609E-02  0.8458711E-01
       -2   -1    0    0    0  501  0.00000000000E+00  0.00000000000E+00  0.52977329235E+03  0.52977329235E+03  0.25500000920E-02 0.  1.
        2   -1    0    0  501    0  0.00000000000E+00  0.00000000000E+00 -0.26046379489E+04  0.26046379489E+04  0.25500000920E-02 0. -1.
    10030    2    1    2    0    0  0.00000000000E+00  0.00000000000E+00 -0.20748646565E+04  0.31344112412E+04  0.23493553342E+04 0.  0.
        2    1    3    3  502    0 -0.77839719968E+03 -0.22288341741E+03 -0.21728693075E+04  0.23188230303E+04  0.25500000920E-02 0. -1.
       -2    1    3    3    0  502  0.77839719968E+03  0.22288341741E+03  0.98004650979E+02  0.81558821095E+03  0.25500000920E-02 0.  1.
</event>
<event>
 5   0  0.6468758E-05  0.2294276E+04  0.7818609E-02  0.8480181E-01
        2   -1    0    0  501    0  0.00000000000E+00  0.00000000000E+00  0.15787608893E+04  0.15787608893E+04  0.25500000920E-02 0. -1.
       -2   -1    0    0    0  501  0.00000000000E+00  0.00000000000E+00 -0.83351818790E+03  0.83351818790E+03  0.25500000920E-02 0.  1.
    10030    2    1    2    0    0  0.00000000000E+00  0.00000000000E+00  0.74524270136E+03  0.24122790772E+04  0.22942762829E+04 0.  0.
        3    1    3    3  502    0  0.67381342918E+03 -0.21180033607E+03 -0.57777338395E+03  0.91252726705E+03  0.10100000352E+00 0.  1.
       -3    1    3    3    0  502 -0.67381342918E+03  0.21180033607E+03  0.13230160853E+04  0.14997518101E+04  0.10100000352E+00 0. -1.
</event>
<event>
 5   0  0.2944089E-05  0.2211768E+04  0.7818609E-02  0.8513546E-01
        1   -1    0    0  501    0  0.00000000000E+00  0.00000000000E+00  0.12338920829E+04  0.12338920829E+04  0.50400001928E-02 0. -1.
       -1   -1    0    0    0  501  0.00000000000E+00  0.00000000000E+00 -0.99115614621E+03  0.99115614622E+03  0.50400001928E-02 0.  1.
    10030    2    1    2    0    0  0.00000000000E+00  0.00000000000E+00  0.24273593669E+03  0.22250482291E+04  0.22117682715E+04 0.  0.
        5    1    3    3  502    0 -0.11046192855E+04  0.47567228941E+02  0.98621934545E+02  0.11100426943E+04  0.46999998093E+01 0. -1.
       -5    1    3    3    0  502  0.11046192855E+04 -0.47567228941E+02  0.14411400215E+03  0.11150055349E+04  0.46999998093E+01 0.  1.
</event>
<event>
 5   0  0.2962279E-05  0.2333318E+04  0.7818609E-02  0.8464899E-01
        1   -1    0    0  501    0  0.00000000000E+00  0.00000000000E+00  0.30005697532E+04  0.30005697533E+04  0.50400001928E-02 0.  1.
       -1   -1    0    0    0  501  0.00000000000E+00  0.00000000000E+00 -0.45361143176E+03  0.45361143179E+03  0.50400001928E-02 0. -1.
    10030    2    1    2    0    0  0.00000000000E+00  0.00000000000E+00  0.25469583215E+04  0.34541811850E+04  0.23333175883E+04 0.  0.
        1    1    3    3  502    0 -0.44176687099E+03 -0.43601753469E+03 -0.18888956984E+03  0.64880546274E+03  0.50400001928E-02 0. -1.
       -1    1    3    3    0  502  0.44176687099E+03  0.43601753469E+03  0.27358478913E+04  0.28053757223E+04  0.50400001928E-02 0.  1.
</event>
<event>
 5   0  0.3118614E-05  0.2326650E+04  0.7818609E-02  0.8467487E-01
        1   -1    0    0  501    0  0.00000000000E+00  0.00000000000E+00  0.19234411811E+04  0.19234411811E+04  0.50400001928E-02 0. -1.
       -1   -1    0    0    0  501  0.00000000000E+00  0.00000000000E+00 -0.70359602893E+03  0.70359602895E+03  0.50400001928E-02 0.  1.
    10030    2    1    2    0    0  0.00000000000E+00  0.00000000000E+00  0.12198451521E+04  0.26270372100E+04  0.23266504481E+04 0.  0.
        3    1    3    3  502    0  0.38888538700E+03  0.66337608084E+03  0.15955662739E+04  0.17711949112E+04  0.10100000352E+00 0. -1.
       -3    1    3    3    0  502 -0.38888538700E+03 -0.66337608084E+03 -0.37572112179E+03  0.85584229880E+03  0.10100000352E+00 0.  1.
</event>
<event>
 5   0  0.6495405E-05  0.2281559E+04  0.7818609E-02  0.8485228E-01
        2   -1    0    0  501    0  0.00000000000E+00  0.00000000000E+00  0.23822036538E+04  0.23822036538E+04  0.25500000920E-02 0. -1.
       -2   -1    0    0    0  501  0.00000000000E+00  0.00000000000E+00 -0.54629155480E+03  0.54629155481E+03  0.25500000920E-02 0.  1.
    10030    2    1    2    0    0  0.00000000000E+00  0.00000000000E+00  0.18359120990E+04  0.29284952086E+04  0.22815588863E+04 0.  0.
        5    1    3    3  502    0  0.64288673713E+02  0.45582020582E+03 -0.42177183798E+03  0.62435460030E+03  0.46999998093E+01 0.  1.
       -5    1    3    3    0  502 -0.64288673713E+02 -0.45582020582E+03  0.22576839370E+04  0.23041406083E+04  0.46999998093E+01 0. -1.
</event>
<event>
 5   0  0.2342500E-05  0.2252537E+04  0.7818609E-02  0.8496874E-01
       -3   -1    0    0    0  501  0.00000000000E+00  0.00000000000E+00  0.13624077680E+04  0.13624077717E+04  0.10100000352E+00 0.  1.
        3   -1    0    0  501    0  0.00000000000E+00  0.00000000000E+00 -0.93105785270E+03  0.93105785818E+03  0.10100000352E+00 0. -1.
    10030    2    1    2    0    0  0.00000000000E+00  0.00000000000E+00  0.43134991530E+03  0.22934656299E+04  0.22525367580E+04 0.  0.
        1    1    3    3  502    0 -0.11332588065E+03  0.28136864489E+03 -0.88868503642E+03  0.93902724324E+03  0.50400001928E-02 0. -1.
       -1    1    3    3    0  502  0.11332588065E+03 -0.28136864489E+03  0.13200349517E+04  0.13544383867E+04  0.50400001928E-02 0.  1.
</event>
<event>
 5   0  0.6676612E-05  0.2297976E+04  0.7818609E-02  0.8478720E-01
        2   -1    0    0  501    0  0.00000000000E+00  0.00000000000E+00  0.12747897121E+04  0.12747897121E+04  0.25500000920E-02 0. -1.
       -2   -1    0    0    0  501  0.00000000000E+00  0.00000000000E+00 -0.10356005181E+04  0.10356005181E+04  0.25500000920E-02 0.  1.
    10030    2    1    2    0    0  0.00000000000E+00  0.00000000000E+00  0.23918919401E+03  0.23103902301E+04  0.22979755319E+04 0.  0.
        2    1    3    3  502    0 -0.59212297831E+03 -0.91301770036E+03  0.49031682069E+03  0.11935751033E+04  0.25500000920E-02 0. -1.
       -2    1    3    3    0  502  0.59212297831E+03  0.91301770036E+03 -0.25112762668E+03  0.11168151268E+04  0.25500000920E-02 0.  1.
</event>
<event>
 5   0  0.6676612E-05  0.2179240E+04  0.7818609E-02  0.8527119E-01
       -2   -1    0    0    0  501  0.00000000000E+00  0.00000000000E+00  0.13684000768E+04  0.13684000768E+04  0.25500000920E-02 0. -1.
        2   -1    0    0  501    0  0.00000000000E+00  0.00000000000E+00 -0.86763463542E+03  0.86763463543E+03  0.25500000920E-02 0.  1.
    10030    2    1    2    0    0  0.00000000000E+00  0.00000000000E+00  0.50076544134E+03  0.22360347122E+04  0.21792395937E+04 0.  0.
        2    1    3    3  502    0 -0.41631717424E+03  0.54741177542E+03  0.11175669082E+04  0.13122253753E+04  0.25500000920E-02 0. -1.
       -2    1    3    3    0  502  0.41631717424E+03 -0.54741177542E+03 -0.61680146681E+03  0.92380933687E+03  0.25500000920E-02 0.  1.
</event>
<event>
 5   0  0.6495405E-05  0.2186634E+04  0.7818609E-02  0.8524012E-01
        2   -1    0    0  501    0  0.00000000000E+00  0.00000000000E+00  0.17419066256E+04  0.17419066256E+04  0.25500000920E-02 0.  1.
       -2   -1    0    0    0  501  0.00000000000E+00  0.00000000000E+00 -0.68622645994E+03  0.68622645994E+03  0.25500000920E-02 0. -1.
    10030    2    1    2    0    0  0.00000000000E+00  0.00000000000E+00  0.10556801656E+04  0.24281330855E+04  0.21866343245E+04 0.  0.
        5    1    3    3  502    0 -0.51844658003E+03  0.89513068479E+03  0.13480826217E+03  0.10431879777E+04  0.46999998093E+01 0. -1.
       -5    1    3    3    0  502  0.51844658003E+03 -0.89513068479E+03  0.92087190348E+03  0.13849451079E+04  0.46999998093E+01 0.  1.
</event>
<event>
 5   0  0.6814789E-05  0.2172328E+04  0.7818609E-02  0.8530035E-01
       -2   -1    0    0    0  501  0.00000000000E+00  0.00000000000E+00  0.14329262675E+04  0.14329262675E+04  0.25500000920E-02 0.  1.
        2   -1    0    0  501    0  0.00000000000E+00  0.00000000000E+00 -0.82331658713E+03  0.82331658713E+03  0.25500000920E-02 0. -1.
    10030    2    1    2    0    0  0.00000000000E+00  0.00000000000E+00  0.60960968040E+03  0.22562428547E+04  0.21723277508E+04 0.  0.
        1    1    3    3  502    0 -0.35963710366E+03  0.63016093556E+03  0.11443039707E+04  0.13549439946E+04  0.50400001928E-02 0.  1.
       -1    1    3    3    0  502  0.35963710366E+03 -0.63016093556E+03 -0.53469429033E+03  0.90129886007E+03  0.50400001928E-02 0. -1.
</event>
<event>
 5   0  0.6676612E-05  0.2206561E+04  0.7818609E-02  0.8515702E-01
       -2   -1    0    0    0  501  0.00000000000E+00  0.00000000000E+00  0.89384045661E+03  0.89384045661E+03  0.25500000920E-02 0.  1.
        2   -1    0    0  501    0  0.00000000000E+00  0.00000000000E+00 -0.13617952833E+04  0.13617952833E+04  0.25500000920E-02 0. -1.
    10030    2    1    2    0    0  0.00000000000E+00  0.00000000000E+00 -0.46795482672E+03  0.22556357399E+04  0.22065608696E+04 0.  0.
        2    1    3    3  502    0 -0.57595612247E+03 -0.65755097901E+03 -0.92209708081E+03  0.12705753702E+04  0.25500000920E-02 0. -1.
       -2    1    3    3    0  502  0.57595612247E+03  0.65755097901E+03  0.45414225409E+03  0.98506036971E+03  0.25500000920E-02 0.  1.
</event>
<event>
 5   0  0.6814789E-05  0.2284477E+04  0.7818609E-02  0.8484067E-01
        2   -1    0    0  501    0  0.00000000000E+00  0.00000000000E+00  0.41089820512E+03  0.41089820513E+03  0.25500000920E-02 0. -1.
       -2   -1    0    0    0  501  0.00000000000E+00  0.00000000000E+00 -0.31752606001E+04  0.31752606001E+04  0.25500000920E-02 0.  1.
    10030    2    1    2    0    0  0.00000000000E+00  0.00000000000E+00 -0.27643623950E+04  0.35861588052E+04  0.22844770792E+04 0.  0.
        1    1    3    3  502    0 -0.12857064639E+03 -0.56352398926E+03  0.16438013538E+03  0.60092472617E+03  0.50400001928E-02 0. -1.
       -1    1    3    3    0  502  0.12857064639E+03  0.56352398926E+03 -0.29287425303E+04  0.29852340790E+04  0.50400001928E-02 0.  1.
</event>
<event>
 5   0  0.2982385E-05  0.2319551E+04  0.7818609E-02  0.8470252E-01
       -1   -1    0    0    0  501  0.00000000000E+00  0.00000000000E+00  0.91257011568E+03  0.91257011569E+03  0.50400001928E-02 0. -1.
        1   -1    0    0  501    0  0.00000000000E+00  0.00000000000E+00 -0.14739461761E+04  0.14739461761E+04  0.50400001928E-02 0.  1.
    10030    2    1    2    0    0  0.00000000000E+00  0.00000000000E+00 -0.56137606043E+03  0.23865162918E+04  0.23195510190E+04 0.  0.
        4    1    3    3  502    0 -0.10674651516E+04  0.43081193798E+03 -0.42618072941E+03  0.12274821395E+04  0.12699999809E+01 0.  1.
       -4    1    3    3    0  502  0.10674651516E+04 -0.43081193798E+03 -0.13519533102E+03  0.11590341523E+04  0.12699999809E+01 0. -1.
</event>
<event>
 5   0  0.2982385E-05  0.2298164E+04  0.7818609E-02  0.8478645E-01
       -1   -1    0    0    0  501  0.00000000000E+00  0.00000000000E+00  0.84843113519E+03  0.84843113521E+03  0.50400001928E-02 0. -1.
        1   -1    0    0  501    0  0.00000000000E+00  0.00000000000E+00 -0.15562720802E+04  0.15562720802E+04  0.50400001928E-02 0.  1.
    10030    2    1    2    0    0  0.00000000000E+00  0.00000000000E+00 -0.70784094503E+03  0.24047032154E+04  0.22981642132E+04 0.  0.
        4    1    3    3  502    0  0.18309210633E+03 -0.61525795150E+03 -0.13511625257E+04  0.14958966709E+04  0.12699999809E+01 0.  1.
       -4    1    3    3    0  502 -0.18309210633E+03  0.61525795150E+03  0.64332158068E+03  0.90880654451E+03  0.12699999809E+01 0. -1.
</event>
<event>
 5   0  0.2982385E-05  0.1919573E+04  0.7818609E-02  0.8645175E-01
        1   -1    0    0  501    0  0.00000000000E+00  0.00000000000E+00  0.10129145182E+04  0.10129145182E+04  0.50400001928E-02 0. -1.
       -1   -1    0    0    0  501  0.00000000000E+00  0.00000000000E+00 -0.90944512285E+03  0.90944512286E+03  0.50400001928E-02 0.  1.
    10030    2    1    2    0    0  0.00000000000E+00  0.00000000000E+00  0.10346939533E+03  0.19223596411E+04  0.19195730447E+04 0.  0.
        4    1    3    3  502    0  0.80542636641E+03 -0.51933267543E+03  0.10444660942E+03  0.96401699497E+03  0.12699999809E+01 0.  1.
       -4    1    3    3    0  502 -0.80542636641E+03  0.51933267543E+03 -0.97721408771E+00  0.95834264609E+03  0.12699999809E+01 0. -1.
</event>
<event>
 5   0  0.6702421E-05  0.2215249E+04  0.7818609E-02  0.8512108E-01
        2   -1    0    0  501    0  0.00000000000E+00  0.00000000000E+00  0.10933553004E+04  0.10933553004E+04  0.25500000920E-02 0.  1.
       -2   -1    0    0    0  501  0.00000000000E+00  0.00000000000E+00 -0.11220803959E+04  0.11220803959E+04  0.25500000920E-02 0. -1.
    10030    2    1    2    0    0  0.00000000000E+00  0.00000000000E+00 -0.28725095425E+02  0.22154356963E+04  0.22152494653E+04 0.  0.
        4    1    3    3  502    0  0.62620014960E+03 -0.91036091214E+03  0.62762790103E+02  0.11067178495E+04  0.12699999809E+01 0.  1.
       -4    1    3    3    0  502 -0.62620014960E+03  0.91036091214E+03 -0.91487885529E+02  0.11087178468E+04  0.12699999809E+01 0. -1.
</event>
<event>
 5   0  0.2944089E-05  0.2231599E+04  0.7818609E-02  0.8505390E-01
       -1   -1    0    0    0  501  0.00000000000E+00  0.00000000000E+00  0.94159801066E+03  0.94159801067E+03  0.50400001928E-02 0. -1.
        1   -1    0    0  501    0  0.00000000000E+00  0.00000000000E+00 -0.13222298045E+04  0.13222298045E+04  0.50400001928E-02 0.  1.
    10030    2    1    2    0    0  0.00000000000E+00  0.00000000000E+00 -0.38063179388E+03  0.22638278152E+04  0.22315993848E+04 0.  0.
        5    1    3    3  502    0 -0.25431234170E+03  0.96345117392E+03 -0.69963636152E+03  0.12175492023E+04  0.46999998093E+01 0.  1.
       -5    1    3    3    0  502  0.25431234170E+03 -0.96345117392E+03  0.31900456764E+03  0.10462786129E+04  0.46999998093E+01 0. -1.
</event>
<event>
 5   0  0.3006265E-05  0.2290694E+04  0.7818609E-02  0.8481599E-01
       -1   -1    0    0    0  501  0.00000000000E+00  0.00000000000E+00  0.17255436173E+04  0.17255436173E+04  0.50400001928E-02 0.  1.
        1   -1    0    0  501    0  0.00000000000E+00  0.00000000000E+00 -0.76023579250E+03  0.76023579252E+03  0.50400001928E-02 0. -1.
    10030    2    1    2    0    0  0.00000000000E+00  0.00000000000E+00  0.96530782479E+03  0.24857794098E+04  0.22906942349E+04 0.  0.
        2    1    3    3  502    0  0.51167839286E+03  0.86073764307E+03 -0.12069734347E+03  0.10085890722E+04  0.25500000920E-02 0. -1.
       -2    1    3    3    0  502 -0.51167839286E+03 -0.86073764307E+03  0.10860051683E+04  0.14771903376E+04  0.25500000920E-02 0.  1.
</event>
<event>
 5   0  0.2982385E-05  0.2302551E+04  0.7818609E-02  0.8476916E-01
       -1   -1    0    0    0  501  0.00000000000E+00  0.00000000000E+00  0.10290109526E+04  0.10290109527E+04  0.50400001928E-02 0. -1.
        1   -1    0    0  501    0  0.00000000000E+00  0.00000000000E+00 -0.12880672880E+04  0.12880672881E+04  0.50400001928E-02 0.  1.
    10030    2    1    2    0    0  0.00000000000E+00  0.00000000000E+00 -0.25905633540E+03  0.23170782407E+04  0.23025510610E+04 0.  0.
        4    1    3    3  502    0 -0.36659331691E+03 -0.92369385689E+03 -0.71442907132E+03  0.12239328054E+04  0.12699999809E+01 0.  1.
       -4    1    3    3    0  502  0.36659331691E+03  0.92369385689E+03  0.45537273592E+03  0.10931454353E+04  0.12699999809E+01 0. -1.
</event>
<event>
 5   0  0.2982385E-05  0.2281135E+04  0.7818609E-02  0.8485397E-01
        1   -1    0    0  501    0  0.00000000000E+00  0.00000000000E+00  0.15868235172E+04  0.15868235172E+04  0.50400001928E-02 0. -1.
       -1   -1    0    0    0  501  0.00000000000E+00  0.00000000000E+00 -0.81980994147E+03  0.81980994149E+03  0.50400001928E-02 0.  1.
    10030    2    1    2    0    0  0.00000000000E+00  0.00000000000E+00  0.76701357569E+03  0.24066334587E+04  0.22811345377E+04 0.  0.
        4    1    3    3  502    0  0.11213987931E+04  0.16332619525E+03  0.51976888588E+03  0.12467445636E+04  0.12699999809E+01 0.  1.
       -4    1    3    3    0  502 -0.11213987931E+04 -0.16332619525E+03  0.24724468980E+03  0.11598888950E+04  0.12699999809E+01 0. -1.
</event>
<event>
 5   0  0.6468758E-05  0.2308175E+04  0.7818609E-02  0.8474705E-01
        2   -1    0    0  501    0  0.00000000000E+00  0.00000000000E+00  0.19643901549E+04  0.19643901549E+04  0.25500000920E-02 0. -1.
       -2   -1    0    0    0  501  0.00000000000E+00  0.00000000000E+00 -0.67803111978E+03  0.67803111979E+03  0.25500000920E-02 0.  1.
    10030    2    1    2    0    0  0.00000000000E+00  0.00000000000E+00  0.12863590351E+04  0.26424212746E+04  0.23081747390E+04 0.  0.
        3    1    3    3  502    0  0.21336454535E+03 -0.20493049332E+03 -0.63388488884E+03  0.69952197879E+03  0.10100000352E+00 0.  1.
       -3    1    3    3    0  502 -0.21336454535E+03  0.20493049332E+03  0.19202439239E+04  0.19428992959E+04  0.10100000352E+00 0. -1.
</event>
<event>
 5   0  0.3006265E-05  0.2314137E+04  0.7818609E-02  0.8472368E-01
        1   -1    0    0  501    0  0.00000000000E+00  0.00000000000E+00  0.59143528636E+03  0.59143528638E+03  0.50400001928E-02 0. -1.
       -1   -1    0    0    0  501  0.00000000000E+00  0.00000000000E+00 -0.22636582648E+04  0.22636582648E+04  0.50400001928E-02 0.  1.
    10030    2    1    2    0    0  0.00000000000E+00  0.00000000000E+00 -0.16722229785E+04  0.28550935512E+04  0.23141368794E+04 0.  0.
        2    1    3    3  502    0  0.78718591985E+03 -0.47961610490E+03  0.26740665651E+02  0.92217587461E+03  0.25500000920E-02 0. -1.
       -2    1    3    3    0  502 -0.78718591985E+03  0.47961610490E+03 -0.16989636441E+04  0.19329176766E+04  0.25500000920E-02 0.  1.
</event>
<event>
 5   0  0.6468758E-05  0.2334211E+04  0.7818609E-02  0.8464553E-01
       -2   -1    0    0    0  501  0.00000000000E+00  0.00000000000E+00  0.10566975347E+04  0.10566975347E+04  0.25500000920E-02 0.  1.
        2   -1    0    0  501    0  0.00000000000E+00  0.00000000000E+00 -0.12890492307E+04  0.12890492307E+04  0.25500000920E-02 0. -1.
    10030    2    1    2    0    0  0.00000000000E+00  0.00000000000E+00 -0.23235169605E+03  0.23457467654E+04  0.23342109109E+04 0.  0.
        3    1    3    3  502    0  0.47334612220E+03  0.25124267410E+03  0.92574880755E+03  0.10696683119E+04  0.10100000352E+00 0.  1.
       -3    1    3    3    0  502 -0.47334612220E+03 -0.25124267410E+03 -0.11581005036E+04  0.12760784534E+04  0.10100000352E+00 0. -1.
</event>
<event>
 5   0  0.2944089E-05  0.2277102E+04  0.7818609E-02  0.8487005E-01
        1   -1    0    0  501    0  0.00000000000E+00  0.00000000000E+00  0.15816025621E+04  0.15816025621E+04  0.50400001928E-02 0.  1.
       -1   -1    0    0    0  501  0.00000000000E+00  0.00000000000E+00 -0.81961040042E+03  0.81961040043E+03  0.50400001928E-02 0. -1.
    10030    2    1    2    0    0  0.00000000000E+00  0.00000000000E+00  0.76199216164E+03  0.24012129625E+04  0.22771015869E+04 0.  0.
        5    1    3    3  502    0 -0.28418931816E+03 -0.84408911301E+03 -0.36690371048E+03  0.96327068990E+03  0.46999998093E+01 0. -1.
       -5    1    3    3    0  502  0.28418931816E+03  0.84408911301E+03  0.11288958721E+04  0.14379422726E+04  0.46999998093E+01 0.  1.
</event>
<event>
 5   0  0.6468758E-05  0.2230623E+04  0.7818609E-02  0.8505789E-01
       -2   -1    0    0    0  501  0.00000000000E+00  0.00000000000E+00  0.14239933676E+04  0.14239933676E+04  0.25500000920E-02 0. -1.
        2   -1    0    0  501    0  0.00000000000E+00  0.00000000000E+00 -0.87354305064E+03  0.87354305064E+03  0.25500000920E-02 0.  1.
    10030    2    1    2    0    0  0.00000000000E+00  0.00000000000E+00  0.55045031697E+03  0.22975364183E+04  0.22306227923E+04 0.  0.
        3    1    3    3  502    0 -0.26534742050E+03 -0.87097855447E+02 -0.83694548878E+03  0.88231119872E+03  0.10100000352E+00 0.  1.
       -3    1    3    3    0  502  0.26534742050E+03  0.87097855447E+02  0.13873958058E+04  0.14152252195E+04  0.10100000352E+00 0. -1.
</event>
<event>
 5   0  0.3118614E-05  0.2306084E+04  0.7818609E-02  0.8475526E-01
       -1   -1    0    0    0  501  0.00000000000E+00  0.00000000000E+00  0.15319184086E+04  0.15319184086E+04  0.50400001928E-02 0.  1.
        1   -1    0    0  501    0  0.00000000000E+00  0.00000000000E+00 -0.86786998455E+03  0.86786998456E+03  0.50400001928E-02 0. -1.
    10030    2    1    2    0    0  0.00000000000E+00  0.00000000000E+00  0.66404842405E+03  0.23997883932E+04  0.23060841317E+04 0.  0.
        3    1    3    3  502    0  0.10678195424E+04 -0.82691861790E+02 -0.11244870861E+03  0.10769035432E+04  0.10100000352E+00 0. -1.
       -3    1    3    3    0  502 -0.10678195424E+04  0.82691861790E+02  0.77649713267E+03  0.13228848500E+04  0.10100000352E+00 0.  1.
</event>
<event>
 5   0  0.2944089E-05  0.2236492E+04  0.7818609E-02  0.8503391E-01
        1   -1    0    0  501    0  0.00000000000E+00  0.00000000000E+00  0.19460036793E+04  0.19460036793E+04  0.50400001928E-02 0. -1.
       -1   -1    0    0    0  501  0.00000000000E+00  0.00000000000E+00 -0.64258552528E+03  0.64258552530E+03  0.50400001928E-02 0.  1.
    10030    2    1    2    0    0  0.00000000000E+00  0.00000000000E+00  0.13034181541E+04  0.25885892046E+04  0.22364917138E+04 0.  0.
        5    1    3    3  502    0 -0.59295330572E+03  0.30856509954E+03 -0.38588657906E+03  0.77183974070E+03  0.46999998093E+01 0.  1.
       -5    1    3    3    0  502  0.59295330572E+03 -0.30856509954E+03  0.16893047331E+04  0.18167494639E+04  0.46999998093E+01 0. -1.
</event>
<event>
 5   0  0.6495405E-05  0.2265640E+04  0.7818609E-02  0.8491593E-01
        2   -1    0    0  501    0  0.00000000000E+00  0.00000000000E+00  0.21697953134E+04  0.21697953134E+04  0.25500000920E-02 0. -1.
       -2   -1    0    0    0  501  0.00000000000E+00  0.00000000000E+00 -0.59142942940E+03  0.59142942941E+03  0.25500000920E-02 0.  1.
    10030    2    1    2    0    0  0.00000000000E+00  0.00000000000E+00  0.15783658840E+04  0.27612247428E+04  0.22656396926E+04 0.  0.
        5    1    3    3  502    0 -0.46871689518E+03 -0.62449400825E+03  0.17894187893E+04  0.19523652290E+04  0.46999998093E+01 0. -1.
       -5    1    3    3    0  502  0.46871689518E+03  0.62449400825E+03 -0.21105290529E+03  0.80885951376E+03  0.46999998093E+01 0.  1.
</event>
<event>
 5   0  0.3118614E-05  0.2278751E+04  0.7818609E-02  0.8486347E-01
       -1   -1    0    0    0  501  0.00000000000E+00  0.00000000000E+00  0.74063510221E+03  0.74063510223E+03  0.50400001928E-02 0.  1.
        1   -1    0    0  501    0  0.00000000000E+00  0.00000000000E+00 -0.17527881147E+04  0.17527881147E+04  0.50400001928E-02 0. -1.
    10030    2    1    2    0    0  0.00000000000E+00  0.00000000000E+00 -0.10121530125E+04  0.24934232170E+04  0.22787508899E+04 0.  0.
        3    1    3    3  502    0 -0.16436978730E+03 -0.11263677080E+04 -0.45186354801E+03  0.12247049918E+04  0.10100000352E+00 0. -1.
       -3    1    3    3    0  502  0.16436978730E+03  0.11263677080E+04 -0.56028946450E+03  0.12687182252E+04  0.10100000352E+00 0.  1.
</event>
<event>
 5   0  0.3006265E-05  0.1692613E+04  0.7818609E-02  0.8765589E-01
       -1   -1    0    0    0  501  0.00000000000E+00  0.00000000000E+00  0.67501128823E+03  0.67501128824E+03  0.50400001928E-02 0.  1.
        1   -1    0    0  501    0  0.00000000000E+00  0.00000000000E+00 -0.10610703339E+04  0.10610703339E+04  0.50400001928E-02 0. -1.
    10030    2    1    2    0    0  0.00000000000E+00  0.00000000000E+00 -0.38605904564E+03  0.17360816221E+04  0.16926127176E+04 0.  0.
        2    1    3    3  502    0 -0.45367498834E+03 -0.62927279690E+02  0.53690243438E+03  0.70572307715E+03  0.25500000920E-02 0.  1.
       -2    1    3    3    0  502  0.45367498834E+03  0.62927279690E+02 -0.92296148002E+03  0.10303585450E+04  0.25500000920E-02 0. -1.
</event>
<event>
 5   0  0.6676612E-05  0.2282598E+04  0.7818609E-02  0.8484814E-01
        2   -1    0    0  501    0  0.00000000000E+00  0.00000000000E+00  0.18468287262E+04  0.18468287262E+04  0.25500000920E-02 0.  1.
       -2   -1    0    0    0  501  0.00000000000E+00  0.00000000000E+00 -0.70529706749E+03  0.70529706750E+03  0.25500000920E-02 0. -1.
    10030    2    1    2    0    0  0.00000000000E+00  0.00000000000E+00  0.11415316587E+04  0.25521257937E+04  0.22825975421E+04 0.  0.
        2    1    3    3  502    0 -0.43597651127E+03 -0.58273434794E+03 -0.41219598248E+03  0.83639725408E+03  0.25500000920E-02 0. -1.
       -2    1    3    3    0  502  0.43597651127E+03  0.58273434794E+03  0.15537276412E+04  0.17157285396E+04  0.25500000920E-02 0.  1.
</event>
<event>
 5   0  0.6676612E-05  0.2217228E+04  0.7818609E-02  0.8511292E-01
        2   -1    0    0  501    0  0.00000000000E+00  0.00000000000E+00  0.11828219781E+04  0.11828219781E+04  0.25500000920E-02 0.  1.
       -2   -1    0    0    0  501  0.00000000000E+00  0.00000000000E+00 -0.10390614363E+04  0.10390614363E+04  0.25500000920E-02 0. -1.
    10030    2    1    2    0    0  0.00000000000E+00  0.00000000000E+00  0.14376054181E+03  0.22218834144E+04  0.22172277316E+04 0.  0.
        2    1    3    3  502    0  0.38014655408E+02  0.48031978631E+03 -0.92865124112E+03  0.10462052087E+04  0.25500000920E-02 0. -1.
       -2    1    3    3    0  502 -0.38014655408E+02 -0.48031978631E+03  0.10724117829E+04  0.11756782057E+04  0.25500000920E-02 0.  1.
</event>
<event>
 5   0  0.6702421E-05  0.2215746E+04  0.7818609E-02  0.8511903E-01
        2   -1    0    0  501    0  0.00000000000E+00  0.00000000000E+00  0.12032132986E+04  0.12032132986E+04  0.25500000920E-02 0.  1.
       -2   -1    0    0    0  501  0.00000000000E+00  0.00000000000E+00 -0.10200875233E+04  0.10200875233E+04  0.25500000920E-02 0. -1.
    10030    2    1    2    0    0  0.00000000000E+00  0.00000000000E+00  0.18312577536E+03  0.22233008219E+04  0.22157462614E+04 0.  0.
        4    1    3    3  502    0 -0.10372793451E+04 -0.35390564162E+03 -0.70802341963E+02  0.10982769357E+04  0.12699999809E+01 0. -1.
       -4    1    3    3    0  502  0.10372793451E+04  0.35390564162E+03  0.25392811732E+03  0.11250238862E+04  0.12699999809E+01 0.  1.
</event>
<event>
 5   0  0.6814789E-05  0.2292114E+04  0.7818609E-02  0.8481037E-01
       -2   -1    0    0    0  501  0.00000000000E+00  0.00000000000E+00  0.10202829768E+04  0.10202829768E+04  0.25500000920E-02 0.  1.
        2   -1    0    0  501    0  0.00000000000E+00  0.00000000000E+00 -0.12873352094E+04  0.12873352094E+04  0.25500000920E-02 0. -1.
    10030    2    1    2    0    0  0.00000000000E+00  0.00000000000E+00 -0.26705223261E+03  0.23076181863E+04  0.22921136094E+04 0.  0.
        1    1    3    3  502    0 -0.75205890136E+03 -0.16666327104E+03  0.72078738830E+03  0.10549425085E+04  0.50400001928E-02 0.  1.
       -1    1    3    3    0  502  0.75205890136E+03  0.16666327104E+03 -0.98783962092E+03  0.12526756778E+04  0.50400001928E-02 0. -1.
</event>
<event>
 5   0  0.6495405E-05  0.2306100E+04  0.7818609E-02  0.8475520E-01
       -2   -1    0    0    0  501  0.00000000000E+00  0.00000000000E+00  0.77113262023E+03  0.77113262024E+03  0.25500000920E-02 0.  1.
        2   -1    0    0  501    0  0.00000000000E+00  0.00000000000E+00 -0.17241183466E+04  0.17241183466E+04  0.25500000920E-02 0. -1.
    10030    2    1    2    0    0  0.00000000000E+00  0.00000000000E+00 -0.95298572640E+03  0.24952509669E+04  0.23060996494E+04 0.  0.
        5    1    3    3  502    0  0.25877654581E+03  0.21144282956E+03  0.71757557261E+03  0.79158711664E+03  0.46999998093E+01 0.  1.
       -5    1    3    3    0  502 -0.25877654581E+03 -0.21144282956E+03 -0.16705612990E+04  0.17036638502E+04  0.46999998093E+01 0. -1.
</event>
<event>
 5   0  0.6676612E-05  0.2310884E+04  0.7818609E-02  0.8473642E-01
        2   -1    0    0  501    0  0.00000000000E+00  0.00000000000E+00  0.21505958492E+04  0.21505958492E+04  0.25500000920E-02 0.  1.
       -2   -1    0    0    0  501  0.00000000000E+00  0.00000000000E+00 -0.62077959812E+03  0.62077959813E+03  0.25500000920E-02 0. -1.
    10030    2    1    2    0    0  0.00000000000E+00  0.00000000000E+00  0.15298162511E+04  0.27713754474E+04  0.23108838370E+04 0.  0.
        2    1    3    3  502    0 -0.11259112590E+04 -0.71952888449E+02  0.46582854249E+03  0.12205939588E+04  0.25500000920E-02 0. -1.
       -2    1    3    3    0  502  0.11259112590E+04  0.71952888449E+02  0.10639877086E+04  0.15507814886E+04  0.25500000920E-02 0.  1.
</event>
<event>
 5   0  0.6468758E-05  0.2296724E+04  0.7818609E-02  0.8479214E-01
        2   -1    0    0  501    0  0.00000000000E+00  0.00000000000E+00  0.17092346669E+04  0.17092346669E+04  0.25500000920E-02 0. -1.
       -2   -1    0    0    0  501  0.00000000000E+00  0.00000000000E+00 -0.77153576664E+03  0.77153576665E+03  0.25500000920E-02 0.  1.
    10030    2    1    2    0    0  0.00000000000E+00  0.00000000000E+00  0.93769890027E+03  0.24807704336E+04  0.22967243449E+04 0.  0.
        3    1    3    3  502    0 -0.41693403598E+03  0.10409917631E+04  0.73614245406E+03  0.13414184895E+04  0.10100000352E+00 0. -1.
       -3    1    3    3    0  502  0.41693403598E+03 -0.10409917631E+04  0.20155644622E+03  0.11393519440E+04  0.10100000352E+00 0.  1.
</event>
<event>
 5   0  0.2342500E-05  0.2188535E+04  0.7818609E-02  0.8523215E-01
        3   -1    0    0  501    0  0.00000000000E+00  0.00000000000E+00  0.95702396004E+03  0.95702396537E+03  0.10100000352E+00 0. -1.
       -3   -1    0    0    0  501  0.00000000000E+00  0.00000000000E+00 -0.12511924987E+04  0.12511925028E+04  0.10100000352E+00 0.  1.
    10030    2    1    2    0    0  0.00000000000E+00  0.00000000000E+00 -0.29416853871E+03  0.22082164682E+04  0.21885348618E+04 0.  0.
        5    1    3    3  502    0  0.37476429255E+03 -0.68088644500E+03  0.63013155401E+03  0.10005710826E+04  0.46999998093E+01 0. -1.
       -5    1    3    3    0  502 -0.37476429255E+03  0.68088644500E+03 -0.92430009273E+03  0.12076453856E+04  0.46999998093E+01 0.  1.
</event>
<event>
 5   0  0.2342500E-05  0.2309551E+04  0.7818609E-02  0.8474165E-01
       -3   -1    0    0    0  501  0.00000000000E+00  0.00000000000E+00  0.78706759957E+03  0.78706760605E+03  0.10100000352E+00 0.  1.
        3   -1    0    0  501    0  0.00000000000E+00  0.00000000000E+00 -0.16942712049E+04  0.16942712079E+04  0.10100000352E+00 0. -1.
    10030    2    1    2    0    0  0.00000000000E+00  0.00000000000E+00 -0.90720360530E+03  0.24813388139E+04  0.23095505901E+04 0.  0.
        3    1    3    3  502    0 -0.34121470632E+03 -0.13748425290E+03 -0.16296334306E+04  0.16706389568E+04  0.10100000352E+00 0. -1.
       -3    1    3    3    0  502  0.34121470632E+03  0.13748425290E+03  0.72242982532E+03  0.81069985711E+03  0.10100000352E+00 0.  1.
</event>
<event>
 5   0  0.3118614E-05  0.2178520E+04  0.7818609E-02  0.8527422E-01
        1   -1    0    0  501    0  0.00000000000E+00  0.00000000000E+00  0.64618142320E+03  0.64618142322E+03  0.50400001928E-02 0.  1.
       -1   -1    0    0    0  501  0.00000000000E+00  0.00000000000E+00 -0.18361521378E+04  0.18361521378E+04  0.50400001928E-02 0. -1.
    10030    2    1    2    0    0  0.00000000000E+00  0.00000000000E+00 -0.11899707146E+04  0.24823335610E+04  0.21785200496E+04 0.  0.
        3    1    3    3  502    0 -0.95909805216E+03 -0.32715254554E+03 -0.10501838080E+04  0.14593779163E+04  0.10100000352E+00 0.  1.
       -3    1    3    3    0  502  0.95909805216E+03  0.32715254554E+03 -0.13978690660E+03  0.10229556448E+04  0.10100000352E+00 0. -1.
</event>
<event>
 5   0  0.6495405E-05  0.2311138E+04  0.7818609E-02  0.8473542E-01
       -2   -1    0    0    0  501  0.00000000000E+00  0.00000000000E+00  0.82663164354E+03  0.82663164354E+03  0.25500000920E-02 0. -1.
        2   -1    0    0  501    0  0.00000000000E+00  0.00000000000E+00 -0.16153992526E+04  0.16153992526E+04  0.25500000920E-02 0.  1.
    10030    2    1    2    0    0  0.00000000000E+00  0.00000000000E+00 -0.78876760905E+03  0.24420308961E+04  0.23111383681E+04 0.  0.
        5    1    3    3  502    0 -0.47843390613E+03 -0.15241137217E+03 -0.14940920762E+04  0.15762174504E+04  0.46999998093E+01 0.  1.
       -5    1    3    3    0  502  0.47843390613E+03  0.15241137217E+03  0.70532446712E+03  0.86581344573E+03  0.46999998093E+01 0. -1.
</event>
<event>
 5   0  0.2982385E-05  0.2208418E+04  0.7818609E-02  0.8514932E-01
        1   -1    0    0  501    0  0.00000000000E+00  0.00000000000E+00  0.80196451218E+03  0.80196451220E+03  0.50400001928E-02 0. -1.
       -1   -1    0    0    0  501  0.00000000000E+00  0.00000000000E+00 -0.15203634940E+04  0.15203634940E+04  0.50400001928E-02 0.  1.
    10030    2    1    2    0    0  0.00000000000E+00  0.00000000000E+00 -0.71839898185E+03  0.23223280062E+04  0.22084180473E+04 0.  0.
        4    1    3    3  502    0  0.47393530039E+03  0.58693612361E+03 -0.12071193842E+04  0.14234632073E+04  0.12699999809E+01 0.  1.
       -4    1    3    3    0  502 -0.47393530039E+03 -0.58693612361E+03  0.48872040231E+03  0.89886479889E+03  0.12699999809E+01 0. -1.
</event>
<event>
 5   0  0.6814789E-05  0.2371856E+04  0.7818609E-02  0.8450116E-01
        2   -1    0    0  501    0  0.00000000000E+00  0.00000000000E+00  0.15116549853E+04  0.15116549853E+04  0.25500000920E-02 0. -1.
       -2   -1    0    0    0  501  0.00000000000E+00  0.00000000000E+00 -0.93038808259E+03  0.93038808259E+03  0.25500000920E-02 0.  1.
    10030    2    1    2    0    0  0.00000000000E+00  0.00000000000E+00  0.58126690268E+03  0.24420430679E+04  0.23718564740E+04 0.  0.
        1    1    3    3  502    0 -0.19686584607E+02 -0.36993767188E+03 -0.86928448987E+03  0.94493225527E+03  0.50400001928E-02 0.  1.
       -1    1    3    3    0  502  0.19686584607E+02  0.36993767188E+03  0.14505513926E+04  0.14971108126E+04  0.50400001928E-02 0. -1.
</event>
<event>
 5   0  0.6676612E-05  0.2263532E+04  0.7818609E-02  0.8492440E-01
        2   -1    0    0  501    0  0.00000000000E+00  0.00000000000E+00  0.14451055630E+04  0.14451055630E+04  0.25500000920E-02 0. -1.
       -2   -1    0    0    0  501  0.00000000000E+00  0.00000000000E+00 -0.88636696852E+03  0.88636696852E+03  0.25500000920E-02 0.  1.
    10030    2    1    2    0    0  0.00000000000E+00  0.00000000000E+00  0.55873859445E+03  0.23314725315E+04  0.22635316097E+04 0.  0.
        2    1    3    3  502    0  0.56759245931E+03  0.86692235324E+03  0.74819977999E+03  0.12780917327E+04  0.25500000920E-02 0. -1.
       -2    1    3    3    0  502 -0.56759245931E+03 -0.86692235324E+03 -0.18946118555E+03  0.10533807988E+04  0.25500000920E-02 0.  1.
</event>
<event>
 5   0  0.2944089E-05  0.1970718E+04  0.7818609E-02  0.8620434E-01
       -1   -1    0    0    0  501  0.00000000000E+00  0.00000000000E+00  0.61046191679E+03  0.61046191681E+03  0.50400001928E-02 0.  1.
        1   -1    0    0  501    0  0.00000000000E+00  0.00000000000E+00 -0.15904885408E+04  0.15904885408E+04  0.50400001928E-02 0. -1.
    10030    2    1    2    0    0  0.00000000000E+00  0.00000000000E+00 -0.98002662405E+03  0.22009504577E+04  0.19707183292E+04 0.  0.
        5    1    3    3  502    0  0.20364802394E+03  0.92484320839E+03 -0.79403456516E+03  0.12358480725E+04  0.46999998093E+01 0. -1.
       -5    1    3    3    0  502 -0.20364802394E+03 -0.92484320839E+03 -0.18599205890E+03  0.96510238510E+03  0.46999998093E+01 0.  1.
</event>
<event>
 5   0  0.6702421E-05  0.2309074E+04  0.7818609E-02  0.8474352E-01
       -2   -1    0    0    0  501  0.00000000000E+00  0.00000000000E+00  0.24927795525E+04  0.24927795525E+04  0.25500000920E-02 0.  1.
        2   -1    0    0  501    0  0.00000000000E+00  0.00000000000E+00 -0.53472665843E+03  0.53472665843E+03  0.25500000920E-02 0. -1.
    10030    2    1    2    0    0  0.00000000000E+00  0.00000000000E+00  0.19580528941E+04  0.30275062109E+04  0.23090739965E+04 0.  0.
        4    1    3    3  502    0  0.47292190651E+03  0.87892631215E+03  0.17399221974E+04  0.20058657626E+04  0.12699999809E+01 0.  1.
       -4    1    3    3    0  502 -0.47292190651E+03 -0.87892631215E+03  0.21813069667E+03  0.10216404483E+04  0.12699999809E+01 0. -1.
</event>
<event>
 5   0  0.6495405E-05  0.2342198E+04  0.7818609E-02  0.8461466E-01
       -2   -1    0    0    0  501  0.00000000000E+00  0.00000000000E+00  0.89659870736E+03  0.89659870736E+03  0.25500000920E-02 0.  1.
        2   -1    0    0  501    0  0.00000000000E+00  0.00000000000E+00 -0.15296398593E+04  0.15296398593E+04  0.25500000920E-02 0. -1.
    10030    2    1    2    0    0  0.00000000000E+00  0.00000000000E+00 -0.63304115192E+03  0.24262385666E+04  0.23421982158E+04 0.  0.
        5    1    3    3  502    0 -0.57857292220E+03 -0.36128775461E+03 -0.13026093827E+04  0.14704042852E+04  0.46999998093E+01 0. -1.
       -5    1    3    3    0  502  0.57857292220E+03  0.36128775461E+03  0.66956823079E+03  0.95583428146E+03  0.46999998093E+01 0.  1.
</event>
<event>
 5   0  0.2982385E-05  0.2309663E+04  0.7818609E-02  0.8474121E-01
        1   -1    0    0  501    0  0.00000000000E+00  0.00000000000E+00  0.11904188518E+04  0.11904188518E+04  0.50400001928E-02 0. -1.
       -1   -1    0    0    0  501  0.00000000000E+00  0.00000000000E+00 -0.11203080974E+04  0.11203080974E+04  0.50400001928E-02 0.  1.
    10030    2    1    2    0    0  0.00000000000E+00  0.00000000000E+00  0.70110754332E+02  0.23107269492E+04  0.23096630741E+04 0.  0.
        4    1    3    3  502    0  0.18994324672E+03  0.10521091253E+04  0.47185952847E+03  0.11686167361E+04  0.12699999809E+01 0.  1.
       -4    1    3    3    0  502 -0.18994324672E+03 -0.10521091253E+04 -0.40174877413E+03  0.11421102131E+04  0.12699999809E+01 0. -1.
</event>
<event>
 5   0  0.6468758E-05  0.2314929E+04  0.7818609E-02  0.8472058E-01
        2   -1    0    0  501    0  0.00000000000E+00  0.00000000000E+00  0.20901806374E+04  0.20901806374E+04  0.25500000920E-02 0.  1.
       -2   -1    0    0    0  501  0.00000000000E+00  0.00000000000E+00 -0.64096070176E+03  0.64096070176E+03  0.25500000920E-02 0. -1.
    10030    2    1    2    0    0  0.00000000000E+00  0.00000000000E+00  0.14492199356E+04  0.27311413391E+04  0.23149286366E+04 0.  0.
        3    1    3    3  502    0  0.79767396274E+03 -0.19584560280E+03 -0.23754481910E+03  0.85502444541E+03  0.10100000352E+00 0. -1.
       -3    1    3    3    0  502 -0.79767396274E+03  0.19584560280E+03  0.16867647547E+04  0.18761168937E+04  0.10100000352E+00 0.  1.
</event>
<event>
 5   0  0.2944089E-05  0.2456840E+04  0.7818609E-02  0.8418525E-01
       -1   -1    0    0    0  501  0.00000000000E+00  0.00000000000E+00  0.83094955449E+03  0.83094955451E+03  0.50400001928E-02 0.  1.
        1   -1    0    0  501    0  0.00000000000E+00  0.00000000000E+00 -0.18160141857E+04  0.18160141857E+04  0.50400001928E-02 0. -1.
    10030    2    1    2    0    0  0.00000000000E+00  0.00000000000E+00 -0.98506463117E+03  0.26469637402E+04  0.24568403925E+04 0.  0.
        5    1    3    3  502    0  0.83876158457E+03 -0.79187775417E+03 -0.94759558051E+03  0.14928331613E+04  0.46999998093E+01 0. -1.
       -5    1    3    3    0  502 -0.83876158457E+03  0.79187775417E+03 -0.37469050659E+02  0.11541305789E+04  0.46999998093E+01 0.  1.
</event>
<event>
 5   0  0.3118614E-05  0.2233176E+04  0.7818609E-02  0.8504745E-01
        1   -1    0    0  501    0  0.00000000000E+00  0.00000000000E+00  0.59823310499E+03  0.59823310501E+03  0.50400001928E-02 0. -1.
       -1   -1    0    0    0  501  0.00000000000E+00  0.00000000000E+00 -0.20840859493E+04  0.20840859493E+04  0.50400001928E-02 0.  1.
    10030    2    1    2    0    0  0.00000000000E+00  0.00000000000E+00 -0.14858528443E+04  0.26823190543E+04  0.22331764001E+04 0.  0.
        3    1    3    3  502    0 -0.20875546117E+03  0.77112939571E+03  0.19406468899E+03  0.82211951760E+03  0.10100000352E+00 0. -1.
       -3    1    3    3    0  502  0.20875546117E+03 -0.77112939571E+03 -0.16799175333E+04  0.18601995367E+04  0.10100000352E+00 0.  1.
</event>
<event>
 5   0  0.3118614E-05  0.2279559E+04  0.7818609E-02  0.8486025E-01
       -1   -1    0    0    0  501  0.00000000000E+00  0.00000000000E+00  0.67930396486E+03  0.67930396488E+03  0.50400001928E-02 0. -1.
        1   -1    0    0  501    0  0.00000000000E+00  0.00000000000E+00 -0.19123939015E+04  0.19123939015E+04  0.50400001928E-02 0.  1.
    10030    2    1    2    0    0  0.00000000000E+00  0.00000000000E+00 -0.12330899366E+04  0.25916978664E+04  0.22795585184E+04 0.  0.
        3    1    3    3  502    0  0.56533436049E+03  0.55087273804E+03  0.31825262518E+03  0.85108663266E+03  0.10100000352E+00 0. -1.
       -3    1    3    3    0  502 -0.56533436049E+03 -0.55087273804E+03 -0.15513425618E+04  0.17406112337E+04  0.10100000352E+00 0.  1.
</event>
<event>
 5   0  0.2962279E-05  0.2243119E+04  0.7818609E-02  0.8500692E-01
       -1   -1    0    0    0  501  0.00000000000E+00  0.00000000000E+00  0.84857030448E+03  0.84857030449E+03  0.50400001928E-02 0. -1.
        1   -1    0    0  501    0  0.00000000000E+00  0.00000000000E+00 -0.14823702219E+04  0.14823702219E+04  0.50400001928E-02 0.  1.
    10030    2    1    2    0    0  0.00000000000E+00  0.00000000000E+00 -0.63379991739E+03  0.23309405264E+04  0.22431186777E+04 0.  0.
        1    1    3    3  502    0  0.71353845930E+03 -0.57291302339E+03  0.35697118115E+03  0.98223973116E+03  0.50400001928E-02 0. -1.
       -1    1    3    3    0  502 -0.71353845930E+03  0.57291302339E+03 -0.99077109854E+03  0.13487007952E+04  0.50400001928E-02 0.  1.
</event>
<event>
 5   0  0.6468758E-05  0.2285193E+04  0.7818609E-02  0.8483782E-01
       -2   -1    0    0    0  501  0.00000000000E+00  0.00000000000E+00  0.10707574047E+04  0.10707574047E+04  0.25500000920E-02 0.  1.
        2   -1    0    0  501    0  0.00000000000E+00  0.00000000000E+00 -0.12192556892E+04  0.12192556892E+04  0.25500000920E-02 0. -1.
    10030    2    1    2    0    0  0.00000000000E+00  0.00000000000E+00 -0.14849828454E+03  0.22900130939E+04  0.22851932588E+04 0.  0.
        3    1    3    3  502    0  0.31035234178E+03 -0.65237533445E+03 -0.96133646406E+03  0.12025306484E+04  0.10100000352E+00 0. -1.
       -3    1    3    3    0  502 -0.31035234178E+03  0.65237533445E+03  0.81283817953E+03  0.10874824455E+04  0.10100000352E+00 0.  1.
</event>
<event>
 5   0  0.2342500E-05  0.2242495E+04  0.7818609E-02  0.8500946E-01
       -3   -1    0    0    0  501  0.00000000000E+00  0.00000000000E+00  0.12775217363E+04  0.12775217403E+04  0.10100000352E+00 0.  1.
        3   -1    0    0  501    0  0.00000000000E+00  0.00000000000E+00 -0.98408958788E+03  0.98408959306E+03  0.10100000352E+00 0. -1.
    10030    2    1    2    0    0  0.00000000000E+00  0.00000000000E+00  0.29343214843E+03  0.22616113334E+04  0.22424949047E+04 0.  0.
        4    1    3    3  502    0 -0.11056036741E+04 -0.18193257987E+03  0.10470416899E+03  0.11253548434E+04  0.12699999809E+01 0. -1.
       -4    1    3    3    0  502  0.11056036741E+04  0.18193257987E+03  0.18872797944E+03  0.11362564899E+04  0.12699999809E+01 0.  1.
</event>
<event>
 5   0  0.6468758E-05  0.2285029E+04  0.7818609E-02  0.8483848E-01
       -2   -1    0    0    0  501  0.00000000000E+00  0.00000000000E+00  0.97021560137E+03  0.97021560138E+03  0.25500000920E-02 0. -1.
        2   -1    0    0  501    0  0.00000000000E+00  0.00000000000E+00 -0.13454112203E+04  0.13454112203E+04  0.25500000920E-02 0.  1.
    10030    2    1    2    0    0  0.00000000000E+00  0.00000000000E+00 -0.37519561893E+03  0.23156268217E+04  0.22850286267E+04 0.  0.
        3    1    3    3  502    0 -0.88208451069E+03 -0.48915134257E+02  0.54658483429E+03  0.10388555076E+04  0.10100000352E+00 0. -1.
       -3    1    3    3    0  502  0.88208451069E+03  0.48915134257E+02 -0.92178045322E+03  0.12767713141E+04  0.10100000352E+00 0.  1.
</event>
<event>
 5   0  0.6495405E-05  0.2308085E+04  0.7818609E-02  0.8474740E-01
        2   -1    0    0  501    0  0.00000000000E+00  0.00000000000E+00  0.94462681020E+03  0.94462681020E+03  0.25500000920E-02 0.  1.
       -2   -1    0    0    0  501  0.00000000000E+00  0.00000000000E+00 -0.14098835118E+04  0.14098835118E+04  0.25500000920E-02 0. -1.
    10030    2    1    2    0    0  0.00000000000E+00  0.00000000000E+00 -0.46525670165E+03  0.23545103221E+04  0.23080847164E+04 0.  0.
        5    1    3    3  502    0  0.24464378339E+03 -0.55308923352E+03  0.77001141013E+03  0.97913121833E+03  0.46999998093E+01 0.  1.
       -5    1    3    3    0  502 -0.24464378339E+03  0.55308923352E+03 -0.12352681118E+04  0.13753791037E+04  0.46999998093E+01 0. -1.
</event>
<event>
 5   0  0.3006265E-05  0.2327651E+04  0.7818609E-02  0.8467098E-01
       -1   -1    0    0    0  501  0.00000000000E+00  0.00000000000E+00  0.80549149463E+03  0.80549149464E+03  0.50400001928E-02 0.  1.
        1   -1    0    0  501    0  0.00000000000E+00  0.00000000000E+00 -0.16815700317E+04  0.16815700317E+04  0.50400001928E-02 0. -1.
    10030    2    1    2    0    0  0.00000000000E+00  0.00000000000E+00 -0.87607853704E+03  0.24870615263E+04  0.23276514844E+04 0.  0.
        2    1    3    3  502    0  0.19539822157E+03  0.16519385443E+03  0.77506617453E+03  0.81620894962E+03  0.25500000920E-02 0.  1.
       -2    1    3    3    0  502 -0.19539822157E+03 -0.16519385443E+03 -0.16511447116E+04  0.16708525767E+04  0.25500000920E-02 0. -1.
</event>
<event>
 5   0  0.2982385E-05  0.2288268E+04  0.7818609E-02  0.8482561E-01
       -1   -1    0    0    0  501  0.00000000000E+00  0.00000000000E+00  0.97442266748E+03  0.97442266749E+03  0.50400001928E-02 0.  1.
        1   -1    0    0  501    0  0.00000000000E+00  0.00000000000E+00 -0.13434033571E+04  0.13434033571E+04  0.50400001928E-02 0. -1.
    10030    2    1    2    0    0  0.00000000000E+00  0.00000000000E+00 -0.36898068966E+03  0.23178260246E+04  0.22882680637E+04 0.  0.
        4    1    3    3  502    0  0.60620486532E+03 -0.87034426739E+03 -0.61905139515E+03  0.12280919042E+04  0.12699999809E+01 0. -1.
       -4    1    3    3    0  502 -0.60620486532E+03  0.87034426739E+03  0.25007070549E+03  0.10897341204E+04  0.12699999809E+01 0.  1.
</event>
<event>
 5   0  0.6676612E-05  0.2332460E+04  0.7818609E-02  0.8465232E-01
       -2   -1    0    0    0  501  0.00000000000E+00  0.00000000000E+00  0.56737439690E+03  0.56737439691E+03  0.25500000920E-02 0. -1.
        2   -1    0    0  501    0  0.00000000000E+00  0.00000000000E+00 -0.23971688794E+04  0.23971688794E+04  0.25500000920E-02 0.  1.
    10030    2    1    2    0    0  0.00000000000E+00  0.00000000000E+00 -0.18297944825E+04  0.29645432763E+04  0.23324598580E+04 0.  0.
        2    1    3    3  502    0  0.25262593216E+02 -0.77673754285E+03 -0.20201017961E+04  0.21644331072E+04  0.25500000920E-02 0.  1.
       -2    1    3    3    0  502 -0.25262593216E+02  0.77673754285E+03  0.19030731357E+03  0.80011016910E+03  0.25500000920E-02 0. -1.
</event>
<event>
 5   0  0.6468758E-05  0.2337749E+04  0.7818609E-02  0.8463184E-01
        2   -1    0    0  501    0  0.00000000000E+00  0.00000000000E+00  0.13406870750E+04  0.13406870750E+04  0.25500000920E-02 0.  1.
       -2   -1    0    0    0  501  0.00000000000E+00  0.00000000000E+00 -0.10190801618E+04  0.10190801618E+04  0.25500000920E-02 0. -1.
    10030    2    1    2    0    0  0.00000000000E+00  0.00000000000E+00  0.32160691319E+03  0.23597672367E+04  0.23377490038E+04 0.  0.
        3    1    3    3  502    0 -0.51521416285E+03 -0.74828085528E+03  0.90318789785E+03  0.12810613807E+04  0.10100000352E+00 0.  1.
       -3    1    3    3    0  502  0.51521416285E+03  0.74828085528E+03 -0.58158098467E+03  0.10787058561E+04  0.10100000352E+00 0. -1.
</event>
<event>
 5   0  0.2962279E-05  0.2291331E+04  0.7818609E-02  0.8481347E-01
       -1   -1    0    0    0  501  0.00000000000E+00  0.00000000000E+00  0.82928122002E+03  0.82928122003E+03  0.50400001928E-02 0.  1.
        1   -1    0    0  501    0  0.00000000000E+00  0.00000000000E+00 -0.15827550273E+04  0.15827550273E+04  0.50400001928E-02 0. -1.
    10030    2    1    2    0    0  0.00000000000E+00  0.00000000000E+00 -0.75347380731E+03  0.24120362474E+04  0.22913306353E+04 0.  0.
        1    1    3    3  502    0  0.21515857943E+03 -0.64061950208E+03 -0.13506003318E+04  0.15102343583E+04  0.50400001928E-02 0. -1.
       -1    1    3    3    0  502 -0.21515857943E+03  0.64061950208E+03  0.59712652451E+03  0.90180188903E+03  0.50400001928E-02 0.  1.
</event>
<event>
 5   0  0.6495405E-05  0.2343801E+04  0.7818609E-02  0.8460848E-01
        2   -1    0    0  501    0  0.00000000000E+00  0.00000000000E+00  0.75824200214E+03  0.75824200215E+03  0.25500000920E-02 0.  1.
       -2   -1    0    0    0  501  0.00000000000E+00  0.00000000000E+00 -0.18112303279E+04  0.18112303279E+04  0.25500000920E-02 0. -1.
    10030    2    1    2    0    0  0.00000000000E+00  0.00000000000E+00 -0.10529883257E+04  0.25694723300E+04  0.23438011094E+04 0.  0.
        5    1    3    3  502    0 -0.73652855957E+03 -0.91147204529E+03 -0.53587439502E+03  0.12885802519E+04  0.46999998093E+01 0.  1.
       -5    1    3    3    0  502  0.73652855957E+03  0.91147204529E+03 -0.51711393072E+03  0.12808920781E+04  0.46999998093E+01 0. -1.
</event>
<event>
 5   0  0.2982385E-05  0.2333144E+04  0.7818609E-02  0.8464967E-01
        1   -1    0    0  501    0  0.00000000000E+00  0.00000000000E+00  0.14420368160E+04  0.14420368160E+04  0.50400001928E-02 0.  1.
       -1   -1    0    0    0  501  0.00000000000E+00  0.00000000000E+00 -0.94372745344E+03  0.94372745345E+03  0.50400001928E-02 0. -1.
    10030    2    1    2    0    0  0.00000000000E+00  0.00000000000E+00  0.49830936258E+03  0.23857642695E+04  0.23331435722E+04 0.  0.
        4    1    3    3  502    0 -0.75095905605E+03  0.85858205229E+03 -0.87059011126E+00  0.11406599034E+04  0.12699999809E+01 0.  1.
       -4    1    3    3    0  502  0.75095905605E+03 -0.85858205229E+03  0.49917995269E+03  0.12451043661E+04  0.12699999809E+01 0. -1.
</event>
<event>
 5   0  0.2944089E-05  0.2273394E+04  0.7818609E-02  0.8488486E-01
       -1   -1    0    0    0  501  0.00000000000E+00  0.00000000000E+00  0.57809616212E+03  0.57809616215E+03  0.50400001928E-02 0.  1.
        1   -1    0    0  501    0  0.00000000000E+00  0.00000000000E+00 -0.22350615183E+04  0.22350615183E+04  0.50400001928E-02 0. -1.
    10030    2    1    2    0    0  0.00000000000E+00  0.00000000000E+00 -0.16569653562E+04  0.28131576805E+04  0.22733943661E+04 0.  0.
        5    1    3    3  502    0  0.36094020994E+03 -0.10721041005E+04 -0.96612851842E+03  0.14876529977E+04  0.46999998093E+01 0. -1.
       -5    1    3    3    0  502 -0.36094020994E+03  0.10721041005E+04 -0.69083683780E+03  0.13255046828E+04  0.46999998093E+01 0.  1.
</event>
<event>
 5   0  0.6676612E-05  0.2175014E+04  0.7818609E-02  0.8528900E-01
       -2   -1    0    0    0  501  0.00000000000E+00  0.00000000000E+00  0.74622552473E+03  0.74622552473E+03  0.25500000920E-02 0.  1.
        2   -1    0    0  501    0  0.00000000000E+00  0.00000000000E+00 -0.15848712458E+04  0.15848712458E+04  0.25500000920E-02 0. -1.
    10030    2    1    2    0    0  0.00000000000E+00  0.00000000000E+00 -0.83864572103E+03  0.23310967705E+04  0.21750139098E+04 0.  0.
        2    1    3    3  502    0 -0.46721880715E+03  0.97236406784E+03 -0.56661148579E+03  0.12185375948E+04  0.25500000920E-02 0. -1.
       -2    1    3    3    0  502  0.46721880715E+03 -0.97236406784E+03 -0.27203423523E+03  0.11125591757E+04  0.25500000920E-02 0.  1.
</event>
<event>
 5   0  0.2962279E-05  0.2289976E+04  0.7818609E-02  0.8481884E-01
        1   -1    0    0  501    0  0.00000000000E+00  0.00000000000E+00  0.24992578964E+04  0.24992578964E+04  0.50400001928E-02 0.  1.
       -1   -1    0    0    0  501  0.00000000000E+00  0.00000000000E+00 -0.52455476694E+03  0.52455476696E+03  0.50400001928E-02 0. -1.
    10030    2    1    2    0    0  0.00000000000E+00  0.00000000000E+00  0.19747031294E+04  0.30238126633E+04  0.22899761076E+04 0.  0.
        1    1    3    3  502    0 -0.59276411972E+03 -0.14956153918E+02 -0.30602456371E+03  0.66726608020E+03  0.50400001928E-02 0. -1.
       -1    1    3    3    0  502  0.59276411972E+03  0.14956153918E+02  0.22807276931E+04  0.23565465831E+04  0.50400001928E-02 0.  1.
</event>
<event>
 5   0  0.3006265E-05  0.2137409E+04  0.7818609E-02  0.8544941E-01
        1   -1    0    0  501    0  0.00000000000E+00  0.00000000000E+00  0.86644385882E+03  0.86644385884E+03  0.50400001928E-02 0. -1.
       -1   -1    0    0    0  501  0.00000000000E+00  0.00000000000E+00 -0.13181806277E+04  0.13181806277E+04  0.50400001928E-02 0.  1.
    10030    2    1    2    0    0  0.00000000000E+00  0.00000000000E+00 -0.45173676890E+03  0.21846244866E+04  0.21374091885E+04 0.  0.
        2    1    3    3  502    0  0.10204445196E+04 -0.31101140071E+03 -0.29126937057E+03  0.11058358627E+04  0.25500000920E-02 0. -1.
       -2    1    3    3    0  502 -0.10204445196E+04  0.31101140071E+03 -0.16046739833E+03  0.10787886239E+04  0.25500000920E-02 0.  1.
</event>
<event>
 5   0  0.6495405E-05  0.2318400E+04  0.7818609E-02  0.8470701E-01
       -2   -1    0    0    0  501  0.00000000000E+00  0.00000000000E+00  0.87250146380E+03  0.87250146380E+03  0.25500000920E-02 0.  1.
        2   -1    0    0  501    0  0.00000000000E+00  0.00000000000E+00 -0.15401059021E+04  0.15401059021E+04  0.25500000920E-02 0. -1.
    10030    2    1    2    0    0  0.00000000000E+00  0.00000000000E+00 -0.66760443828E+03  0.24126073659E+04  0.23184000121E+04 0.  0.
        5    1    3    3  502    0 -0.10000547242E+04  0.58268656439E+03 -0.40034980987E+03  0.12247183937E+04  0.46999998093E+01 0. -1.
       -5    1    3    3    0  502  0.10000547242E+04 -0.58268656439E+03 -0.26725462842E+03  0.11878889721E+04  0.46999998093E+01 0.  1.
</event>
<event>
 5   0  0.6702421E-05  0.2277526E+04  0.7818609E-02  0.8486835E-01
        2   -1    0    0  501    0  0.00000000000E+00  0.00000000000E+00  0.10703390630E+04  0.10703390630E+04  0.25500000920E-02 0. -1.
       -2   -1    0    0    0  501  0.00000000000E+00  0.00000000000E+00 -0.12115610015E+04  0.12115610015E+04  0.25500000920E-02 0.  1.
    10030    2    1    2    0    0  0.00000000000E+00  0.00000000000E+00 -0.14122193853E+03  0.22819000645E+04  0.22775259095E+04 0.  0.
        4    1    3    3  502    0  0.11318610575E+04 -0.34774944333E+02  0.49872652040E+02  0.11334935574E+04  0.12699999809E+01 0. -1.
       -4    1    3    3    0  502 -0.11318610575E+04  0.34774944333E+02 -0.19109459057E+03  0.11484065072E+04  0.12699999809E+01 0.  1.
</event>
<event>
 5   0  0.3006265E-05  0.2333003E+04  0.7818609E-02  0.8465021E-01
        1   -1    0    0  501    0  0.00000000000E+00  0.00000000000E+00  0.13206069687E+04  0.13206069687E+04  0.50400001928E-02 0. -1.
       -1   -1    0    0    0  501  0.00000000000E+00  0.00000000000E+00 -0.10303794624E+04  0.10303794624E+04  0.50400001928E-02 0.  1.
    10030    2    1    2    0    0  0.00000000000E+00  0.00000000000E+00  0.29022750626E+03  0.23509864311E+04  0.23330034706E+04 0.  0.
        2    1    3    3  502    0 -0.50625162607E+03 -0.95489609982E+03 -0.29714155848E+03  0.11208971300E+04  0.25500000920E-02 0.  1.
       -2    1    3    3    0  502  0.50625162607E+03  0.95489609982E+03  0.58736906474E+03  0.12300893010E+04  0.25500000920E-02 0. -1.
</event>
<event>
 5   0  0.3118614E-05  0.2283379E+04  0.7818609E-02  0.8484503E-01
        1   -1    0    0  501    0  0.00000000000E+00  0.00000000000E+00  0.11108746082E+04  0.11108746082E+04  0.50400001928E-02 0.  1.
       -1   -1    0    0    0  501  0.00000000000E+00  0.00000000000E+00 -0.11733592101E+04  0.11733592101E+04  0.50400001928E-02 0. -1.
    10030    2    1    2    0    0  0.00000000000E+00  0.00000000000E+00 -0.62484601943E+02  0.22842338183E+04  0.22833790337E+04 0.  0.
        3    1    3    3  502    0  0.24981487018E+02  0.41722612308E+03 -0.10940680099E+04  0.11711902207E+04  0.10100000352E+00 0. -1.
       -3    1    3    3    0  502 -0.24981487018E+02 -0.41722612308E+03  0.10315834080E+04  0.11130435977E+04  0.10100000352E+00 0.  1.
</event>
<event>
 5   0  0.3006265E-05  0.2171725E+04  0.7818609E-02  0.8530290E-01
        1   -1    0    0  501    0  0.00000000000E+00  0.00000000000E+00  0.16659248557E+04  0.16659248557E+04  0.50400001928E-02 0. -1.
       -1   -1    0    0    0  501  0.00000000000E+00  0.00000000000E+00 -0.70777336992E+03  0.70777336994E+03  0.50400001928E-02 0.  1.
    10030    2    1    2    0    0  0.00000000000E+00  0.00000000000E+00  0.95815148576E+03  0.23736982256E+04  0.21717248897E+04 0.  0.
        2    1    3    3  502    0  0.55478796723E+03  0.88000743937E+03  0.13884763810E+03  0.10495148634E+04  0.25500000920E-02 0.  1.
       -2    1    3    3    0  502 -0.55478796723E+03 -0.88000743937E+03  0.81930384766E+03  0.13241833622E+04  0.25500000920E-02 0. -1.
</event>
<event>
 5   0  0.6468758E-05  0.2290259E+04  0.7818609E-02  0.8481772E-01
        2   -1    0    0  501    0  0.00000000000E+00  0.00000000000E+00  0.11520468578E+04  0.11520468578E+04  0.25500000920E-02 0.  1.
       -2   -1    0    0    0  501  0.00000000000E+00  0.00000000000E+00 -0.11382535295E+04  0.11382535295E+04  0.25500000920E-02 0. -1.
    10030    2    1    2    0    0  0.00000000000E+00  0.00000000000E+00  0.13793328378E+02  0.22903003873E+04  0.22902588518E+04 0.  0.
        3    1    3    3  502    0  0.20596954114E+03  0.11186131500E+04  0.13957371190E+03  0.11459492408E+04  0.10100000352E+00 0.  1.
       -3    1    3    3    0  502 -0.20596954114E+03 -0.11186131500E+04 -0.12578038352E+03  0.11443511465E+04  0.10100000352E+00 0. -1.
</event>
<event>
 5   0  0.2944089E-05  0.2282720E+04  0.7818609E-02  0.8484766E-01
       -1   -1    0    0    0  501  0.00000000000E+00  0.00000000000E+00  0.60000187429E+03  0.60000187431E+03  0.50400001928E-02 0. -1.
        1   -1    0    0  501    0  0.00000000000E+00  0.00000000000E+00 -0.21711644067E+04  0.21711644067E+04  0.50400001928E-02 0.  1.
    10030    2    1    2    0    0  0.00000000000E+00  0.00000000000E+00 -0.15711625324E+04  0.27711662810E+04  0.22827200559E+04 0.  0.
        5    1    3    3  502    0  0.82095943017E+03 -0.79091098743E+03 -0.71727372691E+03  0.13468549533E+04  0.46999998093E+01 0.  1.
       -5    1    3    3    0  502 -0.82095943017E+03  0.79091098743E+03 -0.85388880554E+03  0.14243113277E+04  0.46999998093E+01 0. -1.
</event>
<event>
 5   0  0.2982385E-05  0.2242966E+04  0.7818609E-02  0.8500755E-01
        1   -1    0    0  501    0  0.00000000000E+00  0.00000000000E+00  0.15284302311E+04  0.15284302311E+04  0.50400001928E-02 0. -1.
       -1   -1    0    0    0  501  0.00000000000E+00  0.00000000000E+00 -0.82288608563E+03  0.82288608565E+03  0.50400001928E-02 0.  1.
    10030    2    1    2    0    0  0.00000000000E+00  0.00000000000E+00  0.70554414543E+03  0.23513163167E+04  0.22429658669E+04 0.  0.
        4    1    3    3  502    0 -0.85949157631E+03 -0.56276466261E+03 -0.11872424713E+03  0.10341793341E+04  0.12699999809E+01 0.  1.
       -4    1    3    3    0  502  0.85949157631E+03  0.56276466261E+03  0.82426839256E+03  0.13171369827E+04  0.12699999809E+01 0. -1.
</event>
<event>
 5   0  0.3118614E-05  0.2310892E+04  0.7818609E-02  0.8473639E-01
       -1   -1    0    0    0  501  0.00000000000E+00  0.00000000000E+00  0.31562528796E+04  0.31562528796E+04  0.50400001928E-02 0. -1.
        1   -1    0    0  501    0  0.00000000000E+00  0.00000000000E+00 -0.42298752805E+03  0.42298752808E+03  0.50400001928E-02 0.  1.
    10030    2    1    2    0    0  0.00000000000E+00  0.00000000000E+00  0.27332653516E+04  0.35792404077E+04  0.23108921251E+04 0.  0.
        3    1    3    3  502    0  0.54044252406E+03 -0.32468874208E+03 -0.13308497522E+03  0.64436986419E+03  0.10100000352E+00 0.  1.
       -3    1    3    3    0  502 -0.54044252406E+03  0.32468874208E+03  0.28663503268E+04  0.29348705435E+04  0.10100000352E+00 0. -1.
</event>
<event>
 5   0  0.6814789E-05  0.2316758E+04  0.7818609E-02  0.8471343E-01
       -2   -1    0    0    0  501  0.00000000000E+00  0.00000000000E+00  0.82849649767E+03  0.82849649767E+03  0.25500000920E-02 0. -1.
        2   -1    0    0  501    0  0.00000000000E+00  0.00000000000E+00 -0.16196103647E+04  0.16196103647E+04  0.25500000920E-02 0.  1.
    10030    2    1    2    0    0  0.00000000000E+00  0.00000000000E+00 -0.79111386708E+03  0.24481068624E+04  0.23167576609E+04 0.  0.
        1    1    3    3  502    0  0.37884008697E+03 -0.47547581821E+03 -0.14374844313E+04  0.15607557642E+04  0.50400001928E-02 0.  1.
       -1    1    3    3    0  502 -0.37884008697E+03  0.47547581821E+03  0.64637056422E+03  0.88735109822E+03  0.50400001928E-02 0. -1.
</event>
<event>
 5   0  0.2962279E-05  0.2283619E+04  0.7818609E-02  0.8484408E-01
        1   -1    0    0  501    0  0.00000000000E+00  0.00000000000E+00  0.71702283150E+03  0.71702283152E+03  0.50400001928E-02 0.  1.
       -1   -1    0    0    0  501  0.00000000000E+00  0.00000000000E+00 -0.18182531497E+04  0.18182531497E+04  0.50400001928E-02 0. -1.
    10030    2    1    2    0    0  0.00000000000E+00  0.00000000000E+00 -0.11012303182E+04  0.25352759812E+04  0.22836190766E+04 0.  0.
        1    1    3    3  502    0 -0.67274330624E+03  0.39446908288E+03  0.37528149123E+03  0.86546265727E+03  0.50400001928E-02 0.  1.
       -1    1    3    3    0  502  0.67274330624E+03 -0.39446908288E+03 -0.14765118094E+04  0.16698133239E+04  0.50400001928E-02 0. -1.
</event>
<event>
 5   0  0.6468758E-05  0.2273622E+04  0.7818609E-02  0.8488395E-01
        2   -1    0    0  501    0  0.00000000000E+00  0.00000000000E+00  0.76726488904E+03  0.76726488905E+03  0.25500000920E-02 0.  1.
       -2   -1    0    0    0  501  0.00000000000E+00  0.00000000000E+00 -0.16843451529E+04  0.16843451529E+04  0.25500000920E-02 0. -1.
    10030    2    1    2    0    0  0.00000000000E+00  0.00000000000E+00 -0.91708026382E+03  0.24516100419E+04  0.22736216896E+04 0.  0.
        3    1    3    3  502    0 -0.17462300022E+03  0.50642941808E+03  0.62263790693E+03  0.82136588743E+03  0.10100000352E+00 0.  1.
       -3    1    3    3    0  502  0.17462300022E+03 -0.50642941808E+03 -0.15397181708E+04  0.16302441545E+04  0.10100000352E+00 0. -1.
</event>
<event>
 5   0  0.6468758E-05  0.2230348E+04  0.7818609E-02  0.8505902E-01
       -2   -1    0    0    0  501  0.00000000000E+00  0.00000000000E+00  0.12862933581E+04  0.12862933581E+04  0.25500000920E-02 0.  1.
        2   -1    0    0  501    0  0.00000000000E+00  0.00000000000E+00 -0.96681884479E+03  0.96681884479E+03  0.25500000920E-02 0. -1.
    10030    2    1    2    0    0  0.00000000000E+00  0.00000000000E+00  0.31947451333E+03  0.22531122029E+04  0.22303476487E+04 0.  0.
        3    1    3    3  502    0 -0.68333737865E+03  0.25475003722E+03  0.10120100009E+04  0.12474020229E+04  0.10100000352E+00 0.  1.
       -3    1    3    3    0  502  0.68333737865E+03 -0.25475003722E+03 -0.69253548757E+03  0.10057101801E+04  0.10100000352E+00 0. -1.
</event>
<event>
 5   0  0.6702421E-05  0.2261713E+04  0.7818609E-02  0.8493172E-01
        2   -1    0    0  501    0  0.00000000000E+00  0.00000000000E+00  0.23592011340E+04  0.23592011340E+04  0.25500000920E-02 0.  1.
       -2   -1    0    0    0  501  0.00000000000E+00  0.00000000000E+00 -0.54206348234E+03  0.54206348235E+03  0.25500000920E-02 0. -1.
    10030    2    1    2    0    0  0.00000000000E+00  0.00000000000E+00  0.18171376517E+04  0.29012646164E+04  0.22617133172E+04 0.  0.
        4    1    3    3  502    0  0.85983459443E+03  0.39488996719E+03  0.11409673938E+03  0.95303373225E+03  0.12699999809E+01 0.  1.
       -4    1    3    3    0  502 -0.85983459443E+03 -0.39488996719E+03  0.17030409123E+04  0.19482308841E+04  0.12699999809E+01 0. -1.
</event>
<event>
 5   0  0.3118614E-05  0.2241532E+04  0.7818609E-02  0.8501338E-01
       -1   -1    0    0    0  501  0.00000000000E+00  0.00000000000E+00  0.12297574089E+04  0.12297574090E+04  0.50400001928E-02 0. -1.
        1   -1    0    0  501    0  0.00000000000E+00  0.00000000000E+00 -0.10214340993E+04  0.10214340993E+04  0.50400001928E-02 0.  1.
    10030    2    1    2    0    0  0.00000000000E+00  0.00000000000E+00  0.20832330969E+03  0.22511915082E+04  0.22415317542E+04 0.  0.
        3    1    3    3  502    0  0.37083164778E+03  0.78517535443E+03  0.81580521582E+03  0.11914506320E+04  0.10100000352E+00 0. -1.
       -3    1    3    3    0  502 -0.37083164778E+03 -0.78517535443E+03 -0.60748190613E+03  0.10597408762E+04  0.10100000352E+00 0.  1.
</event>
<event>
 5   0  0.6702421E-05  0.2288625E+04  0.7818609E-02  0.8482420E-01
       -2   -1    0    0    0  501  0.00000000000E+00  0.00000000000E+00  0.87954278515E+03  0.87954278516E+03  0.25500000920E-02 0. -1.
        2   -1    0    0  501    0  0.00000000000E+00  0.00000000000E+00 -0.14887863414E+04  0.14887863414E+04  0.25500000920E-02 0.  1.
    10030    2    1    2    0    0  0.00000000000E+00  0.00000000000E+00 -0.60924355627E+03  0.23683291266E+04  0.22886251639E+04 0.  0.
        4    1    3    3  502    0 -0.86131625414E+03 -0.30292615474E+03  0.40919805309E+03  0.10005371579E+04  0.12699999809E+01 0.  1.
       -4    1    3    3    0  502  0.86131625414E+03  0.30292615474E+03 -0.10184416094E+04  0.13677919686E+04  0.12699999809E+01 0. -1.
</event>
<event>
 5   0  0.2944089E-05  0.2313907E+04  0.7818609E-02  0.8472458E-01
       -1   -1    0    0    0  501  0.00000000000E+00  0.00000000000E+00  0.75712023065E+03  0.75712023067E+03  0.50400001928E-02 0. -1.
        1   -1    0    0  501    0  0.00000000000E+00  0.00000000000E+00 -0.17679370949E+04  0.17679370949E+04  0.50400001928E-02 0.  1.
    10030    2    1    2    0    0  0.00000000000E+00  0.00000000000E+00 -0.10108168642E+04  0.25250573256E+04  0.23139066023E+04 0.  0.
        5    1    3    3  502    0 -0.70068916070E+03 -0.29051990514E+03  0.44789436029E+03  0.88090780629E+03  0.46999998093E+01 0. -1.
       -5    1    3    3    0  502  0.70068916070E+03  0.29051990514E+03 -0.14587112245E+04  0.16441495193E+04  0.46999998093E+01 0.  1.
</event>
<event>
 5   0  0.6814789E-05  0.2303727E+04  0.7818609E-02  0.8476453E-01
       -2   -1    0    0    0  501  0.00000000000E+00  0.00000000000E+00  0.42914530747E+03  0.42914530747E+03  0.25500000920E-02 0.  1.
        2   -1    0    0  501    0  0.00000000000E+00  0.00000000000E+00 -0.30917022859E+04  0.30917022859E+04  0.25500000920E-02 0. -1.
    10030    2    1    2    0    0  0.00000000000E+00  0.00000000000E+00 -0.26625569784E+04  0.35208475934E+04  0.23037270047E+04 0.  0.
        1    1    3    3  502    0  0.19563479131E+03  0.10575294534E+04 -0.70085896880E+03  0.12836840774E+04  0.50400001928E-02 0.  1.
       -1    1    3    3    0  502 -0.19563479131E+03 -0.10575294534E+04 -0.19616980096E+04  0.22371635160E+04  0.50400001928E-02 0. -1.
</event>
<event>
 5   0  0.3006265E-05  0.2418646E+04  0.7818609E-02  0.8432556E-01
        1   -1    0    0  501    0  0.00000000000E+00  0.00000000000E+00  0.15315990074E+04  0.15315990074E+04  0.50400001928E-02 0. -1.
       -1   -1    0    0    0  501  0.00000000000E+00  0.00000000000E+00 -0.95485957785E+03  0.95485957786E+03  0.50400001928E-02 0.  1.
    10030    2    1    2    0    0  0.00000000000E+00  0.00000000000E+00  0.57673942950E+03  0.24864585852E+04  0.24186458870E+04 0.  0.
        2    1    3    3  502    0 -0.80695472453E+03 -0.58647916496E+03 -0.41441119548E+03  0.10802177453E+04  0.25500000920E-02 0.  1.
       -2    1    3    3    0  502  0.80695472453E+03  0.58647916496E+03  0.99115062498E+03  0.14062408399E+04  0.25500000920E-02 0. -1.
</event>
<event>
 5   0  0.6495405E-05  0.2272568E+04  0.7818609E-02  0.8488816E-01
        2   -1    0    0  501    0  0.00000000000E+00  0.00000000000E+00  0.20611798571E+04  0.20611798571E+04  0.25500000920E-02 0. -1.
       -2   -1    0    0    0  501  0.00000000000E+00  0.00000000000E+00 -0.62640892785E+03  0.62640892785E+03  0.25500000920E-02 0.  1.
    10030    2    1    2    0    0  0.00000000000E+00  0.00000000000E+00  0.14347709292E+04  0.26875887849E+04  0.22725681195E+04 0.  0.
        5    1    3    3  502    0 -0.25738104850E+03 -0.74407430777E+03 -0.25151881941E+03  0.82654424329E+03  0.46999998093E+01 0. -1.
       -5    1    3    3    0  502  0.25738104850E+03  0.74407430777E+03  0.16862897486E+04  0.18610445416E+04  0.46999998093E+01 0.  1.
</event>
<event>
 5   0  0.3118614E-05  0.2279344E+04  0.7818609E-02  0.8486110E-01
       -1   -1    0    0    0  501  0.00000000000E+00  0.00000000000E+00  0.90546510906E+03  0.90546510908E+03  0.50400001928E-02 0.  1.
        1   -1    0    0  501    0  0.00000000000E+00  0.00000000000E+00 -0.14344588436E+04  0.14344588436E+04  0.50400001928E-02 0. -1.
    10030    2    1    2    0    0  0.00000000000E+00  0.00000000000E+00 -0.52899373453E+03  0.23399239527E+04  0.22793441454E+04 0.  0.
        3    1    3    3  502    0  0.75924846497E+03  0.82408430865E+03 -0.47806265061E+03  0.12182434434E+04  0.10100000352E+00 0. -1.
       -3    1    3    3    0  502 -0.75924846497E+03 -0.82408430865E+03 -0.50931083914E+02  0.11216805093E+04  0.10100000352E+00 0.  1.
</event>
<event>
 5   0  0.3118614E-05  0.2285523E+04  0.7818609E-02  0.8483651E-01
       -1   -1    0    0    0  501  0.00000000000E+00  0.00000000000E+00  0.95692527944E+03  0.95692527945E+03  0.50400001928E-02 0. -1.
        1   -1    0    0  501    0  0.00000000000E+00  0.00000000000E+00 -0.13646874697E+04  0.13646874697E+04  0.50400001928E-02 0.  1.
    10030    2    1    2    0    0  0.00000000000E+00  0.00000000000E+00 -0.40776219027E+03  0.23216127492E+04  0.22855230809E+04 0.  0.
        3    1    3    3  502    0  0.26940012344E+03  0.10436752709E+04  0.18167723283E+03  0.10930878852E+04  0.10100000352E+00 0. -1.
       -3    1    3    3    0  502 -0.26940012344E+03 -0.10436752709E+04 -0.58943942311E+03  0.12285248640E+04  0.10100000352E+00 0.  1.
</event>
<event>
 5   0  0.2342500E-05  0.2386124E+04  0.7818609E-02  0.8444717E-01
       -3   -1    0    0    0  501  0.00000000000E+00  0.00000000000E+00  0.14431192654E+04  0.14431192689E+04  0.10100000352E+00 0.  1.
        3   -1    0    0  501    0  0.00000000000E+00  0.00000000000E+00 -0.98633333310E+03  0.98633333827E+03  0.10100000352E+00 0. -1.
    10030    2    1    2    0    0  0.00000000000E+00  0.00000000000E+00  0.45678593225E+03  0.24294526072E+04  0.23861237568E+04 0.  0.
        3    1    3    3  502    0 -0.11489493698E+04  0.27118107256E+03  0.52711738824E+02  0.11816947009E+04  0.10100000352E+00 0. -1.
       -3    1    3    3    0  502  0.11489493698E+04 -0.27118107256E+03  0.40407419343E+03  0.12477579062E+04  0.10100000352E+00 0.  1.
</event>
<event>
 5   0  0.2962279E-05  0.2305588E+04  0.7818609E-02  0.8475721E-01
       -1   -1    0    0    0  501  0.00000000000E+00  0.00000000000E+00  0.15223929427E+04  0.15223929427E+04  0.50400001928E-02 0. -1.
        1   -1    0    0  501    0  0.00000000000E+00  0.00000000000E+00 -0.87292461496E+03  0.87292461497E+03  0.50400001928E-02 0.  1.
    10030    2    1    2    0    0  0.00000000000E+00  0.00000000000E+00  0.64946832773E+03  0.23953175577E+04  0.23055882315E+04 0.  0.
        1    1    3    3  502    0 -0.10878242216E+04 -0.13475754131E+03 -0.46107450151E+02  0.10971084856E+04  0.50400001928E-02 0.  1.
       -1    1    3    3    0  502  0.10878242216E+04  0.13475754131E+03  0.69557577788E+03  0.12982090721E+04  0.50400001928E-02 0. -1.
</event>
<event>
 5   0  0.3006265E-05  0.2269019E+04  0.7818609E-02  0.8490238E-01
       -1   -1    0    0    0  501  0.00000000000E+00  0.00000000000E+00  0.10738192444E+04  0.10738192444E+04  0.50400001928E-02 0. -1.
        1   -1    0    0  501    0  0.00000000000E+00  0.00000000000E+00 -0.11986300701E+04  0.11986300701E+04  0.50400001928E-02 0.  1.
    10030    2    1    2    0    0  0.00000000000E+00  0.00000000000E+00 -0.12481082573E+03  0.22724493145E+04  0.22690192033E+04 0.  0.
        2    1    3    3  502    0 -0.87023790482E+03  0.31198128491E+03 -0.72102079495E+03  0.11723981064E+04  0.25500000920E-02 0.  1.
       -2    1    3    3    0  502  0.87023790482E+03 -0.31198128491E+03  0.59620996922E+03  0.11000512081E+04  0.25500000920E-02 0. -1.
</event>
<event>
 5   0  0.2944089E-05  0.2432153E+04  0.7818609E-02  0.8427563E-01
       -1   -1    0    0    0  501  0.00000000000E+00  0.00000000000E+00  0.10222630224E+04  0.10222630224E+04  0.50400001928E-02 0. -1.
        1   -1    0    0  501    0  0.00000000000E+00  0.00000000000E+00 -0.14466349965E+04  0.14466349965E+04  0.50400001928E-02 0.  1.
    10030    2    1    2    0    0  0.00000000000E+00  0.00000000000E+00 -0.42437197414E+03  0.24688980189E+04  0.24321525148E+04 0.  0.
        5    1    3    3  502    0 -0.76160395020E+03 -0.69666424040E+03  0.44051970701E+03  0.11222572535E+04  0.46999998093E+01 0. -1.
       -5    1    3    3    0  502  0.76160395020E+03  0.69666424040E+03 -0.86489168114E+03  0.13466407654E+04  0.46999998093E+01 0.  1.
</event>
<event>
 5   0  0.6495405E-05  0.2201710E+04  0.7818609E-02  0.8517717E-01
        2   -1    0    0  501    0  0.00000000000E+00  0.00000000000E+00  0.96190480150E+03  0.96190480151E+03  0.25500000920E-02 0. -1.
       -2   -1    0    0    0  501  0.00000000000E+00  0.00000000000E+00 -0.12598771396E+04  0.12598771396E+04  0.25500000920E-02 0.  1.
    10030    2    1    2    0    0  0.00000000000E+00  0.00000000000E+00 -0.29797233812E+03  0.22217819411E+04  0.22017101262E+04 0.  0.
        5    1    3    3  502    0 -0.16104493947E+02 -0.91795167817E+03 -0.76194874751E+03  0.11930979096E+04  0.46999998093E+01 0.  1.
       -5    1    3    3    0  502  0.16104493947E+02  0.91795167817E+03  0.46397640939E+03  0.10286840315E+04  0.46999998093E+01 0. -1.
</event>
<event>
 5   0  0.2944089E-05  0.2280459E+04  0.7818609E-02  0.8485666E-01
       -1   -1    0    0    0  501  0.00000000000E+00  0.00000000000E+00  0.92084348647E+03  0.92084348648E+03  0.50400001928E-02 0. -1.
        1   -1    0    0  501    0  0.00000000000E+00  0.00000000000E+00 -0.14118830735E+04  0.14118830735E+04  0.50400001928E-02 0.  1.
    10030    2    1    2    0    0  0.00000000000E+00  0.00000000000E+00 -0.49103958702E+03  0.23327265600E+04  0.22804590169E+04 0.  0.
        5    1    3    3  502    0 -0.73968418909E+03 -0.13077550477E+03 -0.11230074630E+04  0.13510746775E+04  0.46999998093E+01 0.  1.
       -5    1    3    3    0  502  0.73968418909E+03  0.13077550477E+03  0.63196787593E+03  0.98165188252E+03  0.46999998093E+01 0. -1.
</event>
<event>
 5   0  0.6814789E-05  0.2277893E+04  0.7818609E-02  0.8486689E-01
       -2   -1    0    0    0  501  0.00000000000E+00  0.00000000000E+00  0.58127935862E+03  0.58127935862E+03  0.25500000920E-02 0.  1.
        2   -1    0    0  501    0  0.00000000000E+00  0.00000000000E+00 -0.22316272354E+04  0.22316272354E+04  0.25500000920E-02 0. -1.
    10030    2    1    2    0    0  0.00000000000E+00  0.00000000000E+00 -0.16503478768E+04  0.28129065941E+04  0.22778927526E+04 0.  0.
        1    1    3    3  502    0 -0.75389236652E+03  0.76105402905E+03 -0.13028667033E+04  0.16867182877E+04  0.50400001928E-02 0. -1.
       -1    1    3    3    0  502  0.75389236652E+03 -0.76105402905E+03 -0.34748117353E+03  0.11261883064E+04  0.50400001928E-02 0.  1.
</event>
<event>
 5   0  0.2962279E-05  0.2266287E+04  0.7818609E-02  0.8491333E-01
        1   -1    0    0  501    0  0.00000000000E+00  0.00000000000E+00  0.17407368987E+04  0.17407368987E+04  0.50400001928E-02 0. -1.
       -1   -1    0    0    0  501  0.00000000000E+00  0.00000000000E+00 -0.73762687699E+03  0.73762687701E+03  0.50400001928E-02 0.  1.
    10030    2    1    2    0    0  0.00000000000E+00  0.00000000000E+00  0.10031100217E+04  0.24783637757E+04  0.22662871153E+04 0.  0.
        1    1    3    3  502    0 -0.67063471507E+03 -0.20720414056E+03 -0.47125693700E+03  0.84543928086E+03  0.50400001928E-02 0.  1.
       -1    1    3    3    0  502  0.67063471507E+03  0.20720414056E+03  0.14743669587E+04  0.16329244949E+04  0.50400001928E-02 0. -1.
</event>
<event>
 5   0  0.6702421E-05  0.2271615E+04  0.7818609E-02  0.8489198E-01
        2   -1    0    0  501    0  0.00000000000E+00  0.00000000000E+00  0.25966752150E+04  0.25966752150E+04  0.25500000920E-02 0. -1.
       -2   -1    0    0    0  501  0.00000000000E+00  0.00000000000E+00 -0.49681189672E+03  0.49681189673E+03  0.25500000920E-02 0.  1.
    10030    2    1    2    0    0  0.00000000000E+00  0.00000000000E+00  0.20998633182E+04  0.30934871117E+04  0.22716154065E+04 0.  0.
        4    1    3    3  502    0  0.43806444626E+03 -0.99624301239E+03  0.60727959561E+03  0.12462707246E+04  0.12699999809E+01 0. -1.
       -4    1    3    3    0  502 -0.43806444626E+03  0.99624301239E+03  0.14925837226E+04  0.18472163871E+04  0.12699999809E+01 0.  1.
</event>
<event>
 5   0  0.6468758E-05  0.2502903E+04  0.7818609E-02  0.8401952E-01
       -2   -1    0    0    0  501  0.00000000000E+00  0.00000000000E+00  0.14632913306E+04  0.14632913306E+04  0.25500000920E-02 0. -1.
        2   -1    0    0  501    0  0.00000000000E+00  0.00000000000E+00 -0.10702796606E+04  0.10702796607E+04  0.25500000920E-02 0.  1.
    10030    2    1    2    0    0  0.00000000000E+00  0.00000000000E+00  0.39301166996E+03  0.25335709913E+04  0.25029030734E+04 0.  0.
        3    1    3    3  502    0 -0.14281435665E+03  0.98821277137E+03 -0.56717210210E+03  0.11483225268E+04  0.10100000352E+00 0.  1.
       -3    1    3    3    0  502  0.14281435665E+03 -0.98821277137E+03  0.96018377206E+03  0.13852484645E+04  0.10100000352E+00 0. -1.
</event>
<event>
 5   0  0.3118614E-05  0.2362790E+04  0.7818609E-02  0.8453567E-01
       -1   -1    0    0    0  501  0.00000000000E+00  0.00000000000E+00  0.67016521807E+03  0.67016521809E+03  0.50400001928E-02 0. -1.
        1   -1    0    0  501    0  0.00000000000E+00  0.00000000000E+00 -0.20826129063E+04  0.20826129063E+04  0.50400001928E-02 0.  1.
    10030    2    1    2    0    0  0.00000000000E+00  0.00000000000E+00 -0.14124476882E+04  0.27527781244E+04  0.23627904965E+04 0.  0.
        3    1    3    3  502    0  0.90082963850E+03  0.10310541593E+03  0.17612270412E+03  0.92365793533E+03  0.10100000352E+00 0. -1.
       -3    1    3    3    0  502 -0.90082963850E+03 -0.10310541593E+03 -0.15885703924E+04  0.18291201891E+04  0.10100000352E+00 0.  1.
</event>
<event>
 5   0  0.2944089E-05  0.2295658E+04  0.7818609E-02  0.8479635E-01
       -1   -1    0    0    0  501  0.00000000000E+00  0.00000000000E+00  0.50236080040E+03  0.50236080042E+03  0.50400001928E-02 0.  1.
        1   -1    0    0  501    0  0.00000000000E+00  0.00000000000E+00 -0.26226396821E+04  0.26226396821E+04  0.50400001928E-02 0. -1.
    10030    2    1    2    0    0  0.00000000000E+00  0.00000000000E+00 -0.21202788817E+04  0.31250004825E+04  0.22956579622E+04 0.  0.
        5    1    3    3  502    0  0.17131138747E+03 -0.10991007487E+04 -0.14454503435E+04  0.18239295032E+04  0.46999998093E+01 0.  1.
       -5    1    3    3    0  502 -0.17131138747E+03  0.10991007487E+04 -0.67482853821E+03  0.13010709793E+04  0.46999998093E+01 0. -1.
</event>
<event>
 5   0  0.2982385E-05  0.2372433E+04  0.7818609E-02  0.8449897E-01
       -1   -1    0    0    0  501  0.00000000000E+00  0.00000000000E+00  0.17791826949E+04  0.17791826949E+04  0.50400001928E-02 0.  1.
        1   -1    0    0  501    0  0.00000000000E+00  0.00000000000E+00 -0.79087385567E+03  0.79087385568E+03  0.50400001928E-02 0. -1.
    10030    2    1    2    0    0  0.00000000000E+00  0.00000000000E+00  0.98830883921E+03  0.25700565506E+04  0.23724325726E+04 0.  0.
        4    1    3    3  502    0  0.62771751316E+03 -0.89468001445E+03  0.99367897667E+03  0.14771191984E+04  0.12699999809E+01 0.  1.
       -4    1    3    3    0  502 -0.62771751316E+03  0.89468001445E+03 -0.53701374582E+01  0.10929373522E+04  0.12699999809E+01 0. -1.
</event>
<event>
 5   0  0.6468758E-05  0.2324291E+04  0.7818609E-02  0.8468404E-01
       -2   -1    0    0    0  501  0.00000000000E+00  0.00000000000E+00  0.82499276052E+03  0.82499276052E+03  0.25500000920E-02 0.  1.
        2   -1    0    0  501    0  0.00000000000E+00  0.00000000000E+00 -0.16370842737E+04  0.16370842737E+04  0.25500000920E-02 0. -1.
    10030    2    1    2    0    0  0.00000000000E+00  0.00000000000E+00 -0.81209151316E+03  0.24620770342E+04  0.23242914397E+04 0.  0.
        3    1    3    3  502    0  0.10465772569E+04 -0.32277211488E+03 -0.81777341794E+03  0.13668427730E+04  0.10100000352E+00 0. -1.
       -3    1    3    3    0  502 -0.10465772569E+04  0.32277211488E+03  0.56819047811E+01  0.10952342612E+04  0.10100000352E+00 0.  1.
</event>
<event>
 5   0  0.6676612E-05  0.2158791E+04  0.7818609E-02  0.8535779E-01
        2   -1    0    0  501    0  0.00000000000E+00  0.00000000000E+00  0.11073672954E+04  0.11073672954E+04  0.25500000920E-02 0.  1.
       -2   -1    0    0    0  501  0.00000000000E+00  0.00000000000E+00 -0.10521304001E+04  0.10521304001E+04  0.25500000920E-02 0. -1.
    10030    2    1    2    0    0  0.00000000000E+00  0.00000000000E+00  0.55236895239E+02  0.21594976955E+04  0.21587911391E+04 0.  0.
        2    1    3    3  502    0  0.87858423348E+03 -0.33888457128E+03  0.55537219310E+03  0.10932480418E+04  0.25500000920E-02 0.  1.
       -2    1    3    3    0  502 -0.87858423348E+03  0.33888457128E+03 -0.50013529786E+03  0.10662496538E+04  0.25500000920E-02 0. -1.
</event>
<event>
 5   0  0.6468758E-05  0.2312659E+04  0.7818609E-02  0.8472947E-01
        2   -1    0    0  501    0  0.00000000000E+00  0.00000000000E+00  0.20540428344E+04  0.20540428344E+04  0.25500000920E-02 0.  1.
       -2   -1    0    0    0  501  0.00000000000E+00  0.00000000000E+00 -0.65095889869E+03  0.65095889869E+03  0.25500000920E-02 0. -1.
    10030    2    1    2    0    0  0.00000000000E+00  0.00000000000E+00  0.14030839358E+04  0.27050017331E+04  0.23126586098E+04 0.  0.
        3    1    3    3  502    0  0.14220221325E+03 -0.17123598275E+03 -0.62566539766E+03  0.66407863335E+03  0.10100000352E+00 0. -1.
       -3    1    3    3    0  502 -0.14220221325E+03  0.17123598275E+03  0.20287493334E+04  0.20409230998E+04  0.10100000352E+00 0.  1.
</event>
<event>
 5   0  0.6676612E-05  0.2298866E+04  0.7818609E-02  0.8478368E-01
       -2   -1    0    0    0  501  0.00000000000E+00  0.00000000000E+00  0.13263300047E+04  0.13263300047E+04  0.25500000920E-02 0.  1.
        2   -1    0    0  501    0  0.00000000000E+00  0.00000000000E+00 -0.99612920585E+03  0.99612920585E+03  0.25500000920E-02 0. -1.
    10030    2    1    2    0    0  0.00000000000E+00  0.00000000000E+00  0.33020079882E+03  0.23224592105E+04  0.22988658545E+04 0.  0.
        2    1    3    3  502    0 -0.10603006973E+04 -0.30984857557E+03 -0.15589046562E+03  0.11155920158E+04  0.25500000920E-02 0.  1.
       -2    1    3    3    0  502  0.10603006973E+04  0.30984857557E+03  0.48609126445E+03  0.12068671947E+04  0.25500000920E-02 0. -1.
</event>
<event>
 5   0  0.6468758E-05  0.2278912E+04  0.7818609E-02  0.8486283E-01
       -2   -1    0    0    0  501  0.00000000000E+00  0.00000000000E+00  0.13976827871E+04  0.13976827871E+04  0.25500000920E-02 0.  1.
        2   -1    0    0  501    0  0.00000000000E+00  0.00000000000E+00 -0.92893732390E+03  0.92893732390E+03  0.25500000920E-02 0. -1.
    10030    2    1    2    0    0  0.00000000000E+00  0.00000000000E+00  0.46874546319E+03  0.23266201110E+04  0.22789117648E+04 0.  0.
        3    1    3    3  502    0  0.82390329138E+03 -0.41372402827E+03  0.91799924958E+03  0.13010406748E+04  0.10100000352E+00 0.  1.
       -3    1    3    3    0  502 -0.82390329138E+03  0.41372402827E+03 -0.44925378639E+03  0.10255794362E+04  0.10100000352E+00 0. -1.
</event>
<event>
 5   0  0.6495405E-05  0.2400202E+04  0.7818609E-02  0.8439428E-01
        2   -1    0    0  501    0  0.00000000000E+00  0.00000000000E+00  0.21841705553E+04  0.21841705553E+04  0.25500000920E-02 0.  1.
       -2   -1    0    0    0  501  0.00000000000E+00  0.00000000000E+00 -0.65940018280E+03  0.65940018281E+03  0.25500000920E-02 0. -1.
    10030    2    1    2    0    0  0.00000000000E+00  0.00000000000E+00  0.15247703725E+04  0.28435707381E+04  0.24002020444E+04 0.  0.
        5    1    3    3  502    0 -0.49418838317E+03  0.40010710383E+03  0.19681921184E+04  0.20683592912E+04  0.46999998093E+01 0.  1.
       -5    1    3    3    0  502  0.49418838317E+03 -0.40010710383E+03 -0.44342174593E+03  0.77521144687E+03  0.46999998093E+01 0. -1.
</event>
<event>
 5   0  0.6702421E-05  0.2296561E+04  0.7818609E-02  0.8479278E-01
       -2   -1    0    0    0  501  0.00000000000E+00  0.00000000000E+00  0.14287237988E+04  0.14287237988E+04  0.25500000920E-02 0.  1.
        2   -1    0    0  501    0  0.00000000000E+00  0.00000000000E+00 -0.92288521771E+03  0.92288521771E+03  0.25500000920E-02 0. -1.
    10030    2    1    2    0    0  0.00000000000E+00  0.00000000000E+00  0.50583858105E+03  0.23516090165E+04  0.22965609716E+04 0.  0.
        4    1    3    3  502    0 -0.97302800584E+03 -0.84440655883E+02 -0.36540308829E+03  0.10428013974E+04  0.12699999809E+01 0. -1.
       -4    1    3    3    0  502  0.97302800584E+03  0.84440655883E+02  0.87124166934E+03  0.13088076191E+04  0.12699999809E+01 0.  1.
</event>
<event>
 5   0  0.6702421E-05  0.2285684E+04  0.7818609E-02  0.8483587E-01
       -2   -1    0    0    0  501  0.00000000000E+00  0.00000000000E+00  0.82123219451E+03  0.82123219451E+03  0.25500000920E-02 0. -1.
        2   -1    0    0  501    0  0.00000000000E+00  0.00000000000E+00 -0.15903996217E+04  0.15903996217E+04  0.25500000920E-02 0.  1.
    10030    2    1    2    0    0  0.00000000000E+00  0.00000000000E+00 -0.76916742722E+03  0.24116318162E+04  0.22856835927E+04 0.  0.
        4    1    3    3  502    0 -0.17975668077E+03 -0.97331429712E+03  0.21824181871E+03  0.10135503390E+04  0.12699999809E+01 0. -1.
       -4    1    3    3    0  502  0.17975668077E+03  0.97331429712E+03 -0.98740924593E+03  0.13980814773E+04  0.12699999809E+01 0.  1.
</event>
<event>
 5   0  0.2962279E-05  0.2271745E+04  0.7818609E-02  0.8489146E-01
        1   -1    0    0  501    0  0.00000000000E+00  0.00000000000E+00  0.73332440664E+03  0.73332440666E+03  0.50400001928E-02 0.  1.
       -1   -1    0    0    0  501  0.00000000000E+00  0.00000000000E+00 -0.17593941471E+04  0.17593941471E+04  0.50400001928E-02 0. -1.
    10030    2    1    2    0    0  0.00000000000E+00  0.00000000000E+00 -0.10260697405E+04  0.24927185538E+04  0.22717452929E+04 0.  0.
        1    1    3    3  502    0 -0.41598940169E+02  0.23841972465E+03  0.70470389738E+03  0.74510537506E+03  0.50400001928E-02 0.  1.
       -1    1    3    3    0  502  0.41598940169E+02 -0.23841972465E+03 -0.17307736378E+04  0.17476131787E+04  0.50400001928E-02 0. -1.
</event>
<event>
 5   0  0.6676612E-05  0.1771780E+04  0.7818609E-02  0.8721452E-01
       -2   -1    0    0    0  501  0.00000000000E+00  0.00000000000E+00  0.97042590849E+03  0.97042590849E+03  0.25500000920E-02 0. -1.
        2   -1    0    0  501    0  0.00000000000E+00  0.00000000000E+00 -0.80871846670E+03  0.80871846671E+03  0.25500000920E-02 0.  1.
    10030    2    1    2    0    0  0.00000000000E+00  0.00000000000E+00  0.16170744178E+03  0.17791443752E+04  0.17717802942E+04 0.  0.
        2    1    3    3  502    0 -0.13752672171E+03 -0.87423034873E+03  0.12113342024E+03  0.89323323233E+03  0.25500000920E-02 0. -1.
       -2    1    3    3    0  502  0.13752672171E+03  0.87423034873E+03  0.40574021546E+02  0.88591114287E+03  0.25500000920E-02 0.  1.
</event>
<event>
 5   0  0.2944089E-05  0.2288809E+04  0.7818609E-02  0.8482347E-01
       -1   -1    0    0    0  501  0.00000000000E+00  0.00000000000E+00  0.12628706644E+04  0.12628706644E+04  0.50400001928E-02 0. -1.
        1   -1    0    0  501    0  0.00000000000E+00  0.00000000000E+00 -0.10370510969E+04  0.10370510969E+04  0.50400001928E-02 0.  1.
    10030    2    1    2    0    0  0.00000000000E+00  0.00000000000E+00  0.22581956743E+03  0.22999217613E+04  0.22888087799E+04 0.  0.
        5    1    3    3  502    0 -0.87412976994E+03  0.88996680534E+02  0.84969290147E+03  0.12223024915E+04  0.46999998093E+01 0. -1.
       -5    1    3    3    0  502  0.87412976994E+03 -0.88996680534E+02 -0.62387333404E+03  0.10776192699E+04  0.46999998093E+01 0.  1.
</event>
<event>
 5   0  0.2982385E-05  0.1728426E+04  0.7818609E-02  0.8745316E-01
        1   -1    0    0  501    0  0.00000000000E+00  0.00000000000E+00  0.49729139874E+03  0.49729139877E+03  0.50400001928E-02 0.  1.
       -1   -1    0    0    0  501  0.00000000000E+00  0.00000000000E+00 -0.15018645277E+04  0.15018645277E+04  0.50400001928E-02 0. -1.
    10030    2    1    2    0    0  0.00000000000E+00  0.00000000000E+00 -0.10045731290E+04  0.19991559265E+04  0.17284262342E+04 0.  0.
        4    1    3    3  502    0  0.61398737797E+03 -0.38107865731E+03 -0.10505129200E+04  0.12750609599E+04  0.12699999809E+01 0. -1.
       -4    1    3    3    0  502 -0.61398737797E+03  0.38107865731E+03  0.45939791057E+02  0.72409496661E+03  0.12699999809E+01 0.  1.
</event>
<event>
 5   0  0.2944089E-05  0.2302191E+04  0.7818609E-02  0.8477058E-01
       -1   -1    0    0    0  501  0.00000000000E+00  0.00000000000E+00  0.10854714920E+04  0.10854714920E+04  0.50400001928E-02 0.  1.
        1   -1    0    0  501    0  0.00000000000E+00  0.00000000000E+00 -0.12206870462E+04  0.12206870462E+04  0.50400001928E-02 0. -1.
    10030    2    1    2    0    0  0.00000000000E+00  0.00000000000E+00 -0.13521555428E+03  0.23061585382E+04  0.23021911209E+04 0.  0.
        5    1    3    3  502    0  0.32493171664E+03 -0.50704674485E+03  0.91506282729E+03  0.10954629569E+04  0.46999998093E+01 0.  1.
       -5    1    3    3    0  502 -0.32493171664E+03  0.50704674485E+03 -0.10502783816E+04  0.12106955814E+04  0.46999998093E+01 0. -1.
</event>
<event>
 5   0  0.6814789E-05  0.2282860E+04  0.7818609E-02  0.8484710E-01
       -2   -1    0    0    0  501  0.00000000000E+00  0.00000000000E+00  0.66803866995E+03  0.66803866995E+03  0.25500000920E-02 0. -1.
        2   -1    0    0  501    0  0.00000000000E+00  0.00000000000E+00 -0.19502802611E+04  0.19502802611E+04  0.25500000920E-02 0.  1.
    10030    2    1    2    0    0  0.00000000000E+00  0.00000000000E+00 -0.12822415912E+04  0.26183189311E+04  0.22828601636E+04 0.  0.
        1    1    3    3  502    0  0.10354205743E+03 -0.98932606378E+03  0.93953014525E+00  0.99473006432E+03  0.50400001928E-02 0. -1.
       -1    1    3    3    0  502 -0.10354205743E+03  0.98932606378E+03 -0.12831811213E+04  0.16235888667E+04  0.50400001928E-02 0.  1.
</event>
<event>
 5   0  0.6468758E-05  0.2372350E+04  0.7818609E-02  0.8449928E-01
       -2   -1    0    0    0  501  0.00000000000E+00  0.00000000000E+00  0.74946543512E+03  0.74946543512E+03  0.25500000920E-02 0.  1.
        2   -1    0    0  501    0  0.00000000000E+00  0.00000000000E+00 -0.18773534333E+04  0.18773534333E+04  0.25500000920E-02 0. -1.
    10030    2    1    2    0    0  0.00000000000E+00  0.00000000000E+00 -0.11278879982E+04  0.26268188684E+04  0.23723503179E+04 0.  0.
        3    1    3    3  502    0 -0.28977191057E+03 -0.11495501663E+04 -0.60793114521E+03  0.13322963757E+04  0.10100000352E+00 0.  1.
       -3    1    3    3    0  502  0.28977191057E+03  0.11495501663E+04 -0.51995685295E+03  0.12945224927E+04  0.10100000352E+00 0. -1.
</event>
<event>
 5   0  0.6495405E-05  0.2269215E+04  0.7818609E-02  0.8490159E-01
        2   -1    0    0  501    0  0.00000000000E+00  0.00000000000E+00  0.19813905381E+04  0.19813905381E+04  0.25500000920E-02 0. -1.
       -2   -1    0    0    0  501  0.00000000000E+00  0.00000000000E+00 -0.64971257201E+03  0.64971257202E+03  0.25500000920E-02 0.  1.
    10030    2    1    2    0    0  0.00000000000E+00  0.00000000000E+00  0.13316779661E+04  0.26311031101E+04  0.22692151442E+04 0.  0.
        5    1    3    3  502    0 -0.40362618214E+03  0.59584317904E+02 -0.56170066860E+03  0.69425796139E+03  0.46999998093E+01 0.  1.
       -5    1    3    3    0  502  0.40362618214E+03 -0.59584317904E+02  0.18933786347E+04  0.19368451487E+04  0.46999998093E+01 0. -1.
</event>
<event>
 5   0  0.2944089E-05  0.2290548E+04  0.7818609E-02  0.8481657E-01
        1   -1    0    0  501    0  0.00000000000E+00  0.00000000000E+00  0.12513273581E+04  0.12513273581E+04  0.50400001928E-02 0.  1.
       -1   -1    0    0    0  501  0.00000000000E+00  0.00000000000E+00 -0.10482087141E+04  0.10482087141E+04  0.50400001928E-02 0. -1.
    10030    2    1    2    0    0  0.00000000000E+00  0.00000000000E+00  0.20311864408E+03  0.22995360722E+04  0.22905477432E+04 0.  0.
        5    1    3    3  502    0 -0.16026805453E+03  0.43826378309E+03 -0.94842681931E+03  0.10570224759E+04  0.46999998093E+01 0. -1.
       -5    1    3    3    0  502  0.16026805453E+03 -0.43826378309E+03  0.11515454634E+04  0.12425135964E+04  0.46999998093E+01 0.  1.
</event>
<event>
 5   0  0.6468758E-05  0.2160107E+04  0.7818609E-02  0.8535218E-01
       -2   -1    0    0    0  501  0.00000000000E+00  0.00000000000E+00  0.47333551851E+03  0.47333551852E+03  0.25500000920E-02 0. -1.
        2   -1    0    0  501    0  0.00000000000E+00  0.00000000000E+00 -0.24644586622E+04  0.24644586622E+04  0.25500000920E-02 0.  1.
    10030    2    1    2    0    0  0.00000000000E+00  0.00000000000E+00 -0.19911231437E+04  0.29377941807E+04  0.21601072369E+04 0.  0.
        3    1    3    3  502    0 -0.55091762939E+03  0.17844078403E+03 -0.22354697854E+04  0.23092588680E+04  0.10100000352E+00 0.  1.
       -3    1    3    3    0  502  0.55091762939E+03 -0.17844078403E+03  0.24434664174E+03  0.62853531270E+03  0.10100000352E+00 0. -1.
</event>
<event>
 5   0  0.6702421E-05  0.2274772E+04  0.7818609E-02  0.8487935E-01
       -2   -1    0    0    0  501  0.00000000000E+00  0.00000000000E+00  0.19444890941E+04  0.19444890941E+04  0.25500000920E-02 0.  1.
        2   -1    0    0  501    0  0.00000000000E+00  0.00000000000E+00 -0.66528879719E+03  0.66528879720E+03  0.25500000920E-02 0. -1.
    10030    2    1    2    0    0  0.00000000000E+00  0.00000000000E+00  0.12792002969E+04  0.26097778913E+04  0.22747719099E+04 0.  0.
        4    1    3    3  502    0  0.36313634908E+02 -0.10479159290E+04  0.11451789734E+04  0.15527018285E+04  0.12699999809E+01 0. -1.
       -4    1    3    3    0  502 -0.36313634908E+02  0.10479159290E+04  0.13402132355E+03  0.10570760628E+04  0.12699999809E+01 0.  1.
</event>
<event>
 5   0  0.6495405E-05  0.2303591E+04  0.7818609E-02  0.8476507E-01
        2   -1    0    0  501    0  0.00000000000E+00  0.00000000000E+00  0.12200285491E+04  0.12200285491E+04  0.25500000920E-02 0.  1.
       -2   -1    0    0    0  501  0.00000000000E+00  0.00000000000E+00 -0.10873785034E+04  0.10873785034E+04  0.25500000920E-02 0. -1.
    10030    2    1    2    0    0  0.00000000000E+00  0.00000000000E+00  0.13265004571E+03  0.23074070526E+04  0.23035909515E+04 0.  0.
        5    1    3    3  502    0 -0.65859999142E+03  0.39938369677E+03  0.92410189958E+03  0.12030160833E+04  0.46999998093E+01 0.  1.
       -5    1    3    3    0  502  0.65859999142E+03 -0.39938369677E+03 -0.79145185387E+03  0.11043909692E+04  0.46999998093E+01 0. -1.
</event>
<event>
 5   0  0.2944089E-05  0.2163222E+04  0.7818609E-02  0.8533894E-01
       -1   -1    0    0    0  501  0.00000000000E+00  0.00000000000E+00  0.62651430955E+03  0.62651430957E+03  0.50400001928E-02 0. -1.
        1   -1    0    0  501    0  0.00000000000E+00  0.00000000000E+00 -0.18672883607E+04  0.18672883608E+04  0.50400001928E-02 0.  1.
    10030    2    1    2    0    0  0.00000000000E+00  0.00000000000E+00 -0.12407740512E+04  0.24938026703E+04  0.21632224833E+04 0.  0.
        5    1    3    3  502    0  0.50066983969E+03  0.73636408052E+03  0.87408207913E+02  0.89474277436E+03  0.46999998093E+01 0. -1.
       -5    1    3    3    0  502 -0.50066983969E+03 -0.73636408052E+03 -0.13281822591E+04  0.15990598960E+04  0.46999998093E+01 0.  1.
</event>
<event>
 5   0  0.6468758E-05  0.2304539E+04  0.7818609E-02  0.8476134E-01
       -2   -1    0    0    0  501  0.00000000000E+00  0.00000000000E+00  0.11865071858E+04  0.11865071858E+04  0.25500000920E-02 0. -1.
        2   -1    0    0  501    0  0.00000000000E+00  0.00000000000E+00 -0.11190195546E+04  0.11190195546E+04  0.25500000920E-02 0.  1.
    10030    2    1    2    0    0  0.00000000000E+00  0.00000000000E+00  0.67487631202E+02  0.23055267403E+04  0.23045387760E+04 0.  0.
        3    1    3    3  502    0  0.31631311743E+03  0.77951307631E+03  0.82150129116E+03  0.11758226933E+04  0.10100000352E+00 0. -1.
       -3    1    3    3    0  502 -0.31631311743E+03 -0.77951307631E+03 -0.75401365996E+03  0.11297040471E+04  0.10100000352E+00 0.  1.
</event>
<event>
 5   0  0.6814789E-05  0.2294539E+04  0.7818609E-02  0.8480078E-01
        2   -1    0    0  501    0  0.00000000000E+00  0.00000000000E+00  0.10902141170E+04  0.10902141170E+04  0.25500000920E-02 0.  1.
       -2   -1    0    0    0  501  0.00000000000E+00  0.00000000000E+00 -0.12073103249E+04  0.12073103249E+04  0.25500000920E-02 0. -1.
    10030    2    1    2    0    0  0.00000000000E+00  0.00000000000E+00 -0.11709620796E+03  0.22975244419E+04  0.22945385242E+04 0.  0.
        1    1    3    3  502    0 -0.45512932812E+03  0.23397799387E+03  0.96959789301E+03  0.10963614737E+04  0.50400001928E-02 0.  1.
       -1    1    3    3    0  502  0.45512932812E+03 -0.23397799387E+03 -0.10866941010E+04  0.12011629681E+04  0.50400001928E-02 0. -1.
</event>
<event>
 5   0  0.6702421E-05  0.2270856E+04  0.7818609E-02  0.8489502E-01
        2   -1    0    0  501    0  0.00000000000E+00  0.00000000000E+00  0.20868866198E+04  0.20868866198E+04  0.25500000920E-02 0.  1.
       -2   -1    0    0    0  501  0.00000000000E+00  0.00000000000E+00 -0.61776071064E+03  0.61776071064E+03  0.25500000920E-02 0. -1.
    10030    2    1    2    0    0  0.00000000000E+00  0.00000000000E+00  0.14691259091E+04  0.27046473304E+04  0.22708558398E+04 0.  0.
        4    1    3    3  502    0  0.13199476723E+03 -0.39608684071E+02  0.20768881079E+04  0.20814555705E+04  0.12699999809E+01 0.  1.
       -4    1    3    3    0  502 -0.13199476723E+03  0.39608684071E+02 -0.60776219877E+03  0.62319175988E+03  0.12699999809E+01 0. -1.
</event>
<event>
 5   0  0.6814789E-05  0.2303680E+04  0.7818609E-02  0.8476472E-01
       -2   -1    0    0    0  501  0.00000000000E+00  0.00000000000E+00  0.74900291225E+03  0.74900291225E+03  0.25500000920E-02 0. -1.
        2   -1    0    0  501    0  0.00000000000E+00  0.00000000000E+00 -0.17713349487E+04  0.17713349487E+04  0.25500000920E-02 0.  1.
    10030    2    1    2    0    0  0.00000000000E+00  0.00000000000E+00 -0.10223320364E+04  0.25203378609E+04  0.23036796957E+04 0.  0.
        1    1    3    3  502    0 -0.85233427554E+03 -0.63424236257E+03 -0.99798444509E+03  0.14576385164E+04  0.50400001928E-02 0.  1.
       -1    1    3    3    0  502  0.85233427554E+03  0.63424236257E+03 -0.24347591355E+02  0.10626993446E+04  0.50400001928E-02 0. -1.
</event>
<event>
 5   0  0.6468758E-05  0.2057762E+04  0.7818609E-02  0.8580081E-01
       -2   -1    0    0    0  501  0.00000000000E+00  0.00000000000E+00  0.10603640054E+04  0.10603640054E+04  0.25500000920E-02 0. -1.
        2   -1    0    0  501    0  0.00000000000E+00  0.00000000000E+00 -0.99833230218E+03  0.99833230218E+03  0.25500000920E-02 0.  1.
    10030    2    1    2    0    0  0.00000000000E+00  0.00000000000E+00  0.62031703270E+02  0.20586963076E+04  0.20577615398E+04 0.  0.
        3    1    3    3  502    0  0.78950072981E+03  0.88017936524E+02  0.68517606668E+03  0.10490590127E+04  0.10100000352E+00 0. -1.
       -3    1    3    3    0  502 -0.78950072981E+03 -0.88017936524E+02 -0.62314436341E+03  0.10096372950E+04  0.10100000352E+00 0.  1.
</event>
<event>
 5   0  0.6676612E-05  0.2280977E+04  0.7818609E-02  0.8485460E-01
        2   -1    0    0  501    0  0.00000000000E+00  0.00000000000E+00  0.98162715938E+03  0.98162715938E+03  0.25500000920E-02 0.  1.
       -2   -1    0    0    0  501  0.00000000000E+00  0.00000000000E+00 -0.13250591828E+04  0.13250591828E+04  0.25500000920E-02 0. -1.
    10030    2    1    2    0    0  0.00000000000E+00  0.00000000000E+00 -0.34343202346E+03  0.23066863422E+04  0.22809770553E+04 0.  0.
        2    1    3    3  502    0  0.42448619142E+03 -0.34619462397E+03 -0.11833283489E+04  0.13039575245E+04  0.25500000920E-02 0. -1.
       -2    1    3    3    0  502 -0.42448619142E+03  0.34619462397E+03  0.83989632545E+03  0.10027288177E+04  0.25500000920E-02 0.  1.
</event>
<event>
 5   0  0.6814789E-05  0.2336998E+04  0.7818609E-02  0.8463475E-01
        2   -1    0    0  501    0  0.00000000000E+00  0.00000000000E+00  0.12704371535E+04  0.12704371535E+04  0.25500000920E-02 0.  1.
       -2   -1    0    0    0  501  0.00000000000E+00  0.00000000000E+00 -0.10747402121E+04  0.10747402121E+04  0.25500000920E-02 0. -1.
    10030    2    1    2    0    0  0.00000000000E+00  0.00000000000E+00  0.19569694145E+03  0.23451773656E+04  0.23369979853E+04 0.  0.
        1    1    3    3  502    0  0.47356474514E+03 -0.36101674856E+03 -0.91105245223E+03  0.10883993896E+04  0.50400001928E-02 0. -1.
       -1    1    3    3    0  502 -0.47356474514E+03  0.36101674856E+03  0.11067493937E+04  0.12567779760E+04  0.50400001928E-02 0.  1.
</event>
<event>
 5   0  0.6676612E-05  0.2293586E+04  0.7818609E-02  0.8480454E-01
       -2   -1    0    0    0  501  0.00000000000E+00  0.00000000000E+00  0.61834714302E+03  0.61834714303E+03  0.25500000920E-02 0.  1.
        2   -1    0    0  501    0  0.00000000000E+00  0.00000000000E+00 -0.21268537872E+04  0.21268537872E+04  0.25500000920E-02 0. -1.
    10030    2    1    2    0    0  0.00000000000E+00  0.00000000000E+00 -0.15085066442E+04  0.27452009302E+04  0.22935858065E+04 0.  0.
        2    1    3    3  502    0 -0.57224950605E+03  0.18143568436E+03 -0.19237607063E+04  0.20152527534E+04  0.25500000920E-02 0. -1.
       -2    1    3    3    0  502  0.57224950605E+03 -0.18143568436E+03  0.41525406216E+03  0.72994817685E+03  0.25500000920E-02 0.  1.
</event>
<event>
 5   0  0.2962279E-05  0.2280063E+04  0.7818609E-02  0.8485824E-01
        1   -1    0    0  501    0  0.00000000000E+00  0.00000000000E+00  0.23102579172E+04  0.23102579172E+04  0.50400001928E-02 0. -1.
       -1   -1    0    0    0  501  0.00000000000E+00  0.00000000000E+00 -0.56256573973E+03  0.56256573975E+03  0.50400001928E-02 0.  1.
    10030    2    1    2    0    0  0.00000000000E+00  0.00000000000E+00  0.17476921775E+04  0.28728236570E+04  0.22800631169E+04 0.  0.
        1    1    3    3  502    0  0.11234580350E+04  0.15907621747E+03  0.10130648566E+04  0.15211060459E+04  0.50400001928E-02 0.  1.
       -1    1    3    3    0  502 -0.11234580350E+04 -0.15907621747E+03  0.73462732095E+03  0.13517176111E+04  0.50400001928E-02 0. -1.
</event>
<event>
 5   0  0.3006265E-05  0.2243750E+04  0.7818609E-02  0.8500436E-01
        1   -1    0    0  501    0  0.00000000000E+00  0.00000000000E+00  0.20815397275E+04  0.20815397275E+04  0.50400001928E-02 0. -1.
       -1   -1    0    0    0  501  0.00000000000E+00  0.00000000000E+00 -0.60465029999E+03  0.60465030001E+03  0.50400001928E-02 0.  1.
    10030    2    1    2    0    0  0.00000000000E+00  0.00000000000E+00  0.14768894275E+04  0.26861900275E+04  0.22437500937E+04 0.  0.
        2    1    3    3  502    0  0.19857780338E+02 -0.46990498409E+03  0.19578135071E+04  0.20135140313E+04  0.25500000920E-02 0. -1.
       -2    1    3    3    0  502 -0.19857780338E+02  0.46990498409E+03 -0.48092407963E+03  0.67267599622E+03  0.25500000920E-02 0.  1.
</event>
<event>
 5   0  0.2982385E-05  0.2302011E+04  0.7818609E-02  0.8477129E-01
        1   -1    0    0  501    0  0.00000000000E+00  0.00000000000E+00  0.23195464783E+04  0.23195464783E+04  0.50400001928E-02 0.  1.
       -1   -1    0    0    0  501  0.00000000000E+00  0.00000000000E+00 -0.57115200569E+03  0.57115200571E+03  0.50400001928E-02 0. -1.
    10030    2    1    2    0    0  0.00000000000E+00  0.00000000000E+00  0.17483944727E+04  0.28906984841E+04  0.23020109673E+04 0.  0.
        4    1    3    3  502    0 -0.42908465187E+03  0.98109628780E+03  0.14042101187E+04  0.17659193738E+04  0.12699999809E+01 0.  1.
       -4    1    3    3    0  502  0.42908465187E+03 -0.98109628780E+03  0.34418435391E+03  0.11247791102E+04  0.12699999809E+01 0. -1.
</event>
<event>
 5   0  0.2944089E-05  0.2312897E+04  0.7818609E-02  0.8472853E-01
        1   -1    0    0  501    0  0.00000000000E+00  0.00000000000E+00  0.14748894703E+04  0.14748894703E+04  0.50400001928E-02 0.  1.
       -1   -1    0    0    0  501  0.00000000000E+00  0.00000000000E+00 -0.90676160663E+03  0.90676160665E+03  0.50400001928E-02 0. -1.
    10030    2    1    2    0    0  0.00000000000E+00  0.00000000000E+00  0.56812786362E+03  0.23816510769E+04  0.23128970108E+04 0.  0.
        5    1    3    3  502    0  0.18772674499E+03 -0.89237033422E+03 -0.44826261145E+03  0.10161336541E+04  0.46999998093E+01 0. -1.
       -5    1    3    3    0  502 -0.18772674499E+03  0.89237033422E+03  0.10163904751E+04  0.13655174228E+04  0.46999998093E+01 0.  1.
</event>
<event>
 5   0  0.6468758E-05  0.2300237E+04  0.7818609E-02  0.8477828E-01
       -2   -1    0    0    0  501  0.00000000000E+00  0.00000000000E+00  0.10290594201E+04  0.10290594201E+04  0.25500000920E-02 0. -1.
        2   -1    0    0  501    0  0.00000000000E+00  0.00000000000E+00 -0.12854191558E+04  0.12854191558E+04  0.25500000920E-02 0.  1.
    10030    2    1    2    0    0  0.00000000000E+00  0.00000000000E+00 -0.25635973567E+03  0.23144785759E+04  0.23002371104E+04 0.  0.
        3    1    3    3  502    0  0.71933560237E+03  0.85677814895E+03  0.14041889195E+03  0.11274883506E+04  0.10100000352E+00 0. -1.
       -3    1    3    3    0  502 -0.71933560237E+03 -0.85677814895E+03 -0.39677862762E+03  0.11869902253E+04  0.10100000352E+00 0.  1.
</event>
<event>
 5   0  0.6468758E-05  0.2301038E+04  0.7818609E-02  0.8477512E-01
        2   -1    0    0  501    0  0.00000000000E+00  0.00000000000E+00  0.28308787065E+04  0.28308787065E+04  0.25500000920E-02 0. -1.
       -2   -1    0    0    0  501  0.00000000000E+00  0.00000000000E+00 -0.46759139997E+03  0.46759139998E+03  0.25500000920E-02 0.  1.
    10030    2    1    2    0    0  0.00000000000E+00  0.00000000000E+00  0.23632873065E+04  0.32984701064E+04  0.23010384938E+04 0.  0.
        3    1    3    3  502    0 -0.42264888588E+03  0.98071629098E+03  0.17952928125E+04  0.20889022995E+04  0.10100000352E+00 0.  1.
       -3    1    3    3    0  502  0.42264888588E+03 -0.98071629098E+03  0.56799449399E+03  0.12095678069E+04  0.10100000352E+00 0. -1.
</event>
<event>
 5   0  0.3118614E-05  0.2261276E+04  0.7818609E-02  0.8493348E-01
        1   -1    0    0  501    0  0.00000000000E+00  0.00000000000E+00  0.24242477412E+04  0.24242477412E+04  0.50400001928E-02 0.  1.
       -1   -1    0    0    0  501  0.00000000000E+00  0.00000000000E+00 -0.52731526732E+03  0.52731526734E+03  0.50400001928E-02 0. -1.
    10030    2    1    2    0    0  0.00000000000E+00  0.00000000000E+00  0.18969324739E+04  0.29515630085E+04  0.22612764941E+04 0.  0.
        3    1    3    3  502    0 -0.70111550195E+03  0.20299254252E+01  0.21062404656E+04  0.22198684594E+04  0.10100000352E+00 0.  1.
       -3    1    3    3    0  502  0.70111550195E+03 -0.20299254252E+01 -0.20930799174E+03  0.73169454917E+03  0.10100000352E+00 0. -1.
</event>
<event>
 5   0  0.2982385E-05  0.2023771E+04  0.7818609E-02  0.8595587E-01
        1   -1    0    0  501    0  0.00000000000E+00  0.00000000000E+00  0.10732465526E+04  0.10732465526E+04  0.50400001928E-02 0. -1.
       -1   -1    0    0    0  501  0.00000000000E+00  0.00000000000E+00 -0.95403261518E+03  0.95403261519E+03  0.50400001928E-02 0.  1.
    10030    2    1    2    0    0  0.00000000000E+00  0.00000000000E+00  0.11921393742E+03  0.20272791678E+04  0.20237709508E+04 0.  0.
        4    1    3    3  502    0  0.24029810745E+03 -0.85896701797E+03 -0.41907396674E+03  0.98549080203E+03  0.12699999809E+01 0.  1.
       -4    1    3    3    0  502 -0.24029810745E+03  0.85896701797E+03  0.53828790416E+03  0.10417883658E+04  0.12699999809E+01 0. -1.
</event>
<event>
 5   0  0.2944089E-05  0.2323332E+04  0.7818609E-02  0.8468778E-01
        1   -1    0    0  501    0  0.00000000000E+00  0.00000000000E+00  0.16420693923E+04  0.16420693923E+04  0.50400001928E-02 0. -1.
       -1   -1    0    0    0  501  0.00000000000E+00  0.00000000000E+00 -0.82180942468E+03  0.82180942469E+03  0.50400001928E-02 0.  1.
    10030    2    1    2    0    0  0.00000000000E+00  0.00000000000E+00  0.82025996765E+03  0.24638788170E+04  0.23233321782E+04 0.  0.
        5    1    3    3  502    0 -0.21207735621E+03 -0.21722131497E+03  0.15992474257E+04  0.16278133564E+04  0.46999998093E+01 0. -1.
       -5    1    3    3    0  502  0.21207735621E+03  0.21722131497E+03 -0.77898745803E+03  0.83606546063E+03  0.46999998093E+01 0.  1.
</event>
<event>
 5   0  0.6702421E-05  0.2289784E+04  0.7818609E-02  0.8481960E-01
        2   -1    0    0  501    0  0.00000000000E+00  0.00000000000E+00  0.11557181637E+04  0.11557181637E+04  0.25500000920E-02 0. -1.
       -2   -1    0    0    0  501  0.00000000000E+00  0.00000000000E+00 -0.11341670405E+04  0.11341670405E+04  0.25500000920E-02 0.  1.
    10030    2    1    2    0    0  0.00000000000E+00  0.00000000000E+00  0.21551123178E+02  0.22898852042E+04  0.22897837883E+04 0.  0.
        4    1    3    3  502    0 -0.60074282411E+03  0.97452239613E+03  0.24560045730E+02  0.11450723340E+04  0.12699999809E+01 0.  1.
       -4    1    3    3    0  502  0.60074282411E+03 -0.97452239613E+03 -0.30089225518E+01  0.11448128702E+04  0.12699999809E+01 0. -1.
</event>
<event>
 5   0  0.6702421E-05  0.2311532E+04  0.7818609E-02  0.8473388E-01
        2   -1    0    0  501    0  0.00000000000E+00  0.00000000000E+00  0.16317581071E+04  0.16317581071E+04  0.25500000920E-02 0. -1.
       -2   -1    0    0    0  501  0.00000000000E+00  0.00000000000E+00 -0.81862302464E+03  0.81862302465E+03  0.25500000920E-02 0.  1.
    10030    2    1    2    0    0  0.00000000000E+00  0.00000000000E+00  0.81313508246E+03  0.24503811318E+04  0.23115317494E+04 0.  0.
        4    1    3    3  502    0  0.79916492823E+03  0.47940272453E+03  0.11312243979E+04  0.14656608769E+04  0.12699999809E+01 0. -1.
       -4    1    3    3    0  502 -0.79916492823E+03 -0.47940272453E+03 -0.31808931544E+03  0.98472025484E+03  0.12699999809E+01 0.  1.
</event>
<event>
 5   0  0.6468758E-05  0.2277654E+04  0.7818609E-02  0.8486784E-01
        2   -1    0    0  501    0  0.00000000000E+00  0.00000000000E+00  0.63461760298E+03  0.63461760299E+03  0.25500000920E-02 0.  1.
       -2   -1    0    0    0  501  0.00000000000E+00  0.00000000000E+00 -0.20436354334E+04  0.20436354334E+04  0.25500000920E-02 0. -1.
    10030    2    1    2    0    0  0.00000000000E+00  0.00000000000E+00 -0.14090178304E+04  0.26782530364E+04  0.22776540739E+04 0.  0.
        3    1    3    3  502    0  0.34101507404E+03 -0.82261815834E+03 -0.15392487581E+04  0.17782796924E+04  0.10100000352E+00 0. -1.
       -3    1    3    3    0  502 -0.34101507404E+03  0.82261815834E+03  0.13023092761E+03  0.89997334397E+03  0.10100000352E+00 0.  1.
</event>
<event>
 5   0  0.2962279E-05  0.2340170E+04  0.7818609E-02  0.8462249E-01
       -1   -1    0    0    0  501  0.00000000000E+00  0.00000000000E+00  0.90931799376E+03  0.90931799377E+03  0.50400001928E-02 0. -1.
        1   -1    0    0  501    0  0.00000000000E+00  0.00000000000E+00 -0.15056329736E+04  0.15056329736E+04  0.50400001928E-02 0.  1.
    10030    2    1    2    0    0  0.00000000000E+00  0.00000000000E+00 -0.59631497988E+03  0.24149509674E+04  0.23401702117E+04 0.  0.
        1    1    3    3  502    0  0.85817671367E+02  0.67962460278E+03 -0.12770718420E+04  0.14491952122E+04  0.50400001928E-02 0.  1.
       -1    1    3    3    0  502 -0.85817671367E+02 -0.67962460278E+03  0.68075686211E+03  0.96575575522E+03  0.50400001928E-02 0. -1.
</event>
<event>
 5   0  0.6702421E-05  0.2300094E+04  0.7818609E-02  0.8477884E-01
        2   -1    0    0  501    0  0.00000000000E+00  0.00000000000E+00  0.89784570429E+03  0.89784570430E+03  0.25500000920E-02 0.  1.
       -2   -1    0    0    0  501  0.00000000000E+00  0.00000000000E+00 -0.14730906830E+04  0.14730906830E+04  0.25500000920E-02 0. -1.
    10030    2    1    2    0    0  0.00000000000E+00  0.00000000000E+00 -0.57524497870E+03  0.23709363873E+04  0.23000940344E+04 0.  0.
        4    1    3    3  502    0  0.81859902264E+03  0.71801286688E+03  0.93856563487E+02  0.10929123955E+04  0.12699999809E+01 0.  1.
       -4    1    3    3    0  502 -0.81859902264E+03 -0.71801286688E+03 -0.66910154219E+03  0.12780239918E+04  0.12699999809E+01 0. -1.
</event>
<event>
 5   0  0.2982385E-05  0.2277150E+04  0.7818609E-02  0.8486986E-01
       -1   -1    0    0    0  501  0.00000000000E+00  0.00000000000E+00  0.20255659451E+04  0.20255659452E+04  0.50400001928E-02 0.  1.
        1   -1    0    0  501    0  0.00000000000E+00  0.00000000000E+00 -0.63999529060E+03  0.63999529062E+03  0.50400001928E-02 0. -1.
    10030    2    1    2    0    0  0.00000000000E+00  0.00000000000E+00  0.13855706545E+04  0.26655612358E+04  0.22771496795E+04 0.  0.
        4    1    3    3  502    0  0.73454447410E+03 -0.26755887695E+03 -0.27617993591E+03  0.82910813949E+03  0.12699999809E+01 0. -1.
       -4    1    3    3    0  502 -0.73454447410E+03  0.26755887695E+03  0.16617505905E+04  0.18364530963E+04  0.12699999809E+01 0.  1.
</event>
<event>
 5   0  0.6814789E-05  0.2316907E+04  0.7818609E-02  0.8471285E-01
       -2   -1    0    0    0  501  0.00000000000E+00  0.00000000000E+00  0.13652118702E+04  0.13652118702E+04  0.25500000920E-02 0.  1.
        2   -1    0    0  501    0  0.00000000000E+00  0.00000000000E+00 -0.98300818773E+03  0.98300818773E+03  0.25500000920E-02 0. -1.
    10030    2    1    2    0    0  0.00000000000E+00  0.00000000000E+00  0.38220368246E+03  0.23482200579E+04  0.23169069436E+04 0.  0.
        1    1    3    3  502    0  0.93026268094E+03 -0.66417194739E+03  0.13716776999E+00  0.11430280181E+04  0.50400001928E-02 0.  1.
       -1    1    3    3    0  502 -0.93026268094E+03  0.66417194739E+03  0.38206651469E+03  0.12051920398E+04  0.50400001928E-02 0. -1.
</event>
<event>
 5   0  0.6495405E-05  0.1885314E+04  0.7818609E-02  0.8662201E-01
       -2   -1    0    0    0  501  0.00000000000E+00  0.00000000000E+00  0.11879142599E+04  0.11879142599E+04  0.25500000920E-02 0. -1.
        2   -1    0    0  501    0  0.00000000000E+00  0.00000000000E+00 -0.74803567316E+03  0.74803567317E+03  0.25500000920E-02 0.  1.
    10030    2    1    2    0    0  0.00000000000E+00  0.00000000000E+00  0.43987858676E+03  0.19359499331E+04  0.18853140249E+04 0.  0.
        5    1    3    3  502    0  0.13142804061E+03 -0.75047828069E+03 -0.35002630265E+03  0.83846972646E+03  0.46999998093E+01 0.  1.
       -5    1    3    3    0  502 -0.13142804061E+03  0.75047828069E+03  0.78990488941E+03  0.10974802066E+04  0.46999998093E+01 0. -1.
</event>
<event>
 5   0  0.2962279E-05  0.2307135E+04  0.7818609E-02  0.8475113E-01
       -1   -1    0    0    0  501  0.00000000000E+00  0.00000000000E+00  0.12939973181E+04  0.12939973181E+04  0.50400001928E-02 0. -1.
        1   -1    0    0  501    0  0.00000000000E+00  0.00000000000E+00 -0.10283775779E+04  0.10283775779E+04  0.50400001928E-02 0.  1.
    10030    2    1    2    0    0  0.00000000000E+00  0.00000000000E+00  0.26561974028E+03  0.23223748960E+04  0.23071348706E+04 0.  0.
        1    1    3    3  502    0 -0.60119558445E+03  0.89605554556E+02  0.11197211110E+04  0.12740646187E+04  0.50400001928E-02 0. -1.
       -1    1    3    3    0  502  0.60119558445E+03 -0.89605554556E+02 -0.85410137068E+03  0.10483102773E+04  0.50400001928E-02 0.  1.
</event>
<event>
 5   0  0.2962279E-05  0.2336232E+04  0.7818609E-02  0.8463771E-01
       -1   -1    0    0    0  501  0.00000000000E+00  0.00000000000E+00  0.74122460520E+03  0.74122460521E+03  0.50400001928E-02 0. -1.
        1   -1    0    0  501    0  0.00000000000E+00  0.00000000000E+00 -0.18408652710E+04  0.18408652710E+04  0.50400001928E-02 0.  1.
    10030    2    1    2    0    0  0.00000000000E+00  0.00000000000E+00 -0.10996406658E+04  0.25820898762E+04  0.23362316955E+04 0.  0.
        1    1    3    3  502    0  0.19732882615E+03  0.43734064105E+03  0.62729042459E+03  0.78974602167E+03  0.50400001928E-02 0. -1.
       -1    1    3    3    0  502 -0.19732882615E+03 -0.43734064105E+03 -0.17269310904E+04  0.17923438546E+04  0.50400001928E-02 0.  1.
</event>
<event>
 5   0  0.2982385E-05  0.2304611E+04  0.7818609E-02  0.8476105E-01
        1   -1    0    0  501    0  0.00000000000E+00  0.00000000000E+00  0.81325219680E+03  0.81325219681E+03  0.50400001928E-02 0.  1.
       -1   -1    0    0    0  501  0.00000000000E+00  0.00000000000E+00 -0.16327140570E+04  0.16327140570E+04  0.50400001928E-02 0. -1.
    10030    2    1    2    0    0  0.00000000000E+00  0.00000000000E+00 -0.81946186025E+03  0.24459662539E+04  0.23046112849E+04 0.  0.
        4    1    3    3  502    0 -0.10365969535E+04 -0.50070758832E+03 -0.46348680159E+03  0.12409927321E+04  0.12699999809E+01 0.  1.
       -4    1    3    3    0  502  0.10365969535E+04  0.50070758832E+03 -0.35597505865E+03  0.12049735218E+04  0.12699999809E+01 0. -1.
</event>
<event>
 5   0  0.6702421E-05  0.2307865E+04  0.7818609E-02  0.8474827E-01
       -2   -1    0    0    0  501  0.00000000000E+00  0.00000000000E+00  0.65736419631E+03  0.65736419631E+03  0.25500000920E-02 0.  1.
        2   -1    0    0  501    0  0.00000000000E+00  0.00000000000E+00 -0.20256046072E+04  0.20256046072E+04  0.25500000920E-02 0. -1.
    10030    2    1    2    0    0  0.00000000000E+00  0.00000000000E+00 -0.13682404109E+04  0.26829688035E+04  0.23078647661E+04 0.  0.
        4    1    3    3  502    0 -0.89516538712E+03  0.61493580544E+03 -0.23074545133E+03  0.11102757276E+04  0.12699999809E+01 0.  1.
       -4    1    3    3    0  502  0.89516538712E+03 -0.61493580544E+03 -0.11374949596E+04  0.15726930759E+04  0.12699999809E+01 0. -1.
</event>
<event>
 5   0  0.2962279E-05  0.2302793E+04  0.7818609E-02  0.8476821E-01
       -1   -1    0    0    0  501  0.00000000000E+00  0.00000000000E+00  0.90480729380E+03  0.90480729382E+03  0.50400001928E-02 0. -1.
        1   -1    0    0  501    0  0.00000000000E+00  0.00000000000E+00 -0.14651890960E+04  0.14651890960E+04  0.50400001928E-02 0.  1.
    10030    2    1    2    0    0  0.00000000000E+00  0.00000000000E+00 -0.56038180218E+03  0.23699963898E+04  0.23027928963E+04 0.  0.
        1    1    3    3  502    0  0.49265655049E+03 -0.16042752846E+03  0.77805111497E+03  0.93477858670E+03  0.50400001928E-02 0. -1.
       -1    1    3    3    0  502 -0.49265655049E+03  0.16042752846E+03 -0.13384329171E+04  0.14352178031E+04  0.50400001928E-02 0.  1.
</event>
<event>
 5   0  0.6814789E-05  0.2305822E+04  0.7818609E-02  0.8475629E-01
       -2   -1    0    0    0  501  0.00000000000E+00  0.00000000000E+00  0.52770625147E+03  0.52770625147E+03  0.25500000920E-02 0. -1.
        2   -1    0    0  501    0  0.00000000000E+00  0.00000000000E+00 -0.25188326416E+04  0.25188326416E+04  0.25500000920E-02 0.  1.
    10030    2    1    2    0    0  0.00000000000E+00  0.00000000000E+00 -0.19911263901E+04  0.30465388931E+04  0.23058219631E+04 0.  0.
        1    1    3    3  502    0 -0.50874802744E+03  0.79395635668E+03 -0.18719855616E+04  0.20960728028E+04  0.50400001928E-02 0. -1.
       -1    1    3    3    0  502  0.50874802744E+03 -0.79395635668E+03 -0.11914082853E+03  0.95046609028E+03  0.50400001928E-02 0.  1.
</event>
<event>
 5   0  0.2342500E-05  0.2304570E+04  0.7818609E-02  0.8476121E-01
        3   -1    0    0  501    0  0.00000000000E+00  0.00000000000E+00  0.12195300271E+04  0.12195300313E+04  0.10100000352E+00 0. -1.
       -3   -1    0    0    0  501  0.00000000000E+00  0.00000000000E+00 -0.10887478397E+04  0.10887478444E+04  0.10100000352E+00 0.  1.
    10030    2    1    2    0    0  0.00000000000E+00  0.00000000000E+00  0.13078218737E+03  0.23082778757E+04  0.23045699752E+04 0.  0.
        5    1    3    3  502    0  0.30552735021E+03  0.10887429810E+04 -0.15639317621E+03  0.11415731058E+04  0.46999998093E+01 0.  1.
       -5    1    3    3    0  502 -0.30552735021E+03 -0.10887429810E+04  0.28717536358E+03  0.11667047698E+04  0.46999998093E+01 0. -1.
</event>
<event>
 5   0  0.2944089E-05  0.1927003E+04  0.7818609E-02  0.8641531E-01
       -1   -1    0    0    0  501  0.00000000000E+00  0.00000000000E+00  0.71079113344E+03  0.71079113346E+03  0.50400001928E-02 0. -1.
        1   -1    0    0  501    0  0.00000000000E+00  0.00000000000E+00 -0.13060594250E+04  0.13060594250E+04  0.50400001928E-02 0.  1.
    10030    2    1    2    0    0  0.00000000000E+00  0.00000000000E+00 -0.59526829158E+03  0.20168505585E+04  0.19270033306E+04 0.  0.
        5    1    3    3  502    0  0.46626667842E+03  0.52680444128E+03 -0.98664904052E+03  0.12117862658E+04  0.46999998093E+01 0.  1.
       -5    1    3    3    0  502 -0.46626667842E+03 -0.52680444128E+03  0.39138074894E+03  0.80506429271E+03  0.46999998093E+01 0. -1.
</event>
<event>
 5   0  0.6468758E-05  0.2305964E+04  0.7818609E-02  0.8475573E-01
        2   -1    0    0  501    0  0.00000000000E+00  0.00000000000E+00  0.19235734400E+04  0.19235734400E+04  0.25500000920E-02 0.  1.
       -2   -1    0    0    0  501  0.00000000000E+00  0.00000000000E+00 -0.69109247875E+03  0.69109247875E+03  0.25500000920E-02 0. -1.
    10030    2    1    2    0    0  0.00000000000E+00  0.00000000000E+00  0.12324809612E+04  0.26146659187E+04  0.23059636915E+04 0.  0.
        3    1    3    3  502    0  0.79748282416E+03  0.68330895727E+02 -0.32474912008E+03  0.86377657257E+03  0.10100000352E+00 0. -1.
       -3    1    3    3    0  502 -0.79748282416E+03 -0.68330895727E+02  0.15572300813E+04  0.17508893461E+04  0.10100000352E+00 0.  1.
</event>
<event>
 5   0  0.2962279E-05  0.2242813E+04  0.7818609E-02  0.8500817E-01
       -1   -1    0    0    0  501  0.00000000000E+00  0.00000000000E+00  0.82780440574E+03  0.82780440575E+03  0.50400001928E-02 0. -1.
        1   -1    0    0  501    0  0.00000000000E+00  0.00000000000E+00 -0.15191424040E+04  0.15191424040E+04  0.50400001928E-02 0.  1.
    10030    2    1    2    0    0  0.00000000000E+00  0.00000000000E+00 -0.69133799826E+03  0.23469468098E+04  0.22428132111E+04 0.  0.
        1    1    3    3  502    0  0.74071530870E+03 -0.27837228391E+03  0.48583297072E+03  0.92853862195E+03  0.50400001928E-02 0. -1.
       -1    1    3    3    0  502 -0.74071530870E+03  0.27837228391E+03 -0.11771709690E+04  0.14184081878E+04  0.50400001928E-02 0.  1.
</event>
<event>
 5   0  0.2944089E-05  0.2240193E+04  0.7818609E-02  0.8501883E-01
       -1   -1    0    0    0  501  0.00000000000E+00  0.00000000000E+00  0.71076548221E+03  0.71076548223E+03  0.50400001928E-02 0.  1.
        1   -1    0    0  501    0  0.00000000000E+00  0.00000000000E+00 -0.17651623417E+04  0.17651623417E+04  0.50400001928E-02 0. -1.
    10030    2    1    2    0    0  0.00000000000E+00  0.00000000000E+00 -0.10543968595E+04  0.24759278240E+04  0.22401932622E+04 0.  0.
        5    1    3    3  502    0 -0.10810002437E+04  0.20937211489E+03 -0.30016543500E+03  0.11412798026E+04  0.46999998093E+01 0. -1.
       -5    1    3    3    0  502  0.10810002437E+04 -0.20937211489E+03 -0.75423142450E+03  0.13346480214E+04  0.46999998093E+01 0.  1.
</event>
<event>
 5   0  0.6495405E-05  0.2130919E+04  0.7818609E-02  0.8547744E-01
       -2   -1    0    0    0  501  0.00000000000E+00  0.00000000000E+00  0.11344655787E+04  0.11344655787E+04  0.25500000920E-02 0.  1.
        2   -1    0    0  501    0  0.00000000000E+00  0.00000000000E+00 -0.10006507273E+04  0.10006507273E+04  0.25500000920E-02 0. -1.
    10030    2    1    2    0    0  0.00000000000E+00  0.00000000000E+00  0.13381485145E+03  0.21351163060E+04  0.21309188688E+04 0.  0.
        5    1    3    3  502    0  0.32584446239E+03 -0.34749893915E+03  0.10218070131E+04  0.11274048911E+04  0.46999998093E+01 0.  1.
       -5    1    3    3    0  502 -0.32584446239E+03  0.34749893915E+03 -0.88799216170E+03  0.10077114148E+04  0.46999998093E+01 0. -1.
</event>
<event>
 5   0  0.2962279E-05  0.2318212E+04  0.7818609E-02  0.8470775E-01
        1   -1    0    0  501    0  0.00000000000E+00  0.00000000000E+00  0.16146296735E+04  0.16146296735E+04  0.50400001928E-02 0. -1.
       -1   -1    0    0    0  501  0.00000000000E+00  0.00000000000E+00 -0.83209561135E+03  0.83209561137E+03  0.50400001928E-02 0.  1.
    10030    2    1    2    0    0  0.00000000000E+00  0.00000000000E+00  0.78253406218E+03  0.24467252849E+04  0.23182116084E+04 0.  0.
        1    1    3    3  502    0 -0.59365415165E+03 -0.94778035683E+03  0.69725189020E+02  0.11205241892E+04  0.50400001928E-02 0.  1.
       -1    1    3    3    0  502  0.59365415165E+03  0.94778035683E+03  0.71280887316E+03  0.13262010957E+04  0.50400001928E-02 0. -1.
</event>
<event>
 5   0  0.2944089E-05  0.2172044E+04  0.7818609E-02  0.8530155E-01
       -1   -1    0    0    0  501  0.00000000000E+00  0.00000000000E+00  0.76598105945E+03  0.76598105946E+03  0.50400001928E-02 0. -1.
        1   -1    0    0  501    0  0.00000000000E+00  0.00000000000E+00 -0.15397818394E+04  0.15397818394E+04  0.50400001928E-02 0.  1.
    10030    2    1    2    0    0  0.00000000000E+00  0.00000000000E+00 -0.77380077991E+03  0.23057628988E+04  0.21720439449E+04 0.  0.
        5    1    3    3  502    0  0.47587110829E+03  0.97379623799E+03 -0.31420684094E+03  0.11284859121E+04  0.46999998093E+01 0.  1.
       -5    1    3    3    0  502 -0.47587110829E+03 -0.97379623799E+03 -0.45959393897E+03  0.11772769868E+04  0.46999998093E+01 0. -1.
</event>
<event>
 5   0  0.3118614E-05  0.1966982E+04  0.7818609E-02  0.8622215E-01
        1   -1    0    0  501    0  0.00000000000E+00  0.00000000000E+00  0.15450248218E+04  0.15450248218E+04  0.50400001928E-02 0.  1.
       -1   -1    0    0    0  501  0.00000000000E+00  0.00000000000E+00 -0.62604444647E+03  0.62604444649E+03  0.50400001928E-02 0. -1.
    10030    2    1    2    0    0  0.00000000000E+00  0.00000000000E+00  0.91898037537E+03  0.21710692683E+04  0.19669816566E+04 0.  0.
        3    1    3    3  502    0 -0.54988929385E+03  0.32108166754E+03 -0.36779925750E+03  0.73535568043E+03  0.10100000352E+00 0. -1.
       -3    1    3    3    0  502  0.54988929385E+03 -0.32108166754E+03  0.12867796329E+04  0.14357135879E+04  0.10100000352E+00 0.  1.
</event>
<event>
 5   0  0.6702421E-05  0.2298655E+04  0.7818609E-02  0.8478452E-01
        2   -1    0    0  501    0  0.00000000000E+00  0.00000000000E+00  0.17919884173E+04  0.17919884173E+04  0.25500000920E-02 0.  1.
       -2   -1    0    0    0  501  0.00000000000E+00  0.00000000000E+00 -0.73714427922E+03  0.73714427923E+03  0.25500000920E-02 0. -1.
    10030    2    1    2    0    0  0.00000000000E+00  0.00000000000E+00  0.10548441381E+04  0.25291326965E+04  0.22986552680E+04 0.  0.
        4    1    3    3  502    0 -0.57916770283E+03 -0.51377351809E+02 -0.56338382646E+03  0.80961584044E+03  0.12699999809E+01 0. -1.
       -4    1    3    3    0  502  0.57916770283E+03  0.51377351809E+02  0.16182279645E+04  0.17195168561E+04  0.12699999809E+01 0.  1.
</event>
<event>
 5   0  0.3006265E-05  0.2302202E+04  0.7818609E-02  0.8477053E-01
       -1   -1    0    0    0  501  0.00000000000E+00  0.00000000000E+00  0.68195312948E+03  0.68195312950E+03  0.50400001928E-02 0.  1.
        1   -1    0    0  501    0  0.00000000000E+00  0.00000000000E+00 -0.19429980536E+04  0.19429980536E+04  0.50400001928E-02 0. -1.
    10030    2    1    2    0    0  0.00000000000E+00  0.00000000000E+00 -0.12610449241E+04  0.26249511831E+04  0.23022020791E+04 0.  0.
        2    1    3    3  502    0  0.43090697460E+03 -0.55265992005E+02  0.58489087306E+03  0.72858251696E+03  0.25500000920E-02 0.  1.
       -2    1    3    3    0  502 -0.43090697460E+03  0.55265992005E+02 -0.18459357972E+04  0.18963686661E+04  0.25500000920E-02 0. -1.
</event>
<event>
 5   0  0.2342500E-05  0.2286851E+04  0.7818609E-02  0.8483124E-01
        3   -1    0    0  501    0  0.00000000000E+00  0.00000000000E+00  0.84344604339E+03  0.84344604944E+03  0.10100000352E+00 0. -1.
       -3   -1    0    0    0  501  0.00000000000E+00  0.00000000000E+00 -0.15500954596E+04  0.15500954629E+04  0.10100000352E+00 0.  1.
    10030    2    1    2    0    0  0.00000000000E+00  0.00000000000E+00 -0.70664941620E+03  0.23935415123E+04  0.22868510170E+04 0.  0.
        1    1    3    3  502    0 -0.47570357868E+03 -0.10360058645E+04 -0.44588020724E+03  0.12240960769E+04  0.50400001928E-02 0. -1.
       -1    1    3    3    0  502  0.47570357868E+03  0.10360058645E+04 -0.26076920896E+03  0.11694454355E+04  0.50400001928E-02 0.  1.
</event>
<event>
 5   0  0.6814789E-05  0.2271060E+04  0.7818609E-02  0.8489420E-01
       -2   -1    0    0    0  501  0.00000000000E+00  0.00000000000E+00  0.16288314350E+04  0.16288314350E+04  0.25500000920E-02 0.  1.
        2   -1    0    0  501    0  0.00000000000E+00  0.00000000000E+00 -0.79162758319E+03  0.79162758319E+03  0.25500000920E-02 0. -1.
    10030    2    1    2    0    0  0.00000000000E+00  0.00000000000E+00  0.83720385177E+03  0.24204590181E+04  0.22710595697E+04 0.  0.
        1    1    3    3  502    0  0.10179922961E+04 -0.26528449605E+03 -0.37005118969E+02  0.10526412293E+04  0.50400001928E-02 0. -1.
       -1    1    3    3    0  502 -0.10179922961E+04  0.26528449605E+03  0.87420897073E+03  0.13678177888E+04  0.50400001928E-02 0.  1.
</event>
<event>
 5   0  0.6702421E-05  0.2334331E+04  0.7818609E-02  0.8464507E-01
       -2   -1    0    0    0  501  0.00000000000E+00  0.00000000000E+00  0.94193457392E+03  0.94193457392E+03  0.25500000920E-02 0. -1.
        2   -1    0    0  501    0  0.00000000000E+00  0.00000000000E+00 -0.14462519864E+04  0.14462519864E+04  0.25500000920E-02 0.  1.
    10030    2    1    2    0    0  0.00000000000E+00  0.00000000000E+00 -0.50431741249E+03  0.23881865603E+04  0.23343305238E+04 0.  0.
        4    1    3    3  502    0 -0.26386112717E+03  0.57015485911E+03  0.75418878567E+03  0.98158117093E+03  0.12699999809E+01 0. -1.
       -4    1    3    3    0  502  0.26386112717E+03 -0.57015485911E+03 -0.12585061982E+04  0.14066053894E+04  0.12699999809E+01 0.  1.
</event>
<event>
 5   0  0.6702421E-05  0.2260117E+04  0.7818609E-02  0.8493815E-01
        2   -1    0    0  501    0  0.00000000000E+00  0.00000000000E+00  0.20399429812E+04  0.20399429812E+04  0.25500000920E-02 0. -1.
       -2   -1    0    0    0  501  0.00000000000E+00  0.00000000000E+00 -0.62601343031E+03  0.62601343032E+03  0.25500000920E-02 0.  1.
    10030    2    1    2    0    0  0.00000000000E+00  0.00000000000E+00  0.14139295509E+04  0.26659564115E+04  0.22601165486E+04 0.  0.
        4    1    3    3  502    0 -0.14372992841E+03  0.90532540786E+03  0.14865121196E+04  0.17464227098E+04  0.12699999809E+01 0.  1.
       -4    1    3    3    0  502  0.14372992841E+03 -0.90532540786E+03 -0.72582568773E+02  0.91953370174E+03  0.12699999809E+01 0. -1.
</event>
<event>
 5   0  0.6676612E-05  0.2326042E+04  0.7818609E-02  0.8467723E-01
       -2   -1    0    0    0  501  0.00000000000E+00  0.00000000000E+00  0.84883594202E+03  0.84883594202E+03  0.25500000920E-02 0. -1.
        2   -1    0    0  501    0  0.00000000000E+00  0.00000000000E+00 -0.15934974842E+04  0.15934974842E+04  0.25500000920E-02 0.  1.
    10030    2    1    2    0    0  0.00000000000E+00  0.00000000000E+00 -0.74466154222E+03  0.24423334263E+04  0.23260420788E+04 0.  0.
        2    1    3    3  502    0  0.11811902046E+03  0.11448276075E+04 -0.54814021147E+03  0.12747705854E+04  0.25500000920E-02 0.  1.
       -2    1    3    3    0  502 -0.11811902046E+03 -0.11448276075E+04 -0.19652133075E+03  0.11675628409E+04  0.25500000920E-02 0. -1.
</event>
<event>
 5   0  0.6468758E-05  0.2292849E+04  0.7818609E-02  0.8480746E-01
        2   -1    0    0  501    0  0.00000000000E+00  0.00000000000E+00  0.26475179604E+04  0.26475179604E+04  0.25500000920E-02 0. -1.
       -2   -1    0    0    0  501  0.00000000000E+00  0.00000000000E+00 -0.49642329468E+03  0.49642329469E+03  0.25500000920E-02 0.  1.
    10030    2    1    2    0    0  0.00000000000E+00  0.00000000000E+00  0.21510946657E+04  0.31439412550E+04  0.22928493964E+04 0.  0.
        3    1    3    3  502    0 -0.57316300513E+03  0.38261049489E+03  0.23318056981E+04  0.24315066204E+04  0.10100000352E+00 0. -1.
       -3    1    3    3    0  502  0.57316300513E+03 -0.38261049489E+03 -0.18071103237E+03  0.71243463467E+03  0.10100000352E+00 0.  1.
</event>
<event>
 5   0  0.3118614E-05  0.2239510E+04  0.7818609E-02  0.8502161E-01
       -1   -1    0    0    0  501  0.00000000000E+00  0.00000000000E+00  0.78323480095E+03  0.78323480097E+03  0.50400001928E-02 0.  1.
        1   -1    0    0  501    0  0.00000000000E+00  0.00000000000E+00 -0.16008619126E+04  0.16008619126E+04  0.50400001928E-02 0. -1.
    10030    2    1    2    0    0  0.00000000000E+00  0.00000000000E+00 -0.81762711165E+03  0.23840967136E+04  0.22395095548E+04 0.  0.
        3    1    3    3  502    0 -0.65876593674E+03  0.54363316923E+02 -0.13710049400E+04  0.15220323536E+04  0.10100000352E+00 0. -1.
       -3    1    3    3    0  502  0.65876593674E+03 -0.54363316923E+02  0.55337782836E+03  0.86206435999E+03  0.10100000352E+00 0.  1.
</event>
<event>
 5   0  0.2982385E-05  0.2338681E+04  0.7818609E-02  0.8462824E-01
        1   -1    0    0  501    0  0.00000000000E+00  0.00000000000E+00  0.13606548367E+04  0.13606548367E+04  0.50400001928E-02 0.  1.
       -1   -1    0    0    0  501  0.00000000000E+00  0.00000000000E+00 -0.10049256037E+04  0.10049256037E+04  0.50400001928E-02 0. -1.
    10030    2    1    2    0    0  0.00000000000E+00  0.00000000000E+00  0.35572923299E+03  0.23655804404E+04  0.23386807249E+04 0.  0.
        4    1    3    3  502    0 -0.11283851089E+04 -0.65832478249E+02 -0.12519532098E+03  0.11372169320E+04  0.12699999809E+01 0.  1.
       -4    1    3    3    0  502  0.11283851089E+04  0.65832478249E+02  0.48092455397E+03  0.12283635084E+04  0.12699999809E+01 0. -1.
</event>
<event>
 5   0  0.6468758E-05  0.2343789E+04  0.7818609E-02  0.8460853E-01
        2   -1    0    0  501    0  0.00000000000E+00  0.00000000000E+00  0.18680277765E+04  0.18680277765E+04  0.25500000920E-02 0. -1.
       -2   -1    0    0    0  501  0.00000000000E+00  0.00000000000E+00 -0.73517982424E+03  0.73517982425E+03  0.25500000920E-02 0.  1.
    10030    2    1    2    0    0  0.00000000000E+00  0.00000000000E+00  0.11328479522E+04  0.26032076007E+04  0.23437886700E+04 0.  0.
        3    1    3    3  502    0  0.58307227499E+03 -0.89738884609E+03  0.10968335973E+04  0.15324242132E+04  0.10100000352E+00 0. -1.
       -3    1    3    3    0  502 -0.58307227499E+03  0.89738884609E+03  0.36014354947E+02  0.10707833875E+04  0.10100000352E+00 0.  1.
</event>
<event>
 5   0  0.6676612E-05  0.2283465E+04  0.7818609E-02  0.8484469E-01
        2   -1    0    0  501    0  0.00000000000E+00  0.00000000000E+00  0.18202946239E+04  0.18202946239E+04  0.25500000920E-02 0.  1.
       -2   -1    0    0    0  501  0.00000000000E+00  0.00000000000E+00 -0.71612235128E+03  0.71612235129E+03  0.25500000920E-02 0. -1.
    10030    2    1    2    0    0  0.00000000000E+00  0.00000000000E+00  0.11041722726E+04  0.25364169752E+04  0.22834654945E+04 0.  0.
        2    1    3    3  502    0  0.45229550635E+03  0.97577984951E+03  0.97772635455E+03  0.14535014153E+04  0.25500000920E-02 0.  1.
       -2    1    3    3    0  502 -0.45229550635E+03 -0.97577984951E+03  0.12644591809E+03  0.10829155600E+04  0.25500000920E-02 0. -1.
</event>
<event>
 5   0  0.2962279E-05  0.2293698E+04  0.7818609E-02  0.8480410E-01
       -1   -1    0    0    0  501  0.00000000000E+00  0.00000000000E+00  0.97454622695E+03  0.97454622697E+03  0.50400001928E-02 0.  1.
        1   -1    0    0  501    0  0.00000000000E+00  0.00000000000E+00 -0.13496159105E+04  0.13496159105E+04  0.50400001928E-02 0. -1.
    10030    2    1    2    0    0  0.00000000000E+00  0.00000000000E+00 -0.37506968354E+03  0.23241621375E+04  0.22936984051E+04 0.  0.
        1    1    3    3  502    0  0.88684769732E+03 -0.31947508827E+03  0.47436365017E+03  0.10552649160E+04  0.50400001928E-02 0. -1.
       -1    1    3    3    0  502 -0.88684769732E+03  0.31947508827E+03 -0.84943333371E+03  0.12688972215E+04  0.50400001928E-02 0.  1.
</event>
<event>
 5   0  0.6814789E-05  0.2291991E+04  0.7818609E-02  0.8481086E-01
        2   -1    0    0  501    0  0.00000000000E+00  0.00000000000E+00  0.30510711321E+04  0.30510711321E+04  0.25500000920E-02 0.  1.
       -2   -1    0    0    0  501  0.00000000000E+00  0.00000000000E+00 -0.43044084698E+03  0.43044084699E+03  0.25500000920E-02 0. -1.
    10030    2    1    2    0    0  0.00000000000E+00  0.00000000000E+00  0.26206302852E+04  0.34815119791E+04  0.22919909619E+04 0.  0.
        1    1    3    3  502    0  0.70142669921E+01 -0.10726597732E+04  0.69769400524E+03  0.12796191285E+04  0.50400001928E-02 0. -1.
       -1    1    3    3    0  502 -0.70142669921E+01  0.10726597732E+04  0.19229362799E+04  0.22018928506E+04  0.50400001928E-02 0.  1.
</event>
<event>
 5   0  0.3006265E-05  0.2365361E+04  0.7818609E-02  0.8452587E-01
        1   -1    0    0  501    0  0.00000000000E+00  0.00000000000E+00  0.12118850373E+04  0.12118850373E+04  0.50400001928E-02 0.  1.
       -1   -1    0    0    0  501  0.00000000000E+00  0.00000000000E+00 -0.11541795224E+04  0.11541795224E+04  0.50400001928E-02 0. -1.
    10030    2    1    2    0    0  0.00000000000E+00  0.00000000000E+00  0.57705514871E+02  0.23660645597E+04  0.23653607704E+04 0.  0.
        2    1    3    3  502    0  0.24671417588E+03 -0.24424301140E+03 -0.11020632920E+04  0.11554505756E+04  0.25500000920E-02 0. -1.
       -2    1    3    3    0  502 -0.24671417588E+03  0.24424301140E+03  0.11597688068E+04  0.12106139841E+04  0.25500000920E-02 0.  1.
</event>
<event>
 5   0  0.6495405E-05  0.2321453E+04  0.7818609E-02  0.8469510E-01
        2   -1    0    0  501    0  0.00000000000E+00  0.00000000000E+00  0.20844205001E+04  0.20844205001E+04  0.25500000920E-02 0. -1.
       -2   -1    0    0    0  501  0.00000000000E+00  0.00000000000E+00 -0.64636022905E+03  0.64636022905E+03  0.25500000920E-02 0.  1.
    10030    2    1    2    0    0  0.00000000000E+00  0.00000000000E+00  0.14380602711E+04  0.27307807292E+04  0.23214534343E+04 0.  0.
        5    1    3    3  502    0 -0.10089168358E+04  0.24392170930E+03  0.13300999515E+04  0.16871866977E+04  0.46999998093E+01 0. -1.
       -5    1    3    3    0  502  0.10089168358E+04 -0.24392170930E+03  0.10796031955E+03  0.10435940315E+04  0.46999998093E+01 0.  1.
</event>
<event>
 5   0  0.3006265E-05  0.2310199E+04  0.7818609E-02  0.8473911E-01
       -1   -1    0    0    0  501  0.00000000000E+00  0.00000000000E+00  0.71614746782E+03  0.71614746784E+03  0.50400001928E-02 0. -1.
        1   -1    0    0  501    0  0.00000000000E+00  0.00000000000E+00 -0.18631012317E+04  0.18631012317E+04  0.50400001928E-02 0.  1.
    10030    2    1    2    0    0  0.00000000000E+00  0.00000000000E+00 -0.11469537639E+04  0.25792486996E+04  0.23101993242E+04 0.  0.
        2    1    3    3  502    0  0.85401537230E+03  0.53318732680E+03 -0.12056586250E+04  0.15707462244E+04  0.25500000920E-02 0.  1.
       -2    1    3    3    0  502 -0.85401537230E+03 -0.53318732680E+03  0.58704861089E+02  0.10085024751E+04  0.25500000920E-02 0. -1.
</event>
<event>
 5   0  0.3118614E-05  0.2296654E+04  0.7818609E-02  0.8479241E-01
       -1   -1    0    0    0  501  0.00000000000E+00  0.00000000000E+00  0.77427983913E+03  0.77427983914E+03  0.50400001928E-02 0.  1.
        1   -1    0    0  501    0  0.00000000000E+00  0.00000000000E+00 -0.17030732364E+04  0.17030732364E+04  0.50400001928E-02 0. -1.
    10030    2    1    2    0    0  0.00000000000E+00  0.00000000000E+00 -0.92879339724E+03  0.24773530755E+04  0.22966543245E+04 0.  0.
        3    1    3    3  502    0 -0.10153180883E+04  0.16564243643E+03 -0.10147842251E+04  0.14450243150E+04  0.10100000352E+00 0. -1.
       -3    1    3    3    0  502  0.10153180883E+04 -0.16564243643E+03  0.85990827896E+02  0.10323287605E+04  0.10100000352E+00 0.  1.
</event>
<event>
 5   0  0.2944089E-05  0.2272923E+04  0.7818609E-02  0.8488674E-01
       -1   -1    0    0    0  501  0.00000000000E+00  0.00000000000E+00  0.95210400439E+03  0.95210400441E+03  0.50400001928E-02 0.  1.
        1   -1    0    0  501    0  0.00000000000E+00  0.00000000000E+00 -0.13565165119E+04  0.13565165120E+04  0.50400001928E-02 0. -1.
    10030    2    1    2    0    0  0.00000000000E+00  0.00000000000E+00 -0.40441250755E+03  0.23086205164E+04  0.22729230546E+04 0.  0.
        5    1    3    3  502    0 -0.25751842113E+03  0.30535068880E+03 -0.12828558090E+04  0.13436130012E+04  0.46999998093E+01 0. -1.
       -5    1    3    3    0  502  0.25751842113E+03 -0.30535068880E+03  0.87844330146E+03  0.96500751513E+03  0.46999998093E+01 0.  1.
</event>
<event>
 5   0  0.6814789E-05  0.2301671E+04  0.7818609E-02  0.8477263E-01
       -2   -1    0    0    0  501  0.00000000000E+00  0.00000000000E+00  0.73424128596E+03  0.73424128597E+03  0.25500000920E-02 0. -1.
        2   -1    0    0  501    0  0.00000000000E+00  0.00000000000E+00 -0.18037966499E+04  0.18037966499E+04  0.25500000920E-02 0.  1.
    10030    2    1    2    0    0  0.00000000000E+00  0.00000000000E+00 -0.10695553639E+04  0.25380379358E+04  0.23016706731E+04 0.  0.
        1    1    3    3  502    0  0.31762859999E+03  0.98154220559E+03 -0.10971611778E+04  0.15060131736E+04  0.50400001928E-02 0. -1.
       -1    1    3    3    0  502 -0.31762859999E+03 -0.98154220559E+03  0.27605813923E+02  0.10320247622E+04  0.50400001928E-02 0.  1.
</event>
<event>
 5   0  0.3118614E-05  0.2222876E+04  0.7818609E-02  0.8508967E-01
       -1   -1    0    0    0  501  0.00000000000E+00  0.00000000000E+00  0.97196085708E+03  0.97196085709E+03  0.50400001928E-02 0. -1.
        1   -1    0    0  501    0  0.00000000000E+00  0.00000000000E+00 -0.12709299325E+04  0.12709299325E+04  0.50400001928E-02 0.  1.
    10030    2    1    2    0    0  0.00000000000E+00  0.00000000000E+00 -0.29896907542E+03  0.22428907896E+04  0.22228757469E+04 0.  0.
        3    1    3    3  502    0  0.48273088346E+02 -0.63955803442E+03  0.76639410331E+03  0.99936214769E+03  0.10100000352E+00 0. -1.
       -3    1    3    3    0  502 -0.48273088346E+02  0.63955803442E+03 -0.10653631787E+04  0.12435286419E+04  0.10100000352E+00 0.  1.
</event>
<event>
 5   0  0.6676612E-05  0.2323884E+04  0.7818609E-02  0.8468563E-01
        2   -1    0    0  501    0  0.00000000000E+00  0.00000000000E+00  0.12266643094E+04  0.12266643095E+04  0.25500000920E-02 0. -1.
       -2   -1    0    0    0  501  0.00000000000E+00  0.00000000000E+00 -0.11006345524E+04  0.11006345524E+04  0.25500000920E-02 0.  1.
    10030    2    1    2    0    0  0.00000000000E+00  0.00000000000E+00  0.12602975700E+03  0.23272988619E+04  0.23238839242E+04 0.  0.
        2    1    3    3  502    0  0.20607810506E+03 -0.11393073909E+04  0.16123860062E+03  0.11689685208E+04  0.25500000920E-02 0.  1.
       -2    1    3    3    0  502 -0.20607810506E+03  0.11393073909E+04 -0.35208843621E+02  0.11583303411E+04  0.25500000920E-02 0. -1.
</event>
<event>
 5   0  0.2982385E-05  0.1667568E+04  0.7818609E-02  0.8780081E-01
       -1   -1    0    0    0  501  0.00000000000E+00  0.00000000000E+00  0.38101583810E+03  0.38101583813E+03  0.50400001928E-02 0. -1.
        1   -1    0    0  501    0  0.00000000000E+00  0.00000000000E+00 -0.18245842758E+04  0.18245842758E+04  0.50400001928E-02 0.  1.
    10030    2    1    2    0    0  0.00000000000E+00  0.00000000000E+00 -0.14435684377E+04  0.22056001139E+04  0.16675676983E+04 0.  0.
        4    1    3    3  502    0 -0.47765677984E+03  0.23774365121E+03 -0.15692228682E+04  0.16574498683E+04  0.12699999809E+01 0.  1.
       -4    1    3    3    0  502  0.47765677984E+03 -0.23774365121E+03  0.12565443046E+03  0.54815024565E+03  0.12699999809E+01 0. -1.
</event>
<event>
 5   0  0.2944089E-05  0.2293557E+04  0.7818609E-02  0.8480466E-01
       -1   -1    0    0    0  501  0.00000000000E+00  0.00000000000E+00  0.69701060553E+03  0.69701060555E+03  0.50400001928E-02 0.  1.
        1   -1    0    0  501    0  0.00000000000E+00  0.00000000000E+00 -0.18867738752E+04  0.18867738752E+04  0.50400001928E-02 0. -1.
    10030    2    1    2    0    0  0.00000000000E+00  0.00000000000E+00 -0.11897632697E+04  0.25837844808E+04  0.22935574127E+04 0.  0.
        5    1    3    3  502    0 -0.10989571516E+04  0.47336198891E+02 -0.22961191872E+03  0.11236953590E+04  0.46999998093E+01 0.  1.
       -5    1    3    3    0  502  0.10989571516E+04 -0.47336198891E+02 -0.96015135098E+03  0.14600891218E+04  0.46999998093E+01 0. -1.
</event>
<event>
 5   0  0.6495405E-05  0.2499311E+04  0.7818609E-02  0.8403231E-01
        2   -1    0    0  501    0  0.00000000000E+00  0.00000000000E+00  0.15829385437E+04  0.15829385437E+04  0.25500000920E-02 0. -1.
       -2   -1    0    0    0  501  0.00000000000E+00  0.00000000000E+00 -0.98654439149E+03  0.98654439150E+03  0.25500000920E-02 0.  1.
    10030    2    1    2    0    0  0.00000000000E+00  0.00000000000E+00  0.59639415221E+03  0.25694829352E+04  0.24993112190E+04 0.  0.
        5    1    3    3  502    0 -0.74465547631E+03 -0.26928020404E+03  0.12920835142E+04  0.15154291486E+04  0.46999998093E+01 0. -1.
       -5    1    3    3    0  502  0.74465547631E+03  0.26928020404E+03 -0.69568936200E+03  0.10540537866E+04  0.46999998093E+01 0.  1.
</event>
<event>
 5   0  0.2944089E-05  0.2328307E+04  0.7818609E-02  0.8466843E-01
       -1   -1    0    0    0  501  0.00000000000E+00  0.00000000000E+00  0.12024346639E+04  0.12024346639E+04  0.50400001928E-02 0.  1.
        1   -1    0    0  501    0  0.00000000000E+00  0.00000000000E+00 -0.11270910201E+04  0.11270910201E+04  0.50400001928E-02 0. -1.
    10030    2    1    2    0    0  0.00000000000E+00  0.00000000000E+00  0.75343643813E+02  0.23295256840E+04  0.23283069487E+04 0.  0.
        5    1    3    3  502    0 -0.30306993481E+03 -0.11078875355E+04 -0.15207196950E+03  0.11586259753E+04  0.46999998093E+01 0. -1.
       -5    1    3    3    0  502  0.30306993481E+03  0.11078875355E+04  0.22741561331E+03  0.11708997087E+04  0.46999998093E+01 0.  1.
</event>
<event>
 5   0  0.3006265E-05  0.2303613E+04  0.7818609E-02  0.8476498E-01
        1   -1    0    0  501    0  0.00000000000E+00  0.00000000000E+00  0.14332315741E+04  0.14332315741E+04  0.50400001928E-02 0. -1.
       -1   -1    0    0    0  501  0.00000000000E+00  0.00000000000E+00 -0.92564094841E+03  0.92564094842E+03  0.50400001928E-02 0.  1.
    10030    2    1    2    0    0  0.00000000000E+00  0.00000000000E+00  0.50759062570E+03  0.23588725225E+04  0.23036126702E+04 0.  0.
        2    1    3    3  502    0  0.16142492025E+03  0.28540166771E+03 -0.87684071857E+03  0.93614195641E+03  0.25500000920E-02 0.  1.
       -2    1    3    3    0  502 -0.16142492025E+03 -0.28540166771E+03  0.13844313443E+04  0.14227305661E+04  0.25500000920E-02 0. -1.
</event>
<event>
 5   0  0.6814789E-05  0.2265141E+04  0.7818609E-02  0.8491794E-01
       -2   -1    0    0    0  501  0.00000000000E+00  0.00000000000E+00  0.10957082680E+04  0.10957082680E+04  0.25500000920E-02 0.  1.
        2   -1    0    0  501    0  0.00000000000E+00  0.00000000000E+00 -0.11706728471E+04  0.11706728471E+04  0.25500000920E-02 0. -1.
    10030    2    1    2    0    0  0.00000000000E+00  0.00000000000E+00 -0.74964579115E+02  0.22663811151E+04  0.22651409825E+04 0.  0.
        1    1    3    3  502    0  0.66349280886E+03  0.59625376976E+03 -0.73570003614E+03  0.11562853491E+04  0.50400001928E-02 0. -1.
       -1    1    3    3    0  502 -0.66349280886E+03 -0.59625376976E+03  0.66073545703E+03  0.11100957659E+04  0.50400001928E-02 0.  1.
</event>
<event>
 5   0  0.2982385E-05  0.2287710E+04  0.7818609E-02  0.8482783E-01
       -1   -1    0    0    0  501  0.00000000000E+00  0.00000000000E+00  0.67848210869E+03  0.67848210871E+03  0.50400001928E-02 0.  1.
        1   -1    0    0  501    0  0.00000000000E+00  0.00000000000E+00 -0.19284278635E+04  0.19284278635E+04  0.50400001928E-02 0. -1.
    10030    2    1    2    0    0  0.00000000000E+00  0.00000000000E+00 -0.12499457548E+04  0.26069099722E+04  0.22877095999E+04 0.  0.
        4    1    3    3  502    0  0.10422163056E+04  0.32824072699E+03 -0.10104727923E+04  0.14882922023E+04  0.12699999809E+01 0.  1.
       -4    1    3    3    0  502 -0.10422163056E+04 -0.32824072699E+03 -0.23947296255E+03  0.11186177699E+04  0.12699999809E+01 0. -1.
</event>
<event>
 5   0  0.6814789E-05  0.2268925E+04  0.7818609E-02  0.8490275E-01
       -2   -1    0    0    0  501  0.00000000000E+00  0.00000000000E+00  0.12044732639E+04  0.12044732639E+04  0.25500000920E-02 0.  1.
        2   -1    0    0  501    0  0.00000000000E+00  0.00000000000E+00 -0.10685209519E+04  0.10685209519E+04  0.25500000920E-02 0. -1.
    10030    2    1    2    0    0  0.00000000000E+00  0.00000000000E+00  0.13595231196E+03  0.22729942159E+04  0.22689247837E+04 0.  0.
        1    1    3    3  502    0 -0.83015885027E+03 -0.47454798854E+03 -0.54356560398E+03  0.10999195770E+04  0.50400001928E-02 0. -1.
       -1    1    3    3    0  502  0.83015885027E+03  0.47454798854E+03  0.67951791594E+03  0.11730746388E+04  0.50400001928E-02 0.  1.
</event>
<event>
 5   0  0.6814789E-05  0.2250824E+04  0.7818609E-02  0.8497567E-01
        2   -1    0    0  501    0  0.00000000000E+00  0.00000000000E+00  0.10920460546E+04  0.10920460546E+04  0.25500000920E-02 0.  1.
       -2   -1    0    0    0  501  0.00000000000E+00  0.00000000000E+00 -0.11597978803E+04  0.11597978803E+04  0.25500000920E-02 0. -1.
    10030    2    1    2    0    0  0.00000000000E+00  0.00000000000E+00 -0.67751825728E+02  0.22518439349E+04  0.22508244705E+04 0.  0.
        1    1    3    3  502    0 -0.27002822599E+03  0.39797505624E+03  0.98405891635E+03  0.10952950922E+04  0.50400001928E-02 0.  1.
       -1    1    3    3    0  502  0.27002822599E+03 -0.39797505624E+03 -0.10518107421E+04  0.11565488426E+04  0.50400001928E-02 0. -1.
</event>
<event>
 5   0  0.2982385E-05  0.2287670E+04  0.7818609E-02  0.8482798E-01
       -1   -1    0    0    0  501  0.00000000000E+00  0.00000000000E+00  0.72535385422E+03  0.72535385424E+03  0.50400001928E-02 0.  1.
        1   -1    0    0  501    0  0.00000000000E+00  0.00000000000E+00 -0.18037525510E+04  0.18037525510E+04  0.50400001928E-02 0. -1.
    10030    2    1    2    0    0  0.00000000000E+00  0.00000000000E+00 -0.10783986968E+04  0.25291064053E+04  0.22876703128E+04 0.  0.
        4    1    3    3  502    0  0.11337284886E+04  0.59181244313E+02 -0.69363689590E+03  0.13304046234E+04  0.12699999809E+01 0.  1.
       -4    1    3    3    0  502 -0.11337284886E+04 -0.59181244313E+02 -0.38476180091E+03  0.11987017819E+04  0.12699999809E+01 0. -1.
</event>
<event>
 5   0  0.3118614E-05  0.2299533E+04  0.7818609E-02  0.8478105E-01
       -1   -1    0    0    0  501  0.00000000000E+00  0.00000000000E+00  0.74739192491E+03  0.74739192492E+03  0.50400001928E-02 0. -1.
        1   -1    0    0  501    0  0.00000000000E+00  0.00000000000E+00 -0.17687680556E+04  0.17687680556E+04  0.50400001928E-02 0.  1.
    10030    2    1    2    0    0  0.00000000000E+00  0.00000000000E+00 -0.10213761307E+04  0.25161599805E+04  0.22995329628E+04 0.  0.
        3    1    3    3  502    0 -0.29371341111E+03 -0.11022656004E+04 -0.35323686287E+03  0.11941663674E+04  0.10100000352E+00 0.  1.
       -3    1    3    3    0  502  0.29371341111E+03  0.11022656004E+04 -0.66813926780E+03  0.13219936131E+04  0.10100000352E+00 0. -1.
</event>
<event>
 5   0  0.6702421E-05  0.2263590E+04  0.7818609E-02  0.8492417E-01
        2   -1    0    0  501    0  0.00000000000E+00  0.00000000000E+00  0.12217763834E+04  0.12217763834E+04  0.25500000920E-02 0.  1.
       -2   -1    0    0    0  501  0.00000000000E+00  0.00000000000E+00 -0.10484405650E+04  0.10484405650E+04  0.25500000920E-02 0. -1.
    10030    2    1    2    0    0  0.00000000000E+00  0.00000000000E+00  0.17333581837E+03  0.22702169485E+04  0.22635899998E+04 0.  0.
        4    1    3    3  502    0  0.25408804248E+03  0.82984273663E+03 -0.64192888798E+03  0.10794785829E+04  0.12699999809E+01 0. -1.
       -4    1    3    3    0  502 -0.25408804248E+03 -0.82984273663E+03  0.81526470635E+03  0.11907383655E+04  0.12699999809E+01 0.  1.
</event>
<event>
 5   0  0.2982385E-05  0.2296184E+04  0.7818609E-02  0.8479427E-01
       -1   -1    0    0    0  501  0.00000000000E+00  0.00000000000E+00  0.56740883185E+03  0.56740883187E+03  0.50400001928E-02 0.  1.
        1   -1    0    0  501    0  0.00000000000E+00  0.00000000000E+00 -0.23230429086E+04  0.23230429086E+04  0.50400001928E-02 0. -1.
    10030    2    1    2    0    0  0.00000000000E+00  0.00000000000E+00 -0.17556340767E+04  0.28904517404E+04  0.22961838455E+04 0.  0.
        4    1    3    3  502    0  0.91488067130E+03  0.61007015700E+02 -0.17475650166E+04  0.19735028753E+04  0.12699999809E+01 0. -1.
       -4    1    3    3    0  502 -0.91488067130E+03 -0.61007015700E+02 -0.80690601343E+01  0.91694886516E+03  0.12699999809E+01 0.  1.
</event>
<event>
 5   0  0.2962279E-05  0.2301434E+04  0.7818609E-02  0.8477356E-01
        1   -1    0    0  501    0  0.00000000000E+00  0.00000000000E+00  0.84586180448E+03  0.84586180450E+03  0.50400001928E-02 0.  1.
       -1   -1    0    0    0  501  0.00000000000E+00  0.00000000000E+00 -0.15654441078E+04  0.15654441078E+04  0.50400001928E-02 0. -1.
    10030    2    1    2    0    0  0.00000000000E+00  0.00000000000E+00 -0.71958230335E+03  0.24113059123E+04  0.23014337947E+04 0.  0.
        1    1    3    3  502    0  0.38603006231E+03 -0.97895992969E+03  0.12801922515E+03  0.10600805040E+04  0.50400001928E-02 0. -1.
       -1    1    3    3    0  502 -0.38603006231E+03  0.97895992969E+03 -0.84760152850E+03  0.13512254083E+04  0.50400001928E-02 0.  1.
</event>
<event>
 5   0  0.2944089E-05  0.2302949E+04  0.7818609E-02  0.8476759E-01
       -1   -1    0    0    0  501  0.00000000000E+00  0.00000000000E+00  0.12426102497E+04  0.12426102497E+04  0.50400001928E-02 0.  1.
        1   -1    0    0  501    0  0.00000000000E+00  0.00000000000E+00 -0.10670228048E+04  0.10670228049E+04  0.50400001928E-02 0. -1.
    10030    2    1    2    0    0  0.00000000000E+00  0.00000000000E+00  0.17558744488E+03  0.23096330546E+04  0.23029489565E+04 0.  0.
        5    1    3    3  502    0 -0.76638207037E+03  0.74585577151E+03  0.51591568610E+03  0.11873640532E+04  0.46999998093E+01 0.  1.
       -5    1    3    3    0  502  0.76638207037E+03 -0.74585577151E+03 -0.34032824122E+03  0.11222690014E+04  0.46999998093E+01 0. -1.
</event>
<event>
 5   0  0.6702421E-05  0.2279045E+04  0.7818609E-02  0.8486229E-01
        2   -1    0    0  501    0  0.00000000000E+00  0.00000000000E+00  0.10095961365E+04  0.10095961365E+04  0.25500000920E-02 0.  1.
       -2   -1    0    0    0  501  0.00000000000E+00  0.00000000000E+00 -0.12861695140E+04  0.12861695140E+04  0.25500000920E-02 0. -1.
    10030    2    1    2    0    0  0.00000000000E+00  0.00000000000E+00 -0.27657337749E+03  0.22957656504E+04  0.22790452143E+04 0.  0.
        4    1    3    3  502    0  0.10074100426E+04  0.52269428320E+03 -0.24114286633E+03  0.11602740205E+04  0.12699999809E+01 0.  1.
       -4    1    3    3    0  502 -0.10074100426E+04 -0.52269428320E+03 -0.35430511157E+02  0.11354916300E+04  0.12699999809E+01 0. -1.
</event>
<event>
 5   0  0.6676612E-05  0.2318722E+04  0.7818609E-02  0.8470576E-01
       -2   -1    0    0    0  501  0.00000000000E+00  0.00000000000E+00  0.91983798085E+03  0.91983798085E+03  0.25500000920E-02 0. -1.
        2   -1    0    0  501    0  0.00000000000E+00  0.00000000000E+00 -0.14612550387E+04  0.14612550387E+04  0.25500000920E-02 0.  1.
    10030    2    1    2    0    0  0.00000000000E+00  0.00000000000E+00 -0.54141705782E+03  0.23810930195E+04  0.23187219620E+04 0.  0.
        2    1    3    3  502    0  0.48021439021E+03 -0.51879919394E+03 -0.12143159827E+04  0.14051056081E+04  0.25500000920E-02 0.  1.
       -2    1    3    3    0  502 -0.48021439021E+03  0.51879919394E+03  0.67289892483E+03  0.97598741142E+03  0.25500000920E-02 0. -1.
</event>
<event>
 5   0  0.2944089E-05  0.2203794E+04  0.7818609E-02  0.8516851E-01
        1   -1    0    0  501    0  0.00000000000E+00  0.00000000000E+00  0.18720655260E+04  0.18720655260E+04  0.50400001928E-02 0. -1.
       -1   -1    0    0    0  501  0.00000000000E+00  0.00000000000E+00 -0.64857612464E+03  0.64857612466E+03  0.50400001928E-02 0.  1.
    10030    2    1    2    0    0  0.00000000000E+00  0.00000000000E+00  0.12234894013E+04  0.25206416506E+04  0.22037940048E+04 0.  0.
        5    1    3    3  502    0  0.50165861016E+03  0.64255386217E+03 -0.23620603050E+03  0.84873565130E+03  0.46999998093E+01 0.  1.
       -5    1    3    3    0  502 -0.50165861016E+03 -0.64255386217E+03  0.14596954318E+04  0.16719059993E+04  0.46999998093E+01 0. -1.
</event>
<event>
 5   0  0.2962279E-05  0.2341068E+04  0.7818609E-02  0.8461902E-01
        1   -1    0    0  501    0  0.00000000000E+00  0.00000000000E+00  0.95385652020E+03  0.95385652021E+03  0.50400001928E-02 0.  1.
       -1   -1    0    0    0  501  0.00000000000E+00  0.00000000000E+00 -0.14364314804E+04  0.14364314804E+04  0.50400001928E-02 0. -1.
    10030    2    1    2    0    0  0.00000000000E+00  0.00000000000E+00 -0.48257496016E+03  0.23902880006E+04  0.23410677337E+04 0.  0.
        1    1    3    3  502    0 -0.86353637045E+03 -0.30027142716E+03  0.50503307140E+03  0.10444694329E+04  0.50400001928E-02 0.  1.
       -1    1    3    3    0  502  0.86353637045E+03  0.30027142716E+03 -0.98760803156E+03  0.13458185677E+04  0.50400001928E-02 0. -1.
</event>
<event>
 5   0  0.6468758E-05  0.2328416E+04  0.7818609E-02  0.8466801E-01
       -2   -1    0    0    0  501  0.00000000000E+00  0.00000000000E+00  0.90405295006E+03  0.90405295006E+03  0.25500000920E-02 0. -1.
        2   -1    0    0  501    0  0.00000000000E+00  0.00000000000E+00 -0.14992262221E+04  0.14992262221E+04  0.25500000920E-02 0.  1.
    10030    2    1    2    0    0  0.00000000000E+00  0.00000000000E+00 -0.59517327205E+03  0.24032791722E+04  0.23284156750E+04 0.  0.
        3    1    3    3  502    0 -0.27116206842E+03  0.11316208892E+04 -0.33458859690E+03  0.12108031399E+04  0.10100000352E+00 0. -1.
       -3    1    3    3    0  502  0.27116206842E+03 -0.11316208892E+04 -0.26058467516E+03  0.11924760322E+04  0.10100000352E+00 0.  1.
</event>
<event>
 5   0  0.6702421E-05  0.2339004E+04  0.7818609E-02  0.8462699E-01
       -2   -1    0    0    0  501  0.00000000000E+00  0.00000000000E+00  0.61529778119E+03  0.61529778119E+03  0.25500000920E-02 0.  1.
        2   -1    0    0  501    0  0.00000000000E+00  0.00000000000E+00 -0.22228830801E+04  0.22228830801E+04  0.25500000920E-02 0. -1.
    10030    2    1    2    0    0  0.00000000000E+00  0.00000000000E+00 -0.16075852989E+04  0.28381808613E+04  0.23390040847E+04 0.  0.
        4    1    3    3  502    0 -0.71839669798E+03  0.25242379909E+03  0.27329402240E+03  0.80901348913E+03  0.12699999809E+01 0.  1.
       -4    1    3    3    0  502  0.71839669798E+03 -0.25242379909E+03 -0.18808793213E+04  0.20291673721E+04  0.12699999809E+01 0. -1.
</event>
<event>
 5   0  0.6702421E-05  0.2201434E+04  0.7818609E-02  0.8517832E-01
       -2   -1    0    0    0  501  0.00000000000E+00  0.00000000000E+00  0.62215668838E+03  0.62215668838E+03  0.25500000920E-02 0. -1.
        2   -1    0    0  501    0  0.00000000000E+00  0.00000000000E+00 -0.19473838300E+04  0.19473838300E+04  0.25500000920E-02 0.  1.
    10030    2    1    2    0    0  0.00000000000E+00  0.00000000000E+00 -0.13252271416E+04  0.25695405184E+04  0.22014339642E+04 0.  0.
        4    1    3    3  502    0  0.46060387020E+03  0.38302249455E+03  0.41521956565E+03  0.72888343182E+03  0.12699999809E+01 0. -1.
       -4    1    3    3    0  502 -0.46060387020E+03 -0.38302249455E+03 -0.17404467073E+04  0.18406570866E+04  0.12699999809E+01 0.  1.
</event>
<event>
 5   0  0.3118614E-05  0.2306919E+04  0.7818609E-02  0.8475198E-01
        1   -1    0    0  501    0  0.00000000000E+00  0.00000000000E+00  0.22739008968E+04  0.22739008968E+04  0.50400001928E-02 0. -1.
       -1   -1    0    0    0  501  0.00000000000E+00  0.00000000000E+00 -0.58510410594E+03  0.58510410597E+03  0.50400001928E-02 0.  1.
    10030    2    1    2    0    0  0.00000000000E+00  0.00000000000E+00  0.16887967908E+04  0.28590050027E+04  0.23069189420E+04 0.  0.
        3    1    3    3  502    0  0.11426021869E+04 -0.10192442343E+03  0.69495707720E+03  0.13412284276E+04  0.10100000352E+00 0.  1.
       -3    1    3    3    0  502 -0.11426021869E+04  0.10192442343E+03  0.99383971363E+03  0.15177765752E+04  0.10100000352E+00 0. -1.
</event>
<event>
 5   0  0.3118614E-05  0.2301669E+04  0.7818609E-02  0.8477263E-01
        1   -1    0    0  501    0  0.00000000000E+00  0.00000000000E+00  0.17108710430E+04  0.17108710430E+04  0.50400001928E-02 0. -1.
       -1   -1    0    0    0  501  0.00000000000E+00  0.00000000000E+00 -0.77412025179E+03  0.77412025181E+03  0.50400001928E-02 0.  1.
    10030    2    1    2    0    0  0.00000000000E+00  0.00000000000E+00  0.93675079118E+03  0.24849912948E+04  0.23016688924E+04 0.  0.
        3    1    3    3  502    0  0.93733320638E+03 -0.66350678644E+03  0.38768940033E+03  0.12120799795E+04  0.10100000352E+00 0. -1.
       -3    1    3    3    0  502 -0.93733320638E+03  0.66350678644E+03  0.54906139085E+03  0.12729113153E+04  0.10100000352E+00 0.  1.
</event>
<event>
 5   0  0.2962279E-05  0.2301911E+04  0.7818609E-02  0.8477168E-01
        1   -1    0    0  501    0  0.00000000000E+00  0.00000000000E+00  0.16914622915E+04  0.16914622915E+04  0.50400001928E-02 0. -1.
       -1   -1    0    0    0  501  0.00000000000E+00  0.00000000000E+00 -0.78316760423E+03  0.78316760425E+03  0.50400001928E-02 0.  1.
    10030    2    1    2    0    0  0.00000000000E+00  0.00000000000E+00  0.90829468726E+03  0.24746298957E+04  0.23019109197E+04 0.  0.
        1    1    3    3  502    0  0.14672407896E+03 -0.34834439820E+03  0.16228354924E+04  0.16662733300E+04  0.50400001928E-02 0. -1.
       -1    1    3    3    0  502 -0.14672407896E+03  0.34834439820E+03 -0.71454080512E+03  0.80835656570E+03  0.50400001928E-02 0.  1.
</event>
<event>
 5   0  0.3006265E-05  0.2335697E+04  0.7818609E-02  0.8463978E-01
        1   -1    0    0  501    0  0.00000000000E+00  0.00000000000E+00  0.14008519501E+04  0.14008519501E+04  0.50400001928E-02 0. -1.
       -1   -1    0    0    0  501  0.00000000000E+00  0.00000000000E+00 -0.97360055998E+03  0.97360055999E+03  0.50400001928E-02 0.  1.
    10030    2    1    2    0    0  0.00000000000E+00  0.00000000000E+00  0.42725139011E+03  0.23744525101E+04  0.23356971063E+04 0.  0.
        2    1    3    3  502    0 -0.87942852667E+03  0.29607156660E+03 -0.50723622966E+03  0.10575166660E+04  0.25500000920E-02 0.  1.
       -2    1    3    3    0  502  0.87942852667E+03 -0.29607156660E+03  0.93448761977E+03  0.13169358441E+04  0.25500000920E-02 0. -1.
</event>
<event>
 5   0  0.6468758E-05  0.2293390E+04  0.7818609E-02  0.8480532E-01
        2   -1    0    0  501    0  0.00000000000E+00  0.00000000000E+00  0.15372880429E+04  0.15372880429E+04  0.25500000920E-02 0.  1.
       -2   -1    0    0    0  501  0.00000000000E+00  0.00000000000E+00 -0.85534333514E+03  0.85534333514E+03  0.25500000920E-02 0. -1.
    10030    2    1    2    0    0  0.00000000000E+00  0.00000000000E+00  0.68194470774E+03  0.23926313780E+04  0.22933897023E+04 0.  0.
        3    1    3    3  502    0 -0.11461294915E+04 -0.29815377269E+02  0.31991726806E+03  0.11903145956E+04  0.10100000352E+00 0.  1.
       -3    1    3    3    0  502  0.11461294915E+04  0.29815377269E+02  0.36202743968E+03  0.12023167824E+04  0.10100000352E+00 0. -1.
</event>
<event>
 5   0  0.6468758E-05  0.2257548E+04  0.7818609E-02  0.8494850E-01
       -2   -1    0    0    0  501  0.00000000000E+00  0.00000000000E+00  0.66884603427E+03  0.66884603428E+03  0.25500000920E-02 0. -1.
        2   -1    0    0  501    0  0.00000000000E+00  0.00000000000E+00 -0.19049687027E+04  0.19049687027E+04  0.25500000920E-02 0.  1.
    10030    2    1    2    0    0  0.00000000000E+00  0.00000000000E+00 -0.12361226685E+04  0.25738147370E+04  0.22575480170E+04 0.  0.
        3    1    3    3  502    0 -0.12272399746E+03 -0.79711656483E+03 -0.15184279202E+04  0.17193252620E+04  0.10100000352E+00 0.  1.
       -3    1    3    3    0  502  0.12272399746E+03  0.79711656483E+03  0.28230525178E+03  0.85448947498E+03  0.10100000352E+00 0. -1.
</event>
<event>
 5   0  0.3118614E-05  0.1819146E+04  0.7818609E-02  0.8696184E-01
        1   -1    0    0  501    0  0.00000000000E+00  0.00000000000E+00  0.72084933616E+03  0.72084933617E+03  0.50400001928E-02 0.  1.
       -1   -1    0    0    0  501  0.00000000000E+00  0.00000000000E+00 -0.11477058560E+04  0.11477058560E+04  0.50400001928E-02 0. -1.
    10030    2    1    2    0    0  0.00000000000E+00  0.00000000000E+00 -0.42685651983E+03  0.18685551922E+04  0.18191459583E+04 0.  0.
        3    1    3    3  502    0 -0.30073954147E+03 -0.52669644538E+03  0.48282423535E+03  0.77522427066E+03  0.10100000352E+00 0.  1.
       -3    1    3    3    0  502  0.30073954147E+03  0.52669644538E+03 -0.90968075519E+03  0.10933309215E+04  0.10100000352E+00 0. -1.
</event>
<event>
 5   0  0.6676612E-05  0.2213948E+04  0.7818609E-02  0.8512645E-01
        2   -1    0    0  501    0  0.00000000000E+00  0.00000000000E+00  0.30031076267E+04  0.30031076267E+04  0.25500000920E-02 0. -1.
       -2   -1    0    0    0  501  0.00000000000E+00  0.00000000000E+00 -0.40804105890E+03  0.40804105891E+03  0.25500000920E-02 0.  1.
    10030    2    1    2    0    0  0.00000000000E+00  0.00000000000E+00  0.25950665678E+04  0.34111486856E+04  0.22139478007E+04 0.  0.
        2    1    3    3  502    0 -0.80863780862E+03  0.29342820881E+03  0.22408440210E+03  0.88893702731E+03  0.25500000920E-02 0.  1.
       -2    1    3    3    0  502  0.80863780862E+03 -0.29342820881E+03  0.23709821657E+04  0.25222116583E+04  0.25500000920E-02 0. -1.
</event>
<event>
 5   0  0.6814789E-05  0.2319662E+04  0.7818609E-02  0.8470209E-01
       -2   -1    0    0    0  501  0.00000000000E+00  0.00000000000E+00  0.62536707840E+03  0.62536707840E+03  0.25500000920E-02 0.  1.
        2   -1    0    0  501    0  0.00000000000E+00  0.00000000000E+00 -0.21510700313E+04  0.21510700313E+04  0.25500000920E-02 0. -1.
    10030    2    1    2    0    0  0.00000000000E+00  0.00000000000E+00 -0.15257029529E+04  0.27764371097E+04  0.23196623728E+04 0.  0.
        1    1    3    3  502    0 -0.87849036536E+03  0.69850076471E+03 -0.41274689649E+03  0.11958296873E+04  0.50400001928E-02 0.  1.
       -1    1    3    3    0  502  0.87849036536E+03 -0.69850076471E+03 -0.11129560564E+04  0.15806074224E+04  0.50400001928E-02 0. -1.
</event>
<event>
 5   0  0.6702421E-05  0.2293541E+04  0.7818609E-02  0.8480472E-01
       -2   -1    0    0    0  501  0.00000000000E+00  0.00000000000E+00  0.44096807909E+03  0.44096807910E+03  0.25500000920E-02 0.  1.
        2   -1    0    0  501    0  0.00000000000E+00  0.00000000000E+00 -0.29822634144E+04  0.29822634144E+04  0.25500000920E-02 0. -1.
    10030    2    1    2    0    0  0.00000000000E+00  0.00000000000E+00 -0.25412953353E+04  0.34232314935E+04  0.22935413397E+04 0.  0.
        4    1    3    3  502    0 -0.90847312126E+03  0.63288929917E+03 -0.82485366145E+03  0.13806728261E+04  0.12699999809E+01 0. -1.
       -4    1    3    3    0  502  0.90847312126E+03 -0.63288929917E+03 -0.17164416738E+04  0.20425586674E+04  0.12699999809E+01 0.  1.
</event>
<event>
 5   0  0.2944089E-05  0.2310576E+04  0.7818609E-02  0.8473763E-01
        1   -1    0    0  501    0  0.00000000000E+00  0.00000000000E+00  0.23722638028E+04  0.23722638028E+04  0.50400001928E-02 0.  1.
       -1   -1    0    0    0  501  0.00000000000E+00  0.00000000000E+00 -0.56262306376E+03  0.56262306379E+03  0.50400001928E-02 0. -1.
    10030    2    1    2    0    0  0.00000000000E+00  0.00000000000E+00  0.18096407390E+04  0.29348868666E+04  0.23105759705E+04 0.  0.
        5    1    3    3  502    0 -0.82097314113E+03 -0.10804735500E+03 -0.11845493623E+03  0.83649554171E+03  0.46999998093E+01 0. -1.
       -5    1    3    3    0  502  0.82097314113E+03  0.10804735500E+03  0.19280956753E+04  0.20983913249E+04  0.46999998093E+01 0.  1.
</event>
<event>
 5   0  0.6814789E-05  0.2277114E+04  0.7818609E-02  0.8487000E-01
       -2   -1    0    0    0  501  0.00000000000E+00  0.00000000000E+00  0.17685112744E+04  0.17685112744E+04  0.25500000920E-02 0.  1.
        2   -1    0    0  501    0  0.00000000000E+00  0.00000000000E+00 -0.73299590603E+03  0.73299590603E+03  0.25500000920E-02 0. -1.
    10030    2    1    2    0    0  0.00000000000E+00  0.00000000000E+00  0.10355153684E+04  0.25015071805E+04  0.22771135448E+04 0.  0.
        1    1    3    3  502    0 -0.80042510513E+03  0.49381596881E+03 -0.18717572031E+03  0.95894176584E+03  0.50400001928E-02 0. -1.
       -1    1    3    3    0  502  0.80042510513E+03 -0.49381596881E+03  0.12226910887E+04  0.15425654146E+04  0.50400001928E-02 0.  1.
</event>
<event>
 5   0  0.6468758E-05  0.2339567E+04  0.7818609E-02  0.8462482E-01
       -2   -1    0    0    0  501  0.00000000000E+00  0.00000000000E+00  0.78232772605E+03  0.78232772605E+03  0.25500000920E-02 0.  1.
        2   -1    0    0  501    0  0.00000000000E+00  0.00000000000E+00 -0.17491299503E+04  0.17491299503E+04  0.25500000920E-02 0. -1.
    10030    2    1    2    0    0  0.00000000000E+00  0.00000000000E+00 -0.96680222422E+03  0.25314576763E+04  0.23395665039E+04 0.  0.
        3    1    3    3  502    0  0.10767209299E+04 -0.33054934652E+03 -0.14157523964E+03  0.11351803337E+04  0.10100000352E+00 0.  1.
       -3    1    3    3    0  502 -0.10767209299E+04  0.33054934652E+03 -0.82522698458E+03  0.13962773426E+04  0.10100000352E+00 0. -1.
</event>
<event>
 5   0  0.2982385E-05  0.2303082E+04  0.7818609E-02  0.8476707E-01
       -1   -1    0    0    0  501  0.00000000000E+00  0.00000000000E+00  0.74119848951E+03  0.74119848953E+03  0.50400001928E-02 0.  1.
        1   -1    0    0  501    0  0.00000000000E+00  0.00000000000E+00 -0.17890578457E+04  0.17890578457E+04  0.50400001928E-02 0. -1.
    10030    2    1    2    0    0  0.00000000000E+00  0.00000000000E+00 -0.10478593562E+04  0.25302563352E+04  0.23030822590E+04 0.  0.
        4    1    3    3  502    0  0.98591696780E+03  0.44209063846E+03 -0.96141567828E+03  0.14463049884E+04  0.12699999809E+01 0.  1.
       -4    1    3    3    0  502 -0.98591696780E+03 -0.44209063846E+03 -0.86443677889E+02  0.10839513469E+04  0.12699999809E+01 0. -1.
</event>
<event>
 5   0  0.6495405E-05  0.2273374E+04  0.7818609E-02  0.8488494E-01
       -2   -1    0    0    0  501  0.00000000000E+00  0.00000000000E+00  0.74117854499E+03  0.74117854499E+03  0.25500000920E-02 0.  1.
        2   -1    0    0  501    0  0.00000000000E+00  0.00000000000E+00 -0.17432478172E+04  0.17432478172E+04  0.25500000920E-02 0. -1.
    10030    2    1    2    0    0  0.00000000000E+00  0.00000000000E+00 -0.10020692722E+04  0.24844263622E+04  0.22733744792E+04 0.  0.
        5    1    3    3  502    0 -0.22942244832E+03  0.84634585729E+03  0.28936627860E+03  0.92341263969E+03  0.46999998093E+01 0.  1.
       -5    1    3    3    0  502  0.22942244832E+03 -0.84634585729E+03 -0.12914355508E+04  0.15610137225E+04  0.46999998093E+01 0. -1.
</event>
<event>
 5   0  0.6676612E-05  0.1875055E+04  0.7818609E-02  0.8667374E-01
       -2   -1    0    0    0  501  0.00000000000E+00  0.00000000000E+00  0.16506672160E+04  0.16506672160E+04  0.25500000920E-02 0. -1.
        2   -1    0    0  501    0  0.00000000000E+00  0.00000000000E+00 -0.53248618323E+03  0.53248618323E+03  0.25500000920E-02 0.  1.
    10030    2    1    2    0    0  0.00000000000E+00  0.00000000000E+00  0.11181810328E+04  0.21831533992E+04  0.18750546506E+04 0.  0.
        2    1    3    3  502    0 -0.25308509319E+03  0.45703704680E+03 -0.34729867453E+03  0.62733666868E+03  0.25500000920E-02 0.  1.
       -2    1    3    3    0  502  0.25308509319E+03 -0.45703704680E+03  0.14654797073E+04  0.15558167306E+04  0.25500000920E-02 0. -1.
</event>
<event>
 5   0  0.6676612E-05  0.2326860E+04  0.7818609E-02  0.8467405E-01
        2   -1    0    0  501    0  0.00000000000E+00  0.00000000000E+00  0.10045427737E+04  0.10045427737E+04  0.25500000920E-02 0. -1.
       -2   -1    0    0    0  501  0.00000000000E+00  0.00000000000E+00 -0.13474486082E+04  0.13474486082E+04  0.25500000920E-02 0.  1.
    10030    2    1    2    0    0  0.00000000000E+00  0.00000000000E+00 -0.34290583449E+03  0.23519913819E+04  0.23268603416E+04 0.  0.
        2    1    3    3  502    0  0.22207260150E+03  0.11325880773E+04 -0.23248173571E+02  0.11543883536E+04  0.25500000920E-02 0.  1.
       -2    1    3    3    0  502 -0.22207260150E+03 -0.11325880773E+04 -0.31965766092E+03  0.11976030283E+04  0.25500000920E-02 0. -1.
</event>
<event>
 5   0  0.3118614E-05  0.2290425E+04  0.7818609E-02  0.8481706E-01
        1   -1    0    0  501    0  0.00000000000E+00  0.00000000000E+00  0.17607845733E+04  0.17607845733E+04  0.50400001928E-02 0.  1.
       -1   -1    0    0    0  501  0.00000000000E+00  0.00000000000E+00 -0.74484489897E+03  0.74484489899E+03  0.50400001928E-02 0. -1.
    10030    2    1    2    0    0  0.00000000000E+00  0.00000000000E+00  0.10159396743E+04  0.25056294723E+04  0.22904247708E+04 0.  0.
        3    1    3    3  502    0  0.84307072599E+03 -0.71143837959E+03  0.84443734124E+03  0.13892398103E+04  0.10100000352E+00 0.  1.
       -3    1    3    3    0  502 -0.84307072599E+03  0.71143837959E+03  0.17150233307E+03  0.11163896620E+04  0.10100000352E+00 0. -1.
</event>
<event>
 5   0  0.3006265E-05  0.2312494E+04  0.7818609E-02  0.8473011E-01
       -1   -1    0    0    0  501  0.00000000000E+00  0.00000000000E+00  0.13623299362E+04  0.13623299362E+04  0.50400001928E-02 0. -1.
        1   -1    0    0  501    0  0.00000000000E+00  0.00000000000E+00 -0.98133858204E+03  0.98133858206E+03  0.50400001928E-02 0.  1.
    10030    2    1    2    0    0  0.00000000000E+00  0.00000000000E+00  0.38099135419E+03  0.23436685183E+04  0.23124938296E+04 0.  0.
        2    1    3    3  502    0 -0.53361499462E+02 -0.80572136815E+03  0.10292224095E+04  0.13081793229E+04  0.25500000920E-02 0. -1.
       -2    1    3    3    0  502  0.53361499462E+02  0.80572136815E+03 -0.64823105528E+03  0.10354891954E+04  0.25500000920E-02 0.  1.
</event>
<event>
 5   0  0.6814789E-05  0.2317110E+04  0.7818609E-02  0.8471205E-01
        2   -1    0    0  501    0  0.00000000000E+00  0.00000000000E+00  0.16294919465E+04  0.16294919465E+04  0.25500000920E-02 0. -1.
       -2   -1    0    0    0  501  0.00000000000E+00  0.00000000000E+00 -0.82372279151E+03  0.82372279151E+03  0.25500000920E-02 0.  1.
    10030    2    1    2    0    0  0.00000000000E+00  0.00000000000E+00  0.80576915501E+03  0.24532147380E+04  0.23171099714E+04 0.  0.
        1    1    3    3  502    0  0.54227636606E+03 -0.99458936054E+03  0.14576571062E+03  0.11421555479E+04  0.50400001928E-02 0. -1.
       -1    1    3    3    0  502 -0.54227636606E+03  0.99458936054E+03  0.66000344438E+03  0.13110591901E+04  0.50400001928E-02 0.  1.
</event>
<event>
 5   0  0.2342500E-05  0.2309564E+04  0.7818609E-02  0.8474160E-01
        4   -1    0    0  501    0  0.00000000000E+00  0.00000000000E+00  0.11229527176E+04  0.11229534358E+04  0.12699999809E+01 0. -1.
       -4   -1    0    0    0  501  0.00000000000E+00  0.00000000000E+00 -0.11875115628E+04  0.11875122419E+04  0.12699999809E+01 0.  1.
    10030    2    1    2    0    0  0.00000000000E+00  0.00000000000E+00 -0.64558845139E+02  0.23104656776E+04  0.23095635525E+04 0.  0.
        5    1    3    3  502    0 -0.77322473876E+03 -0.58837545756E+02 -0.88827743013E+03  0.11791510659E+04  0.46999998093E+01 0.  1.
       -5    1    3    3    0  502  0.77322473876E+03  0.58837545756E+02  0.82371858499E+03  0.11313146117E+04  0.46999998093E+01 0. -1.
</event>
<event>
 5   0  0.2944089E-05  0.2251415E+04  0.7818609E-02  0.8497328E-01
        1   -1    0    0  501    0  0.00000000000E+00  0.00000000000E+00  0.20385297464E+04  0.20385297464E+04  0.50400001928E-02 0.  1.
       -1   -1    0    0    0  501  0.00000000000E+00  0.00000000000E+00 -0.62163301738E+03  0.62163301740E+03  0.50400001928E-02 0. -1.
    10030    2    1    2    0    0  0.00000000000E+00  0.00000000000E+00  0.14168967291E+04  0.26601627638E+04  0.22514150193E+04 0.  0.
        5    1    3    3  502    0 -0.69044853970E+03  0.47077158776E+03  0.15996000266E+04  0.18047402608E+04  0.46999998093E+01 0.  1.
       -5    1    3    3    0  502  0.69044853970E+03 -0.47077158776E+03 -0.18270329753E+03  0.85542250306E+03  0.46999998093E+01 0. -1.
</event>
<event>
 5   0  0.6495405E-05  0.2285069E+04  0.7818609E-02  0.8483832E-01
       -2   -1    0    0    0  501  0.00000000000E+00  0.00000000000E+00  0.79461783027E+03  0.79461783028E+03  0.25500000920E-02 0.  1.
        2   -1    0    0  501    0  0.00000000000E+00  0.00000000000E+00 -0.16427832853E+04  0.16427832853E+04  0.25500000920E-02 0. -1.
    10030    2    1    2    0    0  0.00000000000E+00  0.00000000000E+00 -0.84816545500E+03  0.24374011155E+04  0.22850688303E+04 0.  0.
        5    1    3    3  502    0  0.47021781894E+03 -0.45608282213E+02  0.68554435250E+03  0.83257315708E+03  0.46999998093E+01 0.  1.
       -5    1    3    3    0  502 -0.47021781894E+03  0.45608282213E+02 -0.15337098075E+04  0.16048279585E+04  0.46999998093E+01 0. -1.
</event>
<event>
 5   0  0.3006265E-05  0.2266690E+04  0.7818609E-02  0.8491172E-01
        1   -1    0    0  501    0  0.00000000000E+00  0.00000000000E+00  0.15215835167E+04  0.15215835167E+04  0.50400001928E-02 0. -1.
       -1   -1    0    0    0  501  0.00000000000E+00  0.00000000000E+00 -0.84416684554E+03  0.84416684556E+03  0.50400001928E-02 0.  1.
    10030    2    1    2    0    0  0.00000000000E+00  0.00000000000E+00  0.67741667114E+03  0.23657503623E+04  0.22666895310E+04 0.  0.
        2    1    3    3  502    0  0.10187589351E+04  0.25868375022E+03  0.78112425183E+03  0.13095579969E+04  0.25500000920E-02 0.  1.
       -2    1    3    3    0  502 -0.10187589351E+04 -0.25868375022E+03 -0.10370758068E+03  0.10561923654E+04  0.25500000920E-02 0. -1.
</event>
<event>
 5   0  0.3118614E-05  0.2218043E+04  0.7818609E-02  0.8510956E-01
       -1   -1    0    0    0  501  0.00000000000E+00  0.00000000000E+00  0.14149016054E+04  0.14149016054E+04  0.50400001928E-02 0. -1.
        1   -1    0    0  501    0  0.00000000000E+00  0.00000000000E+00 -0.86926776923E+03  0.86926776925E+03  0.50400001928E-02 0.  1.
    10030    2    1    2    0    0  0.00000000000E+00  0.00000000000E+00  0.54563383613E+03  0.22841693746E+04  0.22180427067E+04 0.  0.
        3    1    3    3  502    0  0.25665394399E+03 -0.16565126185E+03 -0.82508976616E+03  0.87982084537E+03  0.10100000352E+00 0.  1.
       -3    1    3    3    0  502 -0.25665394399E+03  0.16565126185E+03  0.13707236023E+04  0.14043485293E+04  0.10100000352E+00 0. -1.
</event>
<event>
 5   0  0.2944089E-05  0.2243367E+04  0.7818609E-02  0.8500592E-01
       -1   -1    0    0    0  501  0.00000000000E+00  0.00000000000E+00  0.91431330026E+03  0.91431330028E+03  0.50400001928E-02 0.  1.
        1   -1    0    0  501    0  0.00000000000E+00  0.00000000000E+00 -0.13760859186E+04  0.13760859187E+04  0.50400001928E-02 0. -1.
    10030    2    1    2    0    0  0.00000000000E+00  0.00000000000E+00 -0.46177261838E+03  0.22903992189E+04  0.22433668071E+04 0.  0.
        5    1    3    3  502    0 -0.11061125676E+04 -0.64192552903E+02 -0.52448386264E+02  0.11092243322E+04  0.46999998093E+01 0.  1.
       -5    1    3    3    0  502  0.11061125676E+04  0.64192552903E+02 -0.40932423212E+03  0.11811748867E+04  0.46999998093E+01 0. -1.
</event>
<event>
 5   0  0.6676612E-05  0.2298206E+04  0.7818609E-02  0.8478629E-01
        2   -1    0    0  501    0  0.00000000000E+00  0.00000000000E+00  0.23473463580E+04  0.23473463580E+04  0.25500000920E-02 0.  1.
       -2   -1    0    0    0  501  0.00000000000E+00  0.00000000000E+00 -0.56252355156E+03  0.56252355157E+03  0.25500000920E-02 0. -1.
    10030    2    1    2    0    0  0.00000000000E+00  0.00000000000E+00  0.17848228064E+04  0.29098699095E+04  0.22982059177E+04 0.  0.
        2    1    3    3  502    0  0.10070514210E+04 -0.23334486284E+03  0.15278050516E+04  0.18446654616E+04  0.25500000920E-02 0.  1.
       -2    1    3    3    0  502 -0.10070514210E+04  0.23334486284E+03  0.25701775484E+03  0.10652044479E+04  0.25500000920E-02 0. -1.
</event>
<event>
 5   0  0.6814789E-05  0.2028009E+04  0.7818609E-02  0.8593636E-01
        2   -1    0    0  501    0  0.00000000000E+00  0.00000000000E+00  0.70197977916E+03  0.70197977916E+03  0.25500000920E-02 0. -1.
       -2   -1    0    0    0  501  0.00000000000E+00  0.00000000000E+00 -0.14647217494E+04  0.14647217494E+04  0.25500000920E-02 0.  1.
    10030    2    1    2    0    0  0.00000000000E+00  0.00000000000E+00 -0.76274197022E+03  0.21667015285E+04  0.20280089252E+04 0.  0.
        1    1    3    3  502    0  0.82995990398E+03  0.54881262520E+03 -0.17262111979E+03  0.10098647389E+04  0.50400001928E-02 0. -1.
       -1    1    3    3    0  502 -0.82995990398E+03 -0.54881262520E+03 -0.59012085043E+03  0.11568367897E+04  0.50400001928E-02 0.  1.
</event>
<event>
 5   0  0.3118614E-05  0.2315039E+04  0.7818609E-02  0.8472015E-01
        1   -1    0    0  501    0  0.00000000000E+00  0.00000000000E+00  0.10866494390E+04  0.10866494390E+04  0.50400001928E-02 0.  1.
       -1   -1    0    0    0  501  0.00000000000E+00  0.00000000000E+00 -0.12330120564E+04  0.12330120564E+04  0.50400001928E-02 0. -1.
    10030    2    1    2    0    0  0.00000000000E+00  0.00000000000E+00 -0.14636261748E+03  0.23196614954E+04  0.23150394030E+04 0.  0.
        3    1    3    3  502    0  0.12123528000E+03 -0.45840493266E+02  0.10793553981E+04  0.10871096677E+04  0.10100000352E+00 0.  1.
       -3    1    3    3    0  502 -0.12123528000E+03  0.45840493266E+02 -0.12257180156E+04  0.12325518277E+04  0.10100000352E+00 0. -1.
</event>
<event>
 5   0  0.6814789E-05  0.2311142E+04  0.7818609E-02  0.8473541E-01
       -2   -1    0    0    0  501  0.00000000000E+00  0.00000000000E+00  0.70904423230E+03  0.70904423231E+03  0.25500000920E-02 0.  1.
        2   -1    0    0  501    0  0.00000000000E+00  0.00000000000E+00 -0.18833015732E+04  0.18833015732E+04  0.25500000920E-02 0. -1.
    10030    2    1    2    0    0  0.00000000000E+00  0.00000000000E+00 -0.11742573409E+04  0.25923458056E+04  0.23111418115E+04 0.  0.
        1    1    3    3  502    0  0.71187987133E+03  0.27303725607E+03 -0.15611271907E+04  0.17373659373E+04  0.50400001928E-02 0. -1.
       -1    1    3    3    0  502 -0.71187987133E+03 -0.27303725607E+03  0.38686984980E+03  0.85497986825E+03  0.50400001928E-02 0.  1.
</event>
<event>
 5   0  0.6814789E-05  0.2320375E+04  0.7818609E-02  0.8469931E-01
       -2   -1    0    0    0  501  0.00000000000E+00  0.00000000000E+00  0.10901733075E+04  0.10901733075E+04  0.25500000920E-02 0.  1.
        2   -1    0    0  501    0  0.00000000000E+00  0.00000000000E+00 -0.12346979677E+04  0.12346979677E+04  0.25500000920E-02 0. -1.
    10030    2    1    2    0    0  0.00000000000E+00  0.00000000000E+00 -0.14452466019E+03  0.23248712752E+04  0.23203747691E+04 0.  0.
        1    1    3    3  502    0 -0.70139701243E+03 -0.59561689271E+03  0.63573101834E+03  0.11184235243E+04  0.50400001928E-02 0.  1.
       -1    1    3    3    0  502  0.70139701243E+03  0.59561689271E+03 -0.78025567853E+03  0.12064477510E+04  0.50400001928E-02 0. -1.
</event>
<event>
 5   0  0.6495405E-05  0.2296577E+04  0.7818609E-02  0.8479272E-01
       -2   -1    0    0    0  501  0.00000000000E+00  0.00000000000E+00  0.12370718183E+04  0.12370718183E+04  0.25500000920E-02 0. -1.
        2   -1    0    0  501    0  0.00000000000E+00  0.00000000000E+00 -0.10658774275E+04  0.10658774276E+04  0.25500000920E-02 0.  1.
    10030    2    1    2    0    0  0.00000000000E+00  0.00000000000E+00  0.17119439077E+03  0.23029492459E+04  0.22965773903E+04 0.  0.
        5    1    3    3  502    0  0.53107713452E+03 -0.12290931475E+03 -0.92784782087E+03  0.10761381376E+04  0.46999998093E+01 0.  1.
       -5    1    3    3    0  502 -0.53107713452E+03  0.12290931475E+03  0.10990422116E+04  0.12268111083E+04  0.46999998093E+01 0. -1.
</event>
<event>
 5   0  0.6468758E-05  0.2375452E+04  0.7818609E-02  0.8448752E-01
        2   -1    0    0  501    0  0.00000000000E+00  0.00000000000E+00  0.19991464650E+04  0.19991464650E+04  0.25500000920E-02 0. -1.
       -2   -1    0    0    0  501  0.00000000000E+00  0.00000000000E+00 -0.70564746366E+03  0.70564746366E+03  0.25500000920E-02 0.  1.
    10030    2    1    2    0    0  0.00000000000E+00  0.00000000000E+00  0.12934990014E+04  0.27047939287E+04  0.23754516476E+04 0.  0.
        3    1    3    3  502    0 -0.11350765454E+04  0.34047628006E+03  0.73762557637E+03  0.13958561395E+04  0.10100000352E+00 0.  1.
       -3    1    3    3    0  502  0.11350765454E+04 -0.34047628006E+03  0.55587342498E+03  0.13089377892E+04  0.10100000352E+00 0. -1.
</event>
<event>
 5   0  0.2962279E-05  0.2387075E+04  0.7818609E-02  0.8444359E-01
        1   -1    0    0  501    0  0.00000000000E+00  0.00000000000E+00  0.12977331730E+04  0.12977331731E+04  0.50400001928E-02 0.  1.
       -1   -1    0    0    0  501  0.00000000000E+00  0.00000000000E+00 -0.10977073282E+04  0.10977073282E+04  0.50400001928E-02 0. -1.
    10030    2    1    2    0    0  0.00000000000E+00  0.00000000000E+00  0.20002584482E+03  0.23954405013E+04  0.23870745394E+04 0.  0.
        1    1    3    3  502    0 -0.11759709001E+04 -0.17109228864E+03  0.21153785321E+03  0.12070328879E+04  0.50400001928E-02 0. -1.
       -1    1    3    3    0  502  0.11759709001E+04  0.17109228864E+03 -0.11512008388E+02  0.11884076134E+04  0.50400001928E-02 0.  1.
</event>
<event>
 5   0  0.2962279E-05  0.2286570E+04  0.7818609E-02  0.8483235E-01
       -1   -1    0    0    0  501  0.00000000000E+00  0.00000000000E+00  0.94006064448E+03  0.94006064449E+03  0.50400001928E-02 0. -1.
        1   -1    0    0  501    0  0.00000000000E+00  0.00000000000E+00 -0.13904426367E+04  0.13904426367E+04  0.50400001928E-02 0.  1.
    10030    2    1    2    0    0  0.00000000000E+00  0.00000000000E+00 -0.45038199222E+03  0.23305032812E+04  0.22865698338E+04 0.  0.
        1    1    3    3  502    0  0.19537820271E+03 -0.10692325105E+04  0.13611931955E+03  0.10954265255E+04  0.50400001928E-02 0. -1.
       -1    1    3    3    0  502 -0.19537820271E+03  0.10692325105E+04 -0.58650131177E+03  0.12350767557E+04  0.50400001928E-02 0.  1.
</event>
<event>
 5   0  0.2962279E-05  0.2242995E+04  0.7818609E-02  0.8500743E-01
       -1   -1    0    0    0  501  0.00000000000E+00  0.00000000000E+00  0.95366114615E+03  0.95366114617E+03  0.50400001928E-02 0.  1.
        1   -1    0    0  501    0  0.00000000000E+00  0.00000000000E+00 -0.13188721081E+04  0.13188721081E+04  0.50400001928E-02 0. -1.
    10030    2    1    2    0    0  0.00000000000E+00  0.00000000000E+00 -0.36521096191E+03  0.22725332542E+04  0.22429953957E+04 0.  0.
        1    1    3    3  502    0  0.31182179858E+03  0.28302147060E+03  0.87051678564E+03  0.96702298887E+03  0.50400001928E-02 0.  1.
       -1    1    3    3    0  502 -0.31182179858E+03 -0.28302147060E+03 -0.12357277476E+04  0.13055102654E+04  0.50400001928E-02 0. -1.
</event>
<event>
 5   0  0.6495405E-05  0.2488128E+04  0.7818609E-02  0.8407227E-01
        2   -1    0    0  501    0  0.00000000000E+00  0.00000000000E+00  0.28937459037E+04  0.28937459037E+04  0.25500000920E-02 0. -1.
       -2   -1    0    0    0  501  0.00000000000E+00  0.00000000000E+00 -0.53484147179E+03  0.53484147180E+03  0.25500000920E-02 0.  1.
    10030    2    1    2    0    0  0.00000000000E+00  0.00000000000E+00  0.23589044319E+04  0.34285873755E+04  0.24881280659E+04 0.  0.
        5    1    3    3  502    0 -0.60892658413E+03 -0.45233024507E+03 -0.17929273345E+03  0.77946276995E+03  0.46999998093E+01 0.  1.
       -5    1    3    3    0  502  0.60892658413E+03  0.45233024507E+03  0.25381971653E+04  0.26491246055E+04  0.46999998093E+01 0. -1.
</event>
<event>
 5   0  0.6814789E-05  0.2404873E+04  0.7818609E-02  0.8437681E-01
        2   -1    0    0  501    0  0.00000000000E+00  0.00000000000E+00  0.15280149196E+04  0.15280149196E+04  0.25500000920E-02 0. -1.
       -2   -1    0    0    0  501  0.00000000000E+00  0.00000000000E+00 -0.94623014257E+03  0.94623014257E+03  0.25500000920E-02 0.  1.
    10030    2    1    2    0    0  0.00000000000E+00  0.00000000000E+00  0.58178477703E+03  0.24742450622E+04  0.24048731985E+04 0.  0.
        1    1    3    3  502    0 -0.40264928978E+03  0.60509145794E+03  0.12764346606E+04  0.14688592736E+04  0.50400001928E-02 0. -1.
       -1    1    3    3    0  502  0.40264928978E+03 -0.60509145794E+03 -0.69464988354E+03  0.10053857885E+04  0.50400001928E-02 0.  1.
</event>
<event>
 5   0  0.2944089E-05  0.2283128E+04  0.7818609E-02  0.8484603E-01
        1   -1    0    0  501    0  0.00000000000E+00  0.00000000000E+00  0.10522558568E+04  0.10522558569E+04  0.50400001928E-02 0. -1.
       -1   -1    0    0    0  501  0.00000000000E+00  0.00000000000E+00 -0.12384516001E+04  0.12384516001E+04  0.50400001928E-02 0.  1.
    10030    2    1    2    0    0  0.00000000000E+00  0.00000000000E+00 -0.18619574322E+03  0.22907074569E+04  0.22831276352E+04 0.  0.
        5    1    3    3  502    0 -0.99162531902E+03 -0.22583800365E+03  0.42710419214E+03  0.11030701057E+04  0.46999998093E+01 0. -1.
       -5    1    3    3    0  502  0.99162531902E+03  0.22583800365E+03 -0.61329993536E+03  0.11876373512E+04  0.46999998093E+01 0.  1.
</event>
<event>
 5   0  0.3118614E-05  0.2321032E+04  0.7818609E-02  0.8469674E-01
        1   -1    0    0  501    0  0.00000000000E+00  0.00000000000E+00  0.12205604406E+04  0.12205604406E+04  0.50400001928E-02 0.  1.
       -1   -1    0    0    0  501  0.00000000000E+00  0.00000000000E+00 -0.11034252912E+04  0.11034252912E+04  0.50400001928E-02 0. -1.
    10030    2    1    2    0    0  0.00000000000E+00  0.00000000000E+00  0.11713514936E+03  0.23239857318E+04  0.23210318909E+04 0.  0.
        3    1    3    3  502    0 -0.64447192265E+03  0.50540650263E+03 -0.76468160251E+03  0.11204988868E+04  0.10100000352E+00 0. -1.
       -3    1    3    3    0  502  0.64447192265E+03 -0.50540650263E+03  0.88181675187E+03  0.12034868450E+04  0.10100000352E+00 0.  1.
</event>
<event>
 5   0  0.6814789E-05  0.2094546E+04  0.7818609E-02  0.8563650E-01
        2   -1    0    0  501    0  0.00000000000E+00  0.00000000000E+00  0.85543225505E+03  0.85543225505E+03  0.25500000920E-02 0.  1.
       -2   -1    0    0    0  501  0.00000000000E+00  0.00000000000E+00 -0.12821356940E+04  0.12821356940E+04  0.25500000920E-02 0. -1.
    10030    2    1    2    0    0  0.00000000000E+00  0.00000000000E+00 -0.42670343898E+03  0.21375679491E+04  0.20945455145E+04 0.  0.
        1    1    3    3  502    0 -0.65585865993E+03 -0.62448804040E+03  0.32342171818E+03  0.96163272730E+03  0.50400001928E-02 0. -1.
       -1    1    3    3    0  502  0.65585865993E+03  0.62448804040E+03 -0.75012515716E+03  0.11759352218E+04  0.50400001928E-02 0.  1.
</event>
<event>
 5   0  0.2962279E-05  0.1818595E+04  0.7818609E-02  0.8696473E-01
       -1   -1    0    0    0  501  0.00000000000E+00  0.00000000000E+00  0.12067280553E+04  0.12067280553E+04  0.50400001928E-02 0. -1.
        1   -1    0    0  501    0  0.00000000000E+00  0.00000000000E+00 -0.68517656865E+03  0.68517656867E+03  0.50400001928E-02 0.  1.
    10030    2    1    2    0    0  0.00000000000E+00  0.00000000000E+00  0.52155148661E+03  0.18919046239E+04  0.18185948292E+04 0.  0.
        1    1    3    3  502    0  0.11250322903E+03  0.50494514572E+03  0.10387137837E+04  0.11604106606E+04  0.50400001928E-02 0. -1.
       -1    1    3    3    0  502 -0.11250322903E+03 -0.50494514572E+03 -0.51716229714E+03  0.73149396330E+03  0.50400001928E-02 0.  1.
</event>
<event>
 5   0  0.3006265E-05  0.1935926E+04  0.7818609E-02  0.8637178E-01
        1   -1    0    0  501    0  0.00000000000E+00  0.00000000000E+00  0.36428012712E+03  0.36428012716E+03  0.50400001928E-02 0.  1.
       -1   -1    0    0    0  501  0.00000000000E+00  0.00000000000E+00 -0.25720646424E+04  0.25720646424E+04  0.50400001928E-02 0. -1.
    10030    2    1    2    0    0  0.00000000000E+00  0.00000000000E+00 -0.22077845153E+04  0.29363447696E+04  0.19359256545E+04 0.  0.
        2    1    3    3  502    0  0.27311892477E+03  0.27269273247E+03 -0.24503123627E+04  0.24805213057E+04  0.25500000920E-02 0. -1.
       -2    1    3    3    0  502 -0.27311892477E+03 -0.27269273247E+03  0.24252784741E+03  0.45582346384E+03  0.25500000920E-02 0.  1.
</event>
<event>
 5   0  0.2982385E-05  0.2351526E+04  0.7818609E-02  0.8457878E-01
       -1   -1    0    0    0  501  0.00000000000E+00  0.00000000000E+00  0.82731780625E+03  0.82731780626E+03  0.50400001928E-02 0. -1.
        1   -1    0    0  501    0  0.00000000000E+00  0.00000000000E+00 -0.16709643059E+04  0.16709643059E+04  0.50400001928E-02 0.  1.
    10030    2    1    2    0    0  0.00000000000E+00  0.00000000000E+00 -0.84364649966E+03  0.24982821122E+04  0.23515259079E+04 0.  0.
        4    1    3    3  502    0 -0.10041169179E+01 -0.10398013955E+04 -0.10049192632E+04  0.14460471254E+04  0.12699999809E+01 0.  1.
       -4    1    3    3    0  502  0.10041169179E+01  0.10398013955E+04  0.16127276358E+03  0.10522349868E+04  0.12699999809E+01 0. -1.
</event>
<event>
 5   0  0.2982385E-05  0.2307917E+04  0.7818609E-02  0.8474806E-01
       -1   -1    0    0    0  501  0.00000000000E+00  0.00000000000E+00  0.79881123750E+03  0.79881123752E+03  0.50400001928E-02 0. -1.
        1   -1    0    0  501    0  0.00000000000E+00  0.00000000000E+00 -0.16670021430E+04  0.16670021430E+04  0.50400001928E-02 0.  1.
    10030    2    1    2    0    0  0.00000000000E+00  0.00000000000E+00 -0.86819090546E+03  0.24658133805E+04  0.23079168484E+04 0.  0.
        4    1    3    3  502    0 -0.70901045497E+03 -0.75830682361E+03  0.10425579698E+03  0.10433580153E+04  0.12699999809E+01 0. -1.
       -4    1    3    3    0  502  0.70901045497E+03  0.75830682361E+03 -0.97244670244E+03  0.14224553652E+04  0.12699999809E+01 0.  1.
</event>
<event>
 5   0  0.2962279E-05  0.2276696E+04  0.7818609E-02  0.8487167E-01
        1   -1    0    0  501    0  0.00000000000E+00  0.00000000000E+00  0.10530798617E+04  0.10530798617E+04  0.50400001928E-02 0.  1.
       -1   -1    0    0    0  501  0.00000000000E+00  0.00000000000E+00 -0.12305197899E+04  0.12305197899E+04  0.50400001928E-02 0. -1.
    10030    2    1    2    0    0  0.00000000000E+00  0.00000000000E+00 -0.17743992823E+03  0.22835996516E+04  0.22766955090E+04 0.  0.
        1    1    3    3  502    0 -0.73530230887E+03 -0.37981966169E+03 -0.87269313262E+03  0.12027159950E+04  0.50400001928E-02 0. -1.
       -1    1    3    3    0  502  0.73530230887E+03  0.37981966169E+03  0.69525320439E+03  0.10808836566E+04  0.50400001928E-02 0.  1.
</event>
<event>
 5   0  0.3118614E-05  0.2318176E+04  0.7818609E-02  0.8470789E-01
        1   -1    0    0  501    0  0.00000000000E+00  0.00000000000E+00  0.12138108559E+04  0.12138108559E+04  0.50400001928E-02 0.  1.
       -1   -1    0    0    0  501  0.00000000000E+00  0.00000000000E+00 -0.11068321867E+04  0.11068321867E+04  0.50400001928E-02 0. -1.
    10030    2    1    2    0    0  0.00000000000E+00  0.00000000000E+00  0.10697866921E+03  0.23206430426E+04  0.23181759414E+04 0.  0.
        3    1    3    3  502    0 -0.87852970247E+03 -0.48151828521E+02 -0.70186778531E+03  0.11255005264E+04  0.10100000352E+00 0. -1.
       -3    1    3    3    0  502  0.87852970247E+03  0.48151828521E+02  0.80884645453E+03  0.11951425162E+04  0.10100000352E+00 0.  1.
</event>
<event>
 5   0  0.2982385E-05  0.2297773E+04  0.7818609E-02  0.8478800E-01
        1   -1    0    0  501    0  0.00000000000E+00  0.00000000000E+00  0.13569641441E+04  0.13569641441E+04  0.50400001928E-02 0. -1.
       -1   -1    0    0    0  501  0.00000000000E+00  0.00000000000E+00 -0.97271561862E+03  0.97271561864E+03  0.50400001928E-02 0.  1.
    10030    2    1    2    0    0  0.00000000000E+00  0.00000000000E+00  0.38424852550E+03  0.23296797628E+04  0.22977730235E+04 0.  0.
        4    1    3    3  502    0 -0.47160306769E+03 -0.45784589253E+03 -0.76324808475E+03  0.10072643975E+04  0.12699999809E+01 0.  1.
       -4    1    3    3    0  502  0.47160306769E+03  0.45784589253E+03  0.11474966103E+04  0.13224153652E+04  0.12699999809E+01 0. -1.
</event>
<event>
 5   0  0.6468758E-05  0.2231484E+04  0.7818609E-02  0.8505437E-01
       -2   -1    0    0    0  501  0.00000000000E+00  0.00000000000E+00  0.13139130568E+04  0.13139130568E+04  0.25500000920E-02 0. -1.
        2   -1    0    0  501    0  0.00000000000E+00  0.00000000000E+00 -0.94745974407E+03  0.94745974407E+03  0.25500000920E-02 0.  1.
    10030    2    1    2    0    0  0.00000000000E+00  0.00000000000E+00  0.36645331271E+03  0.22613728009E+04  0.22314835680E+04 0.  0.
        3    1    3    3  502    0  0.44882360492E+03 -0.96607305208E+03 -0.15309195776E+03  0.10761862887E+04  0.10100000352E+00 0. -1.
       -3    1    3    3    0  502 -0.44882360492E+03  0.96607305208E+03  0.51954527048E+03  0.11851865121E+04  0.10100000352E+00 0.  1.
</event>
<event>
 5   0  0.3006265E-05  0.2335082E+04  0.7818609E-02  0.8464216E-01
        1   -1    0    0  501    0  0.00000000000E+00  0.00000000000E+00  0.11090836432E+04  0.11090836432E+04  0.50400001928E-02 0.  1.
       -1   -1    0    0    0  501  0.00000000000E+00  0.00000000000E+00 -0.12290793459E+04  0.12290793459E+04  0.50400001928E-02 0. -1.
    10030    2    1    2    0    0  0.00000000000E+00  0.00000000000E+00 -0.11999570266E+03  0.23381629891E+04  0.23350818391E+04 0.  0.
        2    1    3    3  502    0  0.32210067545E+03 -0.35600013921E+03  0.10056746799E+04  0.11143906433E+04  0.25500000920E-02 0.  1.
       -2    1    3    3    0  502 -0.32210067545E+03  0.35600013921E+03 -0.11256703825E+04  0.12237723458E+04  0.25500000920E-02 0. -1.
</event>
<event>
 5   0  0.3118614E-05  0.2374040E+04  0.7818609E-02  0.8449287E-01
        1   -1    0    0  501    0  0.00000000000E+00  0.00000000000E+00  0.11922757723E+04  0.11922757723E+04  0.50400001928E-02 0.  1.
       -1   -1    0    0    0  501  0.00000000000E+00  0.00000000000E+00 -0.11817872699E+04  0.11817872699E+04  0.50400001928E-02 0. -1.
    10030    2    1    2    0    0  0.00000000000E+00  0.00000000000E+00  0.10488502442E+02  0.23740630422E+04  0.23740398732E+04 0.  0.
        3    1    3    3  502    0 -0.60925094697E+03  0.41039175935E+03  0.93767396809E+03  0.11911509531E+04  0.10100000352E+00 0. -1.
       -3    1    3    3    0  502  0.60925094697E+03 -0.41039175935E+03 -0.92718546565E+03  0.11829120891E+04  0.10100000352E+00 0.  1.
</event>
<event>
 5   0  0.3006265E-05  0.2383204E+04  0.7818609E-02  0.8445818E-01
        1   -1    0    0  501    0  0.00000000000E+00  0.00000000000E+00  0.88978180306E+03  0.88978180307E+03  0.50400001928E-02 0. -1.
       -1   -1    0    0    0  501  0.00000000000E+00  0.00000000000E+00 -0.15958021049E+04  0.15958021049E+04  0.50400001928E-02 0.  1.
    10030    2    1    2    0    0  0.00000000000E+00  0.00000000000E+00 -0.70602030187E+03  0.24855839080E+04  0.23832042919E+04 0.  0.
        2    1    3    3  502    0 -0.42258953016E+03  0.91803441132E+03 -0.10114357403E+04  0.14298151448E+04  0.25500000920E-02 0.  1.
       -2    1    3    3    0  502  0.42258953016E+03 -0.91803441132E+03  0.30541543846E+03  0.10557687632E+04  0.25500000920E-02 0. -1.
</event>
<event>
 5   0  0.6814789E-05  0.2363927E+04  0.7818609E-02  0.8453133E-01
        2   -1    0    0  501    0  0.00000000000E+00  0.00000000000E+00  0.24850913380E+04  0.24850913380E+04  0.25500000920E-02 0. -1.
       -2   -1    0    0    0  501  0.00000000000E+00  0.00000000000E+00 -0.56216768109E+03  0.56216768109E+03  0.25500000920E-02 0.  1.
    10030    2    1    2    0    0  0.00000000000E+00  0.00000000000E+00  0.19229236569E+04  0.30472590191E+04  0.23639272703E+04 0.  0.
        1    1    3    3  502    0  0.75184060745E+03 -0.67216321839E+03  0.16685899163E+03  0.10222082050E+04  0.50400001928E-02 0.  1.
       -1    1    3    3    0  502 -0.75184060745E+03  0.67216321839E+03  0.17560646653E+04  0.20250508142E+04  0.50400001928E-02 0. -1.
</event>
<event>
 5   0  0.2962279E-05  0.2183572E+04  0.7818609E-02  0.8525297E-01
       -1   -1    0    0    0  501  0.00000000000E+00  0.00000000000E+00  0.13723028405E+04  0.13723028405E+04  0.50400001928E-02 0. -1.
        1   -1    0    0  501    0  0.00000000000E+00  0.00000000000E+00 -0.86861017377E+03  0.86861017379E+03  0.50400001928E-02 0.  1.
    10030    2    1    2    0    0  0.00000000000E+00  0.00000000000E+00  0.50369266671E+03  0.22409130143E+04  0.21835715777E+04 0.  0.
        1    1    3    3  502    0  0.43029886503E+03  0.42664514710E+03 -0.68019531319E+03  0.91096040468E+03  0.50400001928E-02 0.  1.
       -1    1    3    3    0  502 -0.43029886503E+03 -0.42664514710E+03  0.11838879799E+04  0.13299526096E+04  0.50400001928E-02 0. -1.
</event>
<event>
 5   0  0.6676612E-05  0.2314630E+04  0.7818609E-02  0.8472175E-01
        2   -1    0    0  501    0  0.00000000000E+00  0.00000000000E+00  0.12787153132E+04  0.12787153132E+04  0.25500000920E-02 0.  1.
       -2   -1    0    0    0  501  0.00000000000E+00  0.00000000000E+00 -0.10474400107E+04  0.10474400107E+04  0.25500000920E-02 0. -1.
    10030    2    1    2    0    0  0.00000000000E+00  0.00000000000E+00  0.23127530251E+03  0.23261553240E+04  0.23146296304E+04 0.  0.
        2    1    3    3  502    0  0.15615015346E+03  0.94223721239E+03 -0.54120986531E+03  0.10977713574E+04  0.25500000920E-02 0.  1.
       -2    1    3    3    0  502 -0.15615015346E+03 -0.94223721239E+03  0.77248516782E+03  0.12283839666E+04  0.25500000920E-02 0. -1.
</event>
<event>
 5   0  0.2342500E-05  0.2214581E+04  0.7818609E-02  0.8512384E-01
        3   -1    0    0  501    0  0.00000000000E+00  0.00000000000E+00  0.10884066964E+04  0.10884067011E+04  0.10100000352E+00 0. -1.
       -3   -1    0    0    0  501  0.00000000000E+00  0.00000000000E+00 -0.11265017386E+04  0.11265017431E+04  0.10100000352E+00 0.  1.
    10030    2    1    2    0    0  0.00000000000E+00  0.00000000000E+00 -0.38095042178E+02  0.22149084442E+04  0.22145808145E+04 0.  0.
        2    1    3    3  502    0  0.47480384578E+03  0.62558826954E+03 -0.79973501580E+03  0.11208815595E+04  0.25500000920E-02 0.  1.
       -2    1    3    3    0  502 -0.47480384578E+03 -0.62558826954E+03  0.76163997362E+03  0.10940268847E+04  0.25500000920E-02 0. -1.
</event>
<event>
 5   0  0.2982385E-05  0.2312563E+04  0.7818609E-02  0.8472984E-01
       -1   -1    0    0    0  501  0.00000000000E+00  0.00000000000E+00  0.12913823084E+04  0.12913823084E+04  0.50400001928E-02 0. -1.
        1   -1    0    0  501    0  0.00000000000E+00  0.00000000000E+00 -0.10353143169E+04  0.10353143169E+04  0.50400001928E-02 0.  1.
    10030    2    1    2    0    0  0.00000000000E+00  0.00000000000E+00  0.25606799158E+03  0.23266966253E+04  0.23125627278E+04 0.  0.
        4    1    3    3  502    0  0.11106688089E+04  0.28158164689E+03  0.28426197922E+03  0.11805422113E+04  0.12699999809E+01 0.  1.
       -4    1    3    3    0  502 -0.11106688089E+04 -0.28158164689E+03 -0.28193987641E+02  0.11461544140E+04  0.12699999809E+01 0. -1.
</event>
<event>
 5   0  0.3118614E-05  0.2318291E+04  0.7818609E-02  0.8470744E-01
        1   -1    0    0  501    0  0.00000000000E+00  0.00000000000E+00  0.24687778820E+04  0.24687778820E+04  0.50400001928E-02 0. -1.
       -1   -1    0    0    0  501  0.00000000000E+00  0.00000000000E+00 -0.54424449287E+03  0.54424449289E+03  0.50400001928E-02 0.  1.
    10030    2    1    2    0    0  0.00000000000E+00  0.00000000000E+00  0.19245333891E+04  0.30130223749E+04  0.23182914109E+04 0.  0.
        3    1    3    3  502    0  0.41711923850E+03 -0.35374602953E+03  0.22905396019E+04  0.23549302305E+04  0.10100000352E+00 0. -1.
       -3    1    3    3    0  502 -0.41711923850E+03  0.35374602953E+03 -0.36600621275E+03  0.65809214439E+03  0.10100000352E+00 0.  1.
</event>
<event>
 5   0  0.6468758E-05  0.2337924E+04  0.7818609E-02  0.8463117E-01
        2   -1    0    0  501    0  0.00000000000E+00  0.00000000000E+00  0.17130326595E+04  0.17130326596E+04  0.25500000920E-02 0. -1.
       -2   -1    0    0    0  501  0.00000000000E+00  0.00000000000E+00 -0.79769151630E+03  0.79769151631E+03  0.25500000920E-02 0.  1.
    10030    2    1    2    0    0  0.00000000000E+00  0.00000000000E+00  0.91534114325E+03  0.25107241759E+04  0.23379235400E+04 0.  0.
        3    1    3    3  502    0 -0.96666008282E+03  0.42537491474E+03 -0.80461236522E+02  0.10591739964E+04  0.10100000352E+00 0.  1.
       -3    1    3    3    0  502  0.96666008282E+03 -0.42537491474E+03  0.99580237977E+03  0.14515501795E+04  0.10100000352E+00 0. -1.
</event>
<event>
 5   0  0.6702421E-05  0.2303685E+04  0.7818609E-02  0.8476469E-01
        2   -1    0    0  501    0  0.00000000000E+00  0.00000000000E+00  0.21048585125E+04  0.21048585125E+04  0.25500000920E-02 0.  1.
       -2   -1    0    0    0  501  0.00000000000E+00  0.00000000000E+00 -0.63032342398E+03  0.63032342398E+03  0.25500000920E-02 0. -1.
    10030    2    1    2    0    0  0.00000000000E+00  0.00000000000E+00  0.14745350885E+04  0.27351819365E+04  0.23036854166E+04 0.  0.
        4    1    3    3  502    0  0.85559438767E+02  0.95301789682E+03  0.14986049714E+04  0.17780275595E+04  0.12699999809E+01 0.  1.
       -4    1    3    3    0  502 -0.85559438767E+02 -0.95301789682E+03 -0.24069882861E+02  0.95715437698E+03  0.12699999809E+01 0. -1.
</event>
<event>
 5   0  0.2962279E-05  0.2335042E+04  0.7818609E-02  0.8464231E-01
        1   -1    0    0  501    0  0.00000000000E+00  0.00000000000E+00  0.25089430776E+04  0.25089430776E+04  0.50400001928E-02 0. -1.
       -1   -1    0    0    0  501  0.00000000000E+00  0.00000000000E+00 -0.54329842528E+03  0.54329842530E+03  0.50400001928E-02 0.  1.
    10030    2    1    2    0    0  0.00000000000E+00  0.00000000000E+00  0.19656446523E+04  0.30522415029E+04  0.23350416041E+04 0.  0.
        1    1    3    3  502    0  0.63985081899E+03  0.94393568822E+03  0.13100822421E+04  0.17368762579E+04  0.50400001928E-02 0. -1.
       -1    1    3    3    0  502 -0.63985081899E+03 -0.94393568822E+03  0.65556241018E+03  0.13153652450E+04  0.50400001928E-02 0.  1.
</event>
<event>
 5   0  0.2944089E-05  0.2313574E+04  0.7818609E-02  0.8472588E-01
       -1   -1    0    0    0  501  0.00000000000E+00  0.00000000000E+00  0.46001684579E+03  0.46001684582E+03  0.50400001928E-02 0.  1.
        1   -1    0    0  501    0  0.00000000000E+00  0.00000000000E+00 -0.29089280765E+04  0.29089280765E+04  0.50400001928E-02 0. -1.
    10030    2    1    2    0    0  0.00000000000E+00  0.00000000000E+00 -0.24489112307E+04  0.33689449223E+04  0.23135737883E+04 0.  0.
        5    1    3    3  502    0 -0.50917645447E+02 -0.64929274402E+03  0.16765641575E+03  0.67253582641E+03  0.46999998093E+01 0.  1.
       -5    1    3    3    0  502  0.50917645447E+02  0.64929274402E+03 -0.26165676465E+04  0.26964090959E+04  0.46999998093E+01 0. -1.
</event>
<event>
 5   0  0.6468758E-05  0.2094952E+04  0.7818609E-02  0.8563470E-01
        2   -1    0    0  501    0  0.00000000000E+00  0.00000000000E+00  0.14440053681E+04  0.14440053681E+04  0.25500000920E-02 0.  1.
       -2   -1    0    0    0  501  0.00000000000E+00  0.00000000000E+00 -0.75983521830E+03  0.75983521830E+03  0.25500000920E-02 0. -1.
    10030    2    1    2    0    0  0.00000000000E+00  0.00000000000E+00  0.68417014978E+03  0.22038405864E+04  0.20949521561E+04 0.  0.
        3    1    3    3  502    0 -0.27092783322E+03 -0.10085857005E+04  0.42728295438E+03  0.11283695048E+04  0.10100000352E+00 0. -1.
       -3    1    3    3    0  502  0.27092783322E+03  0.10085857005E+04  0.25688719541E+03  0.10754710816E+04  0.10100000352E+00 0.  1.
</event>
<event>
 5   0  0.2982385E-05  0.2277522E+04  0.7818609E-02  0.8486837E-01
        1   -1    0    0  501    0  0.00000000000E+00  0.00000000000E+00  0.15875818539E+04  0.15875818539E+04  0.50400001928E-02 0.  1.
       -1   -1    0    0    0  501  0.00000000000E+00  0.00000000000E+00 -0.81682484061E+03  0.81682484063E+03  0.50400001928E-02 0. -1.
    10030    2    1    2    0    0  0.00000000000E+00  0.00000000000E+00  0.77075701331E+03  0.24044066946E+04  0.22775217187E+04 0.  0.
        4    1    3    3  502    0 -0.10805185946E+04  0.33462233385E+03  0.52416403692E+03  0.12466924601E+04  0.12699999809E+01 0. -1.
       -4    1    3    3    0  502  0.10805185946E+04 -0.33462233385E+03  0.24659297639E+03  0.11577142344E+04  0.12699999809E+01 0.  1.
</event>
<event>
 5   0  0.6468758E-05  0.2311472E+04  0.7818609E-02  0.8473412E-01
        2   -1    0    0  501    0  0.00000000000E+00  0.00000000000E+00  0.10088992440E+04  0.10088992440E+04  0.25500000920E-02 0.  1.
       -2   -1    0    0    0  501  0.00000000000E+00  0.00000000000E+00 -0.13239435997E+04  0.13239435997E+04  0.25500000920E-02 0. -1.
    10030    2    1    2    0    0  0.00000000000E+00  0.00000000000E+00 -0.31504435562E+03  0.23328428437E+04  0.23114719958E+04 0.  0.
        3    1    3    3  502    0 -0.90193007544E+03  0.43634807279E+03 -0.73891085561E+03  0.12449364499E+04  0.10100000352E+00 0.  1.
       -3    1    3    3    0  502  0.90193007544E+03 -0.43634807279E+03  0.42386649999E+03  0.10879063938E+04  0.10100000352E+00 0. -1.
</event>
<event>
 5   0  0.2944089E-05  0.2262881E+04  0.7818609E-02  0.8492702E-01
        1   -1    0    0  501    0  0.00000000000E+00  0.00000000000E+00  0.16948287028E+04  0.16948287028E+04  0.50400001928E-02 0.  1.
       -1   -1    0    0    0  501  0.00000000000E+00  0.00000000000E+00 -0.75533169882E+03  0.75533169884E+03  0.50400001928E-02 0. -1.
    10030    2    1    2    0    0  0.00000000000E+00  0.00000000000E+00  0.93949700400E+03  0.24501604017E+04  0.22628812106E+04 0.  0.
        5    1    3    3  502    0 -0.54360986134E+03 -0.99176772014E+03  0.50434372435E+03  0.12383454988E+04  0.46999998093E+01 0.  1.
       -5    1    3    3    0  502  0.54360986134E+03  0.99176772014E+03  0.43515327966E+03  0.12118149029E+04  0.46999998093E+01 0. -1.
</event>
<event>
 5   0  0.3006265E-05  0.2264954E+04  0.7818609E-02  0.8491869E-01
       -1   -1    0    0    0  501  0.00000000000E+00  0.00000000000E+00  0.71992608307E+03  0.71992608309E+03  0.50400001928E-02 0. -1.
        1   -1    0    0  501    0  0.00000000000E+00  0.00000000000E+00 -0.17814388630E+04  0.17814388630E+04  0.50400001928E-02 0.  1.
    10030    2    1    2    0    0  0.00000000000E+00  0.00000000000E+00 -0.10615127800E+04  0.25013649461E+04  0.22649541302E+04 0.  0.
        2    1    3    3  502    0  0.39286381486E+03  0.85319593874E+03  0.16790462140E+03  0.95418931497E+03  0.25500000920E-02 0. -1.
       -2    1    3    3    0  502 -0.39286381486E+03 -0.85319593874E+03 -0.12294174014E+04  0.15471756312E+04  0.25500000920E-02 0.  1.
</event>
<event>
 5   0  0.6495405E-05  0.2223932E+04  0.7818609E-02  0.8508533E-01
        2   -1    0    0  501    0  0.00000000000E+00  0.00000000000E+00  0.13726917016E+04  0.13726917016E+04  0.25500000920E-02 0. -1.
       -2   -1    0    0    0  501  0.00000000000E+00  0.00000000000E+00 -0.90076189146E+03  0.90076189146E+03  0.25500000920E-02 0.  1.
    10030    2    1    2    0    0  0.00000000000E+00  0.00000000000E+00  0.47192981012E+03  0.22734535930E+04  0.22239319895E+04 0.  0.
        5    1    3    3  502    0  0.18675293644E+03  0.88714437781E+03 -0.42222339571E+03  0.10000982413E+04  0.46999998093E+01 0.  1.
       -5    1    3    3    0  502 -0.18675293644E+03 -0.88714437781E+03  0.89415320582E+03  0.12733553517E+04  0.46999998093E+01 0. -1.
</event>
<event>
 5   0  0.2962279E-05  0.2307708E+04  0.7818609E-02  0.8474888E-01
        1   -1    0    0  501    0  0.00000000000E+00  0.00000000000E+00  0.25606549391E+04  0.25606549391E+04  0.50400001928E-02 0. -1.
       -1   -1    0    0    0  501  0.00000000000E+00  0.00000000000E+00 -0.51993683890E+03  0.51993683893E+03  0.50400001928E-02 0.  1.
    10030    2    1    2    0    0  0.00000000000E+00  0.00000000000E+00  0.20407181002E+04  0.30805917780E+04  0.23077078104E+04 0.  0.
        1    1    3    3  502    0 -0.51280651989E+02  0.83532001220E+03  0.20807461481E+04  0.22427424642E+04  0.50400001928E-02 0. -1.
       -1    1    3    3    0  502  0.51280651989E+02 -0.83532001220E+03 -0.40028047862E+02  0.83784931383E+03  0.50400001928E-02 0.  1.
</event>
<event>
 5   0  0.2962279E-05  0.2314409E+04  0.7818609E-02  0.8472261E-01
        1   -1    0    0  501    0  0.00000000000E+00  0.00000000000E+00  0.21229697165E+04  0.21229697166E+04  0.50400001928E-02 0. -1.
       -1   -1    0    0    0  501  0.00000000000E+00  0.00000000000E+00 -0.63077806995E+03  0.63077806997E+03  0.50400001928E-02 0.  1.
    10030    2    1    2    0    0  0.00000000000E+00  0.00000000000E+00  0.14921916466E+04  0.27537477865E+04  0.23144094196E+04 0.  0.
        1    1    3    3  502    0  0.36727585658E+03  0.10950607507E+04  0.66134921921E+03  0.13309516867E+04  0.50400001928E-02 0.  1.
       -1    1    3    3    0  502 -0.36727585658E+03 -0.10950607507E+04  0.83084242739E+03  0.14227960998E+04  0.50400001928E-02 0. -1.
</event>
<event>
 5   0  0.6468758E-05  0.2334906E+04  0.7818609E-02  0.8464284E-01
       -2   -1    0    0    0  501  0.00000000000E+00  0.00000000000E+00  0.83511041267E+03  0.83511041268E+03  0.25500000920E-02 0. -1.
        2   -1    0    0  501    0  0.00000000000E+00  0.00000000000E+00 -0.16320549893E+04  0.16320549893E+04  0.25500000920E-02 0.  1.
    10030    2    1    2    0    0  0.00000000000E+00  0.00000000000E+00 -0.79694457665E+03  0.24671654020E+04  0.23349056646E+04 0.  0.
        3    1    3    3  502    0 -0.10203774627E+04 -0.15000526117E+03  0.17957541929E+03  0.10468615411E+04  0.10100000352E+00 0. -1.
       -3    1    3    3    0  502  0.10203774627E+04  0.15000526117E+03 -0.97651999594E+03  0.14203038609E+04  0.10100000352E+00 0.  1.
</event>
<event>
 5   0  0.2982385E-05  0.2309722E+04  0.7818609E-02  0.8474098E-01
        1   -1    0    0  501    0  0.00000000000E+00  0.00000000000E+00  0.13316262449E+04  0.13316262449E+04  0.50400001928E-02 0. -1.
       -1   -1    0    0    0  501  0.00000000000E+00  0.00000000000E+00 -0.10015600505E+04  0.10015600505E+04  0.50400001928E-02 0.  1.
    10030    2    1    2    0    0  0.00000000000E+00  0.00000000000E+00  0.33006619445E+03  0.23331862954E+04  0.23097217574E+04 0.  0.
        4    1    3    3  502    0 -0.29935383570E+03 -0.57995272387E+03 -0.79740206652E+03  0.10304414343E+04  0.12699999809E+01 0.  1.
       -4    1    3    3    0  502  0.29935383570E+03  0.57995272387E+03  0.11274682610E+04  0.13027448612E+04  0.12699999809E+01 0. -1.
</event>
<event>
 5   0  0.2962279E-05  0.2288406E+04  0.7818609E-02  0.8482507E-01
        1   -1    0    0  501    0  0.00000000000E+00  0.00000000000E+00  0.57082355016E+03  0.57082355018E+03  0.50400001928E-02 0. -1.
       -1   -1    0    0    0  501  0.00000000000E+00  0.00000000000E+00 -0.22935285135E+04  0.22935285135E+04  0.50400001928E-02 0.  1.
    10030    2    1    2    0    0  0.00000000000E+00  0.00000000000E+00 -0.17227049633E+04  0.28643520637E+04  0.22884056358E+04 0.  0.
        1    1    3    3  502    0  0.37752703664E+03 -0.10710636442E+04 -0.10361226101E+04  0.15372878900E+04  0.50400001928E-02 0.  1.
       -1    1    3    3    0  502 -0.37752703664E+03  0.10710636442E+04 -0.68658235320E+03  0.13270641737E+04  0.50400001928E-02 0. -1.
</event>
<event>
 5   0  0.6495405E-05  0.2272625E+04  0.7818609E-02  0.8488794E-01
       -2   -1    0    0    0  501  0.00000000000E+00  0.00000000000E+00  0.78612917911E+03  0.78612917911E+03  0.25500000920E-02 0.  1.
        2   -1    0    0  501    0  0.00000000000E+00  0.00000000000E+00 -0.16424855477E+04  0.16424855477E+04  0.25500000920E-02 0. -1.
    10030    2    1    2    0    0  0.00000000000E+00  0.00000000000E+00 -0.85635636859E+03  0.24286147268E+04  0.22726247515E+04 0.  0.
        5    1    3    3  502    0 -0.82792230817E+03 -0.27359544331E+03  0.35044365898E+03  0.93975670420E+03  0.46999998093E+01 0.  1.
       -5    1    3    3    0  502  0.82792230817E+03  0.27359544331E+03 -0.12068000276E+04  0.14888580226E+04  0.46999998093E+01 0. -1.
</event>
<event>
 5   0  0.2944089E-05  0.2286818E+04  0.7818609E-02  0.8483137E-01
       -1   -1    0    0    0  501  0.00000000000E+00  0.00000000000E+00  0.12059124239E+04  0.12059124239E+04  0.50400001928E-02 0.  1.
        1   -1    0    0  501    0  0.00000000000E+00  0.00000000000E+00 -0.10841447262E+04  0.10841447262E+04  0.50400001928E-02 0. -1.
    10030    2    1    2    0    0  0.00000000000E+00  0.00000000000E+00  0.12176769772E+03  0.22900571502E+04  0.22868175220E+04 0.  0.
        5    1    3    3  502    0  0.63825789849E+03 -0.40793514673E+03 -0.79682076097E+03  0.10994224138E+04  0.46999998093E+01 0. -1.
       -5    1    3    3    0  502 -0.63825789849E+03  0.40793514673E+03  0.91858845869E+03  0.11906347363E+04  0.46999998093E+01 0.  1.
</event>
<event>
 5   0  0.6468758E-05  0.2251406E+04  0.7818609E-02  0.8497331E-01
        2   -1    0    0  501    0  0.00000000000E+00  0.00000000000E+00  0.95075425246E+03  0.95075425246E+03  0.25500000920E-02 0.  1.
       -2   -1    0    0    0  501  0.00000000000E+00  0.00000000000E+00 -0.13328438964E+04  0.13328438964E+04  0.25500000920E-02 0. -1.
    10030    2    1    2    0    0  0.00000000000E+00  0.00000000000E+00 -0.38208964392E+03  0.22835981488E+04  0.22514057851E+04 0.  0.
        3    1    3    3  502    0 -0.97827711903E+03  0.28915809241E+03  0.29175337412E+03  0.10610177027E+04  0.10100000352E+00 0.  1.
       -3    1    3    3    0  502  0.97827711903E+03 -0.28915809241E+03 -0.67384301804E+03  0.12225804461E+04  0.10100000352E+00 0. -1.
</event>
<event>
 5   0  0.3006265E-05  0.2131444E+04  0.7818609E-02  0.8547517E-01
        1   -1    0    0  501    0  0.00000000000E+00  0.00000000000E+00  0.12602810481E+04  0.12602810481E+04  0.50400001928E-02 0.  1.
       -1   -1    0    0    0  501  0.00000000000E+00  0.00000000000E+00 -0.90119827183E+03  0.90119827184E+03  0.50400001928E-02 0. -1.
    10030    2    1    2    0    0  0.00000000000E+00  0.00000000000E+00  0.35908277630E+03  0.21614793200E+04  0.21314437385E+04 0.  0.
        2    1    3    3  502    0  0.21998389640E+03 -0.98039078522E+03 -0.18071686325E+03  0.10208905872E+04  0.25500000920E-02 0. -1.
       -2    1    3    3    0  502 -0.21998389640E+03  0.98039078522E+03  0.53979963955E+03  0.11405887328E+04  0.25500000920E-02 0.  1.
</event>
<event>
 5   0  0.2982385E-05  0.2317965E+04  0.7818609E-02  0.8470871E-01
        1   -1    0    0  501    0  0.00000000000E+00  0.00000000000E+00  0.16202733046E+04  0.16202733046E+04  0.50400001928E-02 0. -1.
       -1   -1    0    0    0  501  0.00000000000E+00  0.00000000000E+00 -0.82902108610E+03  0.82902108611E+03  0.50400001928E-02 0.  1.
    10030    2    1    2    0    0  0.00000000000E+00  0.00000000000E+00  0.79125221849E+03  0.24492943907E+04  0.23179652584E+04 0.  0.
        4    1    3    3  502    0  0.16874585050E+03 -0.62392849739E+03 -0.62089622494E+03  0.89625647388E+03  0.12699999809E+01 0.  1.
       -4    1    3    3    0  502 -0.16874585050E+03  0.62392849739E+03  0.14121484434E+04  0.15530379168E+04  0.12699999809E+01 0. -1.
</event>
<event>
 5   0  0.2962279E-05  0.2306823E+04  0.7818609E-02  0.8475236E-01
       -1   -1    0    0    0  501  0.00000000000E+00  0.00000000000E+00  0.16010989497E+04  0.16010989497E+04  0.50400001928E-02 0. -1.
        1   -1    0    0  501    0  0.00000000000E+00  0.00000000000E+00 -0.83090325683E+03  0.83090325685E+03  0.50400001928E-02 0.  1.
    10030    2    1    2    0    0  0.00000000000E+00  0.00000000000E+00  0.77019569286E+03  0.24320022066E+04  0.23068232111E+04 0.  0.
        1    1    3    3  502    0 -0.51657712093E+03  0.10133681044E+04  0.18342857543E+03  0.11521340544E+04  0.50400001928E-02 0. -1.
       -1    1    3    3    0  502  0.51657712093E+03 -0.10133681044E+04  0.58676711743E+03  0.12798681522E+04  0.50400001928E-02 0.  1.
</event>
<event>
 5   0  0.2982385E-05  0.2364036E+04  0.7818609E-02  0.8453092E-01
       -1   -1    0    0    0  501  0.00000000000E+00  0.00000000000E+00  0.13175836385E+04  0.13175836385E+04  0.50400001928E-02 0. -1.
        1   -1    0    0  501    0  0.00000000000E+00  0.00000000000E+00 -0.10604004496E+04  0.10604004496E+04  0.50400001928E-02 0.  1.
    10030    2    1    2    0    0  0.00000000000E+00  0.00000000000E+00  0.25718318887E+03  0.23779840881E+04  0.23640357719E+04 0.  0.
        4    1    3    3  502    0 -0.79164694056E+03 -0.87154686853E+03  0.23344600363E+03  0.12003322340E+04  0.12699999809E+01 0.  1.
       -4    1    3    3    0  502  0.79164694056E+03  0.87154686853E+03  0.23737185242E+02  0.11776518541E+04  0.12699999809E+01 0. -1.
</event>
<event>
 5   0  0.6676612E-05  0.2247019E+04  0.7818609E-02  0.8499109E-01
       -2   -1    0    0    0  501  0.00000000000E+00  0.00000000000E+00  0.12010669800E+04  0.12010669800E+04  0.25500000920E-02 0. -1.
        2   -1    0    0  501    0  0.00000000000E+00  0.00000000000E+00 -0.10509603670E+04  0.10509603670E+04  0.25500000920E-02 0.  1.
    10030    2    1    2    0    0  0.00000000000E+00  0.00000000000E+00  0.15010661298E+03  0.22520273470E+04  0.22470191758E+04 0.  0.
        2    1    3    3  502    0  0.70318157157E+03 -0.40373116882E+03 -0.70437573520E+03  0.10740616163E+04  0.25500000920E-02 0.  1.
       -2    1    3    3    0  502 -0.70318157157E+03  0.40373116882E+03  0.85448234817E+03  0.11779657307E+04  0.25500000920E-02 0. -1.
</event>
<event>
 5   0  0.6814789E-05  0.2283757E+04  0.7818609E-02  0.8484353E-01
       -2   -1    0    0    0  501  0.00000000000E+00  0.00000000000E+00  0.93512422728E+03  0.93512422728E+03  0.25500000920E-02 0.  1.
        2   -1    0    0  501    0  0.00000000000E+00  0.00000000000E+00 -0.13943454060E+04  0.13943454060E+04  0.25500000920E-02 0. -1.
    10030    2    1    2    0    0  0.00000000000E+00  0.00000000000E+00 -0.45922117874E+03  0.23294696333E+04  0.22837567036E+04 0.  0.
        1    1    3    3  502    0  0.51037312876E+03  0.20314806060E+03 -0.12507160912E+04  0.13660309681E+04  0.50400001928E-02 0. -1.
       -1    1    3    3    0  502 -0.51037312876E+03 -0.20314806060E+03  0.79149491245E+03  0.96343866517E+03  0.50400001928E-02 0.  1.
</event>
<event>
 5   0  0.6468758E-05  0.2317059E+04  0.7818609E-02  0.8471225E-01
        2   -1    0    0  501    0  0.00000000000E+00  0.00000000000E+00  0.22367091604E+04  0.22367091604E+04  0.25500000920E-02 0. -1.
       -2   -1    0    0    0  501  0.00000000000E+00  0.00000000000E+00 -0.60007372491E+03  0.60007372492E+03  0.25500000920E-02 0.  1.
    10030    2    1    2    0    0  0.00000000000E+00  0.00000000000E+00  0.16366354355E+04  0.28367828853E+04  0.23170588231E+04 0.  0.
        3    1    3    3  502    0 -0.82434794108E+03 -0.41824907374E+03  0.16733238567E+04  0.19116732345E+04  0.10100000352E+00 0. -1.
       -3    1    3    3    0  502  0.82434794108E+03  0.41824907374E+03 -0.36688421252E+02  0.92510965085E+03  0.10100000352E+00 0.  1.
</event>
<event>
 5   0  0.6814789E-05  0.2312657E+04  0.7818609E-02  0.8472947E-01
       -2   -1    0    0    0  501  0.00000000000E+00  0.00000000000E+00  0.51352814650E+03  0.51352814651E+03  0.25500000920E-02 0.  1.
        2   -1    0    0  501    0  0.00000000000E+00  0.00000000000E+00 -0.26037443721E+04  0.26037443721E+04  0.25500000920E-02 0. -1.
    10030    2    1    2    0    0  0.00000000000E+00  0.00000000000E+00 -0.20902162256E+04  0.31172725186E+04  0.23126573645E+04 0.  0.
        1    1    3    3  502    0 -0.37875759409E+03  0.10622161140E+04 -0.13896472249E+04  0.17896591289E+04  0.50400001928E-02 0.  1.
       -1    1    3    3    0  502  0.37875759409E+03 -0.10622161140E+04 -0.70056900066E+03  0.13276133897E+04  0.50400001928E-02 0. -1.
</event>
<event>
 5   0  0.6702421E-05  0.2287547E+04  0.7818609E-02  0.8482847E-01
        2   -1    0    0  501    0  0.00000000000E+00  0.00000000000E+00  0.83713734636E+03  0.83713734636E+03  0.25500000920E-02 0. -1.
       -2   -1    0    0    0  501  0.00000000000E+00  0.00000000000E+00 -0.15627282746E+04  0.15627282746E+04  0.25500000920E-02 0.  1.
    10030    2    1    2    0    0  0.00000000000E+00  0.00000000000E+00 -0.72559092823E+03  0.23998656210E+04  0.22875473336E+04 0.  0.
        4    1    3    3  502    0  0.59676481848E+03 -0.95938618845E+03 -0.54948360721E+03  0.12563773138E+04  0.12699999809E+01 0.  1.
       -4    1    3    3    0  502 -0.59676481848E+03  0.95938618845E+03 -0.17610732101E+03  0.11434883071E+04  0.12699999809E+01 0. -1.
</event>
<event>
 5   0  0.3118614E-05  0.2296385E+04  0.7818609E-02  0.8479348E-01
        1   -1    0    0  501    0  0.00000000000E+00  0.00000000000E+00  0.18385542354E+04  0.18385542354E+04  0.50400001928E-02 0. -1.
       -1   -1    0    0    0  501  0.00000000000E+00  0.00000000000E+00 -0.71705553014E+03  0.71705553016E+03  0.50400001928E-02 0.  1.
    10030    2    1    2    0    0  0.00000000000E+00  0.00000000000E+00  0.11214987053E+04  0.25556097656E+04  0.22963845340E+04 0.  0.
        3    1    3    3  502    0  0.86397362444E+03  0.30367612442E+03  0.13315176743E+04  0.16160473196E+04  0.10100000352E+00 0. -1.
       -3    1    3    3    0  502 -0.86397362444E+03 -0.30367612442E+03 -0.21001896899E+03  0.93956244593E+03  0.10100000352E+00 0.  1.
</event>
<event>
 5   0  0.2962279E-05  0.2196832E+04  0.7818609E-02  0.8519748E-01
       -1   -1    0    0    0  501  0.00000000000E+00  0.00000000000E+00  0.91897958919E+03  0.91897958921E+03  0.50400001928E-02 0.  1.
        1   -1    0    0  501    0  0.00000000000E+00  0.00000000000E+00 -0.13128887639E+04  0.13128887639E+04  0.50400001928E-02 0. -1.
    10030    2    1    2    0    0  0.00000000000E+00  0.00000000000E+00 -0.39390917475E+03  0.22318683532E+04  0.21968322439E+04 0.  0.
        1    1    3    3  502    0  0.28448519886E+03  0.96346287877E+03 -0.64825237923E+03  0.11955850845E+04  0.50400001928E-02 0. -1.
       -1    1    3    3    0  502 -0.28448519886E+03 -0.96346287877E+03  0.25434320449E+03  0.10362832686E+04  0.50400001928E-02 0.  1.
</event>
<event>
 5   0  0.2342500E-05  0.2296812E+04  0.7818609E-02  0.8479179E-01
        3   -1    0    0  501    0  0.00000000000E+00  0.00000000000E+00  0.10944477117E+04  0.10944477164E+04  0.10100000352E+00 0. -1.
       -3   -1    0    0    0  501  0.00000000000E+00  0.00000000000E+00 -0.12050245377E+04  0.12050245420E+04  0.10100000352E+00 0.  1.
    10030    2    1    2    0    0  0.00000000000E+00  0.00000000000E+00 -0.11057682603E+03  0.22994722584E+04  0.22968120151E+04 0.  0.
        2    1    3    3  502    0 -0.48847595528E+03 -0.94542482157E+03  0.37695173335E+03  0.11289506019E+04  0.25500000920E-02 0. -1.
       -2    1    3    3    0  502  0.48847595528E+03  0.94542482157E+03 -0.48752855937E+03  0.11705216565E+04  0.25500000920E-02 0.  1.
</event>
<event>
 5   0  0.2962279E-05  0.2286800E+04  0.7818609E-02  0.8483144E-01
        1   -1    0    0  501    0  0.00000000000E+00  0.00000000000E+00  0.19802873687E+04  0.19802873687E+04  0.50400001928E-02 0.  1.
       -1   -1    0    0    0  501  0.00000000000E+00  0.00000000000E+00 -0.66018853175E+03  0.66018853177E+03  0.50400001928E-02 0. -1.
    10030    2    1    2    0    0  0.00000000000E+00  0.00000000000E+00  0.13200988370E+04  0.26404759005E+04  0.22867995193E+04 0.  0.
        1    1    3    3  502    0 -0.59887638524E+03  0.27985097097E+03 -0.41718926445E+03  0.78167536302E+03  0.50400001928E-02 0. -1.
       -1    1    3    3    0  502  0.59887638524E+03 -0.27985097097E+03  0.17372881014E+04  0.18588005375E+04  0.50400001928E-02 0.  1.
</event>
<event>
 5   0  0.2982385E-05  0.2310509E+04  0.7818609E-02  0.8473789E-01
       -1   -1    0    0    0  501  0.00000000000E+00  0.00000000000E+00  0.69729885579E+03  0.69729885581E+03  0.50400001928E-02 0. -1.
        1   -1    0    0  501    0  0.00000000000E+00  0.00000000000E+00 -0.19139750578E+04  0.19139750578E+04  0.50400001928E-02 0.  1.
    10030    2    1    2    0    0  0.00000000000E+00  0.00000000000E+00 -0.12166762020E+04  0.26112739136E+04  0.23105087040E+04 0.  0.
        4    1    3    3  502    0  0.29478617220E+03  0.99868684635E+03 -0.11738048643E+04  0.15691060438E+04  0.12699999809E+01 0. -1.
       -4    1    3    3    0  502 -0.29478617220E+03 -0.99868684635E+03 -0.42871337739E+02  0.10421678698E+04  0.12699999809E+01 0.  1.
</event>
<event>
 5   0  0.3118614E-05  0.2140583E+04  0.7818609E-02  0.8543574E-01
        1   -1    0    0  501    0  0.00000000000E+00  0.00000000000E+00  0.11936862663E+04  0.11936862663E+04  0.50400001928E-02 0. -1.
       -1   -1    0    0    0  501  0.00000000000E+00  0.00000000000E+00 -0.95965234391E+03  0.95965234393E+03  0.50400001928E-02 0.  1.
    10030    2    1    2    0    0  0.00000000000E+00  0.00000000000E+00  0.23403392234E+03  0.21533386102E+04  0.21405829331E+04 0.  0.
        3    1    3    3  502    0  0.22960196357E+03  0.94187088014E+03 -0.33921177007E+03  0.10270844423E+04  0.10100000352E+00 0.  1.
       -3    1    3    3    0  502 -0.22960196357E+03 -0.94187088014E+03  0.57324569241E+03  0.11262541679E+04  0.10100000352E+00 0. -1.
</event>
<event>
 5   0  0.6702421E-05  0.2294778E+04  0.7818609E-02  0.8479983E-01
        2   -1    0    0  501    0  0.00000000000E+00  0.00000000000E+00  0.13732328839E+04  0.13732328839E+04  0.25500000920E-02 0. -1.
       -2   -1    0    0    0  501  0.00000000000E+00  0.00000000000E+00 -0.95868805609E+03  0.95868805610E+03  0.25500000920E-02 0.  1.
    10030    2    1    2    0    0  0.00000000000E+00  0.00000000000E+00  0.41454482779E+03  0.23319209400E+04  0.22947783893E+04 0.  0.
        4    1    3    3  502    0 -0.38502983811E+02 -0.57229629231E+03 -0.80253948818E+03  0.98644653628E+03  0.12699999809E+01 0.  1.
       -4    1    3    3    0  502  0.38502983811E+02  0.57229629231E+03  0.12170843160E+04  0.13454744037E+04  0.12699999809E+01 0. -1.
</event>
<event>
 5   0  0.3006265E-05  0.2359494E+04  0.7818609E-02  0.8454826E-01
        1   -1    0    0  501    0  0.00000000000E+00  0.00000000000E+00  0.85335815758E+03  0.85335815760E+03  0.50400001928E-02 0.  1.
       -1   -1    0    0    0  501  0.00000000000E+00  0.00000000000E+00 -0.16309711113E+04  0.16309711113E+04  0.50400001928E-02 0. -1.
    10030    2    1    2    0    0  0.00000000000E+00  0.00000000000E+00 -0.77761295374E+03  0.24843292689E+04  0.23594935920E+04 0.  0.
        2    1    3    3  502    0 -0.57599067373E+03  0.20288228865E+03 -0.14516052025E+04  0.15748282900E+04  0.25500000920E-02 0. -1.
       -2    1    3    3    0  502  0.57599067373E+03 -0.20288228865E+03  0.67399224872E+03  0.90950097890E+03  0.25500000920E-02 0.  1.
</event>
<event>
 5   0  0.3118614E-05  0.2418194E+04  0.7818609E-02  0.8432723E-01
        1   -1    0    0  501    0  0.00000000000E+00  0.00000000000E+00  0.97090018957E+03  0.97090018959E+03  0.50400001928E-02 0.  1.
       -1   -1    0    0    0  501  0.00000000000E+00  0.00000000000E+00 -0.15057320089E+04  0.15057320089E+04  0.50400001928E-02 0. -1.
    10030    2    1    2    0    0  0.00000000000E+00  0.00000000000E+00 -0.53483181931E+03  0.24766321985E+04  0.24181939483E+04 0.  0.
        3    1    3    3  502    0 -0.30168712976E+03 -0.37775724795E+02 -0.14659411321E+04  0.14971391193E+04  0.10100000352E+00 0. -1.
       -3    1    3    3    0  502  0.30168712976E+03  0.37775724795E+02  0.93110931276E+03  0.97949307918E+03  0.10100000352E+00 0.  1.
</event>
<event>
 5   0  0.6495405E-05  0.2327526E+04  0.7818609E-02  0.8467147E-01
        2   -1    0    0  501    0  0.00000000000E+00  0.00000000000E+00  0.14010218434E+04  0.14010218434E+04  0.25500000920E-02 0. -1.
       -2   -1    0    0    0  501  0.00000000000E+00  0.00000000000E+00 -0.96668284725E+03  0.96668284725E+03  0.25500000920E-02 0.  1.
    10030    2    1    2    0    0  0.00000000000E+00  0.00000000000E+00  0.43433899611E+03  0.23677046906E+04  0.23275255398E+04 0.  0.
        5    1    3    3  502    0  0.93042756672E+02  0.11427153276E+04  0.14056975863E+02  0.11465927625E+04  0.46999998093E+01 0.  1.
       -5    1    3    3    0  502 -0.93042756672E+02 -0.11427153276E+04  0.42028202025E+03  0.12211119281E+04  0.46999998093E+01 0. -1.
</event>
<event>
 5   0  0.3006265E-05  0.2293478E+04  0.7818609E-02  0.8480497E-01
       -1   -1    0    0    0  501  0.00000000000E+00  0.00000000000E+00  0.14995883250E+04  0.14995883250E+04  0.50400001928E-02 0.  1.
        1   -1    0    0  501    0  0.00000000000E+00  0.00000000000E+00 -0.87691440293E+03  0.87691440295E+03  0.50400001928E-02 0. -1.
    10030    2    1    2    0    0  0.00000000000E+00  0.00000000000E+00  0.62267392205E+03  0.23765027279E+04  0.22934782324E+04 0.  0.
        2    1    3    3  502    0  0.72881164217E+03  0.26613792544E+03  0.11863065638E+04  0.14175045215E+04  0.25500000920E-02 0.  1.
       -2    1    3    3    0  502 -0.72881164217E+03 -0.26613792544E+03 -0.56363264175E+03  0.95899820645E+03  0.25500000920E-02 0. -1.
</event>
<event>
 5   0  0.2944089E-05  0.2374551E+04  0.7818609E-02  0.8449093E-01
       -1   -1    0    0    0  501  0.00000000000E+00  0.00000000000E+00  0.84118438387E+03  0.84118438388E+03  0.50400001928E-02 0.  1.
        1   -1    0    0  501    0  0.00000000000E+00  0.00000000000E+00 -0.16757603133E+04  0.16757603133E+04  0.50400001928E-02 0. -1.
    10030    2    1    2    0    0  0.00000000000E+00  0.00000000000E+00 -0.83457592944E+03  0.25169446972E+04  0.23745512474E+04 0.  0.
        5    1    3    3  502    0 -0.37797946573E+03  0.10068456608E+03  0.77091291387E+03  0.86448520469E+03  0.46999998093E+01 0.  1.
       -5    1    3    3    0  502  0.37797946573E+03 -0.10068456608E+03 -0.16054888433E+04  0.16524594925E+04  0.46999998093E+01 0. -1.
</event>
<event>
 5   0  0.2944089E-05  0.2301882E+04  0.7818609E-02  0.8477179E-01
        1   -1    0    0  501    0  0.00000000000E+00  0.00000000000E+00  0.16313945093E+04  0.16313945093E+04  0.50400001928E-02 0. -1.
       -1   -1    0    0    0  501  0.00000000000E+00  0.00000000000E+00 -0.81198351779E+03  0.81198351781E+03  0.50400001928E-02 0.  1.
    10030    2    1    2    0    0  0.00000000000E+00  0.00000000000E+00  0.81941099149E+03  0.24433780271E+04  0.23018822321E+04 0.  0.
        5    1    3    3  502    0 -0.28322349950E+03 -0.30422971077E+03  0.15489309813E+04  0.16037395494E+04  0.46999998093E+01 0. -1.
       -5    1    3    3    0  502  0.28322349950E+03  0.30422971077E+03 -0.72951998983E+03  0.83963847764E+03  0.46999998093E+01 0.  1.
</event>
<event>
 5   0  0.6676612E-05  0.2295530E+04  0.7818609E-02  0.8479685E-01
        2   -1    0    0  501    0  0.00000000000E+00  0.00000000000E+00  0.23727295315E+04  0.23727295315E+04  0.25500000920E-02 0. -1.
       -2   -1    0    0    0  501  0.00000000000E+00  0.00000000000E+00 -0.55521075023E+03  0.55521075024E+03  0.25500000920E-02 0.  1.
    10030    2    1    2    0    0  0.00000000000E+00  0.00000000000E+00  0.18175187813E+04  0.29279402818E+04  0.22955303904E+04 0.  0.
        2    1    3    3  502    0  0.55721453742E+03 -0.93171439747E+03  0.13839312587E+04  0.17589330539E+04  0.25500000920E-02 0. -1.
       -2    1    3    3    0  502 -0.55721453742E+03  0.93171439747E+03  0.43358752261E+03  0.11690072279E+04  0.25500000920E-02 0.  1.
</event>
<event>
 5   0  0.6676612E-05  0.2292961E+04  0.7818609E-02  0.8480702E-01
       -2   -1    0    0    0  501  0.00000000000E+00  0.00000000000E+00  0.70891838748E+03  0.70891838748E+03  0.25500000920E-02 0. -1.
        2   -1    0    0  501    0  0.00000000000E+00  0.00000000000E+00 -0.18541166917E+04  0.18541166917E+04  0.25500000920E-02 0.  1.
    10030    2    1    2    0    0  0.00000000000E+00  0.00000000000E+00 -0.11451983042E+04  0.25630350792E+04  0.22929608939E+04 0.  0.
        2    1    3    3  502    0 -0.10639525444E+04  0.38739058052E+03 -0.77364788126E+03  0.13713487969E+04  0.25500000920E-02 0. -1.
       -2    1    3    3    0  502  0.10639525444E+04 -0.38739058052E+03 -0.37155042295E+03  0.11916862823E+04  0.25500000920E-02 0.  1.
</event>
<event>
 5   0  0.6468758E-05  0.2260792E+04  0.7818609E-02  0.8493543E-01
        2   -1    0    0  501    0  0.00000000000E+00  0.00000000000E+00  0.77224710749E+03  0.77224710749E+03  0.25500000920E-02 0. -1.
       -2   -1    0    0    0  501  0.00000000000E+00  0.00000000000E+00 -0.16546458196E+04  0.16546458196E+04  0.25500000920E-02 0.  1.
    10030    2    1    2    0    0  0.00000000000E+00  0.00000000000E+00 -0.88239871216E+03  0.24268929271E+04  0.22607922931E+04 0.  0.
        3    1    3    3  502    0  0.10416464096E+04 -0.10795510716E+03  0.15642441044E+02  0.10473424674E+04  0.10100000352E+00 0. -1.
       -3    1    3    3    0  502 -0.10416464096E+04  0.10795510716E+03 -0.89804115320E+03  0.13795504597E+04  0.10100000352E+00 0.  1.
</event>
<event>
 5   0  0.6702421E-05  0.2313970E+04  0.7818609E-02  0.8472433E-01
        2   -1    0    0  501    0  0.00000000000E+00  0.00000000000E+00  0.27148472414E+04  0.27148472414E+04  0.25500000920E-02 0.  1.
       -2   -1    0    0    0  501  0.00000000000E+00  0.00000000000E+00 -0.49307165013E+03  0.49307165013E+03  0.25500000920E-02 0. -1.
    10030    2    1    2    0    0  0.00000000000E+00  0.00000000000E+00  0.22217755913E+04  0.32079188916E+04  0.23139699300E+04 0.  0.
        4    1    3    3  502    0 -0.50889453363E+02  0.62272824804E+03 -0.23907892026E+03  0.66898471610E+03  0.12699999809E+01 0. -1.
       -4    1    3    3    0  502  0.50889453363E+02 -0.62272824804E+03  0.24608545116E+04  0.25389341755E+04  0.12699999809E+01 0.  1.
</event>
<event>
 5   0  0.2962279E-05  0.2291015E+04  0.7818609E-02  0.8481472E-01
        1   -1    0    0  501    0  0.00000000000E+00  0.00000000000E+00  0.22150036242E+04  0.22150036242E+04  0.50400001928E-02 0. -1.
       -1   -1    0    0    0  501  0.00000000000E+00  0.00000000000E+00 -0.59240889608E+03  0.59240889610E+03  0.50400001928E-02 0.  1.
    10030    2    1    2    0    0  0.00000000000E+00  0.00000000000E+00  0.16225947281E+04  0.28074125203E+04  0.22910153661E+04 0.  0.
        1    1    3    3  502    0 -0.27271472402E+03  0.81137590839E+03  0.17441194713E+04  0.19428476306E+04  0.50400001928E-02 0. -1.
       -1    1    3    3    0  502  0.27271472402E+03 -0.81137590839E+03 -0.12152474314E+03  0.86456488978E+03  0.50400001928E-02 0.  1.
</event>
<event>
 5   0  0.6702421E-05  0.2358738E+04  0.7818609E-02  0.8455115E-01
        2   -1    0    0  501    0  0.00000000000E+00  0.00000000000E+00  0.11516240143E+04  0.11516240143E+04  0.25500000920E-02 0. -1.
       -2   -1    0    0    0  501  0.00000000000E+00  0.00000000000E+00 -0.12077827947E+04  0.12077827947E+04  0.25500000920E-02 0.  1.
    10030    2    1    2    0    0  0.00000000000E+00  0.00000000000E+00 -0.56158780385E+02  0.23594068089E+04  0.23587383665E+04 0.  0.
        4    1    3    3  502    0 -0.52959088370E+03  0.47678286050E+03  0.91193245207E+03  0.11573291711E+04  0.12699999809E+01 0. -1.
       -4    1    3    3    0  502  0.52959088370E+03 -0.47678286050E+03 -0.96809123246E+03  0.12020776379E+04  0.12699999809E+01 0.  1.
</event>
<event>
 5   0  0.2982385E-05  0.2302633E+04  0.7818609E-02  0.8476884E-01
       -1   -1    0    0    0  501  0.00000000000E+00  0.00000000000E+00  0.58067089856E+03  0.58067089858E+03  0.50400001928E-02 0. -1.
        1   -1    0    0  501    0  0.00000000000E+00  0.00000000000E+00 -0.22827550160E+04  0.22827550160E+04  0.50400001928E-02 0.  1.
    10030    2    1    2    0    0  0.00000000000E+00  0.00000000000E+00 -0.17020841174E+04  0.28634259145E+04  0.23026327595E+04 0.  0.
        4    1    3    3  502    0 -0.10028591439E+04 -0.56226545721E+03 -0.92626247754E+03  0.14764256490E+04  0.12699999809E+01 0. -1.
       -4    1    3    3    0  502  0.10028591439E+04  0.56226545721E+03 -0.77582163987E+03  0.13870002655E+04  0.12699999809E+01 0.  1.
</event>
<event>
 5   0  0.6814789E-05  0.2267404E+04  0.7818609E-02  0.8490885E-01
        2   -1    0    0  501    0  0.00000000000E+00  0.00000000000E+00  0.10643103861E+04  0.10643103861E+04  0.25500000920E-02 0.  1.
       -2   -1    0    0    0  501  0.00000000000E+00  0.00000000000E+00 -0.12076175882E+04  0.12076175882E+04  0.25500000920E-02 0. -1.
    10030    2    1    2    0    0  0.00000000000E+00  0.00000000000E+00 -0.14330720209E+03  0.22719279744E+04  0.22674037502E+04 0.  0.
        1    1    3    3  502    0 -0.10941089797E+04 -0.57679374876E+02  0.22026699042E+03  0.11175504091E+04  0.50400001928E-02 0. -1.
       -1    1    3    3    0  502  0.10941089797E+04  0.57679374876E+02 -0.36357419250E+03  0.11543775653E+04  0.50400001928E-02 0.  1.
</event>
<event>
 5   0  0.3118614E-05  0.2420169E+04  0.7818609E-02  0.8431991E-01
       -1   -1    0    0    0  501  0.00000000000E+00  0.00000000000E+00  0.10062628390E+04  0.10062628390E+04  0.50400001928E-02 0. -1.
        1   -1    0    0  501    0  0.00000000000E+00  0.00000000000E+00 -0.14551904084E+04  0.14551904084E+04  0.50400001928E-02 0.  1.
    10030    2    1    2    0    0  0.00000000000E+00  0.00000000000E+00 -0.44892756944E+03  0.24614532474E+04  0.24201686153E+04 0.  0.
        3    1    3    3  502    0 -0.85778684490E+03  0.85270163841E+03 -0.26259556052E+03  0.12376812166E+04  0.10100000352E+00 0.  1.
       -3    1    3    3    0  502  0.85778684490E+03 -0.85270163841E+03 -0.18633200892E+03  0.12237720307E+04  0.10100000352E+00 0. -1.
</event>
<event>
 5   0  0.6468758E-05  0.2341109E+04  0.7818609E-02  0.8461886E-01
       -2   -1    0    0    0  501  0.00000000000E+00  0.00000000000E+00  0.69347536515E+03  0.69347536516E+03  0.25500000920E-02 0. -1.
        2   -1    0    0  501    0  0.00000000000E+00  0.00000000000E+00 -0.19758425496E+04  0.19758425496E+04  0.25500000920E-02 0.  1.
    10030    2    1    2    0    0  0.00000000000E+00  0.00000000000E+00 -0.12823671844E+04  0.26693179147E+04  0.23411092530E+04 0.  0.
        3    1    3    3  502    0  0.74528541430E+03  0.89074994481E+03 -0.80763745817E+03  0.14146250694E+04  0.10100000352E+00 0. -1.
       -3    1    3    3    0  502 -0.74528541430E+03 -0.89074994481E+03 -0.47472972627E+03  0.12546928453E+04  0.10100000352E+00 0.  1.
</event>
<event>
 5   0  0.2944089E-05  0.2186927E+04  0.7818609E-02  0.8523889E-01
        1   -1    0    0  501    0  0.00000000000E+00  0.00000000000E+00  0.11971944403E+04  0.11971944403E+04  0.50400001928E-02 0. -1.
       -1   -1    0    0    0  501  0.00000000000E+00  0.00000000000E+00 -0.99872029660E+03  0.99872029661E+03  0.50400001928E-02 0.  1.
    10030    2    1    2    0    0  0.00000000000E+00  0.00000000000E+00  0.19847414373E+03  0.21959147369E+04  0.21869269641E+04 0.  0.
        5    1    3    3  502    0  0.45996406783E+03 -0.95183574133E+03 -0.18134302791E+03  0.10725975974E+04  0.46999998093E+01 0. -1.
       -5    1    3    3    0  502 -0.45996406783E+03  0.95183574133E+03  0.37981717164E+03  0.11233171396E+04  0.46999998093E+01 0.  1.
</event>
<event>
 5   0  0.6814789E-05  0.2243944E+04  0.7818609E-02  0.8500357E-01
        2   -1    0    0  501    0  0.00000000000E+00  0.00000000000E+00  0.13693856189E+04  0.13693856189E+04  0.25500000920E-02 0. -1.
       -2   -1    0    0    0  501  0.00000000000E+00  0.00000000000E+00 -0.91925991962E+03  0.91925991962E+03  0.25500000920E-02 0.  1.
    10030    2    1    2    0    0  0.00000000000E+00  0.00000000000E+00  0.45012569927E+03  0.22886455385E+04  0.22439441294E+04 0.  0.
        1    1    3    3  502    0 -0.14592463894E+03 -0.10398790287E+04 -0.17800457676E+03  0.10650483670E+04  0.50400001928E-02 0.  1.
       -1    1    3    3    0  502  0.14592463894E+03  0.10398790287E+04  0.62813027603E+03  0.12235971716E+04  0.50400001928E-02 0. -1.
</event>
<event>
 5   0  0.6468758E-05  0.2472441E+04  0.7818609E-02  0.8412870E-01
       -2   -1    0    0    0  501  0.00000000000E+00  0.00000000000E+00  0.89602075466E+03  0.89602075467E+03  0.25500000920E-02 0. -1.
        2   -1    0    0  501    0  0.00000000000E+00  0.00000000000E+00 -0.17055864446E+04  0.17055864446E+04  0.25500000920E-02 0.  1.
    10030    2    1    2    0    0  0.00000000000E+00  0.00000000000E+00 -0.80956568991E+03  0.26016071992E+04  0.24724407805E+04 0.  0.
        3    1    3    3  502    0 -0.11893287005E+04  0.21534197013E+03 -0.13167388161E+03  0.12158178084E+04  0.10100000352E+00 0. -1.
       -3    1    3    3    0  502  0.11893287005E+04 -0.21534197013E+03 -0.67789180829E+03  0.13857893909E+04  0.10100000352E+00 0.  1.
</event>
<event>
 5   0  0.2342500E-05  0.2354782E+04  0.7818609E-02  0.8456629E-01
       -3   -1    0    0    0  501  0.00000000000E+00  0.00000000000E+00  0.22584822826E+04  0.22584822848E+04  0.10100000352E+00 0. -1.
        3   -1    0    0  501    0  0.00000000000E+00  0.00000000000E+00 -0.61379700919E+03  0.61379701750E+03  0.10100000352E+00 0.  1.
    10030    2    1    2    0    0  0.00000000000E+00  0.00000000000E+00  0.16446852734E+04  0.28722793023E+04  0.23547821008E+04 0.  0.
        2    1    3    3  502    0  0.47953910302E+03 -0.58295924487E+03  0.19244930298E+04  0.20672379288E+04  0.25500000920E-02 0.  1.
       -2    1    3    3    0  502 -0.47953910302E+03  0.58295924487E+03 -0.27980775644E+03  0.80504137352E+03  0.25500000920E-02 0. -1.
</event>
<event>
 5   0  0.2982385E-05  0.2304809E+04  0.7818609E-02  0.8476028E-01
        1   -1    0    0  501    0  0.00000000000E+00  0.00000000000E+00  0.18256442466E+04  0.18256442466E+04  0.50400001928E-02 0. -1.
       -1   -1    0    0    0  501  0.00000000000E+00  0.00000000000E+00 -0.72743396167E+03  0.72743396169E+03  0.50400001928E-02 0.  1.
    10030    2    1    2    0    0  0.00000000000E+00  0.00000000000E+00  0.10982102849E+04  0.25530782083E+04  0.23048085621E+04 0.  0.
        4    1    3    3  502    0  0.11353506708E+04 -0.12315147297E+03  0.37804755654E+03  0.12029584361E+04  0.12699999809E+01 0. -1.
       -4    1    3    3    0  502 -0.11353506708E+04  0.12315147297E+03  0.72016272839E+03  0.13501197722E+04  0.12699999809E+01 0.  1.
</event>
<event>
 5   0  0.3006265E-05  0.2277819E+04  0.7818609E-02  0.8486718E-01
        1   -1    0    0  501    0  0.00000000000E+00  0.00000000000E+00  0.28678986457E+04  0.28678986457E+04  0.50400001928E-02 0. -1.
       -1   -1    0    0    0  501  0.00000000000E+00  0.00000000000E+00 -0.45228763183E+03  0.45228763186E+03  0.50400001928E-02 0.  1.
    10030    2    1    2    0    0  0.00000000000E+00  0.00000000000E+00  0.24156110139E+04  0.33201862776E+04  0.22778192087E+04 0.  0.
        2    1    3    3  502    0 -0.22815637807E+03 -0.82890237583E+03  0.22966171371E+04  0.24522611517E+04  0.25500000920E-02 0. -1.
       -2    1    3    3    0  502  0.22815637807E+03  0.82890237583E+03  0.11899387681E+03  0.86792512594E+03  0.25500000920E-02 0.  1.
</event>
<event>
 5   0  0.6702421E-05  0.2364064E+04  0.7818609E-02  0.8453081E-01
        2   -1    0    0  501    0  0.00000000000E+00  0.00000000000E+00  0.18878899775E+04  0.18878899775E+04  0.25500000920E-02 0.  1.
       -2   -1    0    0    0  501  0.00000000000E+00  0.00000000000E+00 -0.74008521081E+03  0.74008521082E+03  0.25500000920E-02 0. -1.
    10030    2    1    2    0    0  0.00000000000E+00  0.00000000000E+00  0.11478047667E+04  0.26279751883E+04  0.23640638333E+04 0.  0.
        4    1    3    3  502    0 -0.85040880409E+03  0.55912095050E+03  0.12421662892E+04  0.16058611628E+04  0.12699999809E+01 0.  1.
       -4    1    3    3    0  502  0.85040880409E+03 -0.55912095050E+03 -0.94361522467E+02  0.10221140255E+04  0.12699999809E+01 0. -1.
</event>
<event>
 5   0  0.6814789E-05  0.1846070E+04  0.7818609E-02  0.8682176E-01
       -2   -1    0    0    0  501  0.00000000000E+00  0.00000000000E+00  0.11576468813E+04  0.11576468813E+04  0.25500000920E-02 0.  1.
        2   -1    0    0  501    0  0.00000000000E+00  0.00000000000E+00 -0.73597044829E+03  0.73597044829E+03  0.25500000920E-02 0. -1.
    10030    2    1    2    0    0  0.00000000000E+00  0.00000000000E+00  0.42167643304E+03  0.18936173296E+04  0.18460703066E+04 0.  0.
        1    1    3    3  502    0 -0.10675544279E+03  0.91148695639E+03  0.31232428926E+03  0.96940789037E+03  0.50400001928E-02 0. -1.
       -1    1    3    3    0  502  0.10675544279E+03 -0.91148695639E+03  0.10935214378E+03  0.92420943925E+03  0.50400001928E-02 0.  1.
</event>
<event>
 5   0  0.2962279E-05  0.2306807E+04  0.7818609E-02  0.8475242E-01
        1   -1    0    0  501    0  0.00000000000E+00  0.00000000000E+00  0.19117260653E+04  0.19117260653E+04  0.50400001928E-02 0.  1.
       -1   -1    0    0    0  501  0.00000000000E+00  0.00000000000E+00 -0.69588381040E+03  0.69588381042E+03  0.50400001928E-02 0. -1.
    10030    2    1    2    0    0  0.00000000000E+00  0.00000000000E+00  0.12158422549E+04  0.26076098758E+04  0.23068066402E+04 0.  0.
        1    1    3    3  502    0  0.33212579478E+03  0.94446443452E+03 -0.39490752446E+02  0.10019381873E+04  0.50400001928E-02 0. -1.
       -1    1    3    3    0  502 -0.33212579478E+03 -0.94446443452E+03  0.12553330074E+04  0.16056716884E+04  0.50400001928E-02 0.  1.
</event>
<event>
 5   0  0.6495405E-05  0.2246943E+04  0.7818609E-02  0.8499139E-01
       -2   -1    0    0    0  501  0.00000000000E+00  0.00000000000E+00  0.60562854481E+03  0.60562854481E+03  0.25500000920E-02 0. -1.
        2   -1    0    0  501    0  0.00000000000E+00  0.00000000000E+00 -0.20840965162E+04  0.20840965162E+04  0.25500000920E-02 0.  1.
    10030    2    1    2    0    0  0.00000000000E+00  0.00000000000E+00 -0.14784679714E+04  0.26897250610E+04  0.22469431149E+04 0.  0.
        5    1    3    3  502    0  0.49193808311E+03 -0.10087053442E+04 -0.80116608115E+03  0.13789049019E+04  0.46999998093E+01 0. -1.
       -5    1    3    3    0  502 -0.49193808311E+03  0.10087053442E+04 -0.67730189028E+03  0.13108201591E+04  0.46999998093E+01 0.  1.
</event>
<event>
 5   0  0.2982385E-05  0.2282533E+04  0.7818609E-02  0.8484840E-01
        1   -1    0    0  501    0  0.00000000000E+00  0.00000000000E+00  0.17024254160E+04  0.17024254160E+04  0.50400001928E-02 0. -1.
       -1   -1    0    0    0  501  0.00000000000E+00  0.00000000000E+00 -0.76507890540E+03  0.76507890542E+03  0.50400001928E-02 0.  1.
    10030    2    1    2    0    0  0.00000000000E+00  0.00000000000E+00  0.93734651063E+03  0.24675043215E+04  0.22825334818E+04 0.  0.
        4    1    3    3  502    0  0.10067932877E+04  0.35906205045E+03  0.36353011887E+02  0.10695239289E+04  0.12699999809E+01 0. -1.
       -4    1    3    3    0  502 -0.10067932877E+04 -0.35906205045E+03  0.90099349874E+03  0.13979803925E+04  0.12699999809E+01 0.  1.
</event>
<event>
 5   0  0.3118614E-05  0.2274324E+04  0.7818609E-02  0.8488114E-01
       -1   -1    0    0    0  501  0.00000000000E+00  0.00000000000E+00  0.78238136015E+03  0.78238136016E+03  0.50400001928E-02 0.  1.
        1   -1    0    0  501    0  0.00000000000E+00  0.00000000000E+00 -0.16528223361E+04  0.16528223361E+04  0.50400001928E-02 0. -1.
    10030    2    1    2    0    0  0.00000000000E+00  0.00000000000E+00 -0.87044097592E+03  0.24352036962E+04  0.22743239764E+04 0.  0.
        3    1    3    3  502    0  0.50248653854E+03  0.10142187159E+04 -0.31790239659E+03  0.11756675844E+04  0.10100000352E+00 0. -1.
       -3    1    3    3    0  502 -0.50248653854E+03 -0.10142187159E+04 -0.55253857933E+03  0.12595361118E+04  0.10100000352E+00 0.  1.
</event>
<event>
 5   0  0.3006265E-05  0.2313993E+04  0.7818609E-02  0.8472424E-01
       -1   -1    0    0    0  501  0.00000000000E+00  0.00000000000E+00  0.17924713561E+04  0.17924713561E+04  0.50400001928E-02 0. -1.
        1   -1    0    0  501    0  0.00000000000E+00  0.00000000000E+00 -0.74681311897E+03  0.74681311899E+03  0.50400001928E-02 0.  1.
    10030    2    1    2    0    0  0.00000000000E+00  0.00000000000E+00  0.10456582372E+04  0.25392844751E+04  0.23139931929E+04 0.  0.
        2    1    3    3  502    0 -0.97736440718E+02 -0.94599663452E+03  0.12459047531E+04  0.15673993422E+04  0.25500000920E-02 0. -1.
       -2    1    3    3    0  502  0.97736440718E+02  0.94599663452E+03 -0.20024651591E+03  0.97188513287E+03  0.25500000920E-02 0.  1.
</event>
<event>
 5   0  0.6702421E-05  0.2288479E+04  0.7818609E-02  0.8482478E-01
       -2   -1    0    0    0  501  0.00000000000E+00  0.00000000000E+00  0.53124891800E+03  0.53124891801E+03  0.25500000920E-02 0. -1.
        2   -1    0    0  501    0  0.00000000000E+00  0.00000000000E+00 -0.24645387817E+04  0.24645387817E+04  0.25500000920E-02 0.  1.
    10030    2    1    2    0    0  0.00000000000E+00  0.00000000000E+00 -0.19332898637E+04  0.29957876997E+04  0.22884785873E+04 0.  0.
        4    1    3    3  502    0  0.69487572733E+03 -0.87788098683E+03 -0.12757489900E+04  0.16973698483E+04  0.12699999809E+01 0. -1.
       -4    1    3    3    0  502 -0.69487572733E+03  0.87788098683E+03 -0.65754087376E+03  0.12984178515E+04  0.12699999809E+01 0.  1.
</event>
<event>
 5   0  0.2962279E-05  0.2275659E+04  0.7818609E-02  0.8487581E-01
        1   -1    0    0  501    0  0.00000000000E+00  0.00000000000E+00  0.93011491671E+03  0.93011491672E+03  0.50400001928E-02 0. -1.
       -1   -1    0    0    0  501  0.00000000000E+00  0.00000000000E+00 -0.13919306805E+04  0.13919306805E+04  0.50400001928E-02 0.  1.
    10030    2    1    2    0    0  0.00000000000E+00  0.00000000000E+00 -0.46181576383E+03  0.23220455973E+04  0.22756585763E+04 0.  0.
        1    1    3    3  502    0  0.26965976081E+03  0.35377855796E+03 -0.12995280536E+04  0.13735533542E+04  0.50400001928E-02 0.  1.
       -1    1    3    3    0  502 -0.26965976081E+03 -0.35377855796E+03  0.83771228979E+03  0.94849224307E+03  0.50400001928E-02 0. -1.
</event>
<event>
 5   0  0.3118614E-05  0.2305560E+04  0.7818609E-02  0.8475732E-01
       -1   -1    0    0    0  501  0.00000000000E+00  0.00000000000E+00  0.71892400206E+03  0.71892400208E+03  0.50400001928E-02 0. -1.
        1   -1    0    0  501    0  0.00000000000E+00  0.00000000000E+00 -0.18484598011E+04  0.18484598011E+04  0.50400001928E-02 0.  1.
    10030    2    1    2    0    0  0.00000000000E+00  0.00000000000E+00 -0.11295357990E+04  0.25673838031E+04  0.23055603378E+04 0.  0.
        3    1    3    3  502    0  0.99287351427E+03 -0.24889406735E+03  0.25688739435E+02  0.10239169857E+04  0.10100000352E+00 0. -1.
       -3    1    3    3    0  502 -0.99287351427E+03  0.24889406735E+03 -0.11552245384E+04  0.15434668174E+04  0.10100000352E+00 0.  1.
</event>
<event>
 5   0  0.6676612E-05  0.2288835E+04  0.7818609E-02  0.8482336E-01
        2   -1    0    0  501    0  0.00000000000E+00  0.00000000000E+00  0.99181953083E+03  0.99181953083E+03  0.25500000920E-02 0. -1.
       -2   -1    0    0    0  501  0.00000000000E+00  0.00000000000E+00 -0.13204939784E+04  0.13204939784E+04  0.25500000920E-02 0.  1.
    10030    2    1    2    0    0  0.00000000000E+00  0.00000000000E+00 -0.32867444758E+03  0.23123135092E+04  0.22888352655E+04 0.  0.
        2    1    3    3  502    0 -0.67205281543E+03  0.71010148847E+03  0.43656879941E+03  0.10707433994E+04  0.25500000920E-02 0.  1.
       -2    1    3    3    0  502  0.67205281543E+03 -0.71010148847E+03 -0.76524324699E+03  0.12415701099E+04  0.25500000920E-02 0. -1.
</event>
<event>
 5   0  0.6702421E-05  0.2286042E+04  0.7818609E-02  0.8483445E-01
       -2   -1    0    0    0  501  0.00000000000E+00  0.00000000000E+00  0.10484524044E+04  0.10484524044E+04  0.25500000920E-02 0.  1.
        2   -1    0    0  501    0  0.00000000000E+00  0.00000000000E+00 -0.12461199778E+04  0.12461199778E+04  0.25500000920E-02 0. -1.
    10030    2    1    2    0    0  0.00000000000E+00  0.00000000000E+00 -0.19766757340E+03  0.22945723822E+04  0.22860424203E+04 0.  0.
        4    1    3    3  502    0 -0.50652932547E+03 -0.52140965743E+03 -0.98419985411E+03  0.12235566820E+04  0.12699999809E+01 0. -1.
       -4    1    3    3    0  502  0.50652932547E+03  0.52140965743E+03  0.78653228071E+03  0.10710157001E+04  0.12699999809E+01 0.  1.
</event>
<event>
 5   0  0.2944089E-05  0.2253366E+04  0.7818609E-02  0.8496539E-01
       -1   -1    0    0    0  501  0.00000000000E+00  0.00000000000E+00  0.93889723898E+03  0.93889723899E+03  0.50400001928E-02 0.  1.
        1   -1    0    0  501    0  0.00000000000E+00  0.00000000000E+00 -0.13520266896E+04  0.13520266896E+04  0.50400001928E-02 0. -1.
    10030    2    1    2    0    0  0.00000000000E+00  0.00000000000E+00 -0.41312945063E+03  0.22909239286E+04  0.22533655948E+04 0.  0.
        5    1    3    3  502    0 -0.75282974160E+03 -0.12657981250E+03  0.63587002856E+03  0.99354308009E+03  0.46999998093E+01 0.  1.
       -5    1    3    3    0  502  0.75282974160E+03  0.12657981250E+03 -0.10489994792E+04  0.12973808485E+04  0.46999998093E+01 0. -1.
</event>
<event>
 5   0  0.6702421E-05  0.2307244E+04  0.7818609E-02  0.8475070E-01
        2   -1    0    0  501    0  0.00000000000E+00  0.00000000000E+00  0.11363253311E+04  0.11363253312E+04  0.25500000920E-02 0. -1.
       -2   -1    0    0    0  501  0.00000000000E+00  0.00000000000E+00 -0.11711824279E+04  0.11711824279E+04  0.25500000920E-02 0.  1.
    10030    2    1    2    0    0  0.00000000000E+00  0.00000000000E+00 -0.34857096791E+02  0.23075077591E+04  0.23072444693E+04 0.  0.
        4    1    3    3  502    0  0.75657801003E+03  0.79572516818E+03  0.33652400066E+03  0.11484070900E+04  0.12699999809E+01 0. -1.
       -4    1    3    3    0  502 -0.75657801003E+03 -0.79572516818E+03 -0.37138109745E+03  0.11591006690E+04  0.12699999809E+01 0.  1.
</event>
<event>
 5   0  0.3006265E-05  0.2338318E+04  0.7818609E-02  0.8462964E-01
       -1   -1    0    0    0  501  0.00000000000E+00  0.00000000000E+00  0.99356904041E+03  0.99356904043E+03  0.50400001928E-02 0.  1.
        1   -1    0    0  501    0  0.00000000000E+00  0.00000000000E+00 -0.13757808708E+04  0.13757808708E+04  0.50400001928E-02 0. -1.
    10030    2    1    2    0    0  0.00000000000E+00  0.00000000000E+00 -0.38221183037E+03  0.23693499112E+04  0.23383184382E+04 0.  0.
        2    1    3    3  502    0  0.36245507316E+03  0.26511987698E+03 -0.12849087068E+04  0.13611218219E+04  0.25500000920E-02 0. -1.
       -2    1    3    3    0  502 -0.36245507316E+03 -0.26511987698E+03  0.90269687647E+03  0.10082280893E+04  0.25500000920E-02 0.  1.
</event>
<event>
 5   0  0.6495405E-05  0.2233461E+04  0.7818609E-02  0.8504629E-01
       -2   -1    0    0    0  501  0.00000000000E+00  0.00000000000E+00  0.80443287643E+03  0.80443287644E+03  0.25500000920E-02 0.  1.
        2   -1    0    0  501    0  0.00000000000E+00  0.00000000000E+00 -0.15502686845E+04  0.15502686845E+04  0.25500000920E-02 0. -1.
    10030    2    1    2    0    0  0.00000000000E+00  0.00000000000E+00 -0.74583580802E+03  0.23547015609E+04  0.22334610783E+04 0.  0.
        5    1    3    3  502    0  0.85635277290E+03 -0.15574541054E+03 -0.11105159701E+04  0.14109799837E+04  0.46999998093E+01 0.  1.
       -5    1    3    3    0  502 -0.85635277290E+03  0.15574541054E+03  0.36468016212E+03  0.94372157716E+03  0.46999998093E+01 0. -1.
</event>
<event>
 5   0  0.2982385E-05  0.2275945E+04  0.7818609E-02  0.8487466E-01
        1   -1    0    0  501    0  0.00000000000E+00  0.00000000000E+00  0.75401835263E+03  0.75401835265E+03  0.50400001928E-02 0.  1.
       -1   -1    0    0    0  501  0.00000000000E+00  0.00000000000E+00 -0.17174404368E+04  0.17174404368E+04  0.50400001928E-02 0. -1.
    10030    2    1    2    0    0  0.00000000000E+00  0.00000000000E+00 -0.96342208416E+03  0.24714587895E+04  0.22759451741E+04 0.  0.
        4    1    3    3  502    0  0.26645537182E+03 -0.69232497179E+03  0.45536066423E+03  0.87044085334E+03  0.12699999809E+01 0.  1.
       -4    1    3    3    0  502 -0.26645537182E+03  0.69232497179E+03 -0.14187827484E+04  0.16010179361E+04  0.12699999809E+01 0. -1.
</event>
<event>
 5   0  0.6468758E-05  0.2305784E+04  0.7818609E-02  0.8475644E-01
       -2   -1    0    0    0  501  0.00000000000E+00  0.00000000000E+00  0.88277514861E+03  0.88277514861E+03  0.25500000920E-02 0. -1.
        2   -1    0    0  501    0  0.00000000000E+00  0.00000000000E+00 -0.15056605646E+04  0.15056605646E+04  0.25500000920E-02 0.  1.
    10030    2    1    2    0    0  0.00000000000E+00  0.00000000000E+00 -0.62288541595E+03  0.23884357132E+04  0.23057837961E+04 0.  0.
        3    1    3    3  502    0 -0.10376502764E+04 -0.49498970116E+03 -0.22217459319E+03  0.11709374281E+04  0.10100000352E+00 0. -1.
       -3    1    3    3    0  502  0.10376502764E+04  0.49498970116E+03 -0.40071082275E+03  0.12174982851E+04  0.10100000352E+00 0.  1.
</event>
<event>
 5   0  0.2342500E-05  0.2303180E+04  0.7818609E-02  0.8476668E-01
        4   -1    0    0  501    0  0.00000000000E+00  0.00000000000E+00  0.11196132378E+04  0.11196139580E+04  0.12699999809E+01 0.  1.
       -4   -1    0    0    0  501  0.00000000000E+00  0.00000000000E+00 -0.11844783471E+04  0.11844790279E+04  0.12699999809E+01 0. -1.
    10030    2    1    2    0    0  0.00000000000E+00  0.00000000000E+00 -0.64865109319E+02  0.23040929860E+04  0.23031797597E+04 0.  0.
        2    1    3    3  502    0 -0.22549059896E+03  0.75543594021E+03 -0.87218768152E+03  0.11756873827E+04  0.25500000920E-02 0. -1.
       -2    1    3    3    0  502  0.22549059896E+03 -0.75543594021E+03  0.80732257220E+03  0.11284056033E+04  0.25500000920E-02 0.  1.
</event>
<event>
 5   0  0.6676612E-05  0.2309294E+04  0.7818609E-02  0.8474265E-01
        2   -1    0    0  501    0  0.00000000000E+00  0.00000000000E+00  0.12312595651E+04  0.12312595651E+04  0.25500000920E-02 0.  1.
       -2   -1    0    0    0  501  0.00000000000E+00  0.00000000000E+00 -0.10828019587E+04  0.10828019587E+04  0.25500000920E-02 0. -1.
    10030    2    1    2    0    0  0.00000000000E+00  0.00000000000E+00  0.14845760641E+03  0.23140615238E+04  0.23092944973E+04 0.  0.
        2    1    3    3  502    0 -0.12295637885E+03 -0.25136923350E+03 -0.10483093040E+04  0.10850148199E+04  0.25500000920E-02 0. -1.
       -2    1    3    3    0  502  0.12295637885E+03  0.25136923350E+03  0.11967669104E+04  0.12290467039E+04  0.25500000920E-02 0.  1.
</event>
<event>
 5   0  0.2342500E-05  0.2285194E+04  0.7818609E-02  0.8483782E-01
        3   -1    0    0  501    0  0.00000000000E+00  0.00000000000E+00  0.10630129477E+04  0.10630129525E+04  0.10100000352E+00 0.  1.
       -3   -1    0    0    0  501  0.00000000000E+00  0.00000000000E+00 -0.12281396842E+04  0.12281396883E+04  0.10100000352E+00 0. -1.
    10030    2    1    2    0    0  0.00000000000E+00  0.00000000000E+00 -0.16512673644E+03  0.22911526408E+04  0.22851944304E+04 0.  0.
        1    1    3    3  502    0  0.21285714606E+03 -0.42384333766E+03 -0.11247817721E+04  0.12206905318E+04  0.50400001928E-02 0. -1.
       -1    1    3    3    0  502 -0.21285714606E+03  0.42384333766E+03  0.95965503564E+03  0.10704621091E+04  0.50400001928E-02 0.  1.
</event>
<event>
 5   0  0.6702421E-05  0.2364494E+04  0.7818609E-02  0.8452917E-01
       -2   -1    0    0    0  501  0.00000000000E+00  0.00000000000E+00  0.98022045767E+03  0.98022045767E+03  0.25500000920E-02 0.  1.
        2   -1    0    0  501    0  0.00000000000E+00  0.00000000000E+00 -0.14259116449E+04  0.14259116449E+04  0.25500000920E-02 0. -1.
    10030    2    1    2    0    0  0.00000000000E+00  0.00000000000E+00 -0.44569118727E+03  0.24061321026E+04  0.23644938276E+04 0.  0.
        4    1    3    3  502    0  0.82813171502E+03  0.44504830731E+03 -0.95229227871E+03  0.13381824727E+04  0.12699999809E+01 0. -1.
       -4    1    3    3    0  502 -0.82813171502E+03 -0.44504830731E+03  0.50660109144E+03  0.10679496299E+04  0.12699999809E+01 0.  1.
</event>
<event>
 5   0  0.6495405E-05  0.2305361E+04  0.7818609E-02  0.8475810E-01
       -2   -1    0    0    0  501  0.00000000000E+00  0.00000000000E+00  0.14965011426E+04  0.14965011426E+04  0.25500000920E-02 0. -1.
        2   -1    0    0  501    0  0.00000000000E+00  0.00000000000E+00 -0.88785286865E+03  0.88785286865E+03  0.25500000920E-02 0.  1.
    10030    2    1    2    0    0  0.00000000000E+00  0.00000000000E+00  0.60864827397E+03  0.23843540113E+04  0.23053614315E+04 0.  0.
        5    1    3    3  502    0 -0.10154744493E+04 -0.27879139576E+03  0.78914806198E+03  0.13159368348E+04  0.46999998093E+01 0. -1.
       -5    1    3    3    0  502  0.10154744493E+04  0.27879139576E+03 -0.18049978801E+03  0.10684171765E+04  0.46999998093E+01 0.  1.
</event>
<event>
 5   0  0.2982385E-05  0.2303174E+04  0.7818609E-02  0.8476671E-01
        1   -1    0    0  501    0  0.00000000000E+00  0.00000000000E+00  0.10511994724E+04  0.10511994724E+04  0.50400001928E-02 0. -1.
       -1   -1    0    0    0  501  0.00000000000E+00  0.00000000000E+00 -0.12615611123E+04  0.12615611123E+04  0.50400001928E-02 0.  1.
    10030    2    1    2    0    0  0.00000000000E+00  0.00000000000E+00 -0.21036163998E+03  0.23127605847E+04  0.23031737891E+04 0.  0.
        4    1    3    3  502    0 -0.99576441298E+02 -0.40660819319E+02  0.10461438412E+04  0.10516593171E+04  0.12699999809E+01 0. -1.
       -4    1    3    3    0  502  0.99576441298E+02  0.40660819319E+02 -0.12565054812E+04  0.12611012676E+04  0.12699999809E+01 0.  1.
</event>
<event>
 5   0  0.2342500E-05  0.2283514E+04  0.7818609E-02  0.8484450E-01
        4   -1    0    0  501    0  0.00000000000E+00  0.00000000000E+00  0.12875605824E+04  0.12875612088E+04  0.12699999809E+01 0.  1.
       -4   -1    0    0    0  501  0.00000000000E+00  0.00000000000E+00 -0.10124633641E+04  0.10124641607E+04  0.12699999809E+01 0. -1.
    10030    2    1    2    0    0  0.00000000000E+00  0.00000000000E+00  0.27509721829E+03  0.23000253694E+04  0.22835144450E+04 0.  0.
        5    1    3    3  502    0 -0.95976585283E+03 -0.56615272714E+03 -0.11306374100E+03  0.11200379021E+04  0.46999998093E+01 0. -1.
       -5    1    3    3    0  502  0.95976585283E+03  0.56615272714E+03  0.38816095929E+03  0.11799874673E+04  0.46999998093E+01 0.  1.
</event>
<event>
 5   0  0.6495405E-05  0.2531880E+04  0.7818609E-02  0.8391715E-01
        2   -1    0    0  501    0  0.00000000000E+00  0.00000000000E+00  0.14977959157E+04  0.14977959157E+04  0.25500000920E-02 0. -1.
       -2   -1    0    0    0  501  0.00000000000E+00  0.00000000000E+00 -0.10699750275E+04  0.10699750275E+04  0.25500000920E-02 0.  1.
    10030    2    1    2    0    0  0.00000000000E+00  0.00000000000E+00  0.42782088823E+03  0.25677709432E+04  0.25318801126E+04 0.  0.
        5    1    3    3  502    0 -0.12921406399E+03  0.11687157007E+04 -0.26176867975E+03  0.12046317259E+04  0.46999998093E+01 0.  1.
       -5    1    3    3    0  502  0.12921406399E+03 -0.11687157007E+04  0.68958956798E+03  0.13631392173E+04  0.46999998093E+01 0. -1.
</event>
<event>
 5   0  0.3118614E-05  0.2329204E+04  0.7818609E-02  0.8466495E-01
        1   -1    0    0  501    0  0.00000000000E+00  0.00000000000E+00  0.20014012491E+04  0.20014012491E+04  0.50400001928E-02 0. -1.
       -1   -1    0    0    0  501  0.00000000000E+00  0.00000000000E+00 -0.67767399794E+03  0.67767399795E+03  0.50400001928E-02 0.  1.
    10030    2    1    2    0    0  0.00000000000E+00  0.00000000000E+00  0.13237272511E+04  0.26790752470E+04  0.23292038004E+04 0.  0.
        3    1    3    3  502    0 -0.50955853492E+03 -0.10075137107E+04  0.33337060862E+03  0.11772296933E+04  0.10100000352E+00 0.  1.
       -3    1    3    3    0  502  0.50955853492E+03  0.10075137107E+04  0.99035664250E+03  0.15018455538E+04  0.10100000352E+00 0. -1.
</event>
<event>
 5   0  0.6814789E-05  0.2463506E+04  0.7818609E-02  0.8416103E-01
        2   -1    0    0  501    0  0.00000000000E+00  0.00000000000E+00  0.10171122405E+04  0.10171122405E+04  0.25500000920E-02 0. -1.
       -2   -1    0    0    0  501  0.00000000000E+00  0.00000000000E+00 -0.14916892794E+04  0.14916892794E+04  0.25500000920E-02 0.  1.
    10030    2    1    2    0    0  0.00000000000E+00  0.00000000000E+00 -0.47457703897E+03  0.25088015199E+04  0.24635059774E+04 0.  0.
        1    1    3    3  502    0 -0.62705777125E+03 -0.66420525365E+01  0.84237895056E+03  0.10501656354E+04  0.50400001928E-02 0. -1.
       -1    1    3    3    0  502  0.62705777125E+03  0.66420525365E+01 -0.13169559895E+04  0.14586358846E+04  0.50400001928E-02 0.  1.
</event>
<event>
 5   0  0.2962279E-05  0.2322209E+04  0.7818609E-02  0.8469215E-01
        1   -1    0    0  501    0  0.00000000000E+00  0.00000000000E+00  0.19134298839E+04  0.19134298839E+04  0.50400001928E-02 0.  1.
       -1   -1    0    0    0  501  0.00000000000E+00  0.00000000000E+00 -0.70457976429E+03  0.70457976431E+03  0.50400001928E-02 0. -1.
    10030    2    1    2    0    0  0.00000000000E+00  0.00000000000E+00  0.12088501196E+04  0.26180096482E+04  0.23222092728E+04 0.  0.
        1    1    3    3  502    0  0.15618531796E+03  0.87114117986E+03  0.14517484688E+04  0.17002512831E+04  0.50400001928E-02 0.  1.
       -1    1    3    3    0  502 -0.15618531796E+03 -0.87114117986E+03 -0.24289834918E+03  0.91775836518E+03  0.50400001928E-02 0. -1.
</event>
<event>
 5   0  0.6814789E-05  0.2292346E+04  0.7818609E-02  0.8480945E-01
        2   -1    0    0  501    0  0.00000000000E+00  0.00000000000E+00  0.14398244203E+04  0.14398244203E+04  0.25500000920E-02 0. -1.
       -2   -1    0    0    0  501  0.00000000000E+00  0.00000000000E+00 -0.91241162954E+03  0.91241162955E+03  0.25500000920E-02 0.  1.
    10030    2    1    2    0    0  0.00000000000E+00  0.00000000000E+00  0.52741279073E+03  0.23522360498E+04  0.22923459997E+04 0.  0.
        1    1    3    3  502    0 -0.15632649134E+03  0.10740889896E+04 -0.11416363854E+03  0.10913929017E+04  0.50400001928E-02 0.  1.
       -1    1    3    3    0  502  0.15632649134E+03 -0.10740889896E+04  0.64157642927E+03  0.12608431481E+04  0.50400001928E-02 0. -1.
</event>
<event>
 5   0  0.6814789E-05  0.2287787E+04  0.7818609E-02  0.8482752E-01
       -2   -1    0    0    0  501  0.00000000000E+00  0.00000000000E+00  0.15472156451E+04  0.15472156451E+04  0.25500000920E-02 0.  1.
        2   -1    0    0  501    0  0.00000000000E+00  0.00000000000E+00 -0.84570767948E+03  0.84570767949E+03  0.25500000920E-02 0. -1.
    10030    2    1    2    0    0  0.00000000000E+00  0.00000000000E+00  0.70150796565E+03  0.23929233246E+04  0.22877868370E+04 0.  0.
        1    1    3    3  502    0  0.84463777156E+02 -0.84198879352E+03 -0.45430087982E+03  0.96045226196E+03  0.50400001928E-02 0. -1.
       -1    1    3    3    0  502 -0.84463777156E+02  0.84198879352E+03  0.11558088455E+04  0.14324710627E+04  0.50400001928E-02 0.  1.
</event>
<event>
 5   0  0.6495405E-05  0.2298724E+04  0.7818609E-02  0.8478424E-01
       -2   -1    0    0    0  501  0.00000000000E+00  0.00000000000E+00  0.12731705773E+04  0.12731705773E+04  0.25500000920E-02 0. -1.
        2   -1    0    0  501    0  0.00000000000E+00  0.00000000000E+00 -0.10375933713E+04  0.10375933713E+04  0.25500000920E-02 0.  1.
    10030    2    1    2    0    0  0.00000000000E+00  0.00000000000E+00  0.23557720597E+03  0.23107639486E+04  0.22987242998E+04 0.  0.
        5    1    3    3  502    0 -0.33982061196E+03  0.16841593806E+03 -0.97286831258E+03  0.10441919460E+04  0.46999998093E+01 0.  1.
       -5    1    3    3    0  502  0.33982061196E+03 -0.16841593806E+03  0.12084455186E+04  0.12665720026E+04  0.46999998093E+01 0. -1.
</event>
<event>
 5   0  0.6468758E-05  0.2282338E+04  0.7818609E-02  0.8484918E-01
       -2   -1    0    0    0  501  0.00000000000E+00  0.00000000000E+00  0.13710734471E+04  0.13710734471E+04  0.25500000920E-02 0. -1.
        2   -1    0    0  501    0  0.00000000000E+00  0.00000000000E+00 -0.94981514588E+03  0.94981514589E+03  0.25500000920E-02 0.  1.
    10030    2    1    2    0    0  0.00000000000E+00  0.00000000000E+00  0.42125830119E+03  0.23208885930E+04  0.22823376842E+04 0.  0.
        3    1    3    3  502    0  0.25597217270E+03 -0.20980310466E+03  0.13211966463E+04  0.13620204419E+04  0.10100000352E+00 0. -1.
       -3    1    3    3    0  502 -0.25597217270E+03  0.20980310466E+03 -0.89993834508E+03  0.95886815103E+03  0.10100000352E+00 0.  1.
</event>
<event>
 5   0  0.3006265E-05  0.2204965E+04  0.7818609E-02  0.8516364E-01
        1   -1    0    0  501    0  0.00000000000E+00  0.00000000000E+00  0.11140865401E+04  0.11140865401E+04  0.50400001928E-02 0. -1.
       -1   -1    0    0    0  501  0.00000000000E+00  0.00000000000E+00 -0.10909994979E+04  0.10909994979E+04  0.50400001928E-02 0.  1.
    10030    2    1    2    0    0  0.00000000000E+00  0.00000000000E+00  0.23087042160E+02  0.22050860380E+04  0.22049651752E+04 0.  0.
        2    1    3    3  502    0  0.27964902202E+03  0.49739079874E+03  0.95492267637E+03  0.11124201095E+04  0.25500000920E-02 0. -1.
       -2    1    3    3    0  502 -0.27964902202E+03 -0.49739079874E+03 -0.93183563421E+03  0.10926659285E+04  0.25500000920E-02 0.  1.
</event>
<event>
 5   0  0.3118614E-05  0.2313411E+04  0.7818609E-02  0.8472652E-01
        1   -1    0    0  501    0  0.00000000000E+00  0.00000000000E+00  0.14085336114E+04  0.14085336114E+04  0.50400001928E-02 0.  1.
       -1   -1    0    0    0  501  0.00000000000E+00  0.00000000000E+00 -0.94990118909E+03  0.94990118911E+03  0.50400001928E-02 0. -1.
    10030    2    1    2    0    0  0.00000000000E+00  0.00000000000E+00  0.45863242229E+03  0.23584348005E+04  0.23134111198E+04 0.  0.
        3    1    3    3  502    0 -0.48674885223E+03  0.16531348657E+02  0.12989111778E+04  0.13872159128E+04  0.10100000352E+00 0.  1.
       -3    1    3    3    0  502  0.48674885223E+03 -0.16531348657E+02 -0.84027875553E+03  0.97121888771E+03  0.10100000352E+00 0. -1.
</event>
<event>
 5   0  0.2342500E-05  0.2328175E+04  0.7818609E-02  0.8466894E-01
        3   -1    0    0  501    0  0.00000000000E+00  0.00000000000E+00  0.19514021707E+04  0.19514021733E+04  0.10100000352E+00 0. -1.
       -3   -1    0    0    0  501  0.00000000000E+00  0.00000000000E+00 -0.69442380338E+03  0.69442381073E+03  0.10100000352E+00 0.  1.
    10030    2    1    2    0    0  0.00000000000E+00  0.00000000000E+00  0.12569783673E+04  0.26458259841E+04  0.23281753632E+04 0.  0.
        5    1    3    3  502    0  0.50207539989E+03  0.18869155657E+03  0.18025968723E+04  0.18807077882E+04  0.46999998093E+01 0. -1.
       -5    1    3    3    0  502 -0.50207539989E+03 -0.18869155657E+03 -0.54561850494E+03  0.76511819585E+03  0.46999998093E+01 0.  1.
</event>
<event>
 5   0  0.3006265E-05  0.2241488E+04  0.7818609E-02  0.8501355E-01
       -1   -1    0    0    0  501  0.00000000000E+00  0.00000000000E+00  0.61203658929E+03  0.61203658931E+03  0.50400001928E-02 0. -1.
        1   -1    0    0  501    0  0.00000000000E+00  0.00000000000E+00 -0.20522752833E+04  0.20522752834E+04  0.50400001928E-02 0.  1.
    10030    2    1    2    0    0  0.00000000000E+00  0.00000000000E+00 -0.14402386941E+04  0.26643118727E+04  0.22414884026E+04 0.  0.
        2    1    3    3  502    0 -0.63583033981E+03  0.27062187740E+03  0.32867934550E+03  0.76521012389E+03  0.25500000920E-02 0. -1.
       -2    1    3    3    0  502  0.63583033981E+03 -0.27062187740E+03 -0.17689180395E+04  0.18991017488E+04  0.25500000920E-02 0.  1.
</event>
<event>
 5   0  0.2962279E-05  0.2679295E+04  0.7818609E-02  0.8341754E-01
       -1   -1    0    0    0  501  0.00000000000E+00  0.00000000000E+00  0.13327812825E+04  0.13327812825E+04  0.50400001928E-02 0. -1.
        1   -1    0    0  501    0  0.00000000000E+00  0.00000000000E+00 -0.13465494247E+04  0.13465494247E+04  0.50400001928E-02 0.  1.
    10030    2    1    2    0    0  0.00000000000E+00  0.00000000000E+00 -0.13768142245E+02  0.26793307072E+04  0.26792953322E+04 0.  0.
        1    1    3    3  502    0  0.17331412430E+03  0.10156480420E+04  0.84932647324E+03  0.13352655875E+04  0.50400001928E-02 0. -1.
       -1    1    3    3    0  502 -0.17331412430E+03 -0.10156480420E+04 -0.86309461549E+03  0.13440651198E+04  0.50400001928E-02 0.  1.
</event>
<event>
 5   0  0.6702421E-05  0.2185776E+04  0.7818609E-02  0.8524372E-01
       -2   -1    0    0    0  501  0.00000000000E+00  0.00000000000E+00  0.69627856040E+03  0.69627856040E+03  0.25500000920E-02 0.  1.
        2   -1    0    0  501    0  0.00000000000E+00  0.00000000000E+00 -0.17154107344E+04  0.17154107344E+04  0.25500000920E-02 0. -1.
    10030    2    1    2    0    0  0.00000000000E+00  0.00000000000E+00 -0.10191321740E+04  0.24116892948E+04  0.21857755755E+04 0.  0.
        4    1    3    3  502    0 -0.80862889739E+03 -0.61037222373E+03 -0.57368776919E+02  0.10147550121E+04  0.12699999809E+01 0.  1.
       -4    1    3    3    0  502  0.80862889739E+03  0.61037222373E+03 -0.96176339707E+03  0.13969342826E+04  0.12699999809E+01 0. -1.
</event>
<event>
 5   0  0.3118614E-05  0.2505452E+04  0.7818609E-02  0.8401046E-01
        1   -1    0    0  501    0  0.00000000000E+00  0.00000000000E+00  0.27749053750E+04  0.27749053750E+04  0.50400001928E-02 0. -1.
       -1   -1    0    0    0  501  0.00000000000E+00  0.00000000000E+00 -0.56554086820E+03  0.56554086822E+03  0.50400001928E-02 0.  1.
    10030    2    1    2    0    0  0.00000000000E+00  0.00000000000E+00  0.22093645068E+04  0.33404462432E+04  0.25054519712E+04 0.  0.
        3    1    3    3  502    0 -0.16019738153E+03 -0.76184783365E+03 -0.20385849683E+03  0.80475686988E+03  0.10100000352E+00 0.  1.
       -3    1    3    3    0  502  0.16019738153E+03  0.76184783365E+03  0.24132230036E+04  0.25356893734E+04  0.10100000352E+00 0. -1.
</event>
<event>
 5   0  0.6676612E-05  0.2387613E+04  0.7818609E-02  0.8444156E-01
       -2   -1    0    0    0  501  0.00000000000E+00  0.00000000000E+00  0.74596516786E+03  0.74596516786E+03  0.25500000920E-02 0. -1.
        2   -1    0    0  501    0  0.00000000000E+00  0.00000000000E+00 -0.19105100189E+04  0.19105100189E+04  0.25500000920E-02 0.  1.
    10030    2    1    2    0    0  0.00000000000E+00  0.00000000000E+00 -0.11645448510E+04  0.26564751868E+04  0.23876129728E+04 0.  0.
        2    1    3    3  502    0  0.77634031333E+03 -0.90581073772E+03 -0.63173719478E+03  0.13499219451E+04  0.25500000920E-02 0.  1.
       -2    1    3    3    0  502 -0.77634031333E+03  0.90581073772E+03 -0.53280765627E+03  0.13065532416E+04  0.25500000920E-02 0. -1.
</event>
<event>
 5   0  0.2944089E-05  0.2333162E+04  0.7818609E-02  0.8464959E-01
       -1   -1    0    0    0  501  0.00000000000E+00  0.00000000000E+00  0.10549864258E+04  0.10549864258E+04  0.50400001928E-02 0.  1.
        1   -1    0    0  501    0  0.00000000000E+00  0.00000000000E+00 -0.12899799250E+04  0.12899799251E+04  0.50400001928E-02 0. -1.
    10030    2    1    2    0    0  0.00000000000E+00  0.00000000000E+00 -0.23499349925E+03  0.23449663509E+04  0.23331620694E+04 0.  0.
        5    1    3    3  502    0  0.21463016089E+03 -0.71759906327E+03 -0.10163787575E+04  0.12625618362E+04  0.46999998093E+01 0. -1.
       -5    1    3    3    0  502 -0.21463016089E+03  0.71759906327E+03  0.78138525823E+03  0.10824045147E+04  0.46999998093E+01 0.  1.
</event>
<event>
 5   0  0.6702421E-05  0.2285051E+04  0.7818609E-02  0.8483839E-01
       -2   -1    0    0    0  501  0.00000000000E+00  0.00000000000E+00  0.69070373650E+03  0.69070373650E+03  0.25500000920E-02 0. -1.
        2   -1    0    0  501    0  0.00000000000E+00  0.00000000000E+00 -0.18899046964E+04  0.18899046964E+04  0.25500000920E-02 0.  1.
    10030    2    1    2    0    0  0.00000000000E+00  0.00000000000E+00 -0.11992009599E+04  0.25806084329E+04  0.22850507526E+04 0.  0.
        4    1    3    3  502    0  0.46150652470E+03 -0.61059563097E+03 -0.15575793793E+04  0.17354741233E+04  0.12699999809E+01 0.  1.
       -4    1    3    3    0  502 -0.46150652470E+03  0.61059563097E+03  0.35837841939E+03  0.84513430962E+03  0.12699999809E+01 0. -1.
</event>
<event>
 5   0  0.6814789E-05  0.2314258E+04  0.7818609E-02  0.8472320E-01
       -2   -1    0    0    0  501  0.00000000000E+00  0.00000000000E+00  0.74536769661E+03  0.74536769661E+03  0.25500000920E-02 0.  1.
        2   -1    0    0  501    0  0.00000000000E+00  0.00000000000E+00 -0.17963587512E+04  0.17963587512E+04  0.25500000920E-02 0. -1.
    10030    2    1    2    0    0  0.00000000000E+00  0.00000000000E+00 -0.10509910546E+04  0.25417264478E+04  0.23142582265E+04 0.  0.
        1    1    3    3  502    0 -0.50876840134E+03 -0.84700901506E+03  0.13592509824E+03  0.99736913434E+03  0.50400001928E-02 0.  1.
       -1    1    3    3    0  502  0.50876840134E+03  0.84700901506E+03 -0.11869161528E+04  0.15443573135E+04  0.50400001928E-02 0. -1.
</event>
<event>
 5   0  0.6814789E-05  0.2297078E+04  0.7818609E-02  0.8479074E-01
        2   -1    0    0  501    0  0.00000000000E+00  0.00000000000E+00  0.80058221732E+03  0.80058221732E+03  0.25500000920E-02 0. -1.
       -2   -1    0    0    0  501  0.00000000000E+00  0.00000000000E+00 -0.16477276585E+04  0.16477276585E+04  0.25500000920E-02 0.  1.
    10030    2    1    2    0    0  0.00000000000E+00  0.00000000000E+00 -0.84714544119E+03  0.24483098758E+04  0.22970776760E+04 0.  0.
        1    1    3    3  502    0 -0.24415170509E+03  0.28888135673E+02 -0.16193527102E+04  0.16379095761E+04  0.50400001928E-02 0.  1.
       -1    1    3    3    0  502  0.24415170509E+03 -0.28888135673E+02  0.77220726900E+03  0.81040029973E+03  0.50400001928E-02 0. -1.
</event>
<event>
 5   0  0.2982385E-05  0.2307205E+04  0.7818609E-02  0.8475086E-01
       -1   -1    0    0    0  501  0.00000000000E+00  0.00000000000E+00  0.10186183090E+04  0.10186183090E+04  0.50400001928E-02 0. -1.
        1   -1    0    0  501    0  0.00000000000E+00  0.00000000000E+00 -0.13064739076E+04  0.13064739077E+04  0.50400001928E-02 0.  1.
    10030    2    1    2    0    0  0.00000000000E+00  0.00000000000E+00 -0.28785559866E+03  0.23250922166E+04  0.23072045792E+04 0.  0.
        4    1    3    3  502    0  0.18820287634E+03  0.31622390441E+03 -0.12457381370E+04  0.12989545794E+04  0.12699999809E+01 0.  1.
       -4    1    3    3    0  502 -0.18820287634E+03 -0.31622390441E+03  0.95788253837E+03  0.10261376373E+04  0.12699999809E+01 0. -1.
</event>
<event>
 5   0  0.6702421E-05  0.2242107E+04  0.7818609E-02  0.8501104E-01
       -2   -1    0    0    0  501  0.00000000000E+00  0.00000000000E+00  0.12286287397E+04  0.12286287397E+04  0.25500000920E-02 0.  1.
        2   -1    0    0  501    0  0.00000000000E+00  0.00000000000E+00 -0.10228976477E+04  0.10228976477E+04  0.25500000920E-02 0. -1.
    10030    2    1    2    0    0  0.00000000000E+00  0.00000000000E+00  0.20573109207E+03  0.22515263874E+04  0.22421074441E+04 0.  0.
        4    1    3    3  502    0  0.10419705801E+04  0.41358829935E+03  0.10149461655E+03  0.11256379263E+04  0.12699999809E+01 0.  1.
       -4    1    3    3    0  502 -0.10419705801E+04 -0.41358829935E+03  0.10423647552E+03  0.11258884611E+04  0.12699999809E+01 0. -1.
</event>
<event>
 5   0  0.6702421E-05  0.2284229E+04  0.7818609E-02  0.8484165E-01
        2   -1    0    0  501    0  0.00000000000E+00  0.00000000000E+00  0.23449671544E+04  0.23449671544E+04  0.25500000920E-02 0. -1.
       -2   -1    0    0    0  501  0.00000000000E+00  0.00000000000E+00 -0.55626597314E+03  0.55626597314E+03  0.25500000920E-02 0.  1.
    10030    2    1    2    0    0  0.00000000000E+00  0.00000000000E+00  0.17887011812E+04  0.29012331275E+04  0.22842289168E+04 0.  0.
        4    1    3    3  502    0  0.16677471000E+03  0.81690379825E+03  0.18857549487E+04  0.20618484326E+04  0.12699999809E+01 0. -1.
       -4    1    3    3    0  502 -0.16677471000E+03 -0.81690379825E+03 -0.97053767424E+02  0.83938469497E+03  0.12699999809E+01 0.  1.
</event>
<event>
 5   0  0.3006265E-05  0.2224531E+04  0.7818609E-02  0.8508286E-01
       -1   -1    0    0    0  501  0.00000000000E+00  0.00000000000E+00  0.78397010386E+03  0.78397010388E+03  0.50400001928E-02 0.  1.
        1   -1    0    0  501    0  0.00000000000E+00  0.00000000000E+00 -0.15780385924E+04  0.15780385924E+04  0.50400001928E-02 0. -1.
    10030    2    1    2    0    0  0.00000000000E+00  0.00000000000E+00 -0.79406848857E+03  0.23620086963E+04  0.22245314826E+04 0.  0.
        2    1    3    3  502    0 -0.89192228691E+03  0.56686459835E+03 -0.76527279048E+03  0.13048000930E+04  0.25500000920E-02 0. -1.
       -2    1    3    3    0  502  0.89192228691E+03 -0.56686459835E+03 -0.28795698088E+02  0.10572086033E+04  0.25500000920E-02 0.  1.
</event>
<event>
 5   0  0.6814789E-05  0.2295437E+04  0.7818609E-02  0.8479723E-01
        2   -1    0    0  501    0  0.00000000000E+00  0.00000000000E+00  0.13165217381E+04  0.13165217381E+04  0.25500000920E-02 0. -1.
       -2   -1    0    0    0  501  0.00000000000E+00  0.00000000000E+00 -0.10005588400E+04  0.10005588400E+04  0.25500000920E-02 0.  1.
    10030    2    1    2    0    0  0.00000000000E+00  0.00000000000E+00  0.31596289808E+03  0.23170805782E+04  0.22954367455E+04 0.  0.
        1    1    3    3  502    0 -0.10344379866E+04 -0.90763868825E+02  0.65142341408E+03  0.12258272686E+04  0.50400001928E-02 0. -1.
       -1    1    3    3    0  502  0.10344379866E+04  0.90763868825E+02 -0.33546051601E+03  0.10912533096E+04  0.50400001928E-02 0.  1.
</event>
<event>
 5   0  0.2944089E-05  0.2280452E+04  0.7818609E-02  0.8485669E-01
       -1   -1    0    0    0  501  0.00000000000E+00  0.00000000000E+00  0.10035958157E+04  0.10035958157E+04  0.50400001928E-02 0. -1.
        1   -1    0    0  501    0  0.00000000000E+00  0.00000000000E+00 -0.12954571986E+04  0.12954571986E+04  0.50400001928E-02 0.  1.
    10030    2    1    2    0    0  0.00000000000E+00  0.00000000000E+00 -0.29186138291E+03  0.22990530143E+04  0.22804520814E+04 0.  0.
        5    1    3    3  502    0  0.44217480649E+03  0.53379445543E+02  0.91226190272E+03  0.10151905210E+04  0.46999998093E+01 0. -1.
       -5    1    3    3    0  502 -0.44217480649E+03 -0.53379445543E+02 -0.12041232856E+04  0.12838624933E+04  0.46999998093E+01 0.  1.
</event>
<event>
 5   0  0.2944089E-05  0.2301021E+04  0.7818609E-02  0.8477519E-01
        1   -1    0    0  501    0  0.00000000000E+00  0.00000000000E+00  0.93085869687E+03  0.93085869688E+03  0.50400001928E-02 0.  1.
       -1   -1    0    0    0  501  0.00000000000E+00  0.00000000000E+00 -0.14219923262E+04  0.14219923262E+04  0.50400001928E-02 0. -1.
    10030    2    1    2    0    0  0.00000000000E+00  0.00000000000E+00 -0.49113362935E+03  0.23528510231E+04  0.23010205768E+04 0.  0.
        5    1    3    3  502    0 -0.16452395599E+03 -0.89100111945E+03 -0.97055123717E+03  0.13277586079E+04  0.46999998093E+01 0. -1.
       -5    1    3    3    0  502  0.16452395599E+03  0.89100111945E+03  0.47941760782E+03  0.10250924152E+04  0.46999998093E+01 0.  1.
</event>
<event>
 5   0  0.2944089E-05  0.2271800E+04  0.7818609E-02  0.8489124E-01
       -1   -1    0    0    0  501  0.00000000000E+00  0.00000000000E+00  0.54134305069E+03  0.54134305071E+03  0.50400001928E-02 0.  1.
        1   -1    0    0  501    0  0.00000000000E+00  0.00000000000E+00 -0.23834595584E+04  0.23834595584E+04  0.50400001928E-02 0. -1.
    10030    2    1    2    0    0  0.00000000000E+00  0.00000000000E+00 -0.18421165077E+04  0.29248026091E+04  0.22718004037E+04 0.  0.
        5    1    3    3  502    0  0.68474831329E+03 -0.11484687910E+03  0.23633158378E+03  0.73344717989E+03  0.46999998093E+01 0.  1.
       -5    1    3    3    0  502 -0.68474831329E+03  0.11484687910E+03 -0.20784480915E+04  0.21913554293E+04  0.46999998093E+01 0. -1.
</event>
<event>
 5   0  0.3006265E-05  0.2322190E+04  0.7818609E-02  0.8469223E-01
        1   -1    0    0  501    0  0.00000000000E+00  0.00000000000E+00  0.19051150244E+04  0.19051150244E+04  0.50400001928E-02 0.  1.
       -1   -1    0    0    0  501  0.00000000000E+00  0.00000000000E+00 -0.70764339465E+03  0.70764339467E+03  0.50400001928E-02 0. -1.
    10030    2    1    2    0    0  0.00000000000E+00  0.00000000000E+00  0.11974716298E+04  0.26127584191E+04  0.23221903997E+04 0.  0.
        2    1    3    3  502    0 -0.26497542053E+03  0.83903181734E+03 -0.25365864202E+03  0.91571232965E+03  0.25500000920E-02 0. -1.
       -2    1    3    3    0  502  0.26497542053E+03 -0.83903181734E+03  0.14511302718E+04  0.16970460894E+04  0.25500000920E-02 0.  1.
</event>
<event>
 5   0  0.6468758E-05  0.2246028E+04  0.7818609E-02  0.8499511E-01
        2   -1    0    0  501    0  0.00000000000E+00  0.00000000000E+00  0.11518861510E+04  0.11518861510E+04  0.25500000920E-02 0. -1.
       -2   -1    0    0    0  501  0.00000000000E+00  0.00000000000E+00 -0.10948652109E+04  0.10948652109E+04  0.25500000920E-02 0.  1.
    10030    2    1    2    0    0  0.00000000000E+00  0.00000000000E+00  0.57020940037E+02  0.22467513619E+04  0.22460276701E+04 0.  0.
        3    1    3    3  502    0 -0.56972067507E+03 -0.15296021941E+02  0.99647118373E+03  0.11479418304E+04  0.10100000352E+00 0. -1.
       -3    1    3    3    0  502  0.56972067507E+03  0.15296021941E+02 -0.93945024369E+03  0.10988095315E+04  0.10100000352E+00 0.  1.
</event>
<event>
 5   0  0.6495405E-05  0.2330342E+04  0.7818609E-02  0.8466053E-01
        2   -1    0    0  501    0  0.00000000000E+00  0.00000000000E+00  0.21156255504E+04  0.21156255504E+04  0.25500000920E-02 0. -1.
       -2   -1    0    0    0  501  0.00000000000E+00  0.00000000000E+00 -0.64171240163E+03  0.64171240163E+03  0.25500000920E-02 0.  1.
    10030    2    1    2    0    0  0.00000000000E+00  0.00000000000E+00  0.14739131488E+04  0.27573379520E+04  0.23303417371E+04 0.  0.
        5    1    3    3  502    0 -0.36537982782E+03  0.39350322795E+03  0.19604757974E+04  0.20326914796E+04  0.46999998093E+01 0. -1.
       -5    1    3    3    0  502  0.36537982782E+03 -0.39350322795E+03 -0.48656264863E+03  0.72464647245E+03  0.46999998093E+01 0.  1.
</event>
<event>
 5   0  0.6676612E-05  0.2311332E+04  0.7818609E-02  0.8473466E-01
       -2   -1    0    0    0  501  0.00000000000E+00  0.00000000000E+00  0.64228082756E+03  0.64228082757E+03  0.25500000920E-02 0.  1.
        2   -1    0    0  501    0  0.00000000000E+00  0.00000000000E+00 -0.20794085876E+04  0.20794085876E+04  0.25500000920E-02 0. -1.
    10030    2    1    2    0    0  0.00000000000E+00  0.00000000000E+00 -0.14371277600E+04  0.27216894151E+04  0.23113323158E+04 0.  0.
        2    1    3    3  502    0  0.70770170400E+03  0.97613998363E+02 -0.17882447355E+04  0.19256659701E+04  0.25500000920E-02 0. -1.
       -2    1    3    3    0  502 -0.70770170400E+03 -0.97613998363E+02  0.35111697548E+03  0.79602344500E+03  0.25500000920E-02 0.  1.
</event>
<event>
 5   0  0.3006265E-05  0.2321230E+04  0.7818609E-02  0.8469597E-01
        1   -1    0    0  501    0  0.00000000000E+00  0.00000000000E+00  0.10957564458E+04  0.10957564458E+04  0.50400001928E-02 0. -1.
       -1   -1    0    0    0  501  0.00000000000E+00  0.00000000000E+00 -0.12293130058E+04  0.12293130058E+04  0.50400001928E-02 0.  1.
    10030    2    1    2    0    0  0.00000000000E+00  0.00000000000E+00 -0.13355656002E+03  0.23250694515E+04  0.23212304064E+04 0.  0.
        2    1    3    3  502    0  0.44105527497E+03 -0.10219655611E+04 -0.39608376065E+03  0.11814506799E+04  0.25500000920E-02 0.  1.
       -2    1    3    3    0  502 -0.44105527497E+03  0.10219655611E+04  0.26252720064E+03  0.11436187716E+04  0.25500000920E-02 0. -1.
</event>
<event>
 5   0  0.6814789E-05  0.2303610E+04  0.7818609E-02  0.8476499E-01
       -2   -1    0    0    0  501  0.00000000000E+00  0.00000000000E+00  0.96373118150E+03  0.96373118151E+03  0.25500000920E-02 0. -1.
        2   -1    0    0  501    0  0.00000000000E+00  0.00000000000E+00 -0.13765820784E+04  0.13765820784E+04  0.25500000920E-02 0.  1.
    10030    2    1    2    0    0  0.00000000000E+00  0.00000000000E+00 -0.41285089692E+03  0.23403132599E+04  0.23036102734E+04 0.  0.
        1    1    3    3  502    0  0.68303569796E+03  0.19161700899E+03 -0.11282971391E+04  0.13327825317E+04  0.50400001928E-02 0.  1.
       -1    1    3    3    0  502 -0.68303569796E+03 -0.19161700899E+03  0.71544624215E+03  0.10075307282E+04  0.50400001928E-02 0. -1.
</event>
<event>
 5   0  0.2342500E-05  0.2173873E+04  0.7818609E-02  0.8529382E-01
       -4   -1    0    0    0  501  0.00000000000E+00  0.00000000000E+00  0.10850635379E+04  0.10850642811E+04  0.12699999809E+01 0.  1.
        4   -1    0    0  501    0  0.00000000000E+00  0.00000000000E+00 -0.10888114896E+04  0.10888122303E+04  0.12699999809E+01 0. -1.
    10030    2    1    2    0    0  0.00000000000E+00  0.00000000000E+00 -0.37479517343E+01  0.21738765114E+04  0.21738732805E+04 0.  0.
        3    1    3    3  502    0  0.26553748699E+03  0.86921277942E+03 -0.59802101574E+03  0.10879660649E+04  0.10100000352E+00 0.  1.
       -3    1    3    3    0  502 -0.26553748699E+03 -0.86921277942E+03  0.59427306401E+03  0.10859104465E+04  0.10100000352E+00 0. -1.
</event>
<event>
 5   0  0.2962279E-05  0.2265081E+04  0.7818609E-02  0.8491818E-01
       -1   -1    0    0    0  501  0.00000000000E+00  0.00000000000E+00  0.77984814315E+03  0.77984814317E+03  0.50400001928E-02 0.  1.
        1   -1    0    0  501    0  0.00000000000E+00  0.00000000000E+00 -0.16447402217E+04  0.16447402217E+04  0.50400001928E-02 0. -1.
    10030    2    1    2    0    0  0.00000000000E+00  0.00000000000E+00 -0.86489207850E+03  0.24245883648E+04  0.22650806678E+04 0.  0.
        1    1    3    3  502    0 -0.46017785780E+03 -0.92382469328E+02 -0.15357318611E+04  0.16058550777E+04  0.50400001928E-02 0. -1.
       -1    1    3    3    0  502  0.46017785780E+03  0.92382469328E+02  0.67083978261E+03  0.81873328710E+03  0.50400001928E-02 0.  1.
</event>
<event>
 5   0  0.3118614E-05  0.2301750E+04  0.7818609E-02  0.8477231E-01
        1   -1    0    0  501    0  0.00000000000E+00  0.00000000000E+00  0.23221503746E+04  0.23221503747E+04  0.50400001928E-02 0. -1.
       -1   -1    0    0    0  501  0.00000000000E+00  0.00000000000E+00 -0.57038231685E+03  0.57038231687E+03  0.50400001928E-02 0.  1.
    10030    2    1    2    0    0  0.00000000000E+00  0.00000000000E+00  0.17517680578E+04  0.28925326915E+04  0.23017502130E+04 0.  0.
        3    1    3    3  502    0 -0.53679681959E+02 -0.48720653453E+03 -0.43265644358E+03  0.65379149881E+03  0.10100000352E+00 0.  1.
       -3    1    3    3    0  502  0.53679681959E+02  0.48720653453E+03  0.21844245014E+04  0.22387411927E+04  0.10100000352E+00 0. -1.
</event>
<event>
 5   0  0.3006265E-05  0.2329690E+04  0.7818609E-02  0.8466306E-01
        1   -1    0    0  501    0  0.00000000000E+00  0.00000000000E+00  0.11621622678E+04  0.11621622678E+04  0.50400001928E-02 0.  1.
       -1   -1    0    0    0  501  0.00000000000E+00  0.00000000000E+00 -0.11675344015E+04  0.11675344015E+04  0.50400001928E-02 0. -1.
    10030    2    1    2    0    0  0.00000000000E+00  0.00000000000E+00 -0.53721336843E+01  0.23296966694E+04  0.23296904755E+04 0.  0.
        2    1    3    3  502    0  0.99681703518E+03 -0.40363685179E+03  0.44486123029E+03  0.11638163188E+04  0.25500000920E-02 0.  1.
       -2    1    3    3    0  502 -0.99681703518E+03  0.40363685179E+03 -0.45023336397E+03  0.11658803505E+04  0.25500000920E-02 0. -1.
</event>
<event>
 5   0  0.3118614E-05  0.2217820E+04  0.7818609E-02  0.8511047E-01
        1   -1    0    0  501    0  0.00000000000E+00  0.00000000000E+00  0.13679516204E+04  0.13679516204E+04  0.50400001928E-02 0. -1.
       -1   -1    0    0    0  501  0.00000000000E+00  0.00000000000E+00 -0.89892207421E+03  0.89892207423E+03  0.50400001928E-02 0.  1.
    10030    2    1    2    0    0  0.00000000000E+00  0.00000000000E+00  0.46902954622E+03  0.22668736947E+04  0.22178204689E+04 0.  0.
        3    1    3    3  502    0  0.70218674718E+03 -0.10543836969E+03  0.11051157918E+04  0.13135693363E+04  0.10100000352E+00 0. -1.
       -3    1    3    3    0  502 -0.70218674718E+03  0.10543836969E+03 -0.63608624558E+03  0.95330435840E+03  0.10100000352E+00 0.  1.
</event>
<event>
 5   0  0.2982385E-05  0.2304881E+04  0.7818609E-02  0.8475999E-01
       -1   -1    0    0    0  501  0.00000000000E+00  0.00000000000E+00  0.66090303929E+03  0.66090303931E+03  0.50400001928E-02 0. -1.
        1   -1    0    0  501    0  0.00000000000E+00  0.00000000000E+00 -0.20095529572E+04  0.20095529572E+04  0.50400001928E-02 0.  1.
    10030    2    1    2    0    0  0.00000000000E+00  0.00000000000E+00 -0.13486499179E+04  0.26704559965E+04  0.23048814782E+04 0.  0.
        4    1    3    3  502    0  0.18671104444E+02 -0.98196092239E+03 -0.13728826616E+04  0.16880178550E+04  0.12699999809E+01 0.  1.
       -4    1    3    3    0  502 -0.18671104444E+02  0.98196092239E+03  0.24232743695E+02  0.98243814157E+03  0.12699999809E+01 0. -1.
</event>
<event>
 5   0  0.3006265E-05  0.2260982E+04  0.7818609E-02  0.8493466E-01
        1   -1    0    0  501    0  0.00000000000E+00  0.00000000000E+00  0.15940287950E+04  0.15940287950E+04  0.50400001928E-02 0. -1.
       -1   -1    0    0    0  501  0.00000000000E+00  0.00000000000E+00 -0.80174843808E+03  0.80174843809E+03  0.50400001928E-02 0.  1.
    10030    2    1    2    0    0  0.00000000000E+00  0.00000000000E+00  0.79228035691E+03  0.23957772331E+04  0.22609821730E+04 0.  0.
        2    1    3    3  502    0 -0.10082492978E+04 -0.12480478511E+03  0.92155171815E+03  0.13716415166E+04  0.25500000920E-02 0. -1.
       -2    1    3    3    0  502  0.10082492978E+04  0.12480478511E+03 -0.12927136124E+03  0.10241357165E+04  0.25500000920E-02 0.  1.
</event>
<event>
 5   0  0.6676612E-05  0.1889404E+04  0.7818609E-02  0.8660149E-01
       -2   -1    0    0    0  501  0.00000000000E+00  0.00000000000E+00  0.10187288201E+04  0.10187288201E+04  0.25500000920E-02 0. -1.
        2   -1    0    0  501    0  0.00000000000E+00  0.00000000000E+00 -0.87605428711E+03  0.87605428712E+03  0.25500000920E-02 0.  1.
    10030    2    1    2    0    0  0.00000000000E+00  0.00000000000E+00  0.14267453294E+03  0.18947831072E+04  0.18894038745E+04 0.  0.
        2    1    3    3  502    0  0.12422241359E+03  0.69426326088E+03 -0.55896552270E+03  0.89993063011E+03  0.25500000920E-02 0.  1.
       -2    1    3    3    0  502 -0.12422241359E+03 -0.69426326088E+03  0.70164005564E+03  0.99485247706E+03  0.25500000920E-02 0. -1.
</event>
<event>
 5   0  0.3006265E-05  0.2234889E+04  0.7818609E-02  0.8504045E-01
       -1   -1    0    0    0  501  0.00000000000E+00  0.00000000000E+00  0.49660940687E+03  0.49660940690E+03  0.50400001928E-02 0.  1.
        1   -1    0    0  501    0  0.00000000000E+00  0.00000000000E+00 -0.25144151300E+04  0.25144151300E+04  0.50400001928E-02 0. -1.
    10030    2    1    2    0    0  0.00000000000E+00  0.00000000000E+00 -0.20178057231E+04  0.30110245369E+04  0.22348889962E+04 0.  0.
        2    1    3    3  502    0  0.84146065887E+03 -0.40747873786E+03 -0.18334867208E+04  0.20580982769E+04  0.25500000920E-02 0. -1.
       -2    1    3    3    0  502 -0.84146065887E+03  0.40747873786E+03 -0.18431900230E+03  0.95292625992E+03  0.25500000920E-02 0.  1.
</event>
<event>
 5   0  0.2944089E-05  0.2308663E+04  0.7818609E-02  0.8474513E-01
       -1   -1    0    0    0  501  0.00000000000E+00  0.00000000000E+00  0.65313715260E+03  0.65313715262E+03  0.50400001928E-02 0. -1.
        1   -1    0    0  501    0  0.00000000000E+00  0.00000000000E+00 -0.20401250428E+04  0.20401250428E+04  0.50400001928E-02 0.  1.
    10030    2    1    2    0    0  0.00000000000E+00  0.00000000000E+00 -0.13869878902E+04  0.26932621954E+04  0.23086632162E+04 0.  0.
        5    1    3    3  502    0  0.14683075845E+03  0.10607388616E+04 -0.19073155271E+03  0.10877163322E+04  0.46999998093E+01 0. -1.
       -5    1    3    3    0  502 -0.14683075845E+03 -0.10607388616E+04 -0.11962563375E+04  0.16055458633E+04  0.46999998093E+01 0.  1.
</event>
<event>
 5   0  0.2342500E-05  0.2273139E+04  0.7818609E-02  0.8488588E-01
        3   -1    0    0  501    0  0.00000000000E+00  0.00000000000E+00  0.84443424269E+03  0.84443424873E+03  0.10100000352E+00 0.  1.
       -3   -1    0    0    0  501  0.00000000000E+00  0.00000000000E+00 -0.15297704695E+04  0.15297704728E+04  0.10100000352E+00 0. -1.
    10030    2    1    2    0    0  0.00000000000E+00  0.00000000000E+00 -0.68533622682E+03  0.23742047216E+04  0.22731393086E+04 0.  0.
        3    1    3    3  502    0  0.11443375572E+03 -0.78827975671E+03 -0.11894613883E+04  0.14315370983E+04  0.10100000352E+00 0. -1.
       -3    1    3    3    0  502 -0.11443375572E+03  0.78827975671E+03  0.50412516151E+03  0.94266762327E+03  0.10100000352E+00 0.  1.
</event>
<event>
 5   0  0.6468758E-05  0.2298714E+04  0.7818609E-02  0.8478428E-01
        2   -1    0    0  501    0  0.00000000000E+00  0.00000000000E+00  0.18527455645E+04  0.18527455645E+04  0.25500000920E-02 0.  1.
       -2   -1    0    0    0  501  0.00000000000E+00  0.00000000000E+00 -0.71300725826E+03  0.71300725826E+03  0.25500000920E-02 0. -1.
    10030    2    1    2    0    0  0.00000000000E+00  0.00000000000E+00  0.11397383063E+04  0.25657528228E+04  0.22987135839E+04 0.  0.
        3    1    3    3  502    0 -0.46593866986E+02 -0.10420279572E+03  0.18464033870E+04  0.18499282929E+04  0.10100000352E+00 0.  1.
       -3    1    3    3    0  502  0.46593866986E+02  0.10420279572E+03 -0.70666508074E+03  0.71582452990E+03  0.10100000352E+00 0. -1.
</event>
<event>
 5   0  0.6468758E-05  0.2305353E+04  0.7818609E-02  0.8475813E-01
        2   -1    0    0  501    0  0.00000000000E+00  0.00000000000E+00  0.18494989259E+04  0.18494989259E+04  0.25500000920E-02 0. -1.
       -2   -1    0    0    0  501  0.00000000000E+00  0.00000000000E+00 -0.71839100621E+03  0.71839100622E+03  0.25500000920E-02 0.  1.
    10030    2    1    2    0    0  0.00000000000E+00  0.00000000000E+00  0.11311079197E+04  0.25678899322E+04  0.23053532436E+04 0.  0.
        3    1    3    3  502    0  0.41927363134E+03 -0.48865347874E+03  0.16305146786E+04  0.17530404238E+04  0.10100000352E+00 0. -1.
       -3    1    3    3    0  502 -0.41927363134E+03  0.48865347874E+03 -0.49940675888E+03  0.81484950834E+03  0.10100000352E+00 0.  1.
</event>
<event>
 5   0  0.6702421E-05  0.2287963E+04  0.7818609E-02  0.8482682E-01
        2   -1    0    0  501    0  0.00000000000E+00  0.00000000000E+00  0.23099538808E+04  0.23099538808E+04  0.25500000920E-02 0.  1.
       -2   -1    0    0    0  501  0.00000000000E+00  0.00000000000E+00 -0.56654559439E+03  0.56654559439E+03  0.25500000920E-02 0. -1.
    10030    2    1    2    0    0  0.00000000000E+00  0.00000000000E+00  0.17434082864E+04  0.28764994752E+04  0.22879634563E+04 0.  0.
        4    1    3    3  502    0 -0.86397168622E+03 -0.37852777150E+01 -0.70994058123E+02  0.86689282619E+03  0.12699999809E+01 0. -1.
       -4    1    3    3    0  502  0.86397168622E+03  0.37852777150E+01  0.18144023445E+04  0.20096066490E+04  0.12699999809E+01 0.  1.
</event>
<event>
 5   0  0.6468758E-05  0.2397907E+04  0.7818609E-02  0.8440288E-01
        2   -1    0    0  501    0  0.00000000000E+00  0.00000000000E+00  0.11816792857E+04  0.11816792857E+04  0.25500000920E-02 0.  1.
       -2   -1    0    0    0  501  0.00000000000E+00  0.00000000000E+00 -0.12164803420E+04  0.12164803420E+04  0.25500000920E-02 0. -1.
    10030    2    1    2    0    0  0.00000000000E+00  0.00000000000E+00 -0.34801056288E+02  0.23981596277E+04  0.23979071055E+04 0.  0.
        3    1    3    3  502    0  0.37430715779E+03  0.17272587733E+03  0.11085730587E+04  0.11827401717E+04  0.10100000352E+00 0.  1.
       -3    1    3    3    0  502 -0.37430715779E+03 -0.17272587733E+03 -0.11433741150E+04  0.12154194560E+04  0.10100000352E+00 0. -1.
</event>
<event>
 5   0  0.6814789E-05  0.2342593E+04  0.7818609E-02  0.8461314E-01
        2   -1    0    0  501    0  0.00000000000E+00  0.00000000000E+00  0.21612494755E+04  0.21612494755E+04  0.25500000920E-02 0. -1.
       -2   -1    0    0    0  501  0.00000000000E+00  0.00000000000E+00 -0.63478802261E+03  0.63478802262E+03  0.25500000920E-02 0.  1.
    10030    2    1    2    0    0  0.00000000000E+00  0.00000000000E+00  0.15264614529E+04  0.27960374981E+04  0.23425928207E+04 0.  0.
        1    1    3    3  502    0  0.94247172826E+03  0.58819642831E+03  0.12061500622E+04  0.16398249814E+04  0.50400001928E-02 0.  1.
       -1    1    3    3    0  502 -0.94247172826E+03 -0.58819642831E+03  0.32031139062E+03  0.11562125167E+04  0.50400001928E-02 0. -1.
</event>
<event>
 5   0  0.6468758E-05  0.2277761E+04  0.7818609E-02  0.8486741E-01
       -2   -1    0    0    0  501  0.00000000000E+00  0.00000000000E+00  0.13859320660E+04  0.13859320660E+04  0.25500000920E-02 0.  1.
        2   -1    0    0  501    0  0.00000000000E+00  0.00000000000E+00 -0.93586785977E+03  0.93586785977E+03  0.25500000920E-02 0. -1.
    10030    2    1    2    0    0  0.00000000000E+00  0.00000000000E+00  0.45006420622E+03  0.23217999258E+04  0.22777614242E+04 0.  0.
        3    1    3    3  502    0  0.21466821588E+03  0.22577796657E+03 -0.89158834842E+03  0.94445112438E+03  0.10100000352E+00 0. -1.
       -3    1    3    3    0  502 -0.21466821588E+03 -0.22577796657E+03  0.13416525546E+04  0.13773488014E+04  0.10100000352E+00 0.  1.
</event>
<event>
 5   0  0.6495405E-05  0.2129544E+04  0.7818609E-02  0.8548340E-01
       -2   -1    0    0    0  501  0.00000000000E+00  0.00000000000E+00  0.52092445040E+03  0.52092445041E+03  0.25500000920E-02 0.  1.
        2   -1    0    0  501    0  0.00000000000E+00  0.00000000000E+00 -0.21763988163E+04  0.21763988163E+04  0.25500000920E-02 0. -1.
    10030    2    1    2    0    0  0.00000000000E+00  0.00000000000E+00 -0.16554743659E+04  0.26973232667E+04  0.21295439486E+04 0.  0.
        5    1    3    3  502    0 -0.55388218467E+03 -0.90632906066E+03 -0.73380701612E+03  0.12910122647E+04  0.46999998093E+01 0. -1.
       -5    1    3    3    0  502  0.55388218467E+03  0.90632906066E+03 -0.92166734975E+03  0.14063110020E+04  0.46999998093E+01 0.  1.
</event>
<event>
 5   0  0.3118614E-05  0.2325921E+04  0.7818609E-02  0.8467771E-01
        1   -1    0    0  501    0  0.00000000000E+00  0.00000000000E+00  0.16976320516E+04  0.16976320516E+04  0.50400001928E-02 0.  1.
       -1   -1    0    0    0  501  0.00000000000E+00  0.00000000000E+00 -0.79668414910E+03  0.79668414912E+03  0.50400001928E-02 0. -1.
    10030    2    1    2    0    0  0.00000000000E+00  0.00000000000E+00  0.90094790252E+03  0.24943162007E+04  0.23259205030E+04 0.  0.
        3    1    3    3  502    0  0.89938951312E+03 -0.72066289762E+03  0.61736919546E+03  0.13074407222E+04  0.10100000352E+00 0.  1.
       -3    1    3    3    0  502 -0.89938951312E+03  0.72066289762E+03  0.28357870705E+03  0.11868754786E+04  0.10100000352E+00 0. -1.
</event>
<event>
 5   0  0.2962279E-05  0.2282795E+04  0.7818609E-02  0.8484736E-01
       -1   -1    0    0    0  501  0.00000000000E+00  0.00000000000E+00  0.81166556177E+03  0.81166556178E+03  0.50400001928E-02 0. -1.
        1   -1    0    0  501    0  0.00000000000E+00  0.00000000000E+00 -0.16050797959E+04  0.16050797959E+04  0.50400001928E-02 0.  1.
    10030    2    1    2    0    0  0.00000000000E+00  0.00000000000E+00 -0.79341423409E+03  0.24167453576E+04  0.22827947733E+04 0.  0.
        1    1    3    3  502    0 -0.44812160944E+03  0.97119479584E+03  0.25114340320E+02  0.10698892646E+04  0.50400001928E-02 0.  1.
       -1    1    3    3    0  502  0.44812160944E+03 -0.97119479584E+03 -0.81852857440E+03  0.13468560931E+04  0.50400001928E-02 0. -1.
</event>
<event>
 5   0  0.3118614E-05  0.2316786E+04  0.7818609E-02  0.8471332E-01
        1   -1    0    0  501    0  0.00000000000E+00  0.00000000000E+00  0.12506399865E+04  0.12506399865E+04  0.50400001928E-02 0. -1.
       -1   -1    0    0    0  501  0.00000000000E+00  0.00000000000E+00 -0.10729501188E+04  0.10729501188E+04  0.50400001928E-02 0.  1.
    10030    2    1    2    0    0  0.00000000000E+00  0.00000000000E+00  0.17768986763E+03  0.23235901053E+04  0.23167859825E+04 0.  0.
        3    1    3    3  502    0 -0.57996499716E+03  0.71106865002E+03 -0.62026498130E+03  0.11075679122E+04  0.10100000352E+00 0.  1.
       -3    1    3    3    0  502  0.57996499716E+03 -0.71106865002E+03  0.79795484893E+03  0.12160221931E+04  0.10100000352E+00 0. -1.
</event>
<event>
 5   0  0.2962279E-05  0.2269361E+04  0.7818609E-02  0.8490100E-01
        1   -1    0    0  501    0  0.00000000000E+00  0.00000000000E+00  0.10341300063E+04  0.10341300063E+04  0.50400001928E-02 0. -1.
       -1   -1    0    0    0  501  0.00000000000E+00  0.00000000000E+00 -0.12450082388E+04  0.12450082388E+04  0.50400001928E-02 0.  1.
    10030    2    1    2    0    0  0.00000000000E+00  0.00000000000E+00 -0.21087823249E+03  0.22791382452E+04  0.22693614766E+04 0.  0.
        1    1    3    3  502    0  0.30838753113E+03 -0.46434587489E+02  0.99024282894E+03  0.10381906860E+04  0.50400001928E-02 0. -1.
       -1    1    3    3    0  502 -0.30838753113E+03  0.46434587489E+02 -0.12011210614E+04  0.12409475591E+04  0.50400001928E-02 0.  1.
</event>
<event>
 5   0  0.2982385E-05  0.2254027E+04  0.7818609E-02  0.8496271E-01
       -1   -1    0    0    0  501  0.00000000000E+00  0.00000000000E+00  0.68270021388E+03  0.68270021390E+03  0.50400001928E-02 0.  1.
        1   -1    0    0  501    0  0.00000000000E+00  0.00000000000E+00 -0.18604936303E+04  0.18604936303E+04  0.50400001928E-02 0. -1.
    10030    2    1    2    0    0  0.00000000000E+00  0.00000000000E+00 -0.11777934164E+04  0.25431938442E+04  0.22540269735E+04 0.  0.
        4    1    3    3  502    0  0.60173736646E+03 -0.38426064170E+03  0.39499050772E+03  0.81594314326E+03  0.12699999809E+01 0.  1.
       -4    1    3    3    0  502 -0.60173736646E+03  0.38426064170E+03 -0.15727839241E+04  0.17272507009E+04  0.12699999809E+01 0. -1.
</event>
<event>
 5   0  0.6702421E-05  0.2305279E+04  0.7818609E-02  0.8475843E-01
        2   -1    0    0  501    0  0.00000000000E+00  0.00000000000E+00  0.13278272242E+04  0.13278272242E+04  0.25500000920E-02 0. -1.
       -2   -1    0    0    0  501  0.00000000000E+00  0.00000000000E+00 -0.10005652862E+04  0.10005652862E+04  0.25500000920E-02 0.  1.
    10030    2    1    2    0    0  0.00000000000E+00  0.00000000000E+00  0.32726193798E+03  0.23283925104E+04  0.23052790084E+04 0.  0.
        4    1    3    3  502    0 -0.43990860746E+03 -0.10217909402E+04 -0.14105550039E+03  0.11213717383E+04  0.12699999809E+01 0.  1.
       -4    1    3    3    0  502  0.43990860746E+03  0.10217909402E+04  0.46831743837E+03  0.12070207721E+04  0.12699999809E+01 0. -1.
</event>
<event>
 5   0  0.6495405E-05  0.2282594E+04  0.7818609E-02  0.8484816E-01
        2   -1    0    0  501    0  0.00000000000E+00  0.00000000000E+00  0.15709972999E+04  0.15709972999E+04  0.25500000920E-02 0. -1.
       -2   -1    0    0    0  501  0.00000000000E+00  0.00000000000E+00 -0.82912877895E+03  0.82912877895E+03  0.25500000920E-02 0.  1.
    10030    2    1    2    0    0  0.00000000000E+00  0.00000000000E+00  0.74186852093E+03  0.24001260788E+04  0.22825942022E+04 0.  0.
        5    1    3    3  502    0  0.46935680447E+03 -0.99857016812E+03  0.67767188128E+03  0.12948743025E+04  0.46999998093E+01 0. -1.
       -5    1    3    3    0  502 -0.46935680447E+03  0.99857016812E+03  0.64196639650E+02  0.11052517763E+04  0.46999998093E+01 0.  1.
</event>
<event>
 5   0  0.2962279E-05  0.2281012E+04  0.7818609E-02  0.8485446E-01
        1   -1    0    0  501    0  0.00000000000E+00  0.00000000000E+00  0.19532071660E+04  0.19532071660E+04  0.50400001928E-02 0. -1.
       -1   -1    0    0    0  501  0.00000000000E+00  0.00000000000E+00 -0.66595813726E+03  0.66595813728E+03  0.50400001928E-02 0.  1.
    10030    2    1    2    0    0  0.00000000000E+00  0.00000000000E+00  0.12872490287E+04  0.26191653033E+04  0.22810122367E+04 0.  0.
        1    1    3    3  502    0  0.10092127454E+04 -0.34066287327E+03  0.11117272689E+04  0.15396425166E+04  0.50400001928E-02 0. -1.
       -1    1    3    3    0  502 -0.10092127454E+04  0.34066287327E+03  0.17552175986E+03  0.10795227866E+04  0.50400001928E-02 0.  1.
</event>
<event>
 5   0  0.6468758E-05  0.2345339E+04  0.7818609E-02  0.8460256E-01
       -2   -1    0    0    0  501  0.00000000000E+00  0.00000000000E+00  0.12149995183E+04  0.12149995183E+04  0.25500000920E-02 0.  1.
        2   -1    0    0  501    0  0.00000000000E+00  0.00000000000E+00 -0.11318138476E+04  0.11318138476E+04  0.25500000920E-02 0. -1.
    10030    2    1    2    0    0  0.00000000000E+00  0.00000000000E+00  0.83185670692E+02  0.23468133659E+04  0.23453385936E+04 0.  0.
        3    1    3    3  502    0  0.59597614131E+03 -0.51399641535E+03  0.91149177658E+03  0.12042413151E+04  0.10100000352E+00 0.  1.
       -3    1    3    3    0  502 -0.59597614131E+03  0.51399641535E+03 -0.82830610589E+03  0.11425720508E+04  0.10100000352E+00 0. -1.
</event>
<event>
 5   0  0.6814789E-05  0.2422320E+04  0.7818609E-02  0.8431194E-01
       -2   -1    0    0    0  501  0.00000000000E+00  0.00000000000E+00  0.70831397873E+03  0.70831397873E+03  0.25500000920E-02 0. -1.
        2   -1    0    0  501    0  0.00000000000E+00  0.00000000000E+00 -0.20709861092E+04  0.20709861092E+04  0.25500000920E-02 0.  1.
    10030    2    1    2    0    0  0.00000000000E+00  0.00000000000E+00 -0.13626721305E+04  0.27793000880E+04  0.24223198888E+04 0.  0.
        1    1    3    3  502    0  0.17108118067E+03 -0.10574280872E+04 -0.32806903484E+02  0.10716805601E+04  0.50400001928E-02 0. -1.
       -1    1    3    3    0  502 -0.17108118067E+03  0.10574280872E+04 -0.13298652270E+04  0.17076195279E+04  0.50400001928E-02 0.  1.
</event>
<event>
 5   0  0.6676612E-05  0.2367635E+04  0.7818609E-02  0.8451721E-01
       -2   -1    0    0    0  501  0.00000000000E+00  0.00000000000E+00  0.11455101750E+04  0.11455101750E+04  0.25500000920E-02 0. -1.
        2   -1    0    0  501    0  0.00000000000E+00  0.00000000000E+00 -0.12234055848E+04  0.12234055848E+04  0.25500000920E-02 0.  1.
    10030    2    1    2    0    0  0.00000000000E+00  0.00000000000E+00 -0.77895409803E+02  0.23689157598E+04  0.23676347231E+04 0.  0.
        2    1    3    3  502    0 -0.10261611702E+04 -0.15299984327E+03 -0.60935075541E+03  0.12032140468E+04  0.25500000920E-02 0.  1.
       -2    1    3    3    0  502  0.10261611702E+04  0.15299984327E+03  0.53145534560E+03  0.11657017130E+04  0.25500000920E-02 0. -1.
</event>
<event>
 5   0  0.2342500E-05  0.2334586E+04  0.7818609E-02  0.8464408E-01
        4   -1    0    0  501    0  0.00000000000E+00  0.00000000000E+00  0.94889005935E+03  0.94889090924E+03  0.12699999809E+01 0. -1.
       -4   -1    0    0    0  501  0.00000000000E+00  0.00000000000E+00 -0.14359627464E+04  0.14359633080E+04  0.12699999809E+01 0.  1.
    10030    2    1    2    0    0  0.00000000000E+00  0.00000000000E+00 -0.48707268708E+03  0.23848542173E+04  0.23345855810E+04 0.  0.
        5    1    3    3  502    0 -0.16647272112E+03 -0.91280532806E+03 -0.96704050422E+03  0.13401925834E+04  0.46999998093E+01 0.  1.
       -5    1    3    3    0  502  0.16647272112E+03  0.91280532806E+03  0.47996781714E+03  0.10446616339E+04  0.46999998093E+01 0. -1.
</event>
<event>
 5   0  0.2982385E-05  0.2310768E+04  0.7818609E-02  0.8473687E-01
       -1   -1    0    0    0  501  0.00000000000E+00  0.00000000000E+00  0.19042019426E+04  0.19042019426E+04  0.50400001928E-02 0. -1.
        1   -1    0    0  501    0  0.00000000000E+00  0.00000000000E+00 -0.70103517295E+03  0.70103517297E+03  0.50400001928E-02 0.  1.
    10030    2    1    2    0    0  0.00000000000E+00  0.00000000000E+00  0.12031667696E+04  0.26052371156E+04  0.23107683036E+04 0.  0.
        4    1    3    3  502    0 -0.11523189894E+04 -0.44517382801E+02  0.68201984079E+03  0.13397662210E+04  0.12699999809E+01 0.  1.
       -4    1    3    3    0  502  0.11523189894E+04  0.44517382801E+02  0.52114692886E+03  0.12654708946E+04  0.12699999809E+01 0. -1.
</event>
<event>
 5   0  0.6495405E-05  0.2307214E+04  0.7818609E-02  0.8475082E-01
       -2   -1    0    0    0  501  0.00000000000E+00  0.00000000000E+00  0.24686090398E+04  0.24686090398E+04  0.25500000920E-02 0.  1.
        2   -1    0    0  501    0  0.00000000000E+00  0.00000000000E+00 -0.53909282138E+03  0.53909282138E+03  0.25500000920E-02 0. -1.
    10030    2    1    2    0    0  0.00000000000E+00  0.00000000000E+00  0.19295162184E+04  0.30077018611E+04  0.23072142615E+04 0.  0.
        5    1    3    3  502    0 -0.86853236345E+02  0.10243986650E+04  0.16469462905E+04  0.19414917675E+04  0.46999998093E+01 0.  1.
       -5    1    3    3    0  502  0.86853236345E+02 -0.10243986650E+04  0.28256992785E+03  0.10662100936E+04  0.46999998093E+01 0. -1.
</event>
<event>
 5   0  0.2342500E-05  0.2354999E+04  0.7818609E-02  0.8456546E-01
       -4   -1    0    0    0  501  0.00000000000E+00  0.00000000000E+00  0.10664658595E+04  0.10664666157E+04  0.12699999809E+01 0. -1.
        4   -1    0    0  501    0  0.00000000000E+00  0.00000000000E+00 -0.13000913351E+04  0.13000919554E+04  0.12699999809E+01 0.  1.
    10030    2    1    2    0    0  0.00000000000E+00  0.00000000000E+00 -0.23362547553E+03  0.23665585711E+04  0.23549986428E+04 0.  0.
        2    1    3    3  502    0  0.26845963251E+03  0.23532187122E+03 -0.12443980549E+04  0.12945939427E+04  0.25500000920E-02 0.  1.
       -2    1    3    3    0  502 -0.26845963251E+03 -0.23532187122E+03  0.10107725794E+04  0.10719646284E+04  0.25500000920E-02 0. -1.
</event>
<event>
 5   0  0.2944089E-05  0.2151587E+04  0.7818609E-02  0.8538853E-01
        1   -1    0    0  501    0  0.00000000000E+00  0.00000000000E+00  0.23671520379E+04  0.23671520379E+04  0.50400001928E-02 0. -1.
       -1   -1    0    0    0  501  0.00000000000E+00  0.00000000000E+00 -0.48891312538E+03  0.48891312541E+03  0.50400001928E-02 0.  1.
    10030    2    1    2    0    0  0.00000000000E+00  0.00000000000E+00  0.18782389125E+04  0.28560651633E+04  0.21515870432E+04 0.  0.
        5    1    3    3  502    0 -0.73761623534E+03  0.48478125723E+03  0.17554778861E+04  0.19648957419E+04  0.46999998093E+01 0. -1.
       -5    1    3    3    0  502  0.73761623534E+03 -0.48478125723E+03  0.12276102640E+03  0.89116942138E+03  0.46999998093E+01 0.  1.
</event>
<event>
 5   0  0.2982385E-05  0.2301989E+04  0.7818609E-02  0.8477137E-01
       -1   -1    0    0    0  501  0.00000000000E+00  0.00000000000E+00  0.15185170177E+04  0.15185170177E+04  0.50400001928E-02 0.  1.
        1   -1    0    0  501    0  0.00000000000E+00  0.00000000000E+00 -0.87242279680E+03  0.87242279681E+03  0.50400001928E-02 0. -1.
    10030    2    1    2    0    0  0.00000000000E+00  0.00000000000E+00  0.64609422091E+03  0.23909398145E+04  0.23019894558E+04 0.  0.
        4    1    3    3  502    0 -0.54301830190E+03  0.46761808685E+03 -0.61245145058E+03  0.94267382671E+03  0.12699999809E+01 0. -1.
       -4    1    3    3    0  502  0.54301830190E+03 -0.46761808685E+03  0.12585456715E+04  0.14482659878E+04  0.12699999809E+01 0.  1.
</event>
<event>
 5   0  0.3118614E-05  0.2256900E+04  0.7818609E-02  0.8495111E-01
       -1   -1    0    0    0  501  0.00000000000E+00  0.00000000000E+00  0.92257988880E+03  0.92257988882E+03  0.50400001928E-02 0. -1.
        1   -1    0    0  501    0  0.00000000000E+00  0.00000000000E+00 -0.13802590150E+04  0.13802590150E+04  0.50400001928E-02 0.  1.
    10030    2    1    2    0    0  0.00000000000E+00  0.00000000000E+00 -0.45767912623E+03  0.23028389039E+04  0.22568998282E+04 0.  0.
        3    1    3    3  502    0  0.67570248669E+03  0.32603438029E+02 -0.11504197020E+04  0.13345794602E+04  0.10100000352E+00 0.  1.
       -3    1    3    3    0  502 -0.67570248669E+03 -0.32603438029E+02  0.69274057576E+03  0.96825944364E+03  0.10100000352E+00 0. -1.
</event>
<event>
 5   0  0.2944089E-05  0.2259572E+04  0.7818609E-02  0.8494034E-01
        1   -1    0    0  501    0  0.00000000000E+00  0.00000000000E+00  0.12709926474E+04  0.12709926474E+04  0.50400001928E-02 0. -1.
       -1   -1    0    0    0  501  0.00000000000E+00  0.00000000000E+00 -0.10042674339E+04  0.10042674339E+04  0.50400001928E-02 0.  1.
    10030    2    1    2    0    0  0.00000000000E+00  0.00000000000E+00  0.26672521352E+03  0.22752600813E+04  0.22595721051E+04 0.  0.
        5    1    3    3  502    0  0.66269334855E+03 -0.55902480265E+03 -0.59604449673E+03  0.10521227762E+04  0.46999998093E+01 0.  1.
       -5    1    3    3    0  502 -0.66269334855E+03  0.55902480265E+03  0.86276971025E+03  0.12231373051E+04  0.46999998093E+01 0. -1.
</event>
<event>
 5   0  0.2962279E-05  0.2290442E+04  0.7818609E-02  0.8481699E-01
        1   -1    0    0  501    0  0.00000000000E+00  0.00000000000E+00  0.10868603083E+04  0.10868603084E+04  0.50400001928E-02 0. -1.
       -1   -1    0    0    0  501  0.00000000000E+00  0.00000000000E+00 -0.12067159564E+04  0.12067159564E+04  0.50400001928E-02 0.  1.
    10030    2    1    2    0    0  0.00000000000E+00  0.00000000000E+00 -0.11985564808E+03  0.22935762648E+04  0.22904424695E+04 0.  0.
        1    1    3    3  502    0  0.80333104603E+03  0.56186493077E+03  0.53291150578E+03  0.11158080673E+04  0.50400001928E-02 0. -1.
       -1    1    3    3    0  502 -0.80333104603E+03 -0.56186493077E+03 -0.65276715386E+03  0.11777681975E+04  0.50400001928E-02 0.  1.
</event>
<event>
 5   0  0.2342500E-05  0.2155080E+04  0.7818609E-02  0.8537361E-01
        3   -1    0    0  501    0  0.00000000000E+00  0.00000000000E+00  0.91227740707E+03  0.91227741266E+03  0.10100000352E+00 0.  1.
       -3   -1    0    0    0  501  0.00000000000E+00  0.00000000000E+00 -0.12727410386E+04  0.12727410426E+04  0.10100000352E+00 0. -1.
    10030    2    1    2    0    0  0.00000000000E+00  0.00000000000E+00 -0.36046363149E+03  0.21850184552E+04  0.21550804208E+04 0.  0.
        3    1    3    3  502    0 -0.96992191298E+02  0.46239493264E+03 -0.11621253884E+04  0.12544927212E+04  0.10100000352E+00 0. -1.
       -3    1    3    3    0  502  0.96992191298E+02 -0.46239493264E+03  0.80166175695E+03  0.93052573402E+03  0.10100000352E+00 0.  1.
</event>
<event>
 5   0  0.6814789E-05  0.2290843E+04  0.7818609E-02  0.8481540E-01
        2   -1    0    0  501    0  0.00000000000E+00  0.00000000000E+00  0.13324285476E+04  0.13324285476E+04  0.25500000920E-02 0. -1.
       -2   -1    0    0    0  501  0.00000000000E+00  0.00000000000E+00 -0.98466134781E+03  0.98466134782E+03  0.25500000920E-02 0.  1.
    10030    2    1    2    0    0  0.00000000000E+00  0.00000000000E+00  0.34776719982E+03  0.23170898955E+04  0.22908434164E+04 0.  0.
        1    1    3    3  502    0 -0.41625224387E+03 -0.84851510000E+03  0.82840428446E+03  0.12567805950E+04  0.50400001928E-02 0. -1.
       -1    1    3    3    0  502  0.41625224387E+03  0.84851510000E+03 -0.48063708464E+03  0.10603093004E+04  0.50400001928E-02 0.  1.
</event>
<event>
 5   0  0.2962279E-05  0.1676004E+04  0.7818609E-02  0.8775170E-01
       -1   -1    0    0    0  501  0.00000000000E+00  0.00000000000E+00  0.61909518731E+03  0.61909518733E+03  0.50400001928E-02 0.  1.
        1   -1    0    0  501    0  0.00000000000E+00  0.00000000000E+00 -0.11343121279E+04  0.11343121279E+04  0.50400001928E-02 0. -1.
    10030    2    1    2    0    0  0.00000000000E+00  0.00000000000E+00 -0.51521694055E+03  0.17534073152E+04  0.16760037939E+04 0.  0.
        1    1    3    3  502    0 -0.48941978193E+03 -0.31634455780E+03  0.37240032730E+03  0.69158340495E+03  0.50400001928E-02 0.  1.
       -1    1    3    3    0  502  0.48941978193E+03  0.31634455780E+03 -0.88761726785E+03  0.10618239103E+04  0.50400001928E-02 0. -1.
</event>
<event>
 5   0  0.6702421E-05  0.2253249E+04  0.7818609E-02  0.8496586E-01
       -2   -1    0    0    0  501  0.00000000000E+00  0.00000000000E+00  0.10272545960E+04  0.10272545960E+04  0.25500000920E-02 0. -1.
        2   -1    0    0  501    0  0.00000000000E+00  0.00000000000E+00 -0.12356066575E+04  0.12356066575E+04  0.25500000920E-02 0.  1.
    10030    2    1    2    0    0  0.00000000000E+00  0.00000000000E+00 -0.20835206152E+03  0.22628612535E+04  0.22532488701E+04 0.  0.
        4    1    3    3  502    0  0.13445178005E+02  0.51146702775E+03 -0.11122018601E+04  0.12242442092E+04  0.12699999809E+01 0.  1.
       -4    1    3    3    0  502 -0.13445178005E+02 -0.51146702775E+03  0.90384979858E+03  0.10386170442E+04  0.12699999809E+01 0. -1.
</event>
<event>
 5   0  0.6495405E-05  0.2315563E+04  0.7818609E-02  0.8471810E-01
        2   -1    0    0  501    0  0.00000000000E+00  0.00000000000E+00  0.12191509461E+04  0.12191509461E+04  0.25500000920E-02 0. -1.
       -2   -1    0    0    0  501  0.00000000000E+00  0.00000000000E+00 -0.10995010417E+04  0.10995010417E+04  0.25500000920E-02 0.  1.
    10030    2    1    2    0    0  0.00000000000E+00  0.00000000000E+00  0.11964990443E+03  0.23186519878E+04  0.23155627698E+04 0.  0.
        5    1    3    3  502    0 -0.66076814266E+03  0.94857508526E+03 -0.37137369119E+01  0.11560471931E+04  0.46999998093E+01 0. -1.
       -5    1    3    3    0  502  0.66076814266E+03 -0.94857508526E+03  0.12336364135E+03  0.11626047947E+04  0.46999998093E+01 0.  1.
</event>
<event>
 5   0  0.3006265E-05  0.2328019E+04  0.7818609E-02  0.8466955E-01
       -1   -1    0    0    0  501  0.00000000000E+00  0.00000000000E+00  0.95033651159E+03  0.95033651160E+03  0.50400001928E-02 0.  1.
        1   -1    0    0  501    0  0.00000000000E+00  0.00000000000E+00 -0.14257247046E+04  0.14257247046E+04  0.50400001928E-02 0. -1.
    10030    2    1    2    0    0  0.00000000000E+00  0.00000000000E+00 -0.47538819297E+03  0.23760612162E+04  0.23280191084E+04 0.  0.
        2    1    3    3  502    0 -0.36625139481E+03 -0.11029473982E+04 -0.30450638895E+03  0.12013980141E+04  0.25500000920E-02 0.  1.
       -2    1    3    3    0  502  0.36625139481E+03  0.11029473982E+04 -0.17088180402E+03  0.11746632021E+04  0.25500000920E-02 0. -1.
</event>
<event>
 5   0  0.2962279E-05  0.2298575E+04  0.7818609E-02  0.8478483E-01
       -1   -1    0    0    0  501  0.00000000000E+00  0.00000000000E+00  0.13404128087E+04  0.13404128087E+04  0.50400001928E-02 0.  1.
        1   -1    0    0  501    0  0.00000000000E+00  0.00000000000E+00 -0.98541385066E+03  0.98541385067E+03  0.50400001928E-02 0. -1.
    10030    2    1    2    0    0  0.00000000000E+00  0.00000000000E+00  0.35499895804E+03  0.23258266594E+04  0.22985746430E+04 0.  0.
        1    1    3    3  502    0 -0.29143489563E+03 -0.11107494386E+04  0.13044291227E+03  0.11557309233E+04  0.50400001928E-02 0. -1.
       -1    1    3    3    0  502  0.29143489563E+03  0.11107494386E+04  0.22455604577E+03  0.11700957360E+04  0.50400001928E-02 0.  1.
</event>
<event>
 5   0  0.6676612E-05  0.2310958E+04  0.7818609E-02  0.8473613E-01
       -2   -1    0    0    0  501  0.00000000000E+00  0.00000000000E+00  0.11693714846E+04  0.11693714846E+04  0.25500000920E-02 0.  1.
        2   -1    0    0  501    0  0.00000000000E+00  0.00000000000E+00 -0.11417513352E+04  0.11417513352E+04  0.25500000920E-02 0. -1.
    10030    2    1    2    0    0  0.00000000000E+00  0.00000000000E+00  0.27620149405E+02  0.23111228199E+04  0.23109577702E+04 0.  0.
        2    1    3    3  502    0 -0.24692872892E+03 -0.10189099303E+04  0.49962271292E+03  0.11613673401E+04  0.25500000920E-02 0.  1.
       -2    1    3    3    0  502  0.24692872892E+03  0.10189099303E+04 -0.47200256352E+03  0.11497554798E+04  0.25500000920E-02 0. -1.
</event>
<event>
 5   0  0.3118614E-05  0.2326137E+04  0.7818609E-02  0.8467687E-01
       -1   -1    0    0    0  501  0.00000000000E+00  0.00000000000E+00  0.89920172860E+03  0.89920172862E+03  0.50400001928E-02 0. -1.
        1   -1    0    0  501    0  0.00000000000E+00  0.00000000000E+00 -0.15043652946E+04  0.15043652946E+04  0.50400001928E-02 0.  1.
    10030    2    1    2    0    0  0.00000000000E+00  0.00000000000E+00 -0.60516356595E+03  0.24035670232E+04  0.23261366025E+04 0.  0.
        3    1    3    3  502    0  0.58433116246E+03  0.13251056919E+03  0.72745877971E+03  0.94244270104E+03  0.10100000352E+00 0. -1.
       -3    1    3    3    0  502 -0.58433116246E+03 -0.13251056919E+03 -0.13326223457E+04  0.14611243221E+04  0.10100000352E+00 0.  1.
</event>
<event>
 5   0  0.3118614E-05  0.2257178E+04  0.7818609E-02  0.8494999E-01
       -1   -1    0    0    0  501  0.00000000000E+00  0.00000000000E+00  0.85373652056E+03  0.85373652058E+03  0.50400001928E-02 0. -1.
        1   -1    0    0  501    0  0.00000000000E+00  0.00000000000E+00 -0.14919271544E+04  0.14919271544E+04  0.50400001928E-02 0.  1.
    10030    2    1    2    0    0  0.00000000000E+00  0.00000000000E+00 -0.63819063381E+03  0.23456636750E+04  0.22571776162E+04 0.  0.
        3    1    3    3  502    0 -0.99754080105E+03 -0.45565422523E+03 -0.42183030798E+02  0.10974916132E+04  0.10100000352E+00 0. -1.
       -3    1    3    3    0  502  0.99754080105E+03  0.45565422523E+03 -0.59600760302E+03  0.12481720618E+04  0.10100000352E+00 0.  1.
</event>
<event>
 5   0  0.6676612E-05  0.2315596E+04  0.7818609E-02  0.8471797E-01
       -2   -1    0    0    0  501  0.00000000000E+00  0.00000000000E+00  0.64752511895E+03  0.64752511896E+03  0.25500000920E-02 0.  1.
        2   -1    0    0  501    0  0.00000000000E+00  0.00000000000E+00 -0.20701842734E+04  0.20701842734E+04  0.25500000920E-02 0. -1.
    10030    2    1    2    0    0  0.00000000000E+00  0.00000000000E+00 -0.14226591544E+04  0.27177093923E+04  0.23155960942E+04 0.  0.
        2    1    3    3  502    0  0.37724280847E+03 -0.56024366727E+03 -0.18150085622E+04  0.19366055830E+04  0.25500000920E-02 0.  1.
       -2    1    3    3    0  502 -0.37724280847E+03  0.56024366727E+03  0.39234940774E+03  0.78110380937E+03  0.25500000920E-02 0. -1.
</event>
<event>
 5   0  0.2944089E-05  0.2294528E+04  0.7818609E-02  0.8480082E-01
       -1   -1    0    0    0  501  0.00000000000E+00  0.00000000000E+00  0.11791074712E+04  0.11791074712E+04  0.50400001928E-02 0. -1.
        1   -1    0    0  501    0  0.00000000000E+00  0.00000000000E+00 -0.11162809562E+04  0.11162809562E+04  0.50400001928E-02 0.  1.
    10030    2    1    2    0    0  0.00000000000E+00  0.00000000000E+00  0.62826514985E+02  0.22953884274E+04  0.22945284617E+04 0.  0.
        5    1    3    3  502    0 -0.30273646789E+03  0.98353059820E+03 -0.47593687330E+03  0.11338076574E+04  0.46999998093E+01 0. -1.
       -5    1    3    3    0  502  0.30273646789E+03 -0.98353059820E+03  0.53876338828E+03  0.11615807700E+04  0.46999998093E+01 0.  1.
</event>
<event>
 5   0  0.6468758E-05  0.2300892E+04  0.7818609E-02  0.8477569E-01
       -2   -1    0    0    0  501  0.00000000000E+00  0.00000000000E+00  0.17268655106E+04  0.17268655106E+04  0.25500000920E-02 0.  1.
        2   -1    0    0  501    0  0.00000000000E+00  0.00000000000E+00 -0.76643274075E+03  0.76643274076E+03  0.25500000920E-02 0. -1.
    10030    2    1    2    0    0  0.00000000000E+00  0.00000000000E+00  0.96043276981E+03  0.24932982513E+04  0.23008922323E+04 0.  0.
        3    1    3    3  502    0  0.44445165027E+03  0.10108870542E+04  0.13059683781E+03  0.11119736732E+04  0.10100000352E+00 0.  1.
       -3    1    3    3    0  502 -0.44445165027E+03 -0.10108870542E+04  0.82983593200E+03  0.13813245781E+04  0.10100000352E+00 0. -1.
</event>
<event>
 5   0  0.6468758E-05  0.2400076E+04  0.7818609E-02  0.8439475E-01
       -2   -1    0    0    0  501  0.00000000000E+00  0.00000000000E+00  0.20045562597E+04  0.20045562597E+04  0.25500000920E-02 0.  1.
        2   -1    0    0  501    0  0.00000000000E+00  0.00000000000E+00 -0.71840926422E+03  0.71840926423E+03  0.25500000920E-02 0. -1.
    10030    2    1    2    0    0  0.00000000000E+00  0.00000000000E+00  0.12861469954E+04  0.27229655239E+04  0.24000764884E+04 0.  0.
        3    1    3    3  502    0 -0.77551064714E+03  0.89277996248E+03  0.41162059538E+03  0.12521598740E+04  0.10100000352E+00 0.  1.
       -3    1    3    3    0  502  0.77551064714E+03 -0.89277996248E+03  0.87452640005E+03  0.14708056499E+04  0.10100000352E+00 0. -1.
</event>
<event>
 5   0  0.6676612E-05  0.2271469E+04  0.7818609E-02  0.8489256E-01
        2   -1    0    0  501    0  0.00000000000E+00  0.00000000000E+00  0.27210700177E+04  0.27210700177E+04  0.25500000920E-02 0.  1.
       -2   -1    0    0    0  501  0.00000000000E+00  0.00000000000E+00 -0.47403891686E+03  0.47403891687E+03  0.25500000920E-02 0. -1.
    10030    2    1    2    0    0  0.00000000000E+00  0.00000000000E+00  0.22470311008E+04  0.31951089346E+04  0.22714692020E+04 0.  0.
        2    1    3    3  502    0 -0.42921785691E+03  0.79127467272E+03  0.20975976030E+04  0.22825992378E+04  0.25500000920E-02 0.  1.
       -2    1    3    3    0  502  0.42921785691E+03 -0.79127467272E+03  0.14943349783E+03  0.91250969674E+03  0.25500000920E-02 0. -1.
</event>
<event>
 5   0  0.2982385E-05  0.2337595E+04  0.7818609E-02  0.8463244E-01
       -1   -1    0    0    0  501  0.00000000000E+00  0.00000000000E+00  0.22916450861E+04  0.22916450861E+04  0.50400001928E-02 0.  1.
        1   -1    0    0  501    0  0.00000000000E+00  0.00000000000E+00 -0.59611671458E+03  0.59611671460E+03  0.50400001928E-02 0. -1.
    10030    2    1    2    0    0  0.00000000000E+00  0.00000000000E+00  0.16955283715E+04  0.28877618007E+04  0.23375952941E+04 0.  0.
        4    1    3    3  502    0 -0.79638751237E+03  0.10216430440E+03 -0.20149998028E+03  0.82781306459E+03  0.12699999809E+01 0. -1.
       -4    1    3    3    0  502  0.79638751237E+03 -0.10216430440E+03  0.18970283518E+04  0.20599487361E+04  0.12699999809E+01 0.  1.
</event>
<event>
 5   0  0.6814789E-05  0.2801806E+04  0.7818609E-02  0.8302708E-01
        2   -1    0    0  501    0  0.00000000000E+00  0.00000000000E+00  0.15039152291E+04  0.15039152291E+04  0.25500000920E-02 0.  1.
       -2   -1    0    0    0  501  0.00000000000E+00  0.00000000000E+00 -0.13049469513E+04  0.13049469513E+04  0.25500000920E-02 0. -1.
    10030    2    1    2    0    0  0.00000000000E+00  0.00000000000E+00  0.19896827780E+03  0.28088621805E+04  0.28018062698E+04 0.  0.
        1    1    3    3  502    0  0.10372741762E+04  0.81122844689E+03  0.57870498278E+03  0.14383771296E+04  0.50400001928E-02 0.  1.
       -1    1    3    3    0  502 -0.10372741762E+04 -0.81122844689E+03 -0.37973670497E+03  0.13704850509E+04  0.50400001928E-02 0. -1.
</event>
<event>
 5   0  0.6676612E-05  0.2424419E+04  0.7818609E-02  0.8430418E-01
        2   -1    0    0  501    0  0.00000000000E+00  0.00000000000E+00  0.12593873274E+04  0.12593873274E+04  0.25500000920E-02 0. -1.
       -2   -1    0    0    0  501  0.00000000000E+00  0.00000000000E+00 -0.11667992591E+04  0.11667992591E+04  0.25500000920E-02 0.  1.
    10030    2    1    2    0    0  0.00000000000E+00  0.00000000000E+00  0.92588068250E+02  0.24261865865E+04  0.24244192711E+04 0.  0.
        2    1    3    3  502    0 -0.22600537540E+03 -0.10996907974E+04  0.50385148166E+03  0.12305545884E+04  0.25500000920E-02 0. -1.
       -2    1    3    3    0  502  0.22600537540E+03  0.10996907974E+04 -0.41126341341E+03  0.11956319980E+04  0.25500000920E-02 0.  1.
</event>
<event>
 5   0  0.6814789E-05  0.2309445E+04  0.7818609E-02  0.8474207E-01
        2   -1    0    0  501    0  0.00000000000E+00  0.00000000000E+00  0.87168652289E+03  0.87168652289E+03  0.25500000920E-02 0. -1.
       -2   -1    0    0    0  501  0.00000000000E+00  0.00000000000E+00 -0.15296595336E+04  0.15296595336E+04  0.25500000920E-02 0.  1.
    10030    2    1    2    0    0  0.00000000000E+00  0.00000000000E+00 -0.65797301072E+03  0.24013460565E+04  0.23094446086E+04 0.  0.
        1    1    3    3  502    0 -0.11245584939E+04  0.18778467474E+03 -0.51926793594E+03  0.12528104723E+04  0.50400001928E-02 0. -1.
       -1    1    3    3    0  502  0.11245584939E+04 -0.18778467474E+03 -0.13870507478E+03  0.11485355842E+04  0.50400001928E-02 0.  1.
</event>
<event>
 5   0  0.6468758E-05  0.2314567E+04  0.7818609E-02  0.8472200E-01
       -2   -1    0    0    0  501  0.00000000000E+00  0.00000000000E+00  0.10672086710E+04  0.10672086710E+04  0.25500000920E-02 0.  1.
        2   -1    0    0  501    0  0.00000000000E+00  0.00000000000E+00 -0.12549608879E+04  0.12549608879E+04  0.25500000920E-02 0. -1.
    10030    2    1    2    0    0  0.00000000000E+00  0.00000000000E+00 -0.18775221693E+03  0.23221695588E+04  0.23145670362E+04 0.  0.
        3    1    3    3  502    0 -0.81286958802E+03 -0.47013438452E+03  0.58474923058E+03  0.11062165157E+04  0.10100000352E+00 0.  1.
       -3    1    3    3    0  502  0.81286958802E+03  0.47013438452E+03 -0.77250144752E+03  0.12159530432E+04  0.10100000352E+00 0. -1.
</event>
<event>
 5   0  0.3006265E-05  0.2297637E+04  0.7818609E-02  0.8478853E-01
        1   -1    0    0  501    0  0.00000000000E+00  0.00000000000E+00  0.14249677338E+04  0.14249677338E+04  0.50400001928E-02 0.  1.
       -1   -1    0    0    0  501  0.00000000000E+00  0.00000000000E+00 -0.92618529945E+03  0.92618529946E+03  0.50400001928E-02 0. -1.
    10030    2    1    2    0    0  0.00000000000E+00  0.00000000000E+00  0.49878243432E+03  0.23511530332E+04  0.22976371926E+04 0.  0.
        2    1    3    3  502    0  0.60606136589E+03 -0.88461296088E+02 -0.74517691308E+03  0.96458509833E+03  0.25500000920E-02 0. -1.
       -2    1    3    3    0  502 -0.60606136589E+03  0.88461296088E+02  0.12439593474E+04  0.13865679349E+04  0.25500000920E-02 0.  1.
</event>
<event>
 5   0  0.6814789E-05  0.2346388E+04  0.7818609E-02  0.8459852E-01
       -2   -1    0    0    0  501  0.00000000000E+00  0.00000000000E+00  0.83431792854E+03  0.83431792855E+03  0.25500000920E-02 0.  1.
        2   -1    0    0  501    0  0.00000000000E+00  0.00000000000E+00 -0.16497122239E+04  0.16497122239E+04  0.25500000920E-02 0. -1.
    10030    2    1    2    0    0  0.00000000000E+00  0.00000000000E+00 -0.81539429534E+03  0.24840301524E+04  0.23463882759E+04 0.  0.
        1    1    3    3  502    0  0.51832272364E+03 -0.95574713001E+03  0.58923254932E+02  0.10888447880E+04  0.50400001928E-02 0.  1.
       -1    1    3    3    0  502 -0.51832272364E+03  0.95574713001E+03 -0.87431755027E+03  0.13951853644E+04  0.50400001928E-02 0. -1.
</event>
<event>
 5   0  0.6702421E-05  0.2287532E+04  0.7818609E-02  0.8482853E-01
       -2   -1    0    0    0  501  0.00000000000E+00  0.00000000000E+00  0.58117449886E+03  0.58117449886E+03  0.25500000920E-02 0.  1.
        2   -1    0    0  501    0  0.00000000000E+00  0.00000000000E+00 -0.22509594307E+04  0.22509594307E+04  0.25500000920E-02 0. -1.
    10030    2    1    2    0    0  0.00000000000E+00  0.00000000000E+00 -0.16697849319E+04  0.28321339296E+04  0.22875316121E+04 0.  0.
        4    1    3    3  502    0 -0.31939148052E+03 -0.70851514062E+03 -0.18738381368E+04  0.20286142063E+04  0.12699999809E+01 0. -1.
       -4    1    3    3    0  502  0.31939148052E+03  0.70851514062E+03  0.20405320493E+03  0.80351972326E+03  0.12699999809E+01 0.  1.
</event>
<event>
 5   0  0.2962279E-05  0.2283504E+04  0.7818609E-02  0.8484454E-01
       -1   -1    0    0    0  501  0.00000000000E+00  0.00000000000E+00  0.88428111665E+03  0.88428111667E+03  0.50400001928E-02 0. -1.
        1   -1    0    0  501    0  0.00000000000E+00  0.00000000000E+00 -0.14741895472E+04  0.14741895473E+04  0.50400001928E-02 0.  1.
    10030    2    1    2    0    0  0.00000000000E+00  0.00000000000E+00 -0.58990843060E+03  0.23584706639E+04  0.22835043061E+04 0.  0.
        1    1    3    3  502    0 -0.27887312973E+03  0.10786008346E+04 -0.55305415150E+03  0.12437921359E+04  0.50400001928E-02 0.  1.
       -1    1    3    3    0  502  0.27887312973E+03 -0.10786008346E+04 -0.36854279094E+02  0.11146785280E+04  0.50400001928E-02 0. -1.
</event>
<event>
 5   0  0.3006265E-05  0.1821792E+04  0.7818609E-02  0.8694796E-01
        1   -1    0    0  501    0  0.00000000000E+00  0.00000000000E+00  0.21055754427E+04  0.21055754427E+04  0.50400001928E-02 0.  1.
       -1   -1    0    0    0  501  0.00000000000E+00  0.00000000000E+00 -0.39406388999E+03  0.39406389002E+03  0.50400001928E-02 0. -1.
    10030    2    1    2    0    0  0.00000000000E+00  0.00000000000E+00  0.17115115527E+04  0.24996393327E+04  0.18217917001E+04 0.  0.
        2    1    3    3  502    0  0.12033553026E+03 -0.22515911066E+02  0.20942361285E+04  0.20978113757E+04  0.25500000920E-02 0.  1.
       -2    1    3    3    0  502 -0.12033553026E+03  0.22515911066E+02 -0.38272457581E+03  0.40182795701E+03  0.25500000920E-02 0. -1.
</event>
<event>
 5   0  0.2944089E-05  0.2311400E+04  0.7818609E-02  0.8473440E-01
       -1   -1    0    0    0  501  0.00000000000E+00  0.00000000000E+00  0.70001308007E+03  0.70001308009E+03  0.50400001928E-02 0.  1.
        1   -1    0    0  501    0  0.00000000000E+00  0.00000000000E+00 -0.19080257912E+04  0.19080257912E+04  0.50400001928E-02 0. -1.
    10030    2    1    2    0    0  0.00000000000E+00  0.00000000000E+00 -0.12080127111E+04  0.26080388713E+04  0.23114004508E+04 0.  0.
        5    1    3    3  502    0 -0.10932868704E+03  0.16515517748E+03 -0.18887220371E+04  0.18990845210E+04  0.46999998093E+01 0. -1.
       -5    1    3    3    0  502  0.10932868704E+03 -0.16515517748E+03  0.68070932593E+03  0.70895435034E+03  0.46999998093E+01 0.  1.
</event>
<event>
 5   0  0.2342500E-05  0.2178517E+04  0.7818609E-02  0.8527423E-01
        3   -1    0    0  501    0  0.00000000000E+00  0.00000000000E+00  0.23410959147E+04  0.23410959169E+04  0.10100000352E+00 0.  1.
       -3   -1    0    0    0  501  0.00000000000E+00  0.00000000000E+00 -0.50680710184E+03  0.50680711190E+03  0.10100000352E+00 0. -1.
    10030    2    1    2    0    0  0.00000000000E+00  0.00000000000E+00  0.18342888128E+04  0.28479030288E+04  0.21785169755E+04 0.  0.
        3    1    3    3  502    0 -0.22728937038E+03  0.10645062749E+04  0.86404336694E+03  0.13897499838E+04  0.10100000352E+00 0. -1.
       -3    1    3    3    0  502  0.22728937038E+03 -0.10645062749E+04  0.97024544591E+03  0.14581530450E+04  0.10100000352E+00 0.  1.
</event>
<event>
 5   0  0.3118614E-05  0.2075913E+04  0.7818609E-02  0.8571929E-01
        1   -1    0    0  501    0  0.00000000000E+00  0.00000000000E+00  0.11438068639E+04  0.11438068639E+04  0.50400001928E-02 0.  1.
       -1   -1    0    0    0  501  0.00000000000E+00  0.00000000000E+00 -0.94190145516E+03  0.94190145517E+03  0.50400001928E-02 0. -1.
    10030    2    1    2    0    0  0.00000000000E+00  0.00000000000E+00  0.20190540874E+03  0.20857083191E+04  0.20759126663E+04 0.  0.
        3    1    3    3  502    0 -0.55673960083E+03  0.14164643512E+03  0.96951483433E+03  0.11269346564E+04  0.10100000352E+00 0.  1.
       -3    1    3    3    0  502  0.55673960083E+03 -0.14164643512E+03 -0.76760942559E+03  0.95877366264E+03  0.10100000352E+00 0. -1.
</event>
<event>
 5   0  0.6702421E-05  0.2287054E+04  0.7818609E-02  0.8483043E-01
       -2   -1    0    0    0  501  0.00000000000E+00  0.00000000000E+00  0.10096569801E+04  0.10096569801E+04  0.25500000920E-02 0. -1.
        2   -1    0    0  501    0  0.00000000000E+00  0.00000000000E+00 -0.12951473240E+04  0.12951473240E+04  0.25500000920E-02 0.  1.
    10030    2    1    2    0    0  0.00000000000E+00  0.00000000000E+00 -0.28549034391E+03  0.23048043042E+04  0.22870544690E+04 0.  0.
        4    1    3    3  502    0 -0.36826553327E+03  0.10825828464E+04 -0.13577770471E+03  0.11515391093E+04  0.12699999809E+01 0.  1.
       -4    1    3    3    0  502  0.36826553327E+03 -0.10825828464E+04 -0.14971263920E+03  0.11532651948E+04  0.12699999809E+01 0. -1.
</event>
<event>
 5   0  0.2962279E-05  0.2287881E+04  0.7818609E-02  0.8482715E-01
       -1   -1    0    0    0  501  0.00000000000E+00  0.00000000000E+00  0.65213919447E+03  0.65213919449E+03  0.50400001928E-02 0.  1.
        1   -1    0    0  501    0  0.00000000000E+00  0.00000000000E+00 -0.20066262304E+04  0.20066262304E+04  0.50400001928E-02 0. -1.
    10030    2    1    2    0    0  0.00000000000E+00  0.00000000000E+00 -0.13544870359E+04  0.26587654249E+04  0.22878807779E+04 0.  0.
        1    1    3    3  502    0 -0.34198745436E+02 -0.10577801691E+04 -0.11818330284E+04  0.15864418512E+04  0.50400001928E-02 0. -1.
       -1    1    3    3    0  502  0.34198745436E+02  0.10577801691E+04 -0.17265400747E+03  0.10723235736E+04  0.50400001928E-02 0.  1.
</event>
<event>
 5   0  0.6495405E-05  0.2305697E+04  0.7818609E-02  0.8475678E-01
        2   -1    0    0  501    0  0.00000000000E+00  0.00000000000E+00  0.15283141495E+04  0.15283141495E+04  0.25500000920E-02 0.  1.
       -2   -1    0    0    0  501  0.00000000000E+00  0.00000000000E+00 -0.86962470338E+03  0.86962470338E+03  0.25500000920E-02 0. -1.
    10030    2    1    2    0    0  0.00000000000E+00  0.00000000000E+00  0.65868944610E+03  0.23979388529E+04  0.23056970650E+04 0.  0.
        5    1    3    3  502    0  0.60065608712E+03  0.25328258525E+03  0.13182246810E+04  0.14706047065E+04  0.46999998093E+01 0.  1.
       -5    1    3    3    0  502 -0.60065608712E+03 -0.25328258525E+03 -0.65953523492E+03  0.92733414641E+03  0.46999998093E+01 0. -1.
</event>
<event>
 5   0  0.6495405E-05  0.2304915E+04  0.7818609E-02  0.8475986E-01
       -2   -1    0    0    0  501  0.00000000000E+00  0.00000000000E+00  0.22252732560E+04  0.22252732560E+04  0.25500000920E-02 0. -1.
        2   -1    0    0  501    0  0.00000000000E+00  0.00000000000E+00 -0.59685182987E+03  0.59685182988E+03  0.25500000920E-02 0.  1.
    10030    2    1    2    0    0  0.00000000000E+00  0.00000000000E+00  0.16284214261E+04  0.28221250858E+04  0.23049151089E+04 0.  0.
        5    1    3    3  502    0 -0.19286595991E+03  0.55270165931E+03 -0.40124966943E+03  0.70971810595E+03  0.46999998093E+01 0.  1.
       -5    1    3    3    0  502  0.19286595991E+03 -0.55270165931E+03  0.20296710955E+04  0.21124069799E+04  0.46999998093E+01 0. -1.
</event>
<event>
 5   0  0.6495405E-05  0.2312607E+04  0.7818609E-02  0.8472967E-01
        2   -1    0    0  501    0  0.00000000000E+00  0.00000000000E+00  0.70950910511E+03  0.70950910512E+03  0.25500000920E-02 0.  1.
       -2   -1    0    0    0  501  0.00000000000E+00  0.00000000000E+00 -0.18844550366E+04  0.18844550366E+04  0.25500000920E-02 0. -1.
    10030    2    1    2    0    0  0.00000000000E+00  0.00000000000E+00 -0.11749459315E+04  0.25939641418E+04  0.23126071925E+04 0.  0.
        5    1    3    3  502    0  0.45540263224E+03 -0.10511958092E+04 -0.41150518119E+03  0.12172767931E+04  0.46999998093E+01 0.  1.
       -5    1    3    3    0  502 -0.45540263224E+03  0.10511958092E+04 -0.76344075033E+03  0.13766873487E+04  0.46999998093E+01 0. -1.
</event>
<event>
 5   0  0.6676612E-05  0.2319486E+04  0.7818609E-02  0.8470277E-01
       -2   -1    0    0    0  501  0.00000000000E+00  0.00000000000E+00  0.99530908454E+03  0.99530908455E+03  0.25500000920E-02 0. -1.
        2   -1    0    0  501    0  0.00000000000E+00  0.00000000000E+00 -0.13513428829E+04  0.13513428829E+04  0.25500000920E-02 0.  1.
    10030    2    1    2    0    0  0.00000000000E+00  0.00000000000E+00 -0.35603379834E+03  0.23466519674E+04  0.23194860186E+04 0.  0.
        2    1    3    3  502    0  0.11129716381E+04 -0.53986848045E+02 -0.50331560239E+03  0.12226802700E+04  0.25500000920E-02 0. -1.
       -2    1    3    3    0  502 -0.11129716381E+04  0.53986848045E+02  0.14728180405E+03  0.11239716975E+04  0.25500000920E-02 0.  1.
</event>
<event>
 5   0  0.2982385E-05  0.2355780E+04  0.7818609E-02  0.8456247E-01
        1   -1    0    0  501    0  0.00000000000E+00  0.00000000000E+00  0.10358795248E+04  0.10358795249E+04  0.50400001928E-02 0.  1.
       -1   -1    0    0    0  501  0.00000000000E+00  0.00000000000E+00 -0.13393690545E+04  0.13393690545E+04  0.50400001928E-02 0. -1.
    10030    2    1    2    0    0  0.00000000000E+00  0.00000000000E+00 -0.30348952968E+03  0.23752485794E+04  0.23557801084E+04 0.  0.
        4    1    3    3  502    0  0.36505751604E+03  0.55608924407E+03  0.82835908891E+03  0.10623947621E+04  0.12699999809E+01 0.  1.
       -4    1    3    3    0  502 -0.36505751604E+03 -0.55608924407E+03 -0.11318486186E+04  0.13128538173E+04  0.12699999809E+01 0. -1.
</event>
<event>
 5   0  0.6814789E-05  0.2301803E+04  0.7818609E-02  0.8477210E-01
       -2   -1    0    0    0  501  0.00000000000E+00  0.00000000000E+00  0.98025108783E+03  0.98025108783E+03  0.25500000920E-02 0.  1.
        2   -1    0    0  501    0  0.00000000000E+00  0.00000000000E+00 -0.13512604039E+04  0.13512604039E+04  0.25500000920E-02 0. -1.
    10030    2    1    2    0    0  0.00000000000E+00  0.00000000000E+00 -0.37100931610E+03  0.23315114918E+04  0.23018031896E+04 0.  0.
        1    1    3    3  502    0  0.88122237983E+02  0.57042675262E+03  0.82304830195E+03  0.10052664902E+04  0.50400001928E-02 0.  1.
       -1    1    3    3    0  502 -0.88122237983E+02 -0.57042675262E+03 -0.11940576181E+04  0.13262450016E+04  0.50400001928E-02 0. -1.
</event>
<event>
 5   0  0.6495405E-05  0.2238944E+04  0.7818609E-02  0.8502391E-01
        2   -1    0    0  501    0  0.00000000000E+00  0.00000000000E+00  0.15277061904E+04  0.15277061904E+04  0.25500000920E-02 0.  1.
       -2   -1    0    0    0  501  0.00000000000E+00  0.00000000000E+00 -0.82032648794E+03  0.82032648795E+03  0.25500000920E-02 0. -1.
    10030    2    1    2    0    0  0.00000000000E+00  0.00000000000E+00  0.70737970243E+03  0.23480326783E+04  0.22389442635E+04 0.  0.
        5    1    3    3  502    0  0.10497394206E+04  0.38889945027E+03  0.35406837756E+03  0.11741303758E+04  0.46999998093E+01 0. -1.
       -5    1    3    3    0  502 -0.10497394206E+04 -0.38889945027E+03  0.35331132487E+03  0.11739023025E+04  0.46999998093E+01 0.  1.
</event>
<event>
 5   0  0.6702421E-05  0.2290452E+04  0.7818609E-02  0.8481695E-01
        2   -1    0    0  501    0  0.00000000000E+00  0.00000000000E+00  0.16041809323E+04  0.16041809323E+04  0.25500000920E-02 0.  1.
       -2   -1    0    0    0  501  0.00000000000E+00  0.00000000000E+00 -0.81757797685E+03  0.81757797686E+03  0.25500000920E-02 0. -1.
    10030    2    1    2    0    0  0.00000000000E+00  0.00000000000E+00  0.78660295546E+03  0.24217589092E+04  0.22904523581E+04 0.  0.
        4    1    3    3  502    0  0.40394260211E+03  0.42509835415E+03  0.14333934518E+04  0.15487080541E+04  0.12699999809E+01 0.  1.
       -4    1    3    3    0  502 -0.40394260211E+03 -0.42509835415E+03 -0.64679049629E+03  0.87305085504E+03  0.12699999809E+01 0. -1.
</event>
<event>
 5   0  0.6468758E-05  0.2286186E+04  0.7818609E-02  0.8483388E-01
       -2   -1    0    0    0  501  0.00000000000E+00  0.00000000000E+00  0.94965888126E+03  0.94965888127E+03  0.25500000920E-02 0.  1.
        2   -1    0    0  501    0  0.00000000000E+00  0.00000000000E+00 -0.13759275343E+04  0.13759275343E+04  0.25500000920E-02 0. -1.
    10030    2    1    2    0    0  0.00000000000E+00  0.00000000000E+00 -0.42626865303E+03  0.23255864156E+04  0.22861861717E+04 0.  0.
        3    1    3    3  502    0  0.77230577046E+03  0.84204546973E+03 -0.17841374939E+03  0.11564290953E+04  0.10100000352E+00 0.  1.
       -3    1    3    3    0  502 -0.77230577046E+03 -0.84204546973E+03 -0.24785490364E+03  0.11691573203E+04  0.10100000352E+00 0. -1.
</event>
<event>
 5   0  0.6495405E-05  0.2294436E+04  0.7818609E-02  0.8480118E-01
        2   -1    0    0  501    0  0.00000000000E+00  0.00000000000E+00  0.17216478576E+04  0.17216478576E+04  0.25500000920E-02 0.  1.
       -2   -1    0    0    0  501  0.00000000000E+00  0.00000000000E+00 -0.76444750751E+03  0.76444750752E+03  0.25500000920E-02 0. -1.
    10030    2    1    2    0    0  0.00000000000E+00  0.00000000000E+00  0.95720035011E+03  0.24860953651E+04  0.22944362389E+04 0.  0.
        5    1    3    3  502    0 -0.41856042960E+03  0.10187015653E+04  0.13061659935E+03  0.11090664986E+04  0.46999998093E+01 0. -1.
       -5    1    3    3    0  502  0.41856042960E+03 -0.10187015653E+04  0.82658375076E+03  0.13770288665E+04  0.46999998093E+01 0.  1.
</event>
<event>
 5   0  0.2982385E-05  0.2292279E+04  0.7818609E-02  0.8480972E-01
        1   -1    0    0  501    0  0.00000000000E+00  0.00000000000E+00  0.19116282457E+04  0.19116282457E+04  0.50400001928E-02 0. -1.
       -1   -1    0    0    0  501  0.00000000000E+00  0.00000000000E+00 -0.68718168012E+03  0.68718168014E+03  0.50400001928E-02 0.  1.
    10030    2    1    2    0    0  0.00000000000E+00  0.00000000000E+00  0.12244465656E+04  0.25988099259E+04  0.22922791363E+04 0.  0.
        4    1    3    3  502    0  0.27901031512E+03  0.10066355858E+04  0.77480385275E+02  0.10474572934E+04  0.12699999809E+01 0.  1.
       -4    1    3    3    0  502 -0.27901031512E+03 -0.10066355858E+04  0.11469661803E+04  0.15513526324E+04  0.12699999809E+01 0. -1.
</event>
<event>
 5   0  0.3118614E-05  0.2284021E+04  0.7818609E-02  0.8484248E-01
        1   -1    0    0  501    0  0.00000000000E+00  0.00000000000E+00  0.13193438258E+04  0.13193438258E+04  0.50400001928E-02 0.  1.
       -1   -1    0    0    0  501  0.00000000000E+00  0.00000000000E+00 -0.98851281741E+03  0.98851281742E+03  0.50400001928E-02 0. -1.
    10030    2    1    2    0    0  0.00000000000E+00  0.00000000000E+00  0.33083100837E+03  0.23078566432E+04  0.22840212629E+04 0.  0.
        3    1    3    3  502    0  0.70457984414E+03 -0.41816972864E+03  0.96926114881E+03  0.12691595107E+04  0.10100000352E+00 0.  1.
       -3    1    3    3    0  502 -0.70457984414E+03  0.41816972864E+03 -0.63843014044E+03  0.10386971325E+04  0.10100000352E+00 0. -1.
</event>
<event>
 5   0  0.2944089E-05  0.2250349E+04  0.7818609E-02  0.8497759E-01
        1   -1    0    0  501    0  0.00000000000E+00  0.00000000000E+00  0.13683415970E+04  0.13683415971E+04  0.50400001928E-02 0. -1.
       -1   -1    0    0    0  501  0.00000000000E+00  0.00000000000E+00 -0.92522011452E+03  0.92522011453E+03  0.50400001928E-02 0.  1.
    10030    2    1    2    0    0  0.00000000000E+00  0.00000000000E+00  0.44312148252E+03  0.22935617116E+04  0.22503485678E+04 0.  0.
        5    1    3    3  502    0  0.41469534995E+03  0.51649636226E+03 -0.70544018327E+03  0.96768211086E+03  0.46999998093E+01 0.  1.
       -5    1    3    3    0  502 -0.41469534995E+03 -0.51649636226E+03  0.11485616658E+04  0.13258796007E+04  0.46999998093E+01 0. -1.
</event>
<event>
 5   0  0.6814789E-05  0.2176002E+04  0.7818609E-02  0.8528484E-01
        2   -1    0    0  501    0  0.00000000000E+00  0.00000000000E+00  0.22663936737E+04  0.22663936737E+04  0.25500000920E-02 0.  1.
       -2   -1    0    0    0  501  0.00000000000E+00  0.00000000000E+00 -0.52230364934E+03  0.52230364935E+03  0.25500000920E-02 0. -1.
    10030    2    1    2    0    0  0.00000000000E+00  0.00000000000E+00  0.17440900244E+04  0.27886973231E+04  0.21760015502E+04 0.  0.
        1    1    3    3  502    0 -0.44635822213E+03 -0.57638761550E+03 -0.16300576172E+03  0.74701353679E+03  0.50400001928E-02 0. -1.
       -1    1    3    3    0  502  0.44635822213E+03  0.57638761550E+03  0.19070957861E+04  0.20416837863E+04  0.50400001928E-02 0.  1.
</event>
<event>
 5   0  0.6495405E-05  0.2320828E+04  0.7818609E-02  0.8469754E-01
       -2   -1    0    0    0  501  0.00000000000E+00  0.00000000000E+00  0.77010809012E+03  0.77010809012E+03  0.25500000920E-02 0.  1.
        2   -1    0    0  501    0  0.00000000000E+00  0.00000000000E+00 -0.17485348508E+04  0.17485348508E+04  0.25500000920E-02 0. -1.
    10030    2    1    2    0    0  0.00000000000E+00  0.00000000000E+00 -0.97842676063E+03  0.25186429409E+04  0.23208281577E+04 0.  0.
        5    1    3    3  502    0 -0.28160230104E+03  0.56140506244E+02  0.73093352768E+03  0.78532638073E+03  0.46999998093E+01 0.  1.
       -5    1    3    3    0  502  0.28160230104E+03 -0.56140506244E+02 -0.17093602883E+04  0.17333165601E+04  0.46999998093E+01 0. -1.
</event>
<event>
 5   0  0.2944089E-05  0.2309857E+04  0.7818609E-02  0.8474045E-01
        1   -1    0    0  501    0  0.00000000000E+00  0.00000000000E+00  0.10951064187E+04  0.10951064187E+04  0.50400001928E-02 0.  1.
       -1   -1    0    0    0  501  0.00000000000E+00  0.00000000000E+00 -0.12180180041E+04  0.12180180041E+04  0.50400001928E-02 0. -1.
    10030    2    1    2    0    0  0.00000000000E+00  0.00000000000E+00 -0.12291158540E+03  0.23131244228E+04  0.23098565621E+04 0.  0.
        5    1    3    3  502    0  0.79201599692E+03  0.81859024992E+03 -0.25266546305E+03  0.11667224446E+04  0.46999998093E+01 0.  1.
       -5    1    3    3    0  502 -0.79201599692E+03 -0.81859024992E+03  0.12975387765E+03  0.11464019781E+04  0.46999998093E+01 0. -1.
</event>
<event>
 5   0  0.2962279E-05  0.2280437E+04  0.7818609E-02  0.8485675E-01
        1   -1    0    0  501    0  0.00000000000E+00  0.00000000000E+00  0.15047535678E+04  0.15047535678E+04  0.50400001928E-02 0.  1.
       -1   -1    0    0    0  501  0.00000000000E+00  0.00000000000E+00 -0.86399443971E+03  0.86399443973E+03  0.50400001928E-02 0. -1.
    10030    2    1    2    0    0  0.00000000000E+00  0.00000000000E+00  0.64075912812E+03  0.23687480076E+04  0.22804374280E+04 0.  0.
        1    1    3    3  502    0 -0.61295499066E+03  0.66818355107E+02 -0.67588751593E+03  0.91487837845E+03  0.50400001928E-02 0. -1.
       -1    1    3    3    0  502  0.61295499066E+03 -0.66818355107E+02  0.13166466441E+04  0.14538696291E+04  0.50400001928E-02 0.  1.
</event>
<event>
 5   0  0.6702421E-05  0.2295560E+04  0.7818609E-02  0.8479674E-01
        2   -1    0    0  501    0  0.00000000000E+00  0.00000000000E+00  0.74594406334E+03  0.74594406335E+03  0.25500000920E-02 0.  1.
       -2   -1    0    0    0  501  0.00000000000E+00  0.00000000000E+00 -0.17660821964E+04  0.17660821964E+04  0.25500000920E-02 0. -1.
    10030    2    1    2    0    0  0.00000000000E+00  0.00000000000E+00 -0.10201381331E+04  0.25120262597E+04  0.22955596527E+04 0.  0.
        4    1    3    3  502    0 -0.55665974249E+02 -0.13962961524E+03 -0.17552636910E+04  0.17616887830E+04  0.12699999809E+01 0. -1.
       -4    1    3    3    0  502  0.55665974249E+02  0.13962961524E+03  0.73512555798E+03  0.75033747676E+03  0.12699999809E+01 0.  1.
</event>
<event>
 5   0  0.2962279E-05  0.1825360E+04  0.7818609E-02  0.8692928E-01
        1   -1    0    0  501    0  0.00000000000E+00  0.00000000000E+00  0.12488048715E+04  0.12488048715E+04  0.50400001928E-02 0. -1.
       -1   -1    0    0    0  501  0.00000000000E+00  0.00000000000E+00 -0.66702553578E+03  0.66702553580E+03  0.50400001928E-02 0.  1.
    10030    2    1    2    0    0  0.00000000000E+00  0.00000000000E+00  0.58177933569E+03  0.19158304073E+04  0.18253599519E+04 0.  0.
        1    1    3    3  502    0 -0.45487087477E+03  0.51681050341E+03  0.91973836923E+03  0.11488773986E+04  0.50400001928E-02 0. -1.
       -1    1    3    3    0  502  0.45487087477E+03 -0.51681050341E+03 -0.33795903354E+03  0.76695300868E+03  0.50400001928E-02 0.  1.
</event>
<event>
 5   0  0.6702421E-05  0.2267672E+04  0.7818609E-02  0.8490778E-01
       -2   -1    0    0    0  501  0.00000000000E+00  0.00000000000E+00  0.80704493721E+03  0.80704493721E+03  0.25500000920E-02 0.  1.
        2   -1    0    0  501    0  0.00000000000E+00  0.00000000000E+00 -0.15929518170E+04  0.15929518170E+04  0.25500000920E-02 0. -1.
    10030    2    1    2    0    0  0.00000000000E+00  0.00000000000E+00 -0.78590687983E+03  0.23999967543E+04  0.22676716686E+04 0.  0.
        4    1    3    3  502    0  0.63770738071E+03 -0.79535824358E+03 -0.91821710830E+03  0.13720020809E+04  0.12699999809E+01 0. -1.
       -4    1    3    3    0  502 -0.63770738071E+03  0.79535824358E+03  0.13231022847E+03  0.10279946734E+04  0.12699999809E+01 0.  1.
</event>
<event>
 5   0  0.6814789E-05  0.2316632E+04  0.7818609E-02  0.8471392E-01
       -2   -1    0    0    0  501  0.00000000000E+00  0.00000000000E+00  0.84154568482E+03  0.84154568482E+03  0.25500000920E-02 0.  1.
        2   -1    0    0  501    0  0.00000000000E+00  0.00000000000E+00 -0.15943229445E+04  0.15943229445E+04  0.25500000920E-02 0. -1.
    10030    2    1    2    0    0  0.00000000000E+00  0.00000000000E+00 -0.75277725967E+03  0.24358686293E+04  0.23166316877E+04 0.  0.
        1    1    3    3  502    0 -0.43621791326E+03  0.10327425110E+04 -0.68267594982E+03  0.13125888977E+04  0.50400001928E-02 0. -1.
       -1    1    3    3    0  502  0.43621791326E+03 -0.10327425110E+04 -0.70101309849E+02  0.11232797316E+04  0.50400001928E-02 0.  1.
</event>
<event>
 5   0  0.6495405E-05  0.2282642E+04  0.7818609E-02  0.8484797E-01
       -2   -1    0    0    0  501  0.00000000000E+00  0.00000000000E+00  0.91759833628E+03  0.91759833628E+03  0.25500000920E-02 0.  1.
        2   -1    0    0  501    0  0.00000000000E+00  0.00000000000E+00 -0.14195900004E+04  0.14195900004E+04  0.25500000920E-02 0. -1.
    10030    2    1    2    0    0  0.00000000000E+00  0.00000000000E+00 -0.50199166411E+03  0.23371883367E+04  0.22826418226E+04 0.  0.
        5    1    3    3  502    0 -0.10214177207E+04  0.17524514539E+03  0.23853612713E+03  0.10634503256E+04  0.46999998093E+01 0.  1.
       -5    1    3    3    0  502  0.10214177207E+04 -0.17524514539E+03 -0.74052779124E+03  0.12737380110E+04  0.46999998093E+01 0. -1.
</event>
<event>
 5   0  0.2962279E-05  0.2288989E+04  0.7818609E-02  0.8482275E-01
       -1   -1    0    0    0  501  0.00000000000E+00  0.00000000000E+00  0.87898709125E+03  0.87898709126E+03  0.50400001928E-02 0. -1.
        1   -1    0    0  501    0  0.00000000000E+00  0.00000000000E+00 -0.14902006701E+04  0.14902006701E+04  0.50400001928E-02 0.  1.
    10030    2    1    2    0    0  0.00000000000E+00  0.00000000000E+00 -0.61121357887E+03  0.23691877614E+04  0.22889885561E+04 0.  0.
        1    1    3    3  502    0  0.10409234519E+04 -0.86409157430E+02 -0.78984369376E+03  0.13095194675E+04  0.50400001928E-02 0. -1.
       -1    1    3    3    0  502 -0.10409234519E+04  0.86409157430E+02  0.17863011488E+03  0.10596682939E+04  0.50400001928E-02 0.  1.
</event>
<event>
 5   0  0.2342500E-05  0.2436648E+04  0.7818609E-02  0.8425909E-01
        3   -1    0    0  501    0  0.00000000000E+00  0.00000000000E+00  0.12983903439E+04  0.12983903478E+04  0.10100000352E+00 0.  1.
       -3   -1    0    0    0  501  0.00000000000E+00  0.00000000000E+00 -0.11431953699E+04  0.11431953743E+04  0.10100000352E+00 0. -1.
    10030    2    1    2    0    0  0.00000000000E+00  0.00000000000E+00  0.15519497400E+03  0.24415857221E+04  0.24366483863E+04 0.  0.
        4    1    3    3  502    0  0.15731285737E+03 -0.16267687901E+03 -0.11219502368E+04  0.11445457827E+04  0.12699999809E+01 0. -1.
       -4    1    3    3    0  502 -0.15731285737E+03  0.16267687901E+03  0.12771452108E+04  0.12970399394E+04  0.12699999809E+01 0.  1.
</event>
<event>
 5   0  0.6702421E-05  0.2275130E+04  0.7818609E-02  0.8487792E-01
        2   -1    0    0  501    0  0.00000000000E+00  0.00000000000E+00  0.14108693402E+04  0.14108693402E+04  0.25500000920E-02 0. -1.
       -2   -1    0    0    0  501  0.00000000000E+00  0.00000000000E+00 -0.91720362080E+03  0.91720362080E+03  0.25500000920E-02 0.  1.
    10030    2    1    2    0    0  0.00000000000E+00  0.00000000000E+00  0.49366571937E+03  0.23280729610E+04  0.22751302972E+04 0.  0.
        4    1    3    3  502    0 -0.41385132147E+03  0.10276888759E+04  0.51097833979E+03  0.12200482854E+04  0.12699999809E+01 0. -1.
       -4    1    3    3    0  502  0.41385132147E+03 -0.10276888759E+04 -0.17312620418E+02  0.11080246756E+04  0.12699999809E+01 0.  1.
</event>
<event>
 5   0  0.2982385E-05  0.2310160E+04  0.7818609E-02  0.8473926E-01
       -1   -1    0    0    0  501  0.00000000000E+00  0.00000000000E+00  0.10666705417E+04  0.10666705417E+04  0.50400001928E-02 0.  1.
        1   -1    0    0  501    0  0.00000000000E+00  0.00000000000E+00 -0.12508167358E+04  0.12508167358E+04  0.50400001928E-02 0. -1.
    10030    2    1    2    0    0  0.00000000000E+00  0.00000000000E+00 -0.18414619406E+03  0.23174872775E+04  0.23101596180E+04 0.  0.
        4    1    3    3  502    0 -0.82727205414E+03 -0.79919051171E+03 -0.19787433891E+03  0.11671505440E+04  0.12699999809E+01 0. -1.
       -4    1    3    3    0  502  0.82727205414E+03  0.79919051171E+03  0.13728144851E+02  0.11503367335E+04  0.12699999809E+01 0.  1.
</event>
<event>
 5   0  0.6702421E-05  0.2500497E+04  0.7818609E-02  0.8402809E-01
       -2   -1    0    0    0  501  0.00000000000E+00  0.00000000000E+00  0.15075559527E+04  0.15075559527E+04  0.25500000920E-02 0.  1.
        2   -1    0    0  501    0  0.00000000000E+00  0.00000000000E+00 -0.10368574940E+04  0.10368574940E+04  0.25500000920E-02 0. -1.
    10030    2    1    2    0    0  0.00000000000E+00  0.00000000000E+00  0.47069845871E+03  0.25444134467E+04  0.25004965005E+04 0.  0.
        4    1    3    3  502    0 -0.56940579905E+03  0.79929342278E+03  0.10235675308E+04  0.14180215241E+04  0.12699999809E+01 0.  1.
       -4    1    3    3    0  502  0.56940579905E+03 -0.79929342278E+03 -0.55286907210E+03  0.11263919227E+04  0.12699999809E+01 0. -1.
</event>
<event>
 5   0  0.3006265E-05  0.2305768E+04  0.7818609E-02  0.8475650E-01
        1   -1    0    0  501    0  0.00000000000E+00  0.00000000000E+00  0.54040796013E+03  0.54040796015E+03  0.50400001928E-02 0.  1.
       -1   -1    0    0    0  501  0.00000000000E+00  0.00000000000E+00 -0.24595152424E+04  0.24595152424E+04  0.50400001928E-02 0. -1.
    10030    2    1    2    0    0  0.00000000000E+00  0.00000000000E+00 -0.19191072823E+04  0.29999232026E+04  0.23057680847E+04 0.  0.
        2    1    3    3  502    0  0.66710648425E+03 -0.64192150406E+03 -0.65657033534E+02  0.92811913285E+03  0.25500000920E-02 0.  1.
       -2    1    3    3    0  502 -0.66710648425E+03  0.64192150406E+03 -0.18534502487E+04  0.20718040697E+04  0.25500000920E-02 0. -1.
</event>
<event>
 5   0  0.6814789E-05  0.2308275E+04  0.7818609E-02  0.8474666E-01
        2   -1    0    0  501    0  0.00000000000E+00  0.00000000000E+00  0.12940607305E+04  0.12940607305E+04  0.25500000920E-02 0. -1.
       -2   -1    0    0    0  501  0.00000000000E+00  0.00000000000E+00 -0.10293434933E+04  0.10293434933E+04  0.25500000920E-02 0.  1.
    10030    2    1    2    0    0  0.00000000000E+00  0.00000000000E+00  0.26471723712E+03  0.23234042238E+04  0.23082746742E+04 0.  0.
        1    1    3    3  502    0  0.32792356349E+03  0.10076461047E+04  0.59268368063E+03  0.12141492829E+04  0.50400001928E-02 0. -1.
       -1    1    3    3    0  502 -0.32792356349E+03 -0.10076461047E+04 -0.32796644351E+03  0.11092549409E+04  0.50400001928E-02 0.  1.
</event>
<event>
 5   0  0.3118614E-05  0.2344288E+04  0.7818609E-02  0.8460661E-01
       -1   -1    0    0    0  501  0.00000000000E+00  0.00000000000E+00  0.10897737387E+04  0.10897737387E+04  0.50400001928E-02 0.  1.
        1   -1    0    0  501    0  0.00000000000E+00  0.00000000000E+00 -0.12607397381E+04  0.12607397382E+04  0.50400001928E-02 0. -1.
    10030    2    1    2    0    0  0.00000000000E+00  0.00000000000E+00 -0.17096599944E+03  0.23505134769E+04  0.23442875745E+04 0.  0.
        3    1    3    3  502    0  0.60569565645E+03 -0.10119266594E+03 -0.10865402024E+04  0.12480692310E+04  0.10100000352E+00 0. -1.
       -3    1    3    3    0  502 -0.60569565645E+03  0.10119266594E+03  0.91557420294E+03  0.11024442458E+04  0.10100000352E+00 0.  1.
</event>
<event>
 5   0  0.2962279E-05  0.2270944E+04  0.7818609E-02  0.8489466E-01
        1   -1    0    0  501    0  0.00000000000E+00  0.00000000000E+00  0.10852678830E+04  0.10852678830E+04  0.50400001928E-02 0. -1.
       -1   -1    0    0    0  501  0.00000000000E+00  0.00000000000E+00 -0.11879984905E+04  0.11879984905E+04  0.50400001928E-02 0.  1.
    10030    2    1    2    0    0  0.00000000000E+00  0.00000000000E+00 -0.10273060757E+03  0.22732663735E+04  0.22709439507E+04 0.  0.
        1    1    3    3  502    0  0.43648768940E+03 -0.15328371622E+02 -0.11005498340E+04  0.11840466203E+04  0.50400001928E-02 0.  1.
       -1    1    3    3    0  502 -0.43648768940E+03  0.15328371622E+02  0.99781922645E+03  0.10892197532E+04  0.50400001928E-02 0. -1.
</event>
<event>
 5   0  0.3118614E-05  0.2288240E+04  0.7818609E-02  0.8482573E-01
       -1   -1    0    0    0  501  0.00000000000E+00  0.00000000000E+00  0.68771501525E+03  0.68771501526E+03  0.50400001928E-02 0.  1.
        1   -1    0    0  501    0  0.00000000000E+00  0.00000000000E+00 -0.19034194442E+04  0.19034194442E+04  0.50400001928E-02 0. -1.
    10030    2    1    2    0    0  0.00000000000E+00  0.00000000000E+00 -0.12157044290E+04  0.25911344595E+04  0.22882396134E+04 0.  0.
        3    1    3    3  502    0  0.10445622181E+04  0.23527197248E+03 -0.10643912538E+04  0.15097655049E+04  0.10100000352E+00 0.  1.
       -3    1    3    3    0  502 -0.10445622181E+04 -0.23527197248E+03 -0.15131317518E+03  0.10813689545E+04  0.10100000352E+00 0. -1.
</event>
<event>
 5   0  0.6468758E-05  0.2294151E+04  0.7818609E-02  0.8480231E-01
       -2   -1    0    0    0  501  0.00000000000E+00  0.00000000000E+00  0.99817049071E+03  0.99817049072E+03  0.25500000920E-02 0.  1.
        2   -1    0    0  501    0  0.00000000000E+00  0.00000000000E+00 -0.13181934082E+04  0.13181934082E+04  0.25500000920E-02 0. -1.
    10030    2    1    2    0    0  0.00000000000E+00  0.00000000000E+00 -0.32002291746E+03  0.23163638989E+04  0.22941506150E+04 0.  0.
        3    1    3    3  502    0  0.56854712616E+03  0.99597129117E+03 -0.18426703954E+03  0.11615330385E+04  0.10100000352E+00 0. -1.
       -3    1    3    3    0  502 -0.56854712616E+03 -0.99597129117E+03 -0.13575587792E+03  0.11548308604E+04  0.10100000352E+00 0.  1.
</event>
<event>
 5   0  0.6676612E-05  0.2270720E+04  0.7818609E-02  0.8489556E-01
       -2   -1    0    0    0  501  0.00000000000E+00  0.00000000000E+00  0.12583717764E+04  0.12583717764E+04  0.25500000920E-02 0.  1.
        2   -1    0    0  501    0  0.00000000000E+00  0.00000000000E+00 -0.10243734387E+04  0.10243734387E+04  0.25500000920E-02 0. -1.
    10030    2    1    2    0    0  0.00000000000E+00  0.00000000000E+00  0.23399833769E+03  0.22827452150E+04  0.22707202590E+04 0.  0.
        2    1    3    3  502    0 -0.11868883708E+03  0.71449243673E+03 -0.76196281847E+03  0.10512724761E+04  0.25500000920E-02 0. -1.
       -2    1    3    3    0  502  0.11868883708E+03 -0.71449243673E+03  0.99596115616E+03  0.12314727390E+04  0.25500000920E-02 0.  1.
</event>
<event>
 5   0  0.2982385E-05  0.2396386E+04  0.7818609E-02  0.8440858E-01
        1   -1    0    0  501    0  0.00000000000E+00  0.00000000000E+00  0.15097423667E+04  0.15097423667E+04  0.50400001928E-02 0.  1.
       -1   -1    0    0    0  501  0.00000000000E+00  0.00000000000E+00 -0.95093449432E+03  0.95093449433E+03  0.50400001928E-02 0. -1.
    10030    2    1    2    0    0  0.00000000000E+00  0.00000000000E+00  0.55880787242E+03  0.24606768611E+04  0.23963856902E+04 0.  0.
        4    1    3    3  502    0  0.10827495989E+04 -0.31348039166E+03 -0.13775617909E+03  0.11356033761E+04  0.12699999809E+01 0. -1.
       -4    1    3    3    0  502 -0.10827495989E+04  0.31348039166E+03  0.69656405151E+03  0.13250734850E+04  0.12699999809E+01 0.  1.
</event>
<event>
 5   0  0.6814789E-05  0.2014735E+04  0.7818609E-02  0.8599763E-01
       -2   -1    0    0    0  501  0.00000000000E+00  0.00000000000E+00  0.35437056083E+03  0.35437056084E+03  0.25500000920E-02 0. -1.
        2   -1    0    0  501    0  0.00000000000E+00  0.00000000000E+00 -0.28636379825E+04  0.28636379825E+04  0.25500000920E-02 0.  1.
    10030    2    1    2    0    0  0.00000000000E+00  0.00000000000E+00 -0.25092674217E+04  0.32180085433E+04  0.20147347199E+04 0.  0.
        1    1    3    3  502    0 -0.43484327633E+03 -0.69688205018E+02 -0.27017372429E+04  0.27373946099E+04  0.50400001928E-02 0.  1.
       -1    1    3    3    0  502  0.43484327633E+03  0.69688205018E+02  0.19246982121E+03  0.48061393341E+03  0.50400001928E-02 0. -1.
</event>
<event>
 5   0  0.6495405E-05  0.2244338E+04  0.7818609E-02  0.8500197E-01
       -2   -1    0    0    0  501  0.00000000000E+00  0.00000000000E+00  0.11196625389E+04  0.11196625389E+04  0.25500000920E-02 0. -1.
        2   -1    0    0  501    0  0.00000000000E+00  0.00000000000E+00 -0.11246813325E+04  0.11246813325E+04  0.25500000920E-02 0.  1.
    10030    2    1    2    0    0  0.00000000000E+00  0.00000000000E+00 -0.50187935553E+01  0.22443438714E+04  0.22443382599E+04 0.  0.
        5    1    3    3  502    0  0.41214717624E+03  0.13425493816E+02 -0.10461575051E+04  0.11245057378E+04  0.46999998093E+01 0.  1.
       -5    1    3    3    0  502 -0.41214717624E+03 -0.13425493816E+02  0.10411387116E+04  0.11198381336E+04  0.46999998093E+01 0. -1.
</event>
<event>
 5   0  0.2982385E-05  0.2268432E+04  0.7818609E-02  0.8490473E-01
        1   -1    0    0  501    0  0.00000000000E+00  0.00000000000E+00  0.17845356871E+04  0.17845356871E+04  0.50400001928E-02 0.  1.
       -1   -1    0    0    0  501  0.00000000000E+00  0.00000000000E+00 -0.72088570026E+03  0.72088570028E+03  0.50400001928E-02 0. -1.
    10030    2    1    2    0    0  0.00000000000E+00  0.00000000000E+00  0.10636499868E+04  0.25054213873E+04  0.22684322855E+04 0.  0.
        4    1    3    3  502    0 -0.23404814354E+03  0.14714167271E+03  0.17467526452E+04  0.17684952987E+04  0.12699999809E+01 0.  1.
       -4    1    3    3    0  502  0.23404814354E+03 -0.14714167271E+03 -0.68310265835E+03  0.73692608862E+03  0.12699999809E+01 0. -1.
</event>
<event>
 5   0  0.6814789E-05  0.2276136E+04  0.7818609E-02  0.8487390E-01
        2   -1    0    0  501    0  0.00000000000E+00  0.00000000000E+00  0.10387929574E+04  0.10387929574E+04  0.25500000920E-02 0. -1.
       -2   -1    0    0    0  501  0.00000000000E+00  0.00000000000E+00 -0.12468308627E+04  0.12468308627E+04  0.25500000920E-02 0.  1.
    10030    2    1    2    0    0  0.00000000000E+00  0.00000000000E+00 -0.20803790530E+03  0.22856238200E+04  0.22761363045E+04 0.  0.
        1    1    3    3  502    0 -0.40083972891E+03  0.95566336869E+03  0.36829695959E+03  0.10998216278E+04  0.50400001928E-02 0. -1.
       -1    1    3    3    0  502  0.40083972891E+03 -0.95566336869E+03 -0.57633486489E+03  0.11858021922E+04  0.50400001928E-02 0.  1.
</event>
<event>
 5   0  0.2962279E-05  0.2004002E+04  0.7818609E-02  0.8604752E-01
       -1   -1    0    0    0  501  0.00000000000E+00  0.00000000000E+00  0.78507641380E+03  0.78507641382E+03  0.50400001928E-02 0. -1.
        1   -1    0    0  501    0  0.00000000000E+00  0.00000000000E+00 -0.12788639635E+04  0.12788639636E+04  0.50400001928E-02 0.  1.
    10030    2    1    2    0    0  0.00000000000E+00  0.00000000000E+00 -0.49378754975E+03  0.20639403774E+04  0.20040019304E+04 0.  0.
        1    1    3    3  502    0 -0.41513451673E+03  0.63355042295E+03 -0.92247282073E+03  0.11935991414E+04  0.50400001928E-02 0.  1.
       -1    1    3    3    0  502  0.41513451673E+03 -0.63355042295E+03  0.42868527099E+03  0.87034123595E+03  0.50400001928E-02 0. -1.
</event>
<event>
 5   0  0.6814789E-05  0.2304925E+04  0.7818609E-02  0.8475982E-01
        2   -1    0    0  501    0  0.00000000000E+00  0.00000000000E+00  0.15402753937E+04  0.15402753937E+04  0.25500000920E-02 0. -1.
       -2   -1    0    0    0  501  0.00000000000E+00  0.00000000000E+00 -0.86229351794E+03  0.86229351794E+03  0.25500000920E-02 0.  1.
    10030    2    1    2    0    0  0.00000000000E+00  0.00000000000E+00  0.67798187579E+03  0.24025689117E+04  0.23049247171E+04 0.  0.
        1    1    3    3  502    0 -0.63751016190E+03  0.94699341838E+03  0.17433136271E+03  0.11548191049E+04  0.50400001928E-02 0.  1.
       -1    1    3    3    0  502  0.63751016190E+03 -0.94699341838E+03  0.50365051308E+03  0.12477498068E+04  0.50400001928E-02 0. -1.
</event>
<event>
 5   0  0.2982385E-05  0.1931390E+04  0.7818609E-02  0.8639387E-01
       -1   -1    0    0    0  501  0.00000000000E+00  0.00000000000E+00  0.70824693933E+03  0.70824693935E+03  0.50400001928E-02 0. -1.
        1   -1    0    0  501    0  0.00000000000E+00  0.00000000000E+00 -0.13167261879E+04  0.13167261880E+04  0.50400001928E-02 0.  1.
    10030    2    1    2    0    0  0.00000000000E+00  0.00000000000E+00 -0.60847924862E+03  0.20249731273E+04  0.19313904759E+04 0.  0.
        4    1    3    3  502    0 -0.28781152819E+03  0.58631225816E+02 -0.12687556460E+04  0.13023116365E+04  0.12699999809E+01 0.  1.
       -4    1    3    3    0  502  0.28781152819E+03 -0.58631225816E+02  0.66027639740E+03  0.72266149078E+03  0.12699999809E+01 0. -1.
</event>
<event>
 5   0  0.6676612E-05  0.2289777E+04  0.7818609E-02  0.8481963E-01
        2   -1    0    0  501    0  0.00000000000E+00  0.00000000000E+00  0.15499244774E+04  0.15499244774E+04  0.25500000920E-02 0.  1.
       -2   -1    0    0    0  501  0.00000000000E+00  0.00000000000E+00 -0.84569873638E+03  0.84569873639E+03  0.25500000920E-02 0. -1.
    10030    2    1    2    0    0  0.00000000000E+00  0.00000000000E+00  0.70422574104E+03  0.23956232138E+04  0.22897765586E+04 0.  0.
        2    1    3    3  502    0  0.49374469772E+03 -0.51132703659E+03  0.12911143345E+04  0.14738437467E+04  0.25500000920E-02 0.  1.
       -2    1    3    3    0  502 -0.49374469772E+03  0.51132703659E+03 -0.58688859346E+03  0.92177946713E+03  0.25500000920E-02 0. -1.
</event>
<event>
 5   0  0.6676612E-05  0.2239338E+04  0.7818609E-02  0.8502231E-01
        2   -1    0    0  501    0  0.00000000000E+00  0.00000000000E+00  0.13479111363E+04  0.13479111363E+04  0.25500000920E-02 0.  1.
       -2   -1    0    0    0  501  0.00000000000E+00  0.00000000000E+00 -0.93007547852E+03  0.93007547853E+03  0.25500000920E-02 0. -1.
    10030    2    1    2    0    0  0.00000000000E+00  0.00000000000E+00  0.41783565773E+03  0.22779866148E+04  0.22393383800E+04 0.  0.
        2    1    3    3  502    0  0.10738744409E+04  0.17712569660E+03  0.47628329229E+03  0.11880343437E+04  0.25500000920E-02 0.  1.
       -2    1    3    3    0  502 -0.10738744409E+04 -0.17712569660E+03 -0.58447634559E+02  0.10899522711E+04  0.25500000920E-02 0. -1.
</event>
<event>
 5   0  0.2982385E-05  0.2505061E+04  0.7818609E-02  0.8401185E-01
        1   -1    0    0  501    0  0.00000000000E+00  0.00000000000E+00  0.14468378885E+04  0.14468378885E+04  0.50400001928E-02 0.  1.
       -1   -1    0    0    0  501  0.00000000000E+00  0.00000000000E+00 -0.10843185895E+04  0.10843185896E+04  0.50400001928E-02 0. -1.
    10030    2    1    2    0    0  0.00000000000E+00  0.00000000000E+00  0.36251929893E+03  0.25311564780E+04  0.25050614512E+04 0.  0.
        4    1    3    3  502    0  0.45358512639E+03  0.27169137682E+02  0.13606174730E+04  0.14344891598E+04  0.12699999809E+01 0.  1.
       -4    1    3    3    0  502 -0.45358512639E+03 -0.27169137682E+02 -0.99809817406E+03  0.10966673182E+04  0.12699999809E+01 0. -1.
</event>
<event>
 5   0  0.2944089E-05  0.2292715E+04  0.7818609E-02  0.8480799E-01
        1   -1    0    0  501    0  0.00000000000E+00  0.00000000000E+00  0.18069860493E+04  0.18069860493E+04  0.50400001928E-02 0. -1.
       -1   -1    0    0    0  501  0.00000000000E+00  0.00000000000E+00 -0.72725296863E+03  0.72725296864E+03  0.50400001928E-02 0.  1.
    10030    2    1    2    0    0  0.00000000000E+00  0.00000000000E+00  0.10797330807E+04  0.25342390180E+04  0.22927153933E+04 0.  0.
        5    1    3    3  502    0  0.11112736987E+04 -0.20631053830E+03  0.75139080566E+03  0.13572411372E+04  0.46999998093E+01 0. -1.
       -5    1    3    3    0  502 -0.11112736987E+04  0.20631053830E+03  0.32834227504E+03  0.11769978808E+04  0.46999998093E+01 0.  1.
</event>
<event>
 5   0  0.3006265E-05  0.2283229E+04  0.7818609E-02  0.8484563E-01
        1   -1    0    0  501    0  0.00000000000E+00  0.00000000000E+00  0.51302199555E+03  0.51302199558E+03  0.50400001928E-02 0. -1.
       -1   -1    0    0    0  501  0.00000000000E+00  0.00000000000E+00 -0.25404050762E+04  0.25404050762E+04  0.50400001928E-02 0.  1.
    10030    2    1    2    0    0  0.00000000000E+00  0.00000000000E+00 -0.20273830807E+04  0.30534270718E+04  0.22832290133E+04 0.  0.
        2    1    3    3  502    0  0.64250636861E+03 -0.88443547788E+03 -0.14536769300E+04  0.18188505065E+04  0.25500000920E-02 0.  1.
       -2    1    3    3    0  502 -0.64250636861E+03  0.88443547788E+03 -0.57370615069E+03  0.12345765653E+04  0.25500000920E-02 0. -1.
</event>
<event>
 5   0  0.6468758E-05  0.2288898E+04  0.7818609E-02  0.8482311E-01
        2   -1    0    0  501    0  0.00000000000E+00  0.00000000000E+00  0.21668525847E+04  0.21668525847E+04  0.25500000920E-02 0.  1.
       -2   -1    0    0    0  501  0.00000000000E+00  0.00000000000E+00 -0.60445422373E+03  0.60445422374E+03  0.25500000920E-02 0. -1.
    10030    2    1    2    0    0  0.00000000000E+00  0.00000000000E+00  0.15623983610E+04  0.27713068085E+04  0.22888977234E+04 0.  0.
        3    1    3    3  502    0 -0.18633880535E+03 -0.93016987408E+03  0.15562986997E+04  0.18226364964E+04  0.10100000352E+00 0.  1.
       -3    1    3    3    0  502  0.18633880535E+03  0.93016987408E+03  0.60996613169E+01  0.94867031211E+03  0.10100000352E+00 0. -1.
</event>
<event>
 5   0  0.3006265E-05  0.2275713E+04  0.7818609E-02  0.8487559E-01
        1   -1    0    0  501    0  0.00000000000E+00  0.00000000000E+00  0.11302355256E+04  0.11302355256E+04  0.50400001928E-02 0.  1.
       -1   -1    0    0    0  501  0.00000000000E+00  0.00000000000E+00 -0.11455291574E+04  0.11455291575E+04  0.50400001928E-02 0. -1.
    10030    2    1    2    0    0  0.00000000000E+00  0.00000000000E+00 -0.15293631860E+02  0.22757646831E+04  0.22757132942E+04 0.  0.
        2    1    3    3  502    0 -0.22203238063E+03 -0.31356093805E+03  0.10634044043E+04  0.11306846452E+04  0.25500000920E-02 0.  1.
       -2    1    3    3    0  502  0.22203238063E+03  0.31356093805E+03 -0.10786980361E+04  0.11450800378E+04  0.25500000920E-02 0. -1.
</event>
<event>
 5   0  0.2962279E-05  0.2355696E+04  0.7818609E-02  0.8456279E-01
        1   -1    0    0  501    0  0.00000000000E+00  0.00000000000E+00  0.14687852723E+04  0.14687852723E+04  0.50400001928E-02 0. -1.
       -1   -1    0    0    0  501  0.00000000000E+00  0.00000000000E+00 -0.94453947705E+03  0.94453947707E+03  0.50400001928E-02 0.  1.
    10030    2    1    2    0    0  0.00000000000E+00  0.00000000000E+00  0.52424579524E+03  0.24133247494E+04  0.23556957979E+04 0.  0.
        1    1    3    3  502    0  0.68659434036E+03 -0.88411785921E+03  0.63748713335E+03  0.12882026325E+04  0.50400001928E-02 0. -1.
       -1    1    3    3    0  502 -0.68659434036E+03  0.88411785921E+03 -0.11324133811E+03  0.11251221169E+04  0.50400001928E-02 0.  1.
</event>
<event>
 5   0  0.6814789E-05  0.2265180E+04  0.7818609E-02  0.8491778E-01
        2   -1    0    0  501    0  0.00000000000E+00  0.00000000000E+00  0.20347898728E+04  0.20347898728E+04  0.25500000920E-02 0. -1.
       -2   -1    0    0    0  501  0.00000000000E+00  0.00000000000E+00 -0.63041380066E+03  0.63041380066E+03  0.25500000920E-02 0.  1.
    10030    2    1    2    0    0  0.00000000000E+00  0.00000000000E+00  0.14043760722E+04  0.26652036735E+04  0.22651795666E+04 0.  0.
        1    1    3    3  502    0  0.87844526887E+03  0.57971508689E+03  0.20994848960E+03  0.10732259970E+04  0.50400001928E-02 0.  1.
       -1    1    3    3    0  502 -0.87844526887E+03 -0.57971508689E+03  0.11944275826E+04  0.15919776765E+04  0.50400001928E-02 0. -1.
</event>
<event>
 5   0  0.2944089E-05  0.2333643E+04  0.7818609E-02  0.8464773E-01
        1   -1    0    0  501    0  0.00000000000E+00  0.00000000000E+00  0.16314153686E+04  0.16314153686E+04  0.50400001928E-02 0.  1.
       -1   -1    0    0    0  501  0.00000000000E+00  0.00000000000E+00 -0.83453479848E+03  0.83453479849E+03  0.50400001928E-02 0. -1.
    10030    2    1    2    0    0  0.00000000000E+00  0.00000000000E+00  0.79688057008E+03  0.24659501671E+04  0.23336434139E+04 0.  0.
        5    1    3    3  502    0 -0.40924140636E+03 -0.91631097747E+03  0.10274594179E+04  0.14362448543E+04  0.46999998093E+01 0.  1.
       -5    1    3    3    0  502  0.40924140636E+03  0.91631097747E+03 -0.23057884778E+03  0.10297053128E+04  0.46999998093E+01 0. -1.
</event>
<event>
 5   0  0.2944089E-05  0.2307504E+04  0.7818609E-02  0.8474968E-01
       -1   -1    0    0    0  501  0.00000000000E+00  0.00000000000E+00  0.61522105154E+03  0.61522105156E+03  0.50400001928E-02 0. -1.
        1   -1    0    0  501    0  0.00000000000E+00  0.00000000000E+00 -0.21636831908E+04  0.21636831908E+04  0.50400001928E-02 0.  1.
    10030    2    1    2    0    0  0.00000000000E+00  0.00000000000E+00 -0.15484621393E+04  0.27789042424E+04  0.23075038010E+04 0.  0.
        5    1    3    3  502    0  0.80409479771E+03  0.35038322743E+03 -0.16768741062E+04  0.18924232369E+04  0.46999998093E+01 0.  1.
       -5    1    3    3    0  502 -0.80409479771E+03 -0.35038322743E+03  0.12841196689E+03  0.88648100544E+03  0.46999998093E+01 0. -1.
</event>
<event>
 5   0  0.6676612E-05  0.2172669E+04  0.7818609E-02  0.8529891E-01
        2   -1    0    0  501    0  0.00000000000E+00  0.00000000000E+00  0.21734716190E+04  0.21734716190E+04  0.25500000920E-02 0. -1.
       -2   -1    0    0    0  501  0.00000000000E+00  0.00000000000E+00 -0.54296656528E+03  0.54296656529E+03  0.25500000920E-02 0.  1.
    10030    2    1    2    0    0  0.00000000000E+00  0.00000000000E+00  0.16305050537E+04  0.27164381843E+04  0.21726687918E+04 0.  0.
        2    1    3    3  502    0  0.94743883849E+03 -0.12840478503E+03  0.17042666432E+03  0.97117114321E+03  0.25500000920E-02 0.  1.
       -2    1    3    3    0  502 -0.94743883849E+03  0.12840478503E+03  0.14600783894E+04  0.17452670411E+04  0.25500000920E-02 0. -1.
</event>
<event>
 5   0  0.6676612E-05  0.2336445E+04  0.7818609E-02  0.8463688E-01
       -2   -1    0    0    0  501  0.00000000000E+00  0.00000000000E+00  0.79066024978E+03  0.79066024979E+03  0.25500000920E-02 0.  1.
        2   -1    0    0  501    0  0.00000000000E+00  0.00000000000E+00 -0.17260817382E+04  0.17260817382E+04  0.25500000920E-02 0. -1.
    10030    2    1    2    0    0  0.00000000000E+00  0.00000000000E+00 -0.93542148839E+03  0.25167419880E+04  0.23364453499E+04 0.  0.
        2    1    3    3  502    0 -0.10044464607E+04 -0.58746245898E+03 -0.57923465878E+03  0.12998221505E+04  0.25500000920E-02 0. -1.
       -2    1    3    3    0  502  0.10044464607E+04  0.58746245898E+03 -0.35618682961E+03  0.12169198374E+04  0.25500000920E-02 0.  1.
</event>
<event>
 5   0  0.3118614E-05  0.2262826E+04  0.7818609E-02  0.8492724E-01
        1   -1    0    0  501    0  0.00000000000E+00  0.00000000000E+00  0.99320664611E+03  0.99320664613E+03  0.50400001928E-02 0.  1.
       -1   -1    0    0    0  501  0.00000000000E+00  0.00000000000E+00 -0.12888511885E+04  0.12888511885E+04  0.50400001928E-02 0. -1.
    10030    2    1    2    0    0  0.00000000000E+00  0.00000000000E+00 -0.29564454234E+03  0.22820578346E+04  0.22628261676E+04 0.  0.
        3    1    3    3  502    0  0.85120721311E+03  0.32785620110E+03 -0.82287816911E+03  0.12284835773E+04  0.10100000352E+00 0. -1.
       -3    1    3    3    0  502 -0.85120721311E+03 -0.32785620110E+03  0.52723362677E+03  0.10535742573E+04  0.10100000352E+00 0.  1.
</event>
<event>
 5   0  0.6495405E-05  0.2290149E+04  0.7818609E-02  0.8481816E-01
        2   -1    0    0  501    0  0.00000000000E+00  0.00000000000E+00  0.21147422700E+04  0.21147422700E+04  0.25500000920E-02 0.  1.
       -2   -1    0    0    0  501  0.00000000000E+00  0.00000000000E+00 -0.62002593467E+03  0.62002593468E+03  0.25500000920E-02 0. -1.
    10030    2    1    2    0    0  0.00000000000E+00  0.00000000000E+00  0.14947163353E+04  0.27347682047E+04  0.22901485127E+04 0.  0.
        5    1    3    3  502    0 -0.48726320538E+03  0.64758697985E+03 -0.21862916428E+03  0.83941356271E+03  0.46999998093E+01 0. -1.
       -5    1    3    3    0  502  0.48726320538E+03 -0.64758697985E+03  0.17133454996E+04  0.18953546420E+04  0.46999998093E+01 0.  1.
</event>
<event>
 5   0  0.2982385E-05  0.2043795E+04  0.7818609E-02  0.8586415E-01
       -1   -1    0    0    0  501  0.00000000000E+00  0.00000000000E+00  0.66920090250E+03  0.66920090252E+03  0.50400001928E-02 0. -1.
        1   -1    0    0  501    0  0.00000000000E+00  0.00000000000E+00 -0.15604795564E+04  0.15604795564E+04  0.50400001928E-02 0.  1.
    10030    2    1    2    0    0  0.00000000000E+00  0.00000000000E+00 -0.89127865394E+03  0.22296804590E+04  0.20437948307E+04 0.  0.
        4    1    3    3  502    0 -0.89873665313E+03  0.33077150967E+02  0.83726183520E+02  0.90323493971E+03  0.12699999809E+01 0. -1.
       -4    1    3    3    0  502  0.89873665313E+03 -0.33077150967E+02 -0.97500483746E+03  0.13264455193E+04  0.12699999809E+01 0.  1.
</event>
<event>
 5   0  0.6676612E-05  0.2305042E+04  0.7818609E-02  0.8475936E-01
        2   -1    0    0  501    0  0.00000000000E+00  0.00000000000E+00  0.17065785841E+04  0.17065785841E+04  0.25500000920E-02 0.  1.
       -2   -1    0    0    0  501  0.00000000000E+00  0.00000000000E+00 -0.77834392788E+03  0.77834392789E+03  0.25500000920E-02 0. -1.
    10030    2    1    2    0    0  0.00000000000E+00  0.00000000000E+00  0.92823465625E+03  0.24849225120E+04  0.23050423670E+04 0.  0.
        2    1    3    3  502    0 -0.21455255670E+03  0.10435548391E+04  0.93804404467E+03  0.14194950270E+04  0.25500000920E-02 0.  1.
       -2    1    3    3    0  502  0.21455255670E+03 -0.10435548391E+04 -0.98093884177E+01  0.10654274851E+04  0.25500000920E-02 0. -1.
</event>
<event>
 5   0  0.2944089E-05  0.2308502E+04  0.7818609E-02  0.8474576E-01
        1   -1    0    0  501    0  0.00000000000E+00  0.00000000000E+00  0.12616667718E+04  0.12616667718E+04  0.50400001928E-02 0. -1.
       -1   -1    0    0    0  501  0.00000000000E+00  0.00000000000E+00 -0.10559803644E+04  0.10559803645E+04  0.50400001928E-02 0.  1.
    10030    2    1    2    0    0  0.00000000000E+00  0.00000000000E+00  0.20568640735E+03  0.23176471363E+04  0.23085019710E+04 0.  0.
        5    1    3    3  502    0  0.10137668927E+04  0.38615843526E+03 -0.29296675838E+03  0.11236962496E+04  0.46999998093E+01 0. -1.
       -5    1    3    3    0  502 -0.10137668927E+04 -0.38615843526E+03  0.49865316573E+03  0.11939508866E+04  0.46999998093E+01 0.  1.
</event>
<event>
 5   0  0.2944089E-05  0.2296406E+04  0.7818609E-02  0.8479340E-01
        1   -1    0    0  501    0  0.00000000000E+00  0.00000000000E+00  0.13918753525E+04  0.13918753525E+04  0.50400001928E-02 0. -1.
       -1   -1    0    0    0  501  0.00000000000E+00  0.00000000000E+00 -0.94718970916E+03  0.94718970918E+03  0.50400001928E-02 0.  1.
    10030    2    1    2    0    0  0.00000000000E+00  0.00000000000E+00  0.44468564333E+03  0.23390650617E+04  0.22964058965E+04 0.  0.
        5    1    3    3  502    0 -0.60032127921E+03 -0.87495178804E+03  0.66915048846E+03  0.12544762795E+04  0.46999998093E+01 0. -1.
       -5    1    3    3    0  502  0.60032127921E+03  0.87495178804E+03 -0.22446484514E+03  0.10845887822E+04  0.46999998093E+01 0.  1.
</event>
<event>
 5   0  0.3006265E-05  0.2319630E+04  0.7818609E-02  0.8470221E-01
        1   -1    0    0  501    0  0.00000000000E+00  0.00000000000E+00  0.21865040623E+04  0.21865040623E+04  0.50400001928E-02 0.  1.
       -1   -1    0    0    0  501  0.00000000000E+00  0.00000000000E+00 -0.61521537732E+03  0.61521537734E+03  0.50400001928E-02 0. -1.
    10030    2    1    2    0    0  0.00000000000E+00  0.00000000000E+00  0.15712886850E+04  0.28017194396E+04  0.23196300754E+04 0.  0.
        2    1    3    3  502    0  0.81963398020E+03 -0.42847163254E+03 -0.59649721744E+02  0.92679333765E+03  0.25500000920E-02 0. -1.
       -2    1    3    3    0  502 -0.81963398020E+03  0.42847163254E+03  0.16309384067E+04  0.18749261020E+04  0.25500000920E-02 0.  1.
</event>
<event>
 5   0  0.2944089E-05  0.2315049E+04  0.7818609E-02  0.8472011E-01
        1   -1    0    0  501    0  0.00000000000E+00  0.00000000000E+00  0.18201653768E+04  0.18201653768E+04  0.50400001928E-02 0.  1.
       -1   -1    0    0    0  501  0.00000000000E+00  0.00000000000E+00 -0.73612176171E+03  0.73612176173E+03  0.50400001928E-02 0. -1.
    10030    2    1    2    0    0  0.00000000000E+00  0.00000000000E+00  0.10840436151E+04  0.25562871385E+04  0.23150493246E+04 0.  0.
        5    1    3    3  502    0 -0.47992005112E+03  0.55537029613E+03  0.15303196055E+04  0.16972506021E+04  0.46999998093E+01 0.  1.
       -5    1    3    3    0  502  0.47992005112E+03 -0.55537029613E+03 -0.44627599043E+03  0.85903653643E+03  0.46999998093E+01 0. -1.
</event>
<event>
 5   0  0.6676612E-05  0.2471846E+04  0.7818609E-02  0.8413085E-01
        2   -1    0    0  501    0  0.00000000000E+00  0.00000000000E+00  0.15609896424E+04  0.15609896424E+04  0.25500000920E-02 0.  1.
       -2   -1    0    0    0  501  0.00000000000E+00  0.00000000000E+00 -0.97854979333E+03  0.97854979333E+03  0.25500000920E-02 0. -1.
    10030    2    1    2    0    0  0.00000000000E+00  0.00000000000E+00  0.58243984909E+03  0.25395394358E+04  0.24718463480E+04 0.  0.
        2    1    3    3  502    0 -0.12178089448E+04  0.10986209018E+03  0.10635391274E+03  0.12273709543E+04  0.25500000920E-02 0.  1.
       -2    1    3    3    0  502  0.12178089448E+04 -0.10986209018E+03  0.47608593635E+03  0.13121684814E+04  0.25500000920E-02 0. -1.
</event>
<event>
 5   0  0.6676612E-05  0.2310839E+04  0.7818609E-02  0.8473660E-01
        2   -1    0    0  501    0  0.00000000000E+00  0.00000000000E+00  0.77269598720E+03  0.77269598721E+03  0.25500000920E-02 0.  1.
       -2   -1    0    0    0  501  0.00000000000E+00  0.00000000000E+00 -0.17277101684E+04  0.17277101684E+04  0.25500000920E-02 0. -1.
    10030    2    1    2    0    0  0.00000000000E+00  0.00000000000E+00 -0.95501418117E+03  0.25004061556E+04  0.23108394268E+04 0.  0.
        2    1    3    3  502    0 -0.27333637667E+03 -0.11119343747E+03 -0.16862496341E+04  0.17118745818E+04  0.25500000920E-02 0. -1.
       -2    1    3    3    0  502  0.27333637667E+03  0.11119343747E+03  0.73123545288E+03  0.78853157382E+03  0.25500000920E-02 0.  1.
</event>
<event>
 5   0  0.2982385E-05  0.2295194E+04  0.7818609E-02  0.8479818E-01
       -1   -1    0    0    0  501  0.00000000000E+00  0.00000000000E+00  0.63633291990E+03  0.63633291992E+03  0.50400001928E-02 0. -1.
        1   -1    0    0  501    0  0.00000000000E+00  0.00000000000E+00 -0.20696388777E+04  0.20696388777E+04  0.50400001928E-02 0.  1.
    10030    2    1    2    0    0  0.00000000000E+00  0.00000000000E+00 -0.14333059578E+04  0.27059717976E+04  0.22951944146E+04 0.  0.
        4    1    3    3  502    0 -0.10260695803E+04 -0.44249344768E+03 -0.10249008297E+04  0.15162593969E+04  0.12699999809E+01 0.  1.
       -4    1    3    3    0  502  0.10260695803E+04  0.44249344768E+03 -0.40840512805E+03  0.11897124007E+04  0.12699999809E+01 0. -1.
</event>
<event>
 5   0  0.6702421E-05  0.2351877E+04  0.7818609E-02  0.8457743E-01
       -2   -1    0    0    0  501  0.00000000000E+00  0.00000000000E+00  0.15983961313E+04  0.15983961313E+04  0.25500000920E-02 0. -1.
        2   -1    0    0  501    0  0.00000000000E+00  0.00000000000E+00 -0.86513715927E+03  0.86513715928E+03  0.25500000920E-02 0.  1.
    10030    2    1    2    0    0  0.00000000000E+00  0.00000000000E+00  0.73325897205E+03  0.24635332906E+04  0.23518774530E+04 0.  0.
        4    1    3    3  502    0 -0.59100197020E+03  0.79846056221E+03 -0.29253765445E+03  0.10355686797E+04  0.12699999809E+01 0.  1.
       -4    1    3    3    0  502  0.59100197020E+03 -0.79846056221E+03  0.10257966265E+04  0.14279646109E+04  0.12699999809E+01 0. -1.
</event>
<event>
 5   0  0.2342500E-05  0.2299309E+04  0.7818609E-02  0.8478194E-01
        3   -1    0    0  501    0  0.00000000000E+00  0.00000000000E+00  0.80576769985E+03  0.80576770618E+03  0.10100000352E+00 0.  1.
       -3   -1    0    0    0  501  0.00000000000E+00  0.00000000000E+00 -0.16403052837E+04  0.16403052868E+04  0.10100000352E+00 0. -1.
    10030    2    1    2    0    0  0.00000000000E+00  0.00000000000E+00 -0.83453758387E+03  0.24460729930E+04  0.22993086153E+04 0.  0.
        4    1    3    3  502    0 -0.38961539046E+03 -0.10710632888E+04 -0.25689246229E+03  0.11683201920E+04  0.12699999809E+01 0.  1.
       -4    1    3    3    0  502  0.38961539046E+03  0.10710632888E+04 -0.57764512158E+03  0.12777528010E+04  0.12699999809E+01 0. -1.
</event>
<event>
 5   0  0.2944089E-05  0.2323671E+04  0.7818609E-02  0.8468646E-01
       -1   -1    0    0    0  501  0.00000000000E+00  0.00000000000E+00  0.11298592665E+04  0.11298592665E+04  0.50400001928E-02 0. -1.
        1   -1    0    0  501    0  0.00000000000E+00  0.00000000000E+00 -0.11947165139E+04  0.11947165139E+04  0.50400001928E-02 0.  1.
    10030    2    1    2    0    0  0.00000000000E+00  0.00000000000E+00 -0.64857247386E+02  0.23245757805E+04  0.23236708236E+04 0.  0.
        5    1    3    3  502    0  0.20389616176E+03 -0.59568952100E+02 -0.11751157091E+04  0.11941696381E+04  0.46999998093E+01 0.  1.
       -5    1    3    3    0  502 -0.20389616176E+03  0.59568952100E+02  0.11102584617E+04  0.11304061423E+04  0.46999998093E+01 0. -1.
</event>
<event>
 5   0  0.3118614E-05  0.2311224E+04  0.7818609E-02  0.8473509E-01
       -1   -1    0    0    0  501  0.00000000000E+00  0.00000000000E+00  0.59860776231E+03  0.59860776233E+03  0.50400001928E-02 0. -1.
        1   -1    0    0  501    0  0.00000000000E+00  0.00000000000E+00 -0.22309074760E+04  0.22309074760E+04  0.50400001928E-02 0.  1.
    10030    2    1    2    0    0  0.00000000000E+00  0.00000000000E+00 -0.16322997137E+04  0.28295152383E+04  0.23112235133E+04 0.  0.
        3    1    3    3  502    0 -0.86375725976E+03  0.66482704849E+03 -0.34617991305E+03  0.11436398693E+04  0.10100000352E+00 0. -1.
       -3    1    3    3    0  502  0.86375725976E+03 -0.66482704849E+03 -0.12861198006E+04  0.16858753691E+04  0.10100000352E+00 0.  1.
</event>
<event>
 5   0  0.6676612E-05  0.2031592E+04  0.7818609E-02  0.8591991E-01
        2   -1    0    0  501    0  0.00000000000E+00  0.00000000000E+00  0.10986679484E+04  0.10986679484E+04  0.25500000920E-02 0.  1.
       -2   -1    0    0    0  501  0.00000000000E+00  0.00000000000E+00 -0.93917498624E+03  0.93917498625E+03  0.25500000920E-02 0. -1.
    10030    2    1    2    0    0  0.00000000000E+00  0.00000000000E+00  0.15949296214E+03  0.20378429346E+04  0.20315919426E+04 0.  0.
        2    1    3    3  502    0  0.40681107545E+03  0.68523317214E+03 -0.55211370424E+03  0.96946856253E+03  0.25500000920E-02 0. -1.
       -2    1    3    3    0  502 -0.40681107545E+03 -0.68523317214E+03  0.71160666638E+03  0.10683743721E+04  0.25500000920E-02 0.  1.
</event>
<event>
 5   0  0.2962279E-05  0.2296624E+04  0.7818609E-02  0.8479253E-01
        1   -1    0    0  501    0  0.00000000000E+00  0.00000000000E+00  0.91062494435E+03  0.91062494436E+03  0.50400001928E-02 0.  1.
       -1   -1    0    0    0  501  0.00000000000E+00  0.00000000000E+00 -0.14480389099E+04  0.14480389099E+04  0.50400001928E-02 0. -1.
    10030    2    1    2    0    0  0.00000000000E+00  0.00000000000E+00 -0.53741396554E+03  0.23586638543E+04  0.22966239150E+04 0.  0.
        1    1    3    3  502    0  0.72275193122E+03 -0.33233601242E+03 -0.11192098598E+04  0.13731162695E+04  0.50400001928E-02 0. -1.
       -1    1    3    3    0  502 -0.72275193122E+03  0.33233601242E+03  0.58179589426E+03  0.98554758477E+03  0.50400001928E-02 0.  1.
</event>
<event>
 5   0  0.6676612E-05  0.2250081E+04  0.7818609E-02  0.8497868E-01
       -2   -1    0    0    0  501  0.00000000000E+00  0.00000000000E+00  0.89811500575E+03  0.89811500575E+03  0.25500000920E-02 0.  1.
        2   -1    0    0  501    0  0.00000000000E+00  0.00000000000E+00 -0.14093033970E+04  0.14093033970E+04  0.25500000920E-02 0. -1.
    10030    2    1    2    0    0  0.00000000000E+00  0.00000000000E+00 -0.51118839127E+03  0.23074184028E+04  0.22500813572E+04 0.  0.
        2    1    3    3  502    0  0.92776927132E+03 -0.35113416974E+03  0.28865144653E+03  0.10331363335E+04  0.25500000920E-02 0. -1.
       -2    1    3    3    0  502 -0.92776927132E+03  0.35113416974E+03 -0.79983983780E+03  0.12742820693E+04  0.25500000920E-02 0.  1.
</event>
<event>
 5   0  0.6676612E-05  0.2294652E+04  0.7818609E-02  0.8480033E-01
        2   -1    0    0  501    0  0.00000000000E+00  0.00000000000E+00  0.18906908697E+04  0.18906908697E+04  0.25500000920E-02 0.  1.
       -2   -1    0    0    0  501  0.00000000000E+00  0.00000000000E+00 -0.69623037383E+03  0.69623037384E+03  0.25500000920E-02 0. -1.
    10030    2    1    2    0    0  0.00000000000E+00  0.00000000000E+00  0.11944604959E+04  0.25869212435E+04  0.22946515300E+04 0.  0.
        2    1    3    3  502    0  0.85400994305E+03  0.70811989201E+03  0.26741017606E+03  0.11411726279E+04  0.25500000920E-02 0.  1.
       -2    1    3    3    0  502 -0.85400994305E+03 -0.70811989201E+03  0.92705031981E+03  0.14457486157E+04  0.25500000920E-02 0. -1.
</event>
<event>
 5   0  0.3118614E-05  0.2309379E+04  0.7818609E-02  0.8474232E-01
        1   -1    0    0  501    0  0.00000000000E+00  0.00000000000E+00  0.32273017109E+04  0.32273017109E+04  0.50400001928E-02 0.  1.
       -1   -1    0    0    0  501  0.00000000000E+00  0.00000000000E+00 -0.41313384107E+03  0.41313384110E+03  0.50400001928E-02 0. -1.
    10030    2    1    2    0    0  0.00000000000E+00  0.00000000000E+00  0.28141678698E+04  0.36404355520E+04  0.23093787495E+04 0.  0.
        3    1    3    3  502    0 -0.11350308805E+03 -0.25430764938E+03  0.31735697624E+04  0.31857652736E+04  0.10100000352E+00 0.  1.
       -3    1    3    3    0  502  0.11350308805E+03  0.25430764938E+03 -0.35940189254E+03  0.45467027843E+03  0.10100000352E+00 0. -1.
</event>
<event>
 5   0  0.2962279E-05  0.2298094E+04  0.7818609E-02  0.8478673E-01
        1   -1    0    0  501    0  0.00000000000E+00  0.00000000000E+00  0.11697832441E+04  0.11697832441E+04  0.50400001928E-02 0.  1.
       -1   -1    0    0    0  501  0.00000000000E+00  0.00000000000E+00 -0.11286785434E+04  0.11286785434E+04  0.50400001928E-02 0. -1.
    10030    2    1    2    0    0  0.00000000000E+00  0.00000000000E+00  0.41104700754E+02  0.22984617875E+04  0.22980942087E+04 0.  0.
        1    1    3    3  502    0  0.67340299502E+03 -0.38462556009E+03  0.86856816789E+03  0.11643964434E+04  0.50400001928E-02 0.  1.
       -1    1    3    3    0  502 -0.67340299502E+03  0.38462556009E+03 -0.82746346714E+03  0.11340653441E+04  0.50400001928E-02 0. -1.
</event>
<event>
 5   0  0.3118614E-05  0.2311005E+04  0.7818609E-02  0.8473595E-01
       -1   -1    0    0    0  501  0.00000000000E+00  0.00000000000E+00  0.10498419700E+04  0.10498419700E+04  0.50400001928E-02 0. -1.
        1   -1    0    0  501    0  0.00000000000E+00  0.00000000000E+00 -0.12717968318E+04  0.12717968318E+04  0.50400001928E-02 0.  1.
    10030    2    1    2    0    0  0.00000000000E+00  0.00000000000E+00 -0.22195486179E+03  0.23216388017E+04  0.23110047090E+04 0.  0.
        3    1    3    3  502    0 -0.22181365278E+03 -0.36128928500E+03 -0.11908443459E+04  0.12640575582E+04  0.10100000352E+00 0.  1.
       -3    1    3    3    0  502  0.22181365278E+03  0.36128928500E+03  0.96888948414E+03  0.10575812435E+04  0.10100000352E+00 0. -1.
</event>
<event>
 5   0  0.2342500E-05  0.2296399E+04  0.7818609E-02  0.8479342E-01
        3   -1    0    0  501    0  0.00000000000E+00  0.00000000000E+00  0.14564702089E+04  0.14564702124E+04  0.10100000352E+00 0. -1.
       -3   -1    0    0    0  501  0.00000000000E+00  0.00000000000E+00 -0.90517593250E+03  0.90517593814E+03  0.10100000352E+00 0.  1.
    10030    2    1    2    0    0  0.00000000000E+00  0.00000000000E+00  0.55129427641E+03  0.23616461506E+04  0.22963987374E+04 0.  0.
        4    1    3    3  502    0  0.50900875070E+03  0.91148332455E+03 -0.21591747926E+03  0.10660739796E+04  0.12699999809E+01 0.  1.
       -4    1    3    3    0  502 -0.50900875070E+03 -0.91148332455E+03  0.76721175567E+03  0.12955721710E+04  0.12699999809E+01 0. -1.
</event>
<event>
 5   0  0.2982385E-05  0.2338886E+04  0.7818609E-02  0.8462745E-01
        1   -1    0    0  501    0  0.00000000000E+00  0.00000000000E+00  0.30161990421E+04  0.30161990421E+04  0.50400001928E-02 0.  1.
       -1   -1    0    0    0  501  0.00000000000E+00  0.00000000000E+00 -0.45341752040E+03  0.45341752043E+03  0.50400001928E-02 0. -1.
    10030    2    1    2    0    0  0.00000000000E+00  0.00000000000E+00  0.25627815217E+04  0.34696165625E+04  0.23388864793E+04 0.  0.
        4    1    3    3  502    0  0.10768246571E+04  0.14411530892E+03  0.63942390650E+03  0.12606288547E+04  0.12699999809E+01 0. -1.
       -4    1    3    3    0  502 -0.10768246571E+04 -0.14411530892E+03  0.19233576152E+04  0.22089877078E+04  0.12699999809E+01 0.  1.
</event>
<event>
 5   0  0.2982385E-05  0.2291494E+04  0.7818609E-02  0.8481283E-01
       -1   -1    0    0    0  501  0.00000000000E+00  0.00000000000E+00  0.92572331939E+03  0.92572331941E+03  0.50400001928E-02 0.  1.
        1   -1    0    0  501    0  0.00000000000E+00  0.00000000000E+00 -0.14180651529E+04  0.14180651530E+04  0.50400001928E-02 0. -1.
    10030    2    1    2    0    0  0.00000000000E+00  0.00000000000E+00 -0.49234183355E+03  0.23437884724E+04  0.22914938189E+04 0.  0.
        4    1    3    3  502    0  0.80922768468E+03 -0.80941768142E+03 -0.19274929736E+03  0.11606723625E+04  0.12699999809E+01 0.  1.
       -4    1    3    3    0  502 -0.80922768468E+03  0.80941768142E+03 -0.29959253619E+03  0.11831161098E+04  0.12699999809E+01 0. -1.
</event>
<event>
 5   0  0.6814789E-05  0.2315803E+04  0.7818609E-02  0.8471716E-01
        2   -1    0    0  501    0  0.00000000000E+00  0.00000000000E+00  0.13328705086E+04  0.13328705086E+04  0.25500000920E-02 0. -1.
       -2   -1    0    0    0  501  0.00000000000E+00  0.00000000000E+00 -0.10059012211E+04  0.10059012211E+04  0.25500000920E-02 0.  1.
    10030    2    1    2    0    0  0.00000000000E+00  0.00000000000E+00  0.32696928751E+03  0.23387717297E+04  0.23158031627E+04 0.  0.
        1    1    3    3  502    0  0.11553580982E+04 -0.72366612313E+02  0.18916935743E+03  0.11729766866E+04  0.50400001928E-02 0.  1.
       -1    1    3    3    0  502 -0.11553580982E+04  0.72366612313E+02  0.13779993008E+03  0.11657950430E+04  0.50400001928E-02 0. -1.
</event>
<event>
 5   0  0.6468758E-05  0.2252973E+04  0.7818609E-02  0.8496697E-01
        2   -1    0    0  501    0  0.00000000000E+00  0.00000000000E+00  0.17990592018E+04  0.17990592018E+04  0.25500000920E-02 0.  1.
       -2   -1    0    0    0  501  0.00000000000E+00  0.00000000000E+00 -0.70535309139E+03  0.70535309139E+03  0.25500000920E-02 0. -1.
    10030    2    1    2    0    0  0.00000000000E+00  0.00000000000E+00  0.10937061104E+04  0.25044122932E+04  0.22529731198E+04 0.  0.
        3    1    3    3  502    0 -0.62006623885E+02 -0.18560175830E+03 -0.68631490874E+03  0.71366728820E+03  0.10100000352E+00 0. -1.
       -3    1    3    3    0  502  0.62006623885E+02  0.18560175830E+03  0.17800210192E+04  0.17907450050E+04  0.10100000352E+00 0.  1.
</event>
<event>
 5   0  0.2944089E-05  0.2306131E+04  0.7818609E-02  0.8475508E-01
       -1   -1    0    0    0  501  0.00000000000E+00  0.00000000000E+00  0.52974798949E+03  0.52974798951E+03  0.50400001928E-02 0.  1.
        1   -1    0    0  501    0  0.00000000000E+00  0.00000000000E+00 -0.25097963077E+04  0.25097963077E+04  0.50400001928E-02 0. -1.
    10030    2    1    2    0    0  0.00000000000E+00  0.00000000000E+00 -0.19800483182E+04  0.30395442972E+04  0.23061305671E+04 0.  0.
        5    1    3    3  502    0  0.19372066143E+03  0.39032245661E+03  0.41703346513E+03  0.60317353708E+03  0.46999998093E+01 0.  1.
       -5    1    3    3    0  502 -0.19372066143E+03 -0.39032245661E+03 -0.23970817833E+04  0.24363707601E+04  0.46999998093E+01 0. -1.
</event>
<event>
 5   0  0.6676612E-05  0.2132919E+04  0.7818609E-02  0.8546879E-01
        2   -1    0    0  501    0  0.00000000000E+00  0.00000000000E+00  0.66341044930E+03  0.66341044931E+03  0.25500000920E-02 0. -1.
       -2   -1    0    0    0  501  0.00000000000E+00  0.00000000000E+00 -0.17143772998E+04  0.17143772998E+04  0.25500000920E-02 0.  1.
    10030    2    1    2    0    0  0.00000000000E+00  0.00000000000E+00 -0.10509668505E+04  0.23777877491E+04  0.21329189527E+04 0.  0.
        2    1    3    3  502    0 -0.98829154452E+03 -0.38082043816E+02 -0.80726152512E+02  0.99231402829E+03  0.25500000920E-02 0. -1.
       -2    1    3    3    0  502  0.98829154452E+03  0.38082043816E+02 -0.97024069798E+03  0.13854737208E+04  0.25500000920E-02 0.  1.
</event>
<event>
 5   0  0.6702421E-05  0.2284675E+04  0.7818609E-02  0.8483988E-01
       -2   -1    0    0    0  501  0.00000000000E+00  0.00000000000E+00  0.10250362867E+04  0.10250362867E+04  0.25500000920E-02 0.  1.
        2   -1    0    0  501    0  0.00000000000E+00  0.00000000000E+00 -0.12730620637E+04  0.12730620637E+04  0.25500000920E-02 0. -1.
    10030    2    1    2    0    0  0.00000000000E+00  0.00000000000E+00 -0.24802577694E+03  0.22980983504E+04  0.22846748658E+04 0.  0.
        4    1    3    3  502    0 -0.26816392364E+03  0.11071646441E+04 -0.38615552964E+02  0.11398325373E+04  0.12699999809E+01 0.  1.
       -4    1    3    3    0  502  0.26816392364E+03 -0.11071646441E+04 -0.20941022398E+03  0.11582658132E+04  0.12699999809E+01 0. -1.
</event>
<event>
 5   0  0.2982385E-05  0.2238467E+04  0.7818609E-02  0.8502586E-01
       -1   -1    0    0    0  501  0.00000000000E+00  0.00000000000E+00  0.86776780427E+03  0.86776780429E+03  0.50400001928E-02 0. -1.
        1   -1    0    0  501    0  0.00000000000E+00  0.00000000000E+00 -0.14435706785E+04  0.14435706785E+04  0.50400001928E-02 0.  1.
    10030    2    1    2    0    0  0.00000000000E+00  0.00000000000E+00 -0.57580287420E+03  0.23113384828E+04  0.22384674740E+04 0.  0.
        4    1    3    3  502    0 -0.70069688353E+03  0.22976474428E+03 -0.11572815823E+04  0.13722500625E+04  0.12699999809E+01 0.  1.
       -4    1    3    3    0  502  0.70069688353E+03 -0.22976474428E+03  0.58147870809E+03  0.93908842031E+03  0.12699999809E+01 0. -1.
</event>
<event>
 5   0  0.6495405E-05  0.2302596E+04  0.7818609E-02  0.8476898E-01
       -2   -1    0    0    0  501  0.00000000000E+00  0.00000000000E+00  0.11696241548E+04  0.11696241548E+04  0.25500000920E-02 0. -1.
        2   -1    0    0  501    0  0.00000000000E+00  0.00000000000E+00 -0.11332593805E+04  0.11332593805E+04  0.25500000920E-02 0.  1.
    10030    2    1    2    0    0  0.00000000000E+00  0.00000000000E+00  0.36364774289E+02  0.23028835353E+04  0.23025963998E+04 0.  0.
        5    1    3    3  502    0 -0.95469445640E+03  0.15194402147E+03  0.64350987793E+03  0.11613162979E+04  0.46999998093E+01 0. -1.
       -5    1    3    3    0  502  0.95469445640E+03 -0.15194402147E+03 -0.60714510364E+03  0.11415672375E+04  0.46999998093E+01 0.  1.
</event>
<event>
 5   0  0.6814789E-05  0.2312521E+04  0.7818609E-02  0.8473000E-01
        2   -1    0    0  501    0  0.00000000000E+00  0.00000000000E+00  0.13069022463E+04  0.13069022463E+04  0.25500000920E-02 0.  1.
       -2   -1    0    0    0  501  0.00000000000E+00  0.00000000000E+00 -0.10229830177E+04  0.10229830177E+04  0.25500000920E-02 0. -1.
    10030    2    1    2    0    0  0.00000000000E+00  0.00000000000E+00  0.28391922860E+03  0.23298852639E+04  0.23125213977E+04 0.  0.
        1    1    3    3  502    0 -0.11022803956E+03  0.28424792489E+02  0.13012429357E+04  0.13062126041E+04  0.50400001928E-02 0.  1.
       -1    1    3    3    0  502  0.11022803956E+03 -0.28424792489E+02 -0.10173237070E+04  0.10236726598E+04  0.50400001928E-02 0. -1.
</event>
<event>
 5   0  0.2982385E-05  0.2187591E+04  0.7818609E-02  0.8523611E-01
       -1   -1    0    0    0  501  0.00000000000E+00  0.00000000000E+00  0.51701410536E+03  0.51701410538E+03  0.50400001928E-02 0. -1.
        1   -1    0    0  501    0  0.00000000000E+00  0.00000000000E+00 -0.23140353336E+04  0.23140353336E+04  0.50400001928E-02 0.  1.
    10030    2    1    2    0    0  0.00000000000E+00  0.00000000000E+00 -0.17970212283E+04  0.28310494390E+04  0.21875912853E+04 0.  0.
        4    1    3    3  502    0  0.99651913617E+03  0.82227181469E+02 -0.14722914917E+04  0.17797346846E+04  0.12699999809E+01 0.  1.
       -4    1    3    3    0  502 -0.99651913617E+03 -0.82227181469E+02 -0.32472973654E+03  0.10513147544E+04  0.12699999809E+01 0. -1.
</event>
<event>
 5   0  0.3118614E-05  0.2310988E+04  0.7818609E-02  0.8473601E-01
       -1   -1    0    0    0  501  0.00000000000E+00  0.00000000000E+00  0.66996216670E+03  0.66996216672E+03  0.50400001928E-02 0. -1.
        1   -1    0    0  501    0  0.00000000000E+00  0.00000000000E+00 -0.19928990412E+04  0.19928990412E+04  0.50400001928E-02 0.  1.
    10030    2    1    2    0    0  0.00000000000E+00  0.00000000000E+00 -0.13229368745E+04  0.26628612080E+04  0.23109884982E+04 0.  0.
        3    1    3    3  502    0  0.15210874727E+03  0.82896409625E+03 -0.15723000175E+04  0.17839411143E+04  0.10100000352E+00 0.  1.
       -3    1    3    3    0  502 -0.15210874727E+03 -0.82896409625E+03  0.24936314297E+03  0.87892009372E+03  0.10100000352E+00 0. -1.
</event>
<event>
 5   0  0.6702421E-05  0.2230951E+04  0.7818609E-02  0.8505655E-01
       -2   -1    0    0    0  501  0.00000000000E+00  0.00000000000E+00  0.97568924840E+03  0.97568924840E+03  0.25500000920E-02 0. -1.
        2   -1    0    0  501    0  0.00000000000E+00  0.00000000000E+00 -0.12752888087E+04  0.12752888087E+04  0.25500000920E-02 0.  1.
    10030    2    1    2    0    0  0.00000000000E+00  0.00000000000E+00 -0.29959956028E+03  0.22509780571E+04  0.22309509894E+04 0.  0.
        4    1    3    3  502    0 -0.82806015774E+03  0.15472811984E+03  0.58796835934E+03  0.10272939309E+04  0.12699999809E+01 0. -1.
       -4    1    3    3    0  502  0.82806015774E+03 -0.15472811984E+03 -0.88756791962E+03  0.12236841262E+04  0.12699999809E+01 0.  1.
</event>
<event>
 5   0  0.6468758E-05  0.1938268E+04  0.7818609E-02  0.8636039E-01
        2   -1    0    0  501    0  0.00000000000E+00  0.00000000000E+00  0.75940083934E+03  0.75940083935E+03  0.25500000920E-02 0. -1.
       -2   -1    0    0    0  501  0.00000000000E+00  0.00000000000E+00 -0.12367913380E+04  0.12367913380E+04  0.25500000920E-02 0.  1.
    10030    2    1    2    0    0  0.00000000000E+00  0.00000000000E+00 -0.47739049861E+03  0.19961921773E+04  0.19382676597E+04 0.  0.
        3    1    3    3  502    0  0.66557555959E+03 -0.14575519253E+03 -0.94848305320E+03  0.11678422471E+04  0.10100000352E+00 0.  1.
       -3    1    3    3    0  502 -0.66557555959E+03  0.14575519253E+03  0.47109255460E+03  0.82834993021E+03  0.10100000352E+00 0. -1.
</event>
<event>
 5   0  0.6676612E-05  0.2295754E+04  0.7818609E-02  0.8479597E-01
       -2   -1    0    0    0  501  0.00000000000E+00  0.00000000000E+00  0.78225571833E+03  0.78225571834E+03  0.25500000920E-02 0.  1.
        2   -1    0    0  501    0  0.00000000000E+00  0.00000000000E+00 -0.16843871167E+04  0.16843871167E+04  0.25500000920E-02 0. -1.
    10030    2    1    2    0    0  0.00000000000E+00  0.00000000000E+00 -0.90213139839E+03  0.24666428351E+04  0.22957538666E+04 0.  0.
        2    1    3    3  502    0  0.27884032036E+03 -0.57501313686E+03 -0.14755791982E+04  0.16080192791E+04  0.25500000920E-02 0. -1.
       -2    1    3    3    0  502 -0.27884032036E+03  0.57501313686E+03  0.57344779978E+03  0.85862355599E+03  0.25500000920E-02 0.  1.
</event>
<event>
 5   0  0.6676612E-05  0.2304383E+04  0.7818609E-02  0.8476195E-01
        2   -1    0    0  501    0  0.00000000000E+00  0.00000000000E+00  0.14856001153E+04  0.14856001153E+04  0.25500000920E-02 0. -1.
       -2   -1    0    0    0  501  0.00000000000E+00  0.00000000000E+00 -0.89360836262E+03  0.89360836263E+03  0.25500000920E-02 0.  1.
    10030    2    1    2    0    0  0.00000000000E+00  0.00000000000E+00  0.59199175265E+03  0.23792084779E+04  0.23043825086E+04 0.  0.
        2    1    3    3  502    0  0.79899276616E+03  0.17810751955E+03  0.11331466146E+04  0.13979030650E+04  0.25500000920E-02 0. -1.
       -2    1    3    3    0  502 -0.79899276616E+03 -0.17810751955E+03 -0.54115486192E+03  0.98130541295E+03  0.25500000920E-02 0.  1.
</event>
<event>
 5   0  0.6702421E-05  0.2296720E+04  0.7818609E-02  0.8479215E-01
        2   -1    0    0  501    0  0.00000000000E+00  0.00000000000E+00  0.10102117363E+04  0.10102117363E+04  0.25500000920E-02 0.  1.
       -2   -1    0    0    0  501  0.00000000000E+00  0.00000000000E+00 -0.13054007892E+04  0.13054007892E+04  0.25500000920E-02 0. -1.
    10030    2    1    2    0    0  0.00000000000E+00  0.00000000000E+00 -0.29518905292E+03  0.23156125255E+04  0.22967204426E+04 0.  0.
        4    1    3    3  502    0  0.39713297002E+03  0.24381491223E+03 -0.12057845473E+04  0.12927019358E+04  0.12699999809E+01 0. -1.
       -4    1    3    3    0  502 -0.39713297002E+03 -0.24381491223E+03  0.91059549441E+03  0.10229105898E+04  0.12699999809E+01 0.  1.
</event>
<event>
 5   0  0.6495405E-05  0.2382105E+04  0.7818609E-02  0.8446234E-01
        2   -1    0    0  501    0  0.00000000000E+00  0.00000000000E+00  0.18552706300E+04  0.18552706300E+04  0.25500000920E-02 0.  1.
       -2   -1    0    0    0  501  0.00000000000E+00  0.00000000000E+00 -0.76463580379E+03  0.76463580379E+03  0.25500000920E-02 0. -1.
    10030    2    1    2    0    0  0.00000000000E+00  0.00000000000E+00  0.10906348263E+04  0.26199064338E+04  0.23821052449E+04 0.  0.
        5    1    3    3  502    0 -0.10560409275E+04  0.65624882526E+02 -0.56133946031E+02  0.10595764133E+04  0.46999998093E+01 0. -1.
       -5    1    3    3    0  502  0.10560409275E+04 -0.65624882526E+02  0.11467687723E+04  0.15603300205E+04  0.46999998093E+01 0.  1.
</event>
<event>
 5   0  0.6495405E-05  0.2299982E+04  0.7818609E-02  0.8477928E-01
       -2   -1    0    0    0  501  0.00000000000E+00  0.00000000000E+00  0.70010057545E+03  0.70010057545E+03  0.25500000920E-02 0.  1.
        2   -1    0    0  501    0  0.00000000000E+00  0.00000000000E+00 -0.18889847356E+04  0.18889847356E+04  0.25500000920E-02 0. -1.
    10030    2    1    2    0    0  0.00000000000E+00  0.00000000000E+00 -0.11888841601E+04  0.25890853110E+04  0.22999820003E+04 0.  0.
        5    1    3    3  502    0  0.15604647678E+03 -0.12660448899E+03  0.68017328470E+03  0.70925100407E+03  0.46999998093E+01 0.  1.
       -5    1    3    3    0  502 -0.15604647678E+03  0.12660448899E+03 -0.18690574449E+04  0.18798343070E+04  0.46999998093E+01 0. -1.
</event>
<event>
 5   0  0.6468758E-05  0.2325641E+04  0.7818609E-02  0.8467879E-01
       -2   -1    0    0    0  501  0.00000000000E+00  0.00000000000E+00  0.99565846997E+03  0.99565846998E+03  0.25500000920E-02 0. -1.
        2   -1    0    0  501    0  0.00000000000E+00  0.00000000000E+00 -0.13580473796E+04  0.13580473796E+04  0.25500000920E-02 0.  1.
    10030    2    1    2    0    0  0.00000000000E+00  0.00000000000E+00 -0.36238890963E+03  0.23537058496E+04  0.23256408804E+04 0.  0.
        3    1    3    3  502    0 -0.85183638931E+03 -0.70506922439E+03  0.18287360537E+03  0.11207990949E+04  0.10100000352E+00 0. -1.
       -3    1    3    3    0  502  0.85183638931E+03  0.70506922439E+03 -0.54526251500E+03  0.12329067547E+04  0.10100000352E+00 0.  1.
</event>
<event>
 5   0  0.2962279E-05  0.2367096E+04  0.7818609E-02  0.8451926E-01
       -1   -1    0    0    0  501  0.00000000000E+00  0.00000000000E+00  0.19821646498E+04  0.19821646498E+04  0.50400001928E-02 0.  1.
        1   -1    0    0  501    0  0.00000000000E+00  0.00000000000E+00 -0.70669471679E+03  0.70669471681E+03  0.50400001928E-02 0. -1.
    10030    2    1    2    0    0  0.00000000000E+00  0.00000000000E+00  0.12754699330E+04  0.26888593666E+04  0.23670955079E+04 0.  0.
        1    1    3    3  502    0  0.91354747136E+02 -0.11693082931E+04  0.81790720571E+03  0.14298950210E+04  0.50400001928E-02 0. -1.
       -1    1    3    3    0  502 -0.91354747136E+02  0.11693082931E+04  0.45756272733E+03  0.12589643456E+04  0.50400001928E-02 0.  1.
</event>
<event>
 5   0  0.2962279E-05  0.2318587E+04  0.7818609E-02  0.8470628E-01
        1   -1    0    0  501    0  0.00000000000E+00  0.00000000000E+00  0.17822737437E+04  0.17822737437E+04  0.50400001928E-02 0.  1.
       -1   -1    0    0    0  501  0.00000000000E+00  0.00000000000E+00 -0.75407118974E+03  0.75407118975E+03  0.50400001928E-02 0. -1.
    10030    2    1    2    0    0  0.00000000000E+00  0.00000000000E+00  0.10282025539E+04  0.25363449334E+04  0.23185868820E+04 0.  0.
        1    1    3    3  502    0 -0.71235230031E+03  0.46531851285E+03  0.13754494603E+04  0.16173522609E+04  0.50400001928E-02 0.  1.
       -1    1    3    3    0  502  0.71235230031E+03 -0.46531851285E+03 -0.34724690633E+03  0.91899267251E+03  0.50400001928E-02 0. -1.
</event>
<event>
 5   0  0.6676612E-05  0.2312923E+04  0.7818609E-02  0.8472843E-01
       -2   -1    0    0    0  501  0.00000000000E+00  0.00000000000E+00  0.59100566152E+03  0.59100566153E+03  0.25500000920E-02 0. -1.
        2   -1    0    0  501    0  0.00000000000E+00  0.00000000000E+00 -0.22629283632E+04  0.22629283632E+04  0.25500000920E-02 0.  1.
    10030    2    1    2    0    0  0.00000000000E+00  0.00000000000E+00 -0.16719227017E+04  0.28539340247E+04  0.23129232363E+04 0.  0.
        2    1    3    3  502    0 -0.47172532153E+03 -0.65891143487E+03  0.18207945046E+03  0.83056726655E+03  0.25500000920E-02 0. -1.
       -2    1    3    3    0  502  0.47172532153E+03  0.65891143487E+03 -0.18540021521E+04  0.20233667582E+04  0.25500000920E-02 0.  1.
</event>
<event>
 5   0  0.6702421E-05  0.2319484E+04  0.7818609E-02  0.8470278E-01
        2   -1    0    0  501    0  0.00000000000E+00  0.00000000000E+00  0.14797077642E+04  0.14797077642E+04  0.25500000920E-02 0. -1.
       -2   -1    0    0    0  501  0.00000000000E+00  0.00000000000E+00 -0.90896401044E+03  0.90896401044E+03  0.25500000920E-02 0.  1.
    10030    2    1    2    0    0  0.00000000000E+00  0.00000000000E+00  0.57074375379E+03  0.23886717747E+04  0.23194836526E+04 0.  0.
        4    1    3    3  502    0  0.15713045546E+03  0.33079936965E+03  0.14185963521E+04  0.14651059436E+04  0.12699999809E+01 0. -1.
       -4    1    3    3    0  502 -0.15713045546E+03 -0.33079936965E+03 -0.84785259828E+03  0.92356583106E+03  0.12699999809E+01 0.  1.
</event>
<event>
 5   0  0.2944089E-05  0.2302516E+04  0.7818609E-02  0.8476930E-01
        1   -1    0    0  501    0  0.00000000000E+00  0.00000000000E+00  0.32911744100E+04  0.32911744100E+04  0.50400001928E-02 0. -1.
       -1   -1    0    0    0  501  0.00000000000E+00  0.00000000000E+00 -0.40271200763E+03  0.40271200767E+03  0.50400001928E-02 0.  1.
    10030    2    1    2    0    0  0.00000000000E+00  0.00000000000E+00  0.28884624024E+04  0.36938864177E+04  0.23025164097E+04 0.  0.
        5    1    3    3  502    0 -0.33717566288E+02 -0.66941701385E+03 -0.57395368581E+02  0.67273496345E+03  0.46999998093E+01 0.  1.
       -5    1    3    3    0  502  0.33717566288E+02  0.66941701385E+03  0.29458577709E+04  0.30211514542E+04  0.46999998093E+01 0. -1.
</event>
<event>
 5   0  0.6814789E-05  0.2298941E+04  0.7818609E-02  0.8478339E-01
        2   -1    0    0  501    0  0.00000000000E+00  0.00000000000E+00  0.16464983789E+04  0.16464983789E+04  0.25500000920E-02 0. -1.
       -2   -1    0    0    0  501  0.00000000000E+00  0.00000000000E+00 -0.80248010643E+03  0.80248010644E+03  0.25500000920E-02 0.  1.
    10030    2    1    2    0    0  0.00000000000E+00  0.00000000000E+00  0.84401827246E+03  0.24489784853E+04  0.22989407947E+04 0.  0.
        1    1    3    3  502    0  0.93773901662E+03  0.39304185025E+03  0.99313942537E+03  0.14213241283E+04  0.50400001928E-02 0. -1.
       -1    1    3    3    0  502 -0.93773901662E+03 -0.39304185025E+03 -0.14912115291E+03  0.10276543571E+04  0.50400001928E-02 0.  1.
</event>
<event>
 5   0  0.2944089E-05  0.2322355E+04  0.7818609E-02  0.8469159E-01
       -1   -1    0    0    0  501  0.00000000000E+00  0.00000000000E+00  0.63473884266E+03  0.63473884268E+03  0.50400001928E-02 0. -1.
        1   -1    0    0  501    0  0.00000000000E+00  0.00000000000E+00 -0.21242320904E+04  0.21242320904E+04  0.50400001928E-02 0.  1.
    10030    2    1    2    0    0  0.00000000000E+00  0.00000000000E+00 -0.14894932477E+04  0.27589709330E+04  0.23223545109E+04 0.  0.
        5    1    3    3  502    0  0.59720020184E+02 -0.51137321349E+03  0.49171673378E+03  0.71195258309E+03  0.46999998093E+01 0. -1.
       -5    1    3    3    0  502 -0.59720020184E+02  0.51137321349E+03 -0.19812099815E+04  0.20470183500E+04  0.46999998093E+01 0.  1.
</event>
<event>
 5   0  0.2982385E-05  0.2293762E+04  0.7818609E-02  0.8480385E-01
        1   -1    0    0  501    0  0.00000000000E+00  0.00000000000E+00  0.81332679563E+03  0.81332679564E+03  0.50400001928E-02 0.  1.
       -1   -1    0    0    0  501  0.00000000000E+00  0.00000000000E+00 -0.16172293403E+04  0.16172293403E+04  0.50400001928E-02 0. -1.
    10030    2    1    2    0    0  0.00000000000E+00  0.00000000000E+00 -0.80390254465E+03  0.24305561359E+04  0.22937619381E+04 0.  0.
        4    1    3    3  502    0 -0.75161043768E+02  0.11423847515E+04 -0.32975393777E+03  0.11913989153E+04  0.12699999809E+01 0.  1.
       -4    1    3    3    0  502  0.75161043768E+02 -0.11423847515E+04 -0.47414860688E+03  0.12391572206E+04  0.12699999809E+01 0. -1.
</event>
<event>
 5   0  0.2962279E-05  0.2353689E+04  0.7818609E-02  0.8457048E-01
       -1   -1    0    0    0  501  0.00000000000E+00  0.00000000000E+00  0.54470865061E+03  0.54470865063E+03  0.50400001928E-02 0. -1.
        1   -1    0    0  501    0  0.00000000000E+00  0.00000000000E+00 -0.25425748106E+04  0.25425748106E+04  0.50400001928E-02 0.  1.
    10030    2    1    2    0    0  0.00000000000E+00  0.00000000000E+00 -0.19978661600E+04  0.30872834613E+04  0.23536885896E+04 0.  0.
        1    1    3    3  502    0  0.95720286169E+03  0.32947491805E+03 -0.17861277576E+04  0.20530570880E+04  0.50400001928E-02 0.  1.
       -1    1    3    3    0  502 -0.95720286169E+03 -0.32947491805E+03 -0.21173840240E+03  0.10342263733E+04  0.50400001928E-02 0. -1.
</event>
<event>
 5   0  0.2962279E-05  0.2259605E+04  0.7818609E-02  0.8494021E-01
       -1   -1    0    0    0  501  0.00000000000E+00  0.00000000000E+00  0.95394101360E+03  0.95394101362E+03  0.50400001928E-02 0.  1.
        1   -1    0    0  501    0  0.00000000000E+00  0.00000000000E+00 -0.13380843355E+04  0.13380843355E+04  0.50400001928E-02 0. -1.
    10030    2    1    2    0    0  0.00000000000E+00  0.00000000000E+00 -0.38414332186E+03  0.22920253491E+04  0.22596048569E+04 0.  0.
        1    1    3    3  502    0 -0.53685264684E+03  0.82607738752E+03 -0.75303346024E+03  0.12400298411E+04  0.50400001928E-02 0. -1.
       -1    1    3    3    0  502  0.53685264684E+03 -0.82607738752E+03  0.36889013837E+03  0.10519955080E+04  0.50400001928E-02 0.  1.
</event>
<event>
 5   0  0.2962279E-05  0.2304238E+04  0.7818609E-02  0.8476252E-01
        1   -1    0    0  501    0  0.00000000000E+00  0.00000000000E+00  0.14111389292E+04  0.14111389292E+04  0.50400001928E-02 0. -1.
       -1   -1    0    0    0  501  0.00000000000E+00  0.00000000000E+00 -0.94064282774E+03  0.94064282776E+03  0.50400001928E-02 0.  1.
    10030    2    1    2    0    0  0.00000000000E+00  0.00000000000E+00  0.47049610142E+03  0.23517817569E+04  0.23042375856E+04 0.  0.
        1    1    3    3  502    0 -0.89866810630E+03  0.63222260767E+03  0.58890586419E+03  0.12466434566E+04  0.50400001928E-02 0. -1.
       -1    1    3    3    0  502  0.89866810630E+03 -0.63222260767E+03 -0.11840976277E+03  0.11051383003E+04  0.50400001928E-02 0.  1.
</event>
<event>
 5   0  0.3006265E-05  0.2300823E+04  0.7818609E-02  0.8477597E-01
        1   -1    0    0  501    0  0.00000000000E+00  0.00000000000E+00  0.10580199832E+04  0.10580199833E+04  0.50400001928E-02 0.  1.
       -1   -1    0    0    0  501  0.00000000000E+00  0.00000000000E+00 -0.12508714339E+04  0.12508714339E+04  0.50400001928E-02 0. -1.
    10030    2    1    2    0    0  0.00000000000E+00  0.00000000000E+00 -0.19285145064E+03  0.23088914172E+04  0.23008233079E+04 0.  0.
        2    1    3    3  502    0  0.87259370343E+03 -0.50801849175E+03  0.45681905402E+03  0.11082356281E+04  0.25500000920E-02 0.  1.
       -2    1    3    3    0  502 -0.87259370343E+03  0.50801849175E+03 -0.64967050466E+03  0.12006557891E+04  0.25500000920E-02 0. -1.
</event>
<event>
 5   0  0.2944089E-05  0.2065180E+04  0.7818609E-02  0.8576739E-01
       -1   -1    0    0    0  501  0.00000000000E+00  0.00000000000E+00  0.59077875586E+03  0.59077875588E+03  0.50400001928E-02 0.  1.
        1   -1    0    0  501    0  0.00000000000E+00  0.00000000000E+00 -0.18048086352E+04  0.18048086352E+04  0.50400001928E-02 0. -1.
    10030    2    1    2    0    0  0.00000000000E+00  0.00000000000E+00 -0.12140298793E+04  0.23955873911E+04  0.20651804765E+04 0.  0.
        5    1    3    3  502    0  0.16634811039E+03  0.31540134429E+03 -0.17311103589E+04  0.17674600042E+04  0.46999998093E+01 0. -1.
       -5    1    3    3    0  502 -0.16634811039E+03 -0.31540134429E+03  0.51708047955E+03  0.62812738688E+03  0.46999998093E+01 0.  1.
</event>
<event>
 5   0  0.6468758E-05  0.2297069E+04  0.7818609E-02  0.8479078E-01
        2   -1    0    0  501    0  0.00000000000E+00  0.00000000000E+00  0.16085372549E+04  0.16085372549E+04  0.25500000920E-02 0.  1.
       -2   -1    0    0    0  501  0.00000000000E+00  0.00000000000E+00 -0.82008140167E+03  0.82008140167E+03  0.25500000920E-02 0. -1.
    10030    2    1    2    0    0  0.00000000000E+00  0.00000000000E+00  0.78845585321E+03  0.24286186565E+04  0.22970689904E+04 0.  0.
        3    1    3    3  502    0  0.24764340885E+03  0.88136243903E+03 -0.33903519585E+03  0.97625400440E+03  0.10100000352E+00 0. -1.
       -3    1    3    3    0  502 -0.24764340885E+03 -0.88136243903E+03  0.11274910491E+04  0.14523646521E+04  0.10100000352E+00 0.  1.
</event>
<event>
 5   0  0.3118614E-05  0.2333609E+04  0.7818609E-02  0.8464786E-01
        1   -1    0    0  501    0  0.00000000000E+00  0.00000000000E+00  0.15317953432E+04  0.15317953432E+04  0.50400001928E-02 0.  1.
       -1   -1    0    0    0  501  0.00000000000E+00  0.00000000000E+00 -0.88878221607E+03  0.88878221609E+03  0.50400001928E-02 0. -1.
    10030    2    1    2    0    0  0.00000000000E+00  0.00000000000E+00  0.64301312713E+03  0.24205775593E+04  0.23336087588E+04 0.  0.
        3    1    3    3  502    0 -0.67657679679E+03 -0.10032045268E+03 -0.65903379913E+03  0.94981362054E+03  0.10100000352E+00 0. -1.
       -3    1    3    3    0  502  0.67657679679E+03  0.10032045268E+03  0.13020469263E+04  0.14707639388E+04  0.10100000352E+00 0.  1.
</event>
<event>
 5   0  0.3006265E-05  0.2304622E+04  0.7818609E-02  0.8476101E-01
        1   -1    0    0  501    0  0.00000000000E+00  0.00000000000E+00  0.23986737031E+04  0.23986737031E+04  0.50400001928E-02 0.  1.
       -1   -1    0    0    0  501  0.00000000000E+00  0.00000000000E+00 -0.55356460008E+03  0.55356460011E+03  0.50400001928E-02 0. -1.
    10030    2    1    2    0    0  0.00000000000E+00  0.00000000000E+00  0.18451091030E+04  0.29522383032E+04  0.23046221809E+04 0.  0.
        2    1    3    3  502    0 -0.24747708461E+03  0.47430877223E+03 -0.38483089217E+03  0.65902089072E+03  0.25500000920E-02 0. -1.
       -2    1    3    3    0  502  0.24747708461E+03 -0.47430877223E+03  0.22299399952E+04  0.22932174125E+04  0.25500000920E-02 0.  1.
</event>
<event>
 5   0  0.6495405E-05  0.1918526E+04  0.7818609E-02  0.8645689E-01
       -2   -1    0    0    0  501  0.00000000000E+00  0.00000000000E+00  0.35693059827E+03  0.35693059828E+03  0.25500000920E-02 0.  1.
        2   -1    0    0  501    0  0.00000000000E+00  0.00000000000E+00 -0.25780521823E+04  0.25780521823E+04  0.25500000920E-02 0. -1.
    10030    2    1    2    0    0  0.00000000000E+00  0.00000000000E+00 -0.22211215840E+04  0.29349827806E+04  0.19185262133E+04 0.  0.
        5    1    3    3  502    0 -0.78313620501E+03  0.40701630458E+03 -0.53571192889E+03  0.10324601438E+04  0.46999998093E+01 0.  1.
       -5    1    3    3    0  502  0.78313620501E+03 -0.40701630458E+03 -0.16854096552E+04  0.19025226368E+04  0.46999998093E+01 0. -1.
</event>
<event>
 5   0  0.6468758E-05  0.2257882E+04  0.7818609E-02  0.8494715E-01
       -2   -1    0    0    0  501  0.00000000000E+00  0.00000000000E+00  0.94974146987E+03  0.94974146987E+03  0.25500000920E-02 0.  1.
        2   -1    0    0  501    0  0.00000000000E+00  0.00000000000E+00 -0.13419521705E+04  0.13419521705E+04  0.25500000920E-02 0. -1.
    10030    2    1    2    0    0  0.00000000000E+00  0.00000000000E+00 -0.39221070067E+03  0.22916936404E+04  0.22578818631E+04 0.  0.
        3    1    3    3  502    0 -0.43408926267E+03  0.92374185766E+03  0.29358733177E+03  0.10620386241E+04  0.10100000352E+00 0.  1.
       -3    1    3    3    0  502  0.43408926267E+03 -0.92374185766E+03 -0.68579803244E+03  0.12296550163E+04  0.10100000352E+00 0. -1.
</event>
<event>
 5   0  0.2962279E-05  0.2297719E+04  0.7818609E-02  0.8478821E-01
        1   -1    0    0  501    0  0.00000000000E+00  0.00000000000E+00  0.17247469248E+04  0.17247469248E+04  0.50400001928E-02 0.  1.
       -1   -1    0    0    0  501  0.00000000000E+00  0.00000000000E+00 -0.76525927804E+03  0.76525927805E+03  0.50400001928E-02 0. -1.
    10030    2    1    2    0    0  0.00000000000E+00  0.00000000000E+00  0.95948764675E+03  0.24900062029E+04  0.22977193793E+04 0.  0.
        1    1    3    3  502    0 -0.45792837921E+03  0.38997440510E+03 -0.58099605338E+03  0.83626242962E+03  0.50400001928E-02 0. -1.
       -1    1    3    3    0  502  0.45792837921E+03 -0.38997440510E+03  0.15404837001E+04  0.16537437732E+04  0.50400001928E-02 0.  1.
</event>
<event>
 5   0  0.6702421E-05  0.2313892E+04  0.7818609E-02  0.8472464E-01
        2   -1    0    0  501    0  0.00000000000E+00  0.00000000000E+00  0.10144657144E+04  0.10144657145E+04  0.25500000920E-02 0. -1.
       -2   -1    0    0    0  501  0.00000000000E+00  0.00000000000E+00 -0.13194375986E+04  0.13194375986E+04  0.25500000920E-02 0.  1.
    10030    2    1    2    0    0  0.00000000000E+00  0.00000000000E+00 -0.30497188412E+03  0.23339033130E+04  0.23138921376E+04 0.  0.
        4    1    3    3  502    0 -0.32442793202E+03 -0.10594197613E+04 -0.48838077982E+03  0.12108431412E+04  0.12699999809E+01 0. -1.
       -4    1    3    3    0  502  0.32442793202E+03  0.10594197613E+04  0.18340889570E+03  0.11230601718E+04  0.12699999809E+01 0.  1.
</event>
<event>
 5   0  0.6814789E-05  0.2229934E+04  0.7818609E-02  0.8506071E-01
       -2   -1    0    0    0  501  0.00000000000E+00  0.00000000000E+00  0.50621614342E+03  0.50621614343E+03  0.25500000920E-02 0.  1.
        2   -1    0    0  501    0  0.00000000000E+00  0.00000000000E+00 -0.24557727121E+04  0.24557727121E+04  0.25500000920E-02 0. -1.
    10030    2    1    2    0    0  0.00000000000E+00  0.00000000000E+00 -0.19495565687E+04  0.29619888556E+04  0.22299343412E+04 0.  0.
        1    1    3    3  502    0  0.56964266677E+03 -0.95827101907E+03 -0.10005236475E+04  0.14979398129E+04  0.50400001928E-02 0. -1.
       -1    1    3    3    0  502 -0.56964266677E+03  0.95827101907E+03 -0.94903292123E+03  0.14640490427E+04  0.50400001928E-02 0.  1.
</event>
<event>
 5   0  0.6468758E-05  0.2294162E+04  0.7818609E-02  0.8480227E-01
        2   -1    0    0  501    0  0.00000000000E+00  0.00000000000E+00  0.17489246821E+04  0.17489246821E+04  0.25500000920E-02 0.  1.
       -2   -1    0    0    0  501  0.00000000000E+00  0.00000000000E+00 -0.75234489579E+03  0.75234489579E+03  0.25500000920E-02 0. -1.
    10030    2    1    2    0    0  0.00000000000E+00  0.00000000000E+00  0.99657978636E+03  0.25012695779E+04  0.22941617709E+04 0.  0.
        3    1    3    3  502    0  0.89123559382E+03  0.25265350086E+01  0.12856226534E+04  0.15643314496E+04  0.10100000352E+00 0.  1.
       -3    1    3    3    0  502 -0.89123559382E+03 -0.25265350086E+01 -0.28904286708E+03  0.93693812831E+03  0.10100000352E+00 0. -1.
</event>
<event>
 5   0  0.2944089E-05  0.2215872E+04  0.7818609E-02  0.8511851E-01
       -1   -1    0    0    0  501  0.00000000000E+00  0.00000000000E+00  0.96304321527E+03  0.96304321528E+03  0.50400001928E-02 0.  1.
        1   -1    0    0  501    0  0.00000000000E+00  0.00000000000E+00 -0.12746280306E+04  0.12746280306E+04  0.50400001928E-02 0. -1.
    10030    2    1    2    0    0  0.00000000000E+00  0.00000000000E+00 -0.31158481530E+03  0.22376712459E+04  0.22158717263E+04 0.  0.
        5    1    3    3  502    0 -0.93136805721E+03  0.59133335437E+03 -0.25866804384E+03  0.11331605539E+04  0.46999998093E+01 0. -1.
       -5    1    3    3    0  502  0.93136805721E+03 -0.59133335437E+03 -0.52916771459E+02  0.11045106920E+04  0.46999998093E+01 0.  1.
</event>
<event>
 5   0  0.3006265E-05  0.2316209E+04  0.7818609E-02  0.8471558E-01
        1   -1    0    0  501    0  0.00000000000E+00  0.00000000000E+00  0.15524226800E+04  0.15524226800E+04  0.50400001928E-02 0.  1.
       -1   -1    0    0    0  501  0.00000000000E+00  0.00000000000E+00 -0.86394357251E+03  0.86394357253E+03  0.50400001928E-02 0. -1.
    10030    2    1    2    0    0  0.00000000000E+00  0.00000000000E+00  0.68847910748E+03  0.24163662525E+04  0.23162086229E+04 0.  0.
        2    1    3    3  502    0  0.75951943651E+03  0.14719078927E+03 -0.55480917401E+03  0.95202317327E+03  0.25500000920E-02 0. -1.
       -2    1    3    3    0  502 -0.75951943651E+03 -0.14719078927E+03  0.12432882815E+04  0.14643430793E+04  0.25500000920E-02 0.  1.
</event>
<event>
 5   0  0.2962279E-05  0.2250009E+04  0.7818609E-02  0.8497897E-01
       -1   -1    0    0    0  501  0.00000000000E+00  0.00000000000E+00  0.86009189885E+03  0.86009189887E+03  0.50400001928E-02 0.  1.
        1   -1    0    0  501    0  0.00000000000E+00  0.00000000000E+00 -0.14715112925E+04  0.14715112925E+04  0.50400001928E-02 0. -1.
    10030    2    1    2    0    0  0.00000000000E+00  0.00000000000E+00 -0.61141939362E+03  0.23316031913E+04  0.22500088371E+04 0.  0.
        1    1    3    3  502    0  0.89687860582E+02  0.11212810815E+04 -0.28717923389E+03  0.11609423278E+04  0.50400001928E-02 0. -1.
       -1    1    3    3    0  502 -0.89687860582E+02 -0.11212810815E+04 -0.32424015973E+03  0.11706608635E+04  0.50400001928E-02 0.  1.
</event>
<event>
 5   0  0.6676612E-05  0.2298323E+04  0.7818609E-02  0.8478582E-01
       -2   -1    0    0    0  501  0.00000000000E+00  0.00000000000E+00  0.59755752923E+03  0.59755752924E+03  0.25500000920E-02 0.  1.
        2   -1    0    0  501    0  0.00000000000E+00  0.00000000000E+00 -0.22099504930E+04  0.22099504930E+04  0.25500000920E-02 0. -1.
    10030    2    1    2    0    0  0.00000000000E+00  0.00000000000E+00 -0.16123929638E+04  0.28075080223E+04  0.22983233509E+04 0.  0.
        2    1    3    3  502    0 -0.34508149753E+03 -0.65506891115E+03 -0.18797514161E+04  0.20203123285E+04  0.25500000920E-02 0. -1.
       -2    1    3    3    0  502  0.34508149753E+03  0.65506891115E+03  0.26735845230E+03  0.78719569379E+03  0.25500000920E-02 0.  1.
</event>
<event>
 5   0  0.6702421E-05  0.2223202E+04  0.7818609E-02  0.8508833E-01
        2   -1    0    0  501    0  0.00000000000E+00  0.00000000000E+00  0.14198932483E+04  0.14198932483E+04  0.25500000920E-02 0. -1.
       -2   -1    0    0    0  501  0.00000000000E+00  0.00000000000E+00 -0.87024593994E+03  0.87024593995E+03  0.25500000920E-02 0.  1.
    10030    2    1    2    0    0  0.00000000000E+00  0.00000000000E+00  0.54964730837E+03  0.22901391883E+04  0.22232015963E+04 0.  0.
        4    1    3    3  502    0 -0.88225604485E+03  0.67525468603E+03  0.31210877650E+03  0.11540182498E+04  0.12699999809E+01 0. -1.
       -4    1    3    3    0  502  0.88225604485E+03 -0.67525468603E+03  0.23753853187E+03  0.11361209384E+04  0.12699999809E+01 0.  1.
</event>
<event>
 5   0  0.3006265E-05  0.2322704E+04  0.7818609E-02  0.8469023E-01
        1   -1    0    0  501    0  0.00000000000E+00  0.00000000000E+00  0.18373981471E+04  0.18373981471E+04  0.50400001928E-02 0. -1.
       -1   -1    0    0    0  501  0.00000000000E+00  0.00000000000E+00 -0.73404802794E+03  0.73404802795E+03  0.50400001928E-02 0.  1.
    10030    2    1    2    0    0  0.00000000000E+00  0.00000000000E+00  0.11033501191E+04  0.25714461750E+04  0.23227040159E+04 0.  0.
        2    1    3    3  502    0 -0.10601545652E+04 -0.35199851070E+03  0.19999640696E+03  0.11348256326E+04  0.25500000920E-02 0.  1.
       -2    1    3    3    0  502  0.10601545652E+04  0.35199851070E+03  0.90335371215E+03  0.14366205424E+04  0.25500000920E-02 0. -1.
</event>
<event>
 5   0  0.2944089E-05  0.2290340E+04  0.7818609E-02  0.8481740E-01
       -1   -1    0    0    0  501  0.00000000000E+00  0.00000000000E+00  0.92493295259E+03  0.92493295261E+03  0.50400001928E-02 0. -1.
        1   -1    0    0  501    0  0.00000000000E+00  0.00000000000E+00 -0.14178475868E+04  0.14178475868E+04  0.50400001928E-02 0.  1.
    10030    2    1    2    0    0  0.00000000000E+00  0.00000000000E+00 -0.49291463417E+03  0.23427805394E+04  0.22903396733E+04 0.  0.
        5    1    3    3  502    0  0.10238411668E+03  0.49039977255E+02 -0.14120677635E+04  0.14166315277E+04  0.46999998093E+01 0.  1.
       -5    1    3    3    0  502 -0.10238411668E+03 -0.49039977255E+02  0.91915312929E+03  0.92614901166E+03  0.46999998093E+01 0. -1.
</event>
<event>
 5   0  0.3006265E-05  0.2290640E+04  0.7818609E-02  0.8481621E-01
        1   -1    0    0  501    0  0.00000000000E+00  0.00000000000E+00  0.23943742918E+04  0.23943742918E+04  0.50400001928E-02 0. -1.
       -1   -1    0    0    0  501  0.00000000000E+00  0.00000000000E+00 -0.54784976061E+03  0.54784976063E+03  0.50400001928E-02 0.  1.
    10030    2    1    2    0    0  0.00000000000E+00  0.00000000000E+00  0.18465245312E+04  0.29422240525E+04  0.22906395462E+04 0.  0.
        2    1    3    3  502    0 -0.95587191924E+03  0.42088988734E+03  0.31954374556E+03  0.10922214192E+04  0.25500000920E-02 0.  1.
       -2    1    3    3    0  502  0.95587191924E+03 -0.42088988734E+03  0.15269807857E+04  0.18500026333E+04  0.25500000920E-02 0. -1.
</event>
<event>
 5   0  0.2342500E-05  0.2299368E+04  0.7818609E-02  0.8478170E-01
        3   -1    0    0  501    0  0.00000000000E+00  0.00000000000E+00  0.28206814288E+04  0.28206814306E+04  0.10100000352E+00 0.  1.
       -3   -1    0    0    0  501  0.00000000000E+00  0.00000000000E+00 -0.46860076151E+03  0.46860077239E+03  0.10100000352E+00 0. -1.
    10030    2    1    2    0    0  0.00000000000E+00  0.00000000000E+00  0.23520806673E+04  0.32892822030E+04  0.22993681622E+04 0.  0.
        5    1    3    3  502    0  0.71884897736E+02  0.33546053462E+03 -0.39365337060E+03  0.52219371405E+03  0.46999998093E+01 0. -1.
       -5    1    3    3    0  502 -0.71884897736E+02 -0.33546053462E+03  0.27457340379E+04  0.27670884890E+04  0.46999998093E+01 0.  1.
</event>
<event>
 5   0  0.6676612E-05  0.2296287E+04  0.7818609E-02  0.8479387E-01
        2   -1    0    0  501    0  0.00000000000E+00  0.00000000000E+00  0.15160742218E+04  0.15160742218E+04  0.25500000920E-02 0.  1.
       -2   -1    0    0    0  501  0.00000000000E+00  0.00000000000E+00 -0.86950438773E+03  0.86950438774E+03  0.25500000920E-02 0. -1.
    10030    2    1    2    0    0  0.00000000000E+00  0.00000000000E+00  0.64656983402E+03  0.23855786095E+04  0.22962867312E+04 0.  0.
        2    1    3    3  502    0 -0.50598181416E+03  0.81602025547E+02 -0.74406887971E+03  0.90350151333E+03  0.25500000920E-02 0. -1.
       -2    1    3    3    0  502  0.50598181416E+03 -0.81602025547E+02  0.13906387137E+04  0.14820770962E+04  0.25500000920E-02 0.  1.
</event>
<event>
 5   0  0.6468758E-05  0.2299500E+04  0.7818609E-02  0.8478118E-01
        2   -1    0    0  501    0  0.00000000000E+00  0.00000000000E+00  0.13224677152E+04  0.13224677152E+04  0.25500000920E-02 0. -1.
       -2   -1    0    0    0  501  0.00000000000E+00  0.00000000000E+00 -0.99958965432E+03  0.99958965432E+03  0.25500000920E-02 0.  1.
    10030    2    1    2    0    0  0.00000000000E+00  0.00000000000E+00  0.32287806083E+03  0.23220573695E+04  0.22994999859E+04 0.  0.
        3    1    3    3  502    0  0.80275378858E+03 -0.79206271183E+03 -0.64695334500E+02  0.11295850924E+04  0.10100000352E+00 0. -1.
       -3    1    3    3    0  502 -0.80275378858E+03  0.79206271183E+03  0.38757339533E+03  0.11924722770E+04  0.10100000352E+00 0.  1.
</event>
<event>
 5   0  0.6676612E-05  0.2303943E+04  0.7818609E-02  0.8476368E-01
       -2   -1    0    0    0  501  0.00000000000E+00  0.00000000000E+00  0.11723349023E+04  0.11723349023E+04  0.25500000920E-02 0.  1.
        2   -1    0    0  501    0  0.00000000000E+00  0.00000000000E+00 -0.11319618095E+04  0.11319618095E+04  0.25500000920E-02 0. -1.
    10030    2    1    2    0    0  0.00000000000E+00  0.00000000000E+00  0.40373092825E+02  0.23042967117E+04  0.23039430004E+04 0.  0.
        2    1    3    3  502    0 -0.53526577027E+03 -0.31720977042E+03  0.98982332033E+03  0.11691371557E+04  0.25500000920E-02 0.  1.
       -2    1    3    3    0  502  0.53526577027E+03  0.31720977042E+03 -0.94945022750E+03  0.11351595561E+04  0.25500000920E-02 0. -1.
</event>
<event>
 5   0  0.3118614E-05  0.2295347E+04  0.7818609E-02  0.8479758E-01
       -1   -1    0    0    0  501  0.00000000000E+00  0.00000000000E+00  0.78190112398E+03  0.78190112400E+03  0.50400001928E-02 0.  1.
        1   -1    0    0  501    0  0.00000000000E+00  0.00000000000E+00 -0.16845540391E+04  0.16845540391E+04  0.50400001928E-02 0. -1.
    10030    2    1    2    0    0  0.00000000000E+00  0.00000000000E+00 -0.90265291511E+03  0.24664551631E+04  0.22953472039E+04 0.  0.
        3    1    3    3  502    0  0.15670270317E+03 -0.11168219823E+04 -0.22260315725E+03  0.11495213148E+04  0.10100000352E+00 0. -1.
       -3    1    3    3    0  502 -0.15670270317E+03  0.11168219823E+04 -0.68004975785E+03  0.13169338483E+04  0.10100000352E+00 0.  1.
</event>
<event>
 5   0  0.2944089E-05  0.2337116E+04  0.7818609E-02  0.8463429E-01
        1   -1    0    0  501    0  0.00000000000E+00  0.00000000000E+00  0.10407660902E+04  0.10407660902E+04  0.50400001928E-02 0. -1.
       -1   -1    0    0    0  501  0.00000000000E+00  0.00000000000E+00 -0.13120408172E+04  0.13120408172E+04  0.50400001928E-02 0.  1.
    10030    2    1    2    0    0  0.00000000000E+00  0.00000000000E+00 -0.27127472704E+03  0.23528069074E+04  0.23371158221E+04 0.  0.
        5    1    3    3  502    0  0.73966078605E+03  0.60951247040E+03 -0.80863290367E+03  0.12539987212E+04  0.46999998093E+01 0.  1.
       -5    1    3    3    0  502 -0.73966078605E+03 -0.60951247040E+03  0.53735817663E+03  0.10988081862E+04  0.46999998093E+01 0. -1.
</event>
<event>
 5   0  0.6495405E-05  0.2148000E+04  0.7818609E-02  0.8540389E-01
       -2   -1    0    0    0  501  0.00000000000E+00  0.00000000000E+00  0.12015856936E+04  0.12015856937E+04  0.25500000920E-02 0. -1.
        2   -1    0    0  501    0  0.00000000000E+00  0.00000000000E+00 -0.95996180216E+03  0.95996180216E+03  0.25500000920E-02 0.  1.
    10030    2    1    2    0    0  0.00000000000E+00  0.00000000000E+00  0.24162389149E+03  0.21615474958E+04  0.21480003426E+04 0.  0.
        5    1    3    3  502    0 -0.30022517807E+03  0.92449011852E+03  0.58046086999E+03  0.11321546045E+04  0.46999998093E+01 0. -1.
       -5    1    3    3    0  502  0.30022517807E+03 -0.92449011852E+03 -0.33883697850E+03  0.10293928914E+04  0.46999998093E+01 0.  1.
</event>
<event>
 5   0  0.2944089E-05  0.2233757E+04  0.7818609E-02  0.8504508E-01
        1   -1    0    0  501    0  0.00000000000E+00  0.00000000000E+00  0.13615592836E+04  0.13615592836E+04  0.50400001928E-02 0. -1.
       -1   -1    0    0    0  501  0.00000000000E+00  0.00000000000E+00 -0.91616815140E+03  0.91616815141E+03  0.50400001928E-02 0.  1.
    10030    2    1    2    0    0  0.00000000000E+00  0.00000000000E+00  0.44539113223E+03  0.22777274350E+04  0.22337567029E+04 0.  0.
        5    1    3    3  502    0 -0.64900946145E+03 -0.38958790518E+02 -0.70329044725E+03  0.95779466046E+03  0.46999998093E+01 0.  1.
       -5    1    3    3    0  502  0.64900946145E+03  0.38958790518E+02  0.11486815795E+04  0.13199327746E+04  0.46999998093E+01 0. -1.
</event>
<event>
 5   0  0.3006265E-05  0.2288097E+04  0.7818609E-02  0.8482629E-01
       -1   -1    0    0    0  501  0.00000000000E+00  0.00000000000E+00  0.12403698868E+04  0.12403698869E+04  0.50400001928E-02 0.  1.
        1   -1    0    0  501    0  0.00000000000E+00  0.00000000000E+00 -0.10552069560E+04  0.10552069560E+04  0.50400001928E-02 0. -1.
    10030    2    1    2    0    0  0.00000000000E+00  0.00000000000E+00  0.18516293088E+03  0.22955768428E+04  0.22880969670E+04 0.  0.
        2    1    3    3  502    0 -0.29760801152E+02  0.10122145400E+04 -0.44149601948E+03  0.11047093353E+04  0.25500000920E-02 0. -1.
       -2    1    3    3    0  502  0.29760801152E+02 -0.10122145400E+04  0.62665895036E+03  0.11908675075E+04  0.25500000920E-02 0.  1.
</event>
<event>
 5   0  0.6495405E-05  0.2562951E+04  0.7818609E-02  0.8380896E-01
       -2   -1    0    0    0  501  0.00000000000E+00  0.00000000000E+00  0.91733982251E+03  0.91733982251E+03  0.25500000920E-02 0.  1.
        2   -1    0    0  501    0  0.00000000000E+00  0.00000000000E+00 -0.17901541534E+04  0.17901541534E+04  0.25500000920E-02 0. -1.
    10030    2    1    2    0    0  0.00000000000E+00  0.00000000000E+00 -0.87281433088E+03  0.27074939759E+04  0.25629511843E+04 0.  0.
        5    1    3    3  502    0  0.12573189658E+04 -0.24676605074E+03 -0.45787927007E+03  0.13606689463E+04  0.46999998093E+01 0.  1.
       -5    1    3    3    0  502 -0.12573189658E+04  0.24676605074E+03 -0.41493506081E+03  0.13468250296E+04  0.46999998093E+01 0. -1.
</event>
<event>
 5   0  0.2962279E-05  0.2265591E+04  0.7818609E-02  0.8491613E-01
       -1   -1    0    0    0  501  0.00000000000E+00  0.00000000000E+00  0.12053262852E+04  0.12053262852E+04  0.50400001928E-02 0.  1.
        1   -1    0    0  501    0  0.00000000000E+00  0.00000000000E+00 -0.10646292922E+04  0.10646292922E+04  0.50400001928E-02 0. -1.
    10030    2    1    2    0    0  0.00000000000E+00  0.00000000000E+00  0.14069699297E+03  0.22699555774E+04  0.22655910222E+04 0.  0.
        1    1    3    3  502    0 -0.79730342705E+02  0.78119347608E+03  0.88838048724E+03  0.11856812661E+04  0.50400001928E-02 0.  1.
       -1    1    3    3    0  502  0.79730342705E+02 -0.78119347608E+03 -0.74768349428E+03  0.10842743114E+04  0.50400001928E-02 0. -1.
</event>
<event>
 5   0  0.6468758E-05  0.2301187E+04  0.7818609E-02  0.8477453E-01
       -2   -1    0    0    0  501  0.00000000000E+00  0.00000000000E+00  0.11882730402E+04  0.11882730402E+04  0.25500000920E-02 0. -1.
        2   -1    0    0  501    0  0.00000000000E+00  0.00000000000E+00 -0.11141091219E+04  0.11141091219E+04  0.25500000920E-02 0.  1.
    10030    2    1    2    0    0  0.00000000000E+00  0.00000000000E+00  0.74163918323E+02  0.23023821622E+04  0.23011873748E+04 0.  0.
        3    1    3    3  502    0  0.30145817372E+03 -0.80122320535E+03  0.80626598046E+03  0.11759678978E+04  0.10100000352E+00 0. -1.
       -3    1    3    3    0  502 -0.30145817372E+03  0.80122320535E+03 -0.73210206214E+03  0.11264142643E+04  0.10100000352E+00 0.  1.
</event>
<event>
 5   0  0.6814789E-05  0.2297496E+04  0.7818609E-02  0.8478909E-01
        2   -1    0    0  501    0  0.00000000000E+00  0.00000000000E+00  0.23838646965E+04  0.23838646965E+04  0.25500000920E-02 0. -1.
       -2   -1    0    0    0  501  0.00000000000E+00  0.00000000000E+00 -0.55356422226E+03  0.55356422226E+03  0.25500000920E-02 0.  1.
    10030    2    1    2    0    0  0.00000000000E+00  0.00000000000E+00  0.18303004743E+04  0.29374289188E+04  0.22974962082E+04 0.  0.
        1    1    3    3  502    0 -0.83112031233E+03 -0.84960910381E+02  0.19232024879E+04  0.20968278755E+04  0.50400001928E-02 0. -1.
       -1    1    3    3    0  502  0.83112031233E+03  0.84960910381E+02 -0.92902013639E+02  0.84060104331E+03  0.50400001928E-02 0.  1.
</event>
<event>
 5   0  0.6468758E-05  0.1985956E+04  0.7818609E-02  0.8613215E-01
       -2   -1    0    0    0  501  0.00000000000E+00  0.00000000000E+00  0.18016953675E+04  0.18016953675E+04  0.25500000920E-02 0. -1.
        2   -1    0    0  501    0  0.00000000000E+00  0.00000000000E+00 -0.54726515325E+03  0.54726515325E+03  0.25500000920E-02 0.  1.
    10030    2    1    2    0    0  0.00000000000E+00  0.00000000000E+00  0.12544302143E+04  0.23489605208E+04  0.19859557814E+04 0.  0.
        3    1    3    3  502    0 -0.70811816245E+03  0.78542916691E+02 -0.19088017663E+03  0.73758767193E+03  0.10100000352E+00 0.  1.
       -3    1    3    3    0  502  0.70811816245E+03 -0.78542916691E+02  0.14453103909E+04  0.16113728489E+04  0.10100000352E+00 0. -1.
</event>
<event>
 5   0  0.3006265E-05  0.2062319E+04  0.7818609E-02  0.8578026E-01
        1   -1    0    0  501    0  0.00000000000E+00  0.00000000000E+00  0.25344372698E+04  0.25344372699E+04  0.50400001928E-02 0.  1.
       -1   -1    0    0    0  501  0.00000000000E+00  0.00000000000E+00 -0.41953707364E+03  0.41953707367E+03  0.50400001928E-02 0. -1.
    10030    2    1    2    0    0  0.00000000000E+00  0.00000000000E+00  0.21149001962E+04  0.29539743435E+04  0.20623194666E+04 0.  0.
        2    1    3    3  502    0 -0.53534868330E+03  0.11304694175E+03 -0.19445845469E+03  0.58068228349E+03  0.25500000920E-02 0. -1.
       -2    1    3    3    0  502  0.53534868330E+03 -0.11304694175E+03  0.23093586509E+04  0.23732920600E+04  0.25500000920E-02 0.  1.
</event>
<event>
 5   0  0.6702421E-05  0.2328848E+04  0.7818609E-02  0.8466633E-01
       -2   -1    0    0    0  501  0.00000000000E+00  0.00000000000E+00  0.58912061872E+03  0.58912061873E+03  0.25500000920E-02 0. -1.
        2   -1    0    0  501    0  0.00000000000E+00  0.00000000000E+00 -0.23015372679E+04  0.23015372679E+04  0.25500000920E-02 0.  1.
    10030    2    1    2    0    0  0.00000000000E+00  0.00000000000E+00 -0.17124166491E+04  0.28906578866E+04  0.23288478347E+04 0.  0.
        4    1    3    3  502    0 -0.49628510643E+03  0.54690885246E+03  0.26123350434E+03  0.78335991502E+03  0.12699999809E+01 0. -1.
       -4    1    3    3    0  502  0.49628510643E+03 -0.54690885246E+03 -0.19736501535E+04  0.21072979716E+04  0.12699999809E+01 0.  1.
</event>
<event>
 5   0  0.2944089E-05  0.2244758E+04  0.7818609E-02  0.8500027E-01
       -1   -1    0    0    0  501  0.00000000000E+00  0.00000000000E+00  0.10336783014E+04  0.10336783014E+04  0.50400001928E-02 0. -1.
        1   -1    0    0  501    0  0.00000000000E+00  0.00000000000E+00 -0.12186906978E+04  0.12186906978E+04  0.50400001928E-02 0.  1.
    10030    2    1    2    0    0  0.00000000000E+00  0.00000000000E+00 -0.18501239638E+03  0.22523689992E+04  0.22447575641E+04 0.  0.
        5    1    3    3  502    0 -0.13237481452E+03 -0.99905617816E+03 -0.58822155247E+03  0.11669031765E+04  0.46999998093E+01 0.  1.
       -5    1    3    3    0  502  0.13237481452E+03  0.99905617816E+03  0.40320915609E+03  0.10854658227E+04  0.46999998093E+01 0. -1.
</event>
<event>
 5   0  0.2342500E-05  0.2349236E+04  0.7818609E-02  0.8458757E-01
       -4   -1    0    0    0  501  0.00000000000E+00  0.00000000000E+00  0.11976399536E+04  0.11976406270E+04  0.12699999809E+01 0. -1.
        4   -1    0    0  501    0  0.00000000000E+00  0.00000000000E+00 -0.11520370052E+04  0.11520377053E+04  0.12699999809E+01 0.  1.
    10030    2    1    2    0    0  0.00000000000E+00  0.00000000000E+00  0.45602948388E+02  0.23496783322E+04  0.23492357557E+04 0.  0.
        4    1    3    3  502    0 -0.20474838594E+03 -0.81309086616E+03 -0.79996330163E+03  0.11588708103E+04  0.12699999809E+01 0.  1.
       -4    1    3    3    0  502  0.20474838594E+03  0.81309086616E+03  0.84556625001E+03  0.11908075219E+04  0.12699999809E+01 0. -1.
</event>
<event>
 5   0  0.2342500E-05  0.1734791E+04  0.7818609E-02  0.8741767E-01
       -3   -1    0    0    0  501  0.00000000000E+00  0.00000000000E+00  0.57731031471E+03  0.57731032354E+03  0.10100000352E+00 0. -1.
        3   -1    0    0  501    0  0.00000000000E+00  0.00000000000E+00 -0.13032417725E+04  0.13032417764E+04  0.10100000352E+00 0.  1.
    10030    2    1    2    0    0  0.00000000000E+00  0.00000000000E+00 -0.72593145778E+03  0.18805520999E+04  0.17347909728E+04 0.  0.
        3    1    3    3  502    0  0.70915052075E+03 -0.21201901288E+03 -0.85321281753E+03  0.11295214230E+04  0.10100000352E+00 0.  1.
       -3    1    3    3    0  502 -0.70915052075E+03  0.21201901288E+03  0.12728135975E+03  0.75103067690E+03  0.10100000352E+00 0. -1.
</event>
<event>
 5   0  0.3006265E-05  0.2304760E+04  0.7818609E-02  0.8476047E-01
       -1   -1    0    0    0  501  0.00000000000E+00  0.00000000000E+00  0.11299427355E+04  0.11299427355E+04  0.50400001928E-02 0.  1.
        1   -1    0    0  501    0  0.00000000000E+00  0.00000000000E+00 -0.11752628589E+04  0.11752628589E+04  0.50400001928E-02 0. -1.
    10030    2    1    2    0    0  0.00000000000E+00  0.00000000000E+00 -0.45320123392E+02  0.23052055944E+04  0.23047600567E+04 0.  0.
        2    1    3    3  502    0 -0.78371258290E+03 -0.36960671609E+03 -0.78252081212E+03  0.11675415875E+04  0.25500000920E-02 0. -1.
       -2    1    3    3    0  502  0.78371258290E+03  0.36960671609E+03  0.73720068873E+03  0.11376640069E+04  0.25500000920E-02 0.  1.
</event>
<event>
 5   0  0.3118614E-05  0.2405074E+04  0.7818609E-02  0.8437606E-01
       -1   -1    0    0    0  501  0.00000000000E+00  0.00000000000E+00  0.97542337476E+03  0.97542337477E+03  0.50400001928E-02 0.  1.
        1   -1    0    0  501    0  0.00000000000E+00  0.00000000000E+00 -0.14825305288E+04  0.14825305288E+04  0.50400001928E-02 0. -1.
    10030    2    1    2    0    0  0.00000000000E+00  0.00000000000E+00 -0.50710715406E+03  0.24579539036E+04  0.24050737466E+04 0.  0.
        3    1    3    3  502    0  0.38476772820E+03 -0.14239652023E+03 -0.14087930266E+04  0.14673175442E+04  0.10100000352E+00 0. -1.
       -3    1    3    3    0  502 -0.38476772820E+03  0.14239652023E+03  0.90168587252E+03  0.99063635938E+03  0.10100000352E+00 0.  1.
</event>
<event>
 5   0  0.2944089E-05  0.2315594E+04  0.7818609E-02  0.8471798E-01
        1   -1    0    0  501    0  0.00000000000E+00  0.00000000000E+00  0.20708773738E+04  0.20708773738E+04  0.50400001928E-02 0. -1.
       -1   -1    0    0    0  501  0.00000000000E+00  0.00000000000E+00 -0.64730702430E+03  0.64730702432E+03  0.50400001928E-02 0.  1.
    10030    2    1    2    0    0  0.00000000000E+00  0.00000000000E+00  0.14235703495E+04  0.27181843982E+04  0.23155936350E+04 0.  0.
        5    1    3    3  502    0 -0.91471857074E+02 -0.27095853255E+01 -0.64304382265E+03  0.64953975270E+03  0.46999998093E+01 0.  1.
       -5    1    3    3    0  502  0.91471857074E+02  0.27095853255E+01  0.20666141722E+04  0.20686446455E+04  0.46999998093E+01 0. -1.
</event>
<event>
 5   0  0.6495405E-05  0.2285865E+04  0.7818609E-02  0.8483515E-01
        2   -1    0    0  501    0  0.00000000000E+00  0.00000000000E+00  0.21212005343E+04  0.21212005343E+04  0.25500000920E-02 0.  1.
       -2   -1    0    0    0  501  0.00000000000E+00  0.00000000000E+00 -0.61582774616E+03  0.61582774616E+03  0.25500000920E-02 0. -1.
    10030    2    1    2    0    0  0.00000000000E+00  0.00000000000E+00  0.15053727882E+04  0.27370282805E+04  0.22858645141E+04 0.  0.
        5    1    3    3  502    0  0.21916336198E+03 -0.79952054533E+03 -0.18936882327E+03  0.85038128087E+03  0.46999998093E+01 0. -1.
       -5    1    3    3    0  502 -0.21916336198E+03  0.79952054533E+03  0.16947416114E+04  0.18866469996E+04  0.46999998093E+01 0.  1.
</event>
<event>
 5   0  0.2962279E-05  0.2324337E+04  0.7818609E-02  0.8468387E-01
       -1   -1    0    0    0  501  0.00000000000E+00  0.00000000000E+00  0.47114996272E+03  0.47114996275E+03  0.50400001928E-02 0.  1.
        1   -1    0    0  501    0  0.00000000000E+00  0.00000000000E+00 -0.28666793237E+04  0.28666793238E+04  0.50400001928E-02 0. -1.
    10030    2    1    2    0    0  0.00000000000E+00  0.00000000000E+00 -0.23955293610E+04  0.33378292865E+04  0.23243372015E+04 0.  0.
        1    1    3    3  502    0 -0.51084997249E+03 -0.10408603415E+04 -0.13115464256E+04  0.17505747546E+04  0.50400001928E-02 0. -1.
       -1    1    3    3    0  502  0.51084997249E+03  0.10408603415E+04 -0.10839829354E+04  0.15872545319E+04  0.50400001928E-02 0.  1.
</event>
<event>
 5   0  0.2944089E-05  0.2293818E+04  0.7818609E-02  0.8480363E-01
       -1   -1    0    0    0  501  0.00000000000E+00  0.00000000000E+00  0.20903821506E+04  0.20903821506E+04  0.50400001928E-02 0. -1.
        1   -1    0    0  501    0  0.00000000000E+00  0.00000000000E+00 -0.62926312099E+03  0.62926312101E+03  0.50400001928E-02 0.  1.
    10030    2    1    2    0    0  0.00000000000E+00  0.00000000000E+00  0.14611190296E+04  0.27196452716E+04  0.22938181237E+04 0.  0.
        5    1    3    3  502    0  0.92430348189E+03  0.18057462092E+03  0.15066195883E+04  0.17767579447E+04  0.46999998093E+01 0. -1.
       -5    1    3    3    0  502 -0.92430348189E+03 -0.18057462092E+03 -0.45500558670E+02  0.94288732688E+03  0.46999998093E+01 0.  1.
</event>
<event>
 5   0  0.2982385E-05  0.2360317E+04  0.7818609E-02  0.8454511E-01
       -1   -1    0    0    0  501  0.00000000000E+00  0.00000000000E+00  0.10683033522E+04  0.10683033522E+04  0.50400001928E-02 0. -1.
        1   -1    0    0  501    0  0.00000000000E+00  0.00000000000E+00 -0.13037256995E+04  0.13037256995E+04  0.50400001928E-02 0.  1.
    10030    2    1    2    0    0  0.00000000000E+00  0.00000000000E+00 -0.23542234731E+03  0.23720290517E+04  0.23603173813E+04 0.  0.
        4    1    3    3  502    0  0.41621284382E+03 -0.80653472188E+03  0.64038024781E+03  0.11107744432E+04  0.12699999809E+01 0. -1.
       -4    1    3    3    0  502 -0.41621284382E+03  0.80653472188E+03 -0.87580259512E+03  0.12612546085E+04  0.12699999809E+01 0.  1.
</event>
<event>
 5   0  0.3006265E-05  0.1706371E+04  0.7818609E-02  0.8757739E-01
       -1   -1    0    0    0  501  0.00000000000E+00  0.00000000000E+00  0.18529429914E+04  0.18529429915E+04  0.50400001928E-02 0.  1.
        1   -1    0    0  501    0  0.00000000000E+00  0.00000000000E+00 -0.39284844455E+03  0.39284844458E+03  0.50400001928E-02 0. -1.
    10030    2    1    2    0    0  0.00000000000E+00  0.00000000000E+00  0.14600945469E+04  0.22457914360E+04  0.17063713219E+04 0.  0.
        2    1    3    3  502    0  0.25125297809E+03 -0.26318855282E+03 -0.28561078138E+03  0.46256868872E+03  0.25500000920E-02 0. -1.
       -2    1    3    3    0  502 -0.25125297809E+03  0.26318855282E+03  0.17457053283E+04  0.17832227473E+04  0.25500000920E-02 0.  1.
</event>
<event>
 5   0  0.6676612E-05  0.2308434E+04  0.7818609E-02  0.8474603E-01
       -2   -1    0    0    0  501  0.00000000000E+00  0.00000000000E+00  0.60598923476E+03  0.60598923476E+03  0.25500000920E-02 0.  1.
        2   -1    0    0  501    0  0.00000000000E+00  0.00000000000E+00 -0.21984170084E+04  0.21984170084E+04  0.25500000920E-02 0. -1.
    10030    2    1    2    0    0  0.00000000000E+00  0.00000000000E+00 -0.15924277736E+04  0.28044062432E+04  0.23084341365E+04 0.  0.
        2    1    3    3  502    0 -0.27972923811E+03  0.10478312761E+04 -0.12760700573E+04  0.16746801548E+04  0.25500000920E-02 0.  1.
       -2    1    3    3    0  502  0.27972923811E+03 -0.10478312761E+04 -0.31635771637E+03  0.11297260883E+04  0.25500000920E-02 0. -1.
</event>
<event>
 5   0  0.6468758E-05  0.2249954E+04  0.7818609E-02  0.8497919E-01
       -2   -1    0    0    0  501  0.00000000000E+00  0.00000000000E+00  0.16628793775E+04  0.16628793775E+04  0.25500000920E-02 0. -1.
        2   -1    0    0  501    0  0.00000000000E+00  0.00000000000E+00 -0.76107324771E+03  0.76107324771E+03  0.25500000920E-02 0.  1.
    10030    2    1    2    0    0  0.00000000000E+00  0.00000000000E+00  0.90180612980E+03  0.24239526252E+04  0.22499537848E+04 0.  0.
        3    1    3    3  502    0 -0.72096329913E+03 -0.51612468945E+03  0.11968357656E+04  0.14894927438E+04  0.10100000352E+00 0. -1.
       -3    1    3    3    0  502  0.72096329913E+03  0.51612468945E+03 -0.29502963584E+03  0.93445988141E+03  0.10100000352E+00 0.  1.
</event>
<event>
 5   0  0.6702421E-05  0.2323850E+04  0.7818609E-02  0.8468576E-01
       -2   -1    0    0    0  501  0.00000000000E+00  0.00000000000E+00  0.77413924427E+03  0.77413924428E+03  0.25500000920E-02 0.  1.
        2   -1    0    0  501    0  0.00000000000E+00  0.00000000000E+00 -0.17439620629E+04  0.17439620629E+04  0.25500000920E-02 0. -1.
    10030    2    1    2    0    0  0.00000000000E+00  0.00000000000E+00 -0.96982281860E+03  0.25181013072E+04  0.23238498001E+04 0.  0.
        4    1    3    3  502    0 -0.75823370466E+03  0.80727297038E+03 -0.86565099742E+03  0.14056888923E+04  0.12699999809E+01 0. -1.
       -4    1    3    3    0  502  0.75823370466E+03 -0.80727297038E+03 -0.10417182118E+03  0.11124124149E+04  0.12699999809E+01 0.  1.
</event>
<event>
 5   0  0.2944089E-05  0.2279791E+04  0.7818609E-02  0.8485932E-01
        1   -1    0    0  501    0  0.00000000000E+00  0.00000000000E+00  0.16903079298E+04  0.16903079298E+04  0.50400001928E-02 0.  1.
       -1   -1    0    0    0  501  0.00000000000E+00  0.00000000000E+00 -0.76871277863E+03  0.76871277865E+03  0.50400001928E-02 0. -1.
    10030    2    1    2    0    0  0.00000000000E+00  0.00000000000E+00  0.92159515121E+03  0.24590207085E+04  0.22797906093E+04 0.  0.
        5    1    3    3  502    0  0.64023330842E+03  0.42912282250E+02 -0.55539412377E+03  0.84866063647E+03  0.46999998093E+01 0. -1.
       -5    1    3    3    0  502 -0.64023330842E+03 -0.42912282250E+02  0.14769892750E+04  0.16103600720E+04  0.46999998093E+01 0.  1.
</event>
<event>
 5   0  0.6814789E-05  0.1781810E+04  0.7818609E-02  0.8716033E-01
        2   -1    0    0  501    0  0.00000000000E+00  0.00000000000E+00  0.76862793335E+03  0.76862793335E+03  0.25500000920E-02 0. -1.
       -2   -1    0    0    0  501  0.00000000000E+00  0.00000000000E+00 -0.10326339765E+04  0.10326339765E+04  0.25500000920E-02 0.  1.
    10030    2    1    2    0    0  0.00000000000E+00  0.00000000000E+00 -0.26400604319E+03  0.18012619099E+04  0.17818095513E+04 0.  0.
        1    1    3    3  502    0 -0.36365262286E+03 -0.42317636414E+03 -0.83412839063E+03  0.10035395545E+04  0.50400001928E-02 0.  1.
       -1    1    3    3    0  502  0.36365262286E+03  0.42317636414E+03  0.57012234744E+03  0.79772235544E+03  0.50400001928E-02 0. -1.
</event>
<event>
 5   0  0.6495405E-05  0.2157094E+04  0.7818609E-02  0.8536502E-01
        2   -1    0    0  501    0  0.00000000000E+00  0.00000000000E+00  0.16962628470E+04  0.16962628470E+04  0.25500000920E-02 0.  1.
       -2   -1    0    0    0  501  0.00000000000E+00  0.00000000000E+00 -0.68578053028E+03  0.68578053029E+03  0.25500000920E-02 0. -1.
    10030    2    1    2    0    0  0.00000000000E+00  0.00000000000E+00  0.10104823167E+04  0.23820433773E+04  0.21570943741E+04 0.  0.
        5    1    3    3  502    0 -0.39221441451E+03 -0.92971773115E+03  0.84692223616E+02  0.10126213850E+04  0.46999998093E+01 0.  1.
       -5    1    3    3    0  502  0.39221441451E+03  0.92971773115E+03  0.92579009310E+03  0.13694219923E+04  0.46999998093E+01 0. -1.
</event>
<event>
 5   0  0.2982385E-05  0.2227126E+04  0.7818609E-02  0.8507222E-01
       -1   -1    0    0    0  501  0.00000000000E+00  0.00000000000E+00  0.10070045798E+04  0.10070045798E+04  0.50400001928E-02 0.  1.
        1   -1    0    0  501    0  0.00000000000E+00  0.00000000000E+00 -0.12313968514E+04  0.12313968514E+04  0.50400001928E-02 0. -1.
    10030    2    1    2    0    0  0.00000000000E+00  0.00000000000E+00 -0.22439227162E+03  0.22384014312E+04  0.22271257431E+04 0.  0.
        4    1    3    3  502    0 -0.93858422417E+03  0.48656224501E+03 -0.46373473928E+03  0.11544412871E+04  0.12699999809E+01 0. -1.
       -4    1    3    3    0  502  0.93858422417E+03 -0.48656224501E+03  0.23934246767E+03  0.10839601440E+04  0.12699999809E+01 0.  1.
</event>
<event>
 5   0  0.3006265E-05  0.2135502E+04  0.7818609E-02  0.8545764E-01
       -1   -1    0    0    0  501  0.00000000000E+00  0.00000000000E+00  0.96852889402E+03  0.96852889404E+03  0.50400001928E-02 0.  1.
        1   -1    0    0  501    0  0.00000000000E+00  0.00000000000E+00 -0.11771376971E+04  0.11771376971E+04  0.50400001928E-02 0. -1.
    10030    2    1    2    0    0  0.00000000000E+00  0.00000000000E+00 -0.20860880310E+03  0.21456665912E+04  0.21355016946E+04 0.  0.
        2    1    3    3  502    0 -0.84856254744E+03 -0.37788476386E+02  0.54577257776E+03  0.10096306614E+04  0.25500000920E-02 0.  1.
       -2    1    3    3    0  502  0.84856254744E+03  0.37788476386E+02 -0.75438138086E+03  0.11360359297E+04  0.25500000920E-02 0. -1.
</event>
<event>
 5   0  0.3006265E-05  0.2297876E+04  0.7818609E-02  0.8478759E-01
       -1   -1    0    0    0  501  0.00000000000E+00  0.00000000000E+00  0.15594335255E+04  0.15594335255E+04  0.50400001928E-02 0.  1.
        1   -1    0    0  501    0  0.00000000000E+00  0.00000000000E+00 -0.84649873382E+03  0.84649873383E+03  0.50400001928E-02 0. -1.
    10030    2    1    2    0    0  0.00000000000E+00  0.00000000000E+00  0.71293479168E+03  0.24059322593E+04  0.22978759800E+04 0.  0.
        2    1    3    3  502    0  0.99255395983E+03 -0.17947460863E+03 -0.21957115197E+03  0.10322722456E+04  0.25500000920E-02 0. -1.
       -2    1    3    3    0  502 -0.99255395983E+03  0.17947460863E+03  0.93250594366E+03  0.13736600137E+04  0.25500000920E-02 0.  1.
</event>
<event>
 5   0  0.2944089E-05  0.2280281E+04  0.7818609E-02  0.8485737E-01
       -1   -1    0    0    0  501  0.00000000000E+00  0.00000000000E+00  0.64194470322E+03  0.64194470324E+03  0.50400001928E-02 0.  1.
        1   -1    0    0  501    0  0.00000000000E+00  0.00000000000E+00 -0.20249718625E+04  0.20249718625E+04  0.50400001928E-02 0. -1.
    10030    2    1    2    0    0  0.00000000000E+00  0.00000000000E+00 -0.13830271593E+04  0.26669165658E+04  0.22802806506E+04 0.  0.
        5    1    3    3  502    0  0.60356624022E+03  0.94326936136E+03 -0.44108490378E+03  0.12035893306E+04  0.46999998093E+01 0. -1.
       -5    1    3    3    0  502 -0.60356624022E+03 -0.94326936136E+03 -0.94194225553E+03  0.14633272352E+04  0.46999998093E+01 0.  1.
</event>
<event>
 5   0  0.3006265E-05  0.2265292E+04  0.7818609E-02  0.8491733E-01
       -1   -1    0    0    0  501  0.00000000000E+00  0.00000000000E+00  0.14264808925E+04  0.14264808925E+04  0.50400001928E-02 0. -1.
        1   -1    0    0  501    0  0.00000000000E+00  0.00000000000E+00 -0.89933708778E+03  0.89933708779E+03  0.50400001928E-02 0.  1.
    10030    2    1    2    0    0  0.00000000000E+00  0.00000000000E+00  0.52714380470E+03  0.23258179803E+04  0.22652921857E+04 0.  0.
        2    1    3    3  502    0 -0.71996875289E+03  0.79184076573E+03 -0.11717380006E+03  0.10766134417E+04  0.25500000920E-02 0. -1.
       -2    1    3    3    0  502  0.71996875289E+03 -0.79184076573E+03  0.64431760476E+03  0.12492045386E+04  0.25500000920E-02 0.  1.
</event>
<event>
 5   0  0.6676612E-05  0.2333330E+04  0.7818609E-02  0.8464894E-01
        2   -1    0    0  501    0  0.00000000000E+00  0.00000000000E+00  0.13955485590E+04  0.13955485590E+04  0.25500000920E-02 0.  1.
       -2   -1    0    0    0  501  0.00000000000E+00  0.00000000000E+00 -0.97532088473E+03  0.97532088474E+03  0.25500000920E-02 0. -1.
    10030    2    1    2    0    0  0.00000000000E+00  0.00000000000E+00  0.42022767423E+03  0.23708694437E+04  0.23333303711E+04 0.  0.
        2    1    3    3  502    0 -0.16326829948E+02  0.28038562382E+03  0.13606851039E+04  0.13893691429E+04  0.25500000920E-02 0.  1.
       -2    1    3    3    0  502  0.16326829948E+02 -0.28038562382E+03 -0.94045742965E+03  0.98150030077E+03  0.25500000920E-02 0. -1.
</event>
<event>
 5   0  0.6676612E-05  0.2160734E+04  0.7818609E-02  0.8534951E-01
       -2   -1    0    0    0  501  0.00000000000E+00  0.00000000000E+00  0.79493153968E+03  0.79493153968E+03  0.25500000920E-02 0. -1.
        2   -1    0    0  501    0  0.00000000000E+00  0.00000000000E+00 -0.14682937411E+04  0.14682937411E+04  0.25500000920E-02 0.  1.
    10030    2    1    2    0    0  0.00000000000E+00  0.00000000000E+00 -0.67336220138E+03  0.22632252807E+04  0.21607341385E+04 0.  0.
        2    1    3    3  502    0 -0.16324149031E+03  0.92784124863E+03  0.21722786730E+03  0.96681182923E+03  0.25500000920E-02 0. -1.
       -2    1    3    3    0  502  0.16324149031E+03 -0.92784124863E+03 -0.89059006868E+03  0.12964134515E+04  0.25500000920E-02 0.  1.
</event>
<event>
 5   0  0.6468758E-05  0.2241099E+04  0.7818609E-02  0.8501514E-01
        2   -1    0    0  501    0  0.00000000000E+00  0.00000000000E+00  0.15214353107E+04  0.15214353107E+04  0.25500000920E-02 0. -1.
       -2   -1    0    0    0  501  0.00000000000E+00  0.00000000000E+00 -0.82529406163E+03  0.82529406164E+03  0.25500000920E-02 0.  1.
    10030    2    1    2    0    0  0.00000000000E+00  0.00000000000E+00  0.69614124906E+03  0.23467293723E+04  0.22410993080E+04 0.  0.
        3    1    3    3  502    0  0.47786738060E+03  0.10132314088E+04  0.32165472001E+03  0.11655285884E+04  0.10100000352E+00 0. -1.
       -3    1    3    3    0  502 -0.47786738060E+03 -0.10132314088E+04  0.37448652904E+03  0.11812007839E+04  0.10100000352E+00 0.  1.
</event>
<event>
 5   0  0.2962279E-05  0.2426923E+04  0.7818609E-02  0.8429492E-01
       -1   -1    0    0    0  501  0.00000000000E+00  0.00000000000E+00  0.17537053892E+04  0.17537053892E+04  0.50400001928E-02 0.  1.
        1   -1    0    0  501    0  0.00000000000E+00  0.00000000000E+00 -0.83964400567E+03  0.83964400569E+03  0.50400001928E-02 0. -1.
    10030    2    1    2    0    0  0.00000000000E+00  0.00000000000E+00  0.91406138354E+03  0.25933493949E+04  0.24269225103E+04 0.  0.
        1    1    3    3  502    0  0.98114260258E+03  0.62270517970E+03  0.83039901401E+03  0.14282734577E+04  0.50400001928E-02 0.  1.
       -1    1    3    3    0  502 -0.98114260258E+03 -0.62270517970E+03  0.83662369533E+02  0.11650759372E+04  0.50400001928E-02 0. -1.
</event>
<event>
 5   0  0.3006265E-05  0.1660131E+04  0.7818609E-02  0.8784435E-01
        1   -1    0    0  501    0  0.00000000000E+00  0.00000000000E+00  0.21127158278E+04  0.21127158278E+04  0.50400001928E-02 0.  1.
       -1   -1    0    0    0  501  0.00000000000E+00  0.00000000000E+00 -0.32612483834E+03  0.32612483838E+03  0.50400001928E-02 0. -1.
    10030    2    1    2    0    0  0.00000000000E+00  0.00000000000E+00  0.17865909895E+04  0.24388406662E+04  0.16601314501E+04 0.  0.
        2    1    3    3  502    0  0.68062221663E+03 -0.42715028849E+03  0.58758478027E+03  0.99546966038E+03  0.25500000920E-02 0. -1.
       -2    1    3    3    0  502 -0.68062221663E+03  0.42715028849E+03  0.11990062092E+04  0.14433710058E+04  0.25500000920E-02 0.  1.
</event>
<event>
 5   0  0.3006265E-05  0.2278817E+04  0.7818609E-02  0.8486320E-01
        1   -1    0    0  501    0  0.00000000000E+00  0.00000000000E+00  0.79664809555E+03  0.79664809557E+03  0.50400001928E-02 0.  1.
       -1   -1    0    0    0  501  0.00000000000E+00  0.00000000000E+00 -0.16296426669E+04  0.16296426669E+04  0.50400001928E-02 0. -1.
    10030    2    1    2    0    0  0.00000000000E+00  0.00000000000E+00 -0.83299457133E+03  0.24262907625E+04  0.22788169975E+04 0.  0.
        2    1    3    3  502    0  0.43997362712E+03 -0.24185108231E+03  0.67252613919E+03  0.83926166746E+03  0.25500000920E-02 0.  1.
       -2    1    3    3    0  502 -0.43997362712E+03  0.24185108231E+03 -0.15055207105E+04  0.15870290950E+04  0.25500000920E-02 0. -1.
</event>
<event>
 5   0  0.6468758E-05  0.2139074E+04  0.7818609E-02  0.8544224E-01
       -2   -1    0    0    0  501  0.00000000000E+00  0.00000000000E+00  0.38288623473E+03  0.38288623474E+03  0.25500000920E-02 0.  1.
        2   -1    0    0  501    0  0.00000000000E+00  0.00000000000E+00 -0.29875950227E+04  0.29875950227E+04  0.25500000920E-02 0. -1.
    10030    2    1    2    0    0  0.00000000000E+00  0.00000000000E+00 -0.26047087880E+04  0.33704812575E+04  0.21390736398E+04 0.  0.
        3    1    3    3  502    0 -0.29149983851E+03  0.49393810831E+03  0.12008855535E+03  0.58597634937E+03  0.10100000352E+00 0.  1.
       -3    1    3    3    0  502  0.29149983851E+03 -0.49393810831E+03 -0.27247973433E+04  0.27845049081E+04  0.10100000352E+00 0. -1.
</event>
<event>
 5   0  0.6676612E-05  0.2288538E+04  0.7818609E-02  0.8482454E-01
       -2   -1    0    0    0  501  0.00000000000E+00  0.00000000000E+00  0.22950230513E+04  0.22950230513E+04  0.25500000920E-02 0.  1.
        2   -1    0    0  501    0  0.00000000000E+00  0.00000000000E+00 -0.57051781813E+03  0.57051781813E+03  0.25500000920E-02 0. -1.
    10030    2    1    2    0    0  0.00000000000E+00  0.00000000000E+00  0.17245052331E+04  0.28655408694E+04  0.22885379995E+04 0.  0.
        2    1    3    3  502    0 -0.93324466228E+02 -0.77471926211E+03 -0.18569051634E+03  0.80210994193E+03  0.25500000920E-02 0. -1.
       -2    1    3    3    0  502  0.93324466228E+02  0.77471926211E+03  0.19101957495E+04  0.20634309275E+04  0.25500000920E-02 0.  1.
</event>
<event>
 5   0  0.6676612E-05  0.2307414E+04  0.7818609E-02  0.8475004E-01
        2   -1    0    0  501    0  0.00000000000E+00  0.00000000000E+00  0.25922457748E+04  0.25922457748E+04  0.25500000920E-02 0.  1.
       -2   -1    0    0    0  501  0.00000000000E+00  0.00000000000E+00 -0.51346966586E+03  0.51346966587E+03  0.25500000920E-02 0. -1.
    10030    2    1    2    0    0  0.00000000000E+00  0.00000000000E+00  0.20787761090E+04  0.31057154407E+04  0.23074137660E+04 0.  0.
        2    1    3    3  502    0 -0.68118770674E+03 -0.76740138869E+03  0.32956398480E+03  0.10777448693E+04  0.25500000920E-02 0. -1.
       -2    1    3    3    0  502  0.68118770674E+03  0.76740138869E+03  0.17492121242E+04  0.20279705714E+04  0.25500000920E-02 0.  1.
</event>
<event>
 5   0  0.2982385E-05  0.2319738E+04  0.7818609E-02  0.8470179E-01
        1   -1    0    0  501    0  0.00000000000E+00  0.00000000000E+00  0.18559487133E+04  0.18559487133E+04  0.50400001928E-02 0. -1.
       -1   -1    0    0    0  501  0.00000000000E+00  0.00000000000E+00 -0.72485648276E+03  0.72485648278E+03  0.50400001928E-02 0.  1.
    10030    2    1    2    0    0  0.00000000000E+00  0.00000000000E+00  0.11310922305E+04  0.25808051961E+04  0.23197383098E+04 0.  0.
        4    1    3    3  502    0 -0.11160487246E+04  0.88368312102E+02  0.22824024055E+03  0.11425711946E+04  0.12699999809E+01 0.  1.
       -4    1    3    3    0  502  0.11160487246E+04 -0.88368312102E+02  0.90285198998E+03  0.14382340015E+04  0.12699999809E+01 0. -1.
</event>
<event>
 5   0  0.2342500E-05  0.2282863E+04  0.7818609E-02  0.8484709E-01
       -3   -1    0    0    0  501  0.00000000000E+00  0.00000000000E+00  0.94953391696E+03  0.94953392233E+03  0.10100000352E+00 0. -1.
        3   -1    0    0  501    0  0.00000000000E+00  0.00000000000E+00 -0.13721108785E+04  0.13721108823E+04  0.10100000352E+00 0.  1.
    10030    2    1    2    0    0  0.00000000000E+00  0.00000000000E+00 -0.42257696157E+03  0.23216448046E+04  0.22828629635E+04 0.  0.
        4    1    3    3  502    0  0.36648832967E+03 -0.84780760809E+03  0.47075571557E+03  0.10366793105E+04  0.12699999809E+01 0. -1.
       -4    1    3    3    0  502 -0.36648832967E+03  0.84780760809E+03 -0.89333267714E+03  0.12849654941E+04  0.12699999809E+01 0.  1.
</event>
<event>
 5   0  0.6814789E-05  0.2047344E+04  0.7818609E-02  0.8584800E-01
       -2   -1    0    0    0  501  0.00000000000E+00  0.00000000000E+00  0.99882234390E+03  0.99882234391E+03  0.25500000920E-02 0.  1.
        2   -1    0    0  501    0  0.00000000000E+00  0.00000000000E+00 -0.10491395485E+04  0.10491395485E+04  0.25500000920E-02 0. -1.
    10030    2    1    2    0    0  0.00000000000E+00  0.00000000000E+00 -0.50317204589E+02  0.20479618924E+04  0.20473436672E+04 0.  0.
        1    1    3    3  502    0 -0.59816342093E+03  0.83048674235E+03 -0.45072288984E+02  0.10244702136E+04  0.50400001928E-02 0.  1.
       -1    1    3    3    0  502  0.59816342093E+03 -0.83048674235E+03 -0.52449156051E+01  0.10234916788E+04  0.50400001928E-02 0. -1.
</event>
<event>
 5   0  0.6468758E-05  0.2118551E+04  0.7818609E-02  0.8553115E-01
        2   -1    0    0  501    0  0.00000000000E+00  0.00000000000E+00  0.11742869026E+04  0.11742869026E+04  0.25500000920E-02 0.  1.
       -2   -1    0    0    0  501  0.00000000000E+00  0.00000000000E+00 -0.95552840935E+03  0.95552840935E+03  0.25500000920E-02 0. -1.
    10030    2    1    2    0    0  0.00000000000E+00  0.00000000000E+00  0.21875849323E+03  0.21298153119E+04  0.21185509162E+04 0.  0.
        3    1    3    3  502    0  0.10246524221E+04 -0.25966954865E+03  0.17847331487E+03  0.10720044752E+04  0.10100000352E+00 0. -1.
       -3    1    3    3    0  502 -0.10246524221E+04  0.25966954865E+03  0.40285178362E+02  0.10578108367E+04  0.10100000352E+00 0.  1.
</event>
<event>
 5   0  0.2342500E-05  0.1838929E+04  0.7818609E-02  0.8685867E-01
       -4   -1    0    0    0  501  0.00000000000E+00  0.00000000000E+00  0.70157728911E+03  0.70157843859E+03  0.12699999809E+01 0. -1.
        4   -1    0    0  501    0  0.00000000000E+00  0.00000000000E+00 -0.12050176051E+04  0.12050182743E+04  0.12699999809E+01 0.  1.
    10030    2    1    2    0    0  0.00000000000E+00  0.00000000000E+00 -0.50344031597E+03  0.19065967129E+04  0.18389287300E+04 0.  0.
        5    1    3    3  502    0  0.54367435579E+03  0.90839654235E+02  0.51126628800E+03  0.75183040320E+03  0.46999998093E+01 0. -1.
       -5    1    3    3    0  502 -0.54367435579E+03 -0.90839654235E+02 -0.10147066040E+04  0.11547663097E+04  0.46999998093E+01 0.  1.
</event>
<event>
 5   0  0.6468758E-05  0.2318902E+04  0.7818609E-02  0.8470505E-01
       -2   -1    0    0    0  501  0.00000000000E+00  0.00000000000E+00  0.96797692056E+03  0.96797692056E+03  0.25500000920E-02 0. -1.
        2   -1    0    0  501    0  0.00000000000E+00  0.00000000000E+00 -0.13888006954E+04  0.13888006954E+04  0.25500000920E-02 0.  1.
    10030    2    1    2    0    0  0.00000000000E+00  0.00000000000E+00 -0.42082377484E+03  0.23567776160E+04  0.23189023441E+04 0.  0.
        3    1    3    3  502    0 -0.94501796983E+03 -0.67129563008E+03 -0.23592618373E+03  0.11829446144E+04  0.10100000352E+00 0.  1.
       -3    1    3    3    0  502  0.94501796983E+03  0.67129563008E+03 -0.18489759111E+03  0.11738330016E+04  0.10100000352E+00 0. -1.
</event>
<event>
 5   0  0.6676612E-05  0.2309158E+04  0.7818609E-02  0.8474319E-01
       -2   -1    0    0    0  501  0.00000000000E+00  0.00000000000E+00  0.10419465340E+04  0.10419465340E+04  0.25500000920E-02 0.  1.
        2   -1    0    0  501    0  0.00000000000E+00  0.00000000000E+00 -0.12793867460E+04  0.12793867460E+04  0.25500000920E-02 0. -1.
    10030    2    1    2    0    0  0.00000000000E+00  0.00000000000E+00 -0.23744021204E+03  0.23213332801E+04  0.23091579294E+04 0.  0.
        2    1    3    3  502    0 -0.69188532744E+03 -0.24979031032E+03  0.77588899752E+03  0.10691605314E+04  0.25500000920E-02 0.  1.
       -2    1    3    3    0  502  0.69188532744E+03  0.24979031032E+03 -0.10133292096E+04  0.12521727486E+04  0.25500000920E-02 0. -1.
</event>
<event>
 5   0  0.6468758E-05  0.2314180E+04  0.7818609E-02  0.8472351E-01
       -2   -1    0    0    0  501  0.00000000000E+00  0.00000000000E+00  0.58568546581E+03  0.58568546582E+03  0.25500000920E-02 0. -1.
        2   -1    0    0  501    0  0.00000000000E+00  0.00000000000E+00 -0.22859664410E+04  0.22859664411E+04  0.25500000920E-02 0.  1.
    10030    2    1    2    0    0  0.00000000000E+00  0.00000000000E+00 -0.17002809752E+04  0.28716519069E+04  0.23141800447E+04 0.  0.
        3    1    3    3  502    0  0.63180058745E+03 -0.75205350160E+03 -0.16091181648E+04  0.18852102615E+04  0.10100000352E+00 0.  1.
       -3    1    3    3    0  502 -0.63180058745E+03  0.75205350160E+03 -0.91162810472E+02  0.98644164540E+03  0.10100000352E+00 0. -1.
</event>
<event>
 5   0  0.2944089E-05  0.1843020E+04  0.7818609E-02  0.8683750E-01
        1   -1    0    0  501    0  0.00000000000E+00  0.00000000000E+00  0.14770625630E+04  0.14770625630E+04  0.50400001928E-02 0. -1.
       -1   -1    0    0    0  501  0.00000000000E+00  0.00000000000E+00 -0.57491209457E+03  0.57491209459E+03  0.50400001928E-02 0.  1.
    10030    2    1    2    0    0  0.00000000000E+00  0.00000000000E+00  0.90215046845E+03  0.20519746576E+04  0.18430204903E+04 0.  0.
        5    1    3    3  502    0  0.51296135455E+03 -0.46483151452E+03  0.11282800053E+04  0.13237203438E+04  0.46999998093E+01 0. -1.
       -5    1    3    3    0  502 -0.51296135455E+03  0.46483151452E+03 -0.22612953688E+03  0.72825431382E+03  0.46999998093E+01 0.  1.
</event>
<event>
 5   0  0.2944089E-05  0.1951555E+04  0.7818609E-02  0.8629611E-01
        1   -1    0    0  501    0  0.00000000000E+00  0.00000000000E+00  0.96511915599E+03  0.96511915600E+03  0.50400001928E-02 0.  1.
       -1   -1    0    0    0  501  0.00000000000E+00  0.00000000000E+00 -0.98655351718E+03  0.98655351719E+03  0.50400001928E-02 0. -1.
    10030    2    1    2    0    0  0.00000000000E+00  0.00000000000E+00 -0.21434361192E+02  0.19516726732E+04  0.19515549676E+04 0.  0.
        5    1    3    3  502    0 -0.63311960060E+02  0.92845465037E+03  0.28269984361E+03  0.97261386668E+03  0.46999998093E+01 0.  1.
       -5    1    3    3    0  502  0.63311960060E+02 -0.92845465037E+03 -0.30413420480E+03  0.97905880651E+03  0.46999998093E+01 0. -1.
</event>
<event>
 5   0  0.6814789E-05  0.2330169E+04  0.7818609E-02  0.8466120E-01
        2   -1    0    0  501    0  0.00000000000E+00  0.00000000000E+00  0.19410393200E+04  0.19410393200E+04  0.25500000920E-02 0.  1.
       -2   -1    0    0    0  501  0.00000000000E+00  0.00000000000E+00 -0.69932752699E+03  0.69932752699E+03  0.25500000920E-02 0. -1.
    10030    2    1    2    0    0  0.00000000000E+00  0.00000000000E+00  0.12417117930E+04  0.26403668470E+04  0.23301692878E+04 0.  0.
        1    1    3    3  502    0 -0.62333453496E+03  0.41547272600E+03 -0.39026687704E+03  0.84467257791E+03  0.50400001928E-02 0.  1.
       -1    1    3    3    0  502  0.62333453496E+03 -0.41547272600E+03  0.16319786701E+04  0.17956942691E+04  0.50400001928E-02 0. -1.
</event>
<event>
 5   0  0.3006265E-05  0.2333530E+04  0.7818609E-02  0.8464817E-01
       -1   -1    0    0    0  501  0.00000000000E+00  0.00000000000E+00  0.15916345413E+04  0.15916345413E+04  0.50400001928E-02 0.  1.
        1   -1    0    0  501    0  0.00000000000E+00  0.00000000000E+00 -0.85530947243E+03  0.85530947245E+03  0.50400001928E-02 0. -1.
    10030    2    1    2    0    0  0.00000000000E+00  0.00000000000E+00  0.73632506886E+03  0.24469440137E+04  0.23335296011E+04 0.  0.
        2    1    3    3  502    0  0.46067470928E+03  0.73312756580E+03  0.11882490713E+04  0.14702493227E+04  0.25500000920E-02 0.  1.
       -2    1    3    3    0  502 -0.46067470928E+03 -0.73312756580E+03 -0.45192400243E+03  0.97669469103E+03  0.25500000920E-02 0. -1.
</event>
<event>
 5   0  0.6676612E-05  0.2305797E+04  0.7818609E-02  0.8475639E-01
        2   -1    0    0  501    0  0.00000000000E+00  0.00000000000E+00  0.27130716249E+04  0.27130716249E+04  0.25500000920E-02 0. -1.
       -2   -1    0    0    0  501  0.00000000000E+00  0.00000000000E+00 -0.48991512638E+03  0.48991512639E+03  0.25500000920E-02 0.  1.
    10030    2    1    2    0    0  0.00000000000E+00  0.00000000000E+00  0.22231564985E+04  0.32029867513E+04  0.23057968930E+04 0.  0.
        2    1    3    3  502    0 -0.47857417134E+03 -0.12681608001E+03 -0.33472914602E+03  0.59762794180E+03  0.25500000920E-02 0.  1.
       -2    1    3    3    0  502  0.47857417134E+03  0.12681608001E+03  0.25578856445E+04  0.26053588095E+04  0.25500000920E-02 0. -1.
</event>
<event>
 5   0  0.2962279E-05  0.2325213E+04  0.7818609E-02  0.8468046E-01
        1   -1    0    0  501    0  0.00000000000E+00  0.00000000000E+00  0.10894968066E+04  0.10894968066E+04  0.50400001928E-02 0.  1.
       -1   -1    0    0    0  501  0.00000000000E+00  0.00000000000E+00 -0.12406217967E+04  0.12406217967E+04  0.50400001928E-02 0. -1.
    10030    2    1    2    0    0  0.00000000000E+00  0.00000000000E+00 -0.15112499011E+03  0.23301186033E+04  0.23252126662E+04 0.  0.
        1    1    3    3  502    0 -0.51564567272E+03 -0.96829590700E+03  0.31017310014E+03  0.11400415674E+04  0.50400001928E-02 0. -1.
       -1    1    3    3    0  502  0.51564567272E+03  0.96829590700E+03 -0.46129809024E+03  0.11900770359E+04  0.50400001928E-02 0.  1.
</event>
<event>
 5   0  0.6702421E-05  0.2313565E+04  0.7818609E-02  0.8472592E-01
        2   -1    0    0  501    0  0.00000000000E+00  0.00000000000E+00  0.10054103388E+04  0.10054103388E+04  0.25500000920E-02 0. -1.
       -2   -1    0    0    0  501  0.00000000000E+00  0.00000000000E+00 -0.13309451722E+04  0.13309451722E+04  0.25500000920E-02 0.  1.
    10030    2    1    2    0    0  0.00000000000E+00  0.00000000000E+00 -0.32553483345E+03  0.23363555110E+04  0.23135652457E+04 0.  0.
        4    1    3    3  502    0 -0.53996464223E+03 -0.10131691882E+04 -0.30583444950E+03  0.11881119233E+04  0.12699999809E+01 0. -1.
       -4    1    3    3    0  502  0.53996464223E+03  0.10131691882E+04 -0.19700383944E+02  0.11482435878E+04  0.12699999809E+01 0.  1.
</event>
<event>
 5   0  0.2982385E-05  0.2246155E+04  0.7818609E-02  0.8499459E-01
        1   -1    0    0  501    0  0.00000000000E+00  0.00000000000E+00  0.11592100111E+04  0.11592100111E+04  0.50400001928E-02 0.  1.
       -1   -1    0    0    0  501  0.00000000000E+00  0.00000000000E+00 -0.10880713595E+04  0.10880713595E+04  0.50400001928E-02 0. -1.
    10030    2    1    2    0    0  0.00000000000E+00  0.00000000000E+00  0.71138651655E+02  0.22472813706E+04  0.22461551262E+04 0.  0.
        4    1    3    3  502    0  0.26650105437E+03  0.67089987925E+03 -0.82519462860E+03  0.10963928347E+04  0.12699999809E+01 0. -1.
       -4    1    3    3    0  502 -0.26650105437E+03 -0.67089987925E+03  0.89633328026E+03  0.11508885359E+04  0.12699999809E+01 0.  1.
</event>
<event>
 5   0  0.6495405E-05  0.2309770E+04  0.7818609E-02  0.8474079E-01
        2   -1    0    0  501    0  0.00000000000E+00  0.00000000000E+00  0.84569162069E+03  0.84569162069E+03  0.25500000920E-02 0. -1.
       -2   -1    0    0    0  501  0.00000000000E+00  0.00000000000E+00 -0.15771223572E+04  0.15771223572E+04  0.25500000920E-02 0.  1.
    10030    2    1    2    0    0  0.00000000000E+00  0.00000000000E+00 -0.73143073654E+03  0.24228139779E+04  0.23097698260E+04 0.  0.
        5    1    3    3  502    0 -0.95563226160E+03  0.86451529489E+02  0.30841247249E+03  0.10078924692E+04  0.46999998093E+01 0. -1.
       -5    1    3    3    0  502  0.95563226160E+03 -0.86451529489E+02 -0.10398432090E+04  0.14149215087E+04  0.46999998093E+01 0.  1.
</event>
<event>
 5   0  0.2982385E-05  0.2268502E+04  0.7818609E-02  0.8490445E-01
        1   -1    0    0  501    0  0.00000000000E+00  0.00000000000E+00  0.17186585971E+04  0.17186585972E+04  0.50400001928E-02 0. -1.
       -1   -1    0    0    0  501  0.00000000000E+00  0.00000000000E+00 -0.74856385262E+03  0.74856385263E+03  0.50400001928E-02 0.  1.
    10030    2    1    2    0    0  0.00000000000E+00  0.00000000000E+00  0.97009474453E+03  0.24672224498E+04  0.22685023261E+04 0.  0.
        4    1    3    3  502    0 -0.11034965105E+04 -0.22605744667E+03  0.34027984443E+03  0.11766896376E+04  0.12699999809E+01 0.  1.
       -4    1    3    3    0  502  0.11034965105E+04  0.22605744667E+03  0.62981490010E+03  0.12905328121E+04  0.12699999809E+01 0. -1.
</event>
<event>
 5   0  0.2944089E-05  0.2283772E+04  0.7818609E-02  0.8484347E-01
       -1   -1    0    0    0  501  0.00000000000E+00  0.00000000000E+00  0.80533194018E+03  0.80533194020E+03  0.50400001928E-02 0.  1.
        1   -1    0    0  501    0  0.00000000000E+00  0.00000000000E+00 -0.16190887239E+04  0.16190887239E+04  0.50400001928E-02 0. -1.
    10030    2    1    2    0    0  0.00000000000E+00  0.00000000000E+00 -0.81375678371E+03  0.24244206641E+04  0.22837721982E+04 0.  0.
        5    1    3    3  502    0  0.74125597650E+03 -0.46705630838E+03 -0.11842897771E+04  0.14731484596E+04  0.46999998093E+01 0. -1.
       -5    1    3    3    0  502 -0.74125597650E+03  0.46705630838E+03  0.37053299337E+03  0.95127220451E+03  0.46999998093E+01 0.  1.
</event>
<event>
 5   0  0.6814789E-05  0.2319890E+04  0.7818609E-02  0.8470120E-01
        2   -1    0    0  501    0  0.00000000000E+00  0.00000000000E+00  0.22817330874E+04  0.22817330874E+04  0.25500000920E-02 0.  1.
       -2   -1    0    0    0  501  0.00000000000E+00  0.00000000000E+00 -0.58967148955E+03  0.58967148955E+03  0.25500000920E-02 0. -1.
    10030    2    1    2    0    0  0.00000000000E+00  0.00000000000E+00  0.16920615979E+04  0.28714045770E+04  0.23198904702E+04 0.  0.
        1    1    3    3  502    0 -0.63960069301E+03  0.83114646701E+03  0.23266024831E+03  0.10742552245E+04  0.50400001928E-02 0. -1.
       -1    1    3    3    0  502  0.63960069301E+03 -0.83114646701E+03  0.14594013496E+04  0.17971493525E+04  0.50400001928E-02 0.  1.
</event>
<event>
 5   0  0.3118614E-05  0.2234760E+04  0.7818609E-02  0.8504098E-01
       -1   -1    0    0    0  501  0.00000000000E+00  0.00000000000E+00  0.64925994524E+03  0.64925994526E+03  0.50400001928E-02 0.  1.
        1   -1    0    0  501    0  0.00000000000E+00  0.00000000000E+00 -0.19230165210E+04  0.19230165210E+04  0.50400001928E-02 0. -1.
    10030    2    1    2    0    0  0.00000000000E+00  0.00000000000E+00 -0.12737565757E+04  0.25722764663E+04  0.22347595854E+04 0.  0.
        3    1    3    3  502    0  0.21223169746E+03  0.93968769087E+03 -0.12884900092E+04  0.16088075596E+04  0.10100000352E+00 0.  1.
       -3    1    3    3    0  502 -0.21223169746E+03 -0.93968769087E+03  0.14733433499E+02  0.96346890663E+03  0.10100000352E+00 0. -1.
</event>
<event>
 5   0  0.6814789E-05  0.2294105E+04  0.7818609E-02  0.8480249E-01
        2   -1    0    0  501    0  0.00000000000E+00  0.00000000000E+00  0.13282739422E+04  0.13282739422E+04  0.25500000920E-02 0. -1.
       -2   -1    0    0    0  501  0.00000000000E+00  0.00000000000E+00 -0.99055553960E+03  0.99055553960E+03  0.25500000920E-02 0.  1.
    10030    2    1    2    0    0  0.00000000000E+00  0.00000000000E+00  0.33771840261E+03  0.23188294818E+04  0.22941047156E+04 0.  0.
        1    1    3    3  502    0  0.63225359858E+03  0.29968850448E+03 -0.74987657305E+03  0.10256084474E+04  0.50400001928E-02 0.  1.
       -1    1    3    3    0  502 -0.63225359858E+03 -0.29968850448E+03  0.10875949757E+04  0.12932210344E+04  0.50400001928E-02 0. -1.
</event>
<event>
 5   0  0.3118614E-05  0.2287339E+04  0.7818609E-02  0.8482930E-01
        1   -1    0    0  501    0  0.00000000000E+00  0.00000000000E+00  0.22983571169E+04  0.22983571169E+04  0.50400001928E-02 0.  1.
       -1   -1    0    0    0  501  0.00000000000E+00  0.00000000000E+00 -0.56909356062E+03  0.56909356064E+03  0.50400001928E-02 0. -1.
    10030    2    1    2    0    0  0.00000000000E+00  0.00000000000E+00  0.17292635563E+04  0.28674506775E+04  0.22873392711E+04 0.  0.
        3    1    3    3  502    0  0.28047493285E+03  0.88760217203E+03  0.16975821506E+04  0.19360498372E+04  0.10100000352E+00 0.  1.
       -3    1    3    3    0  502 -0.28047493285E+03 -0.88760217203E+03  0.31681405645E+02  0.93140084035E+03  0.10100000352E+00 0. -1.
</event>
<event>
 5   0  0.2944089E-05  0.2052002E+04  0.7818609E-02  0.8582686E-01
        1   -1    0    0  501    0  0.00000000000E+00  0.00000000000E+00  0.78121647204E+03  0.78121647206E+03  0.50400001928E-02 0. -1.
       -1   -1    0    0    0  501  0.00000000000E+00  0.00000000000E+00 -0.13474862502E+04  0.13474862502E+04  0.50400001928E-02 0.  1.
    10030    2    1    2    0    0  0.00000000000E+00  0.00000000000E+00 -0.56626977816E+03  0.21287027223E+04  0.20520023923E+04 0.  0.
        5    1    3    3  502    0  0.94195352152E+03  0.24894159091E+03  0.50456051261E+02  0.97561070899E+03  0.46999998093E+01 0.  1.
       -5    1    3    3    0  502 -0.94195352152E+03 -0.24894159091E+03 -0.61672582942E+03  0.11530920133E+04  0.46999998093E+01 0. -1.
</event>
<event>
 5   0  0.6702421E-05  0.2364543E+04  0.7818609E-02  0.8452899E-01
        2   -1    0    0  501    0  0.00000000000E+00  0.00000000000E+00  0.18659363547E+04  0.18659363547E+04  0.25500000920E-02 0. -1.
       -2   -1    0    0    0  501  0.00000000000E+00  0.00000000000E+00 -0.74909615344E+03  0.74909615345E+03  0.25500000920E-02 0.  1.
    10030    2    1    2    0    0  0.00000000000E+00  0.00000000000E+00  0.11168402013E+04  0.26150325082E+04  0.23645428699E+04 0.  0.
        4    1    3    3  502    0 -0.29537587309E+03 -0.30902075909E+03 -0.66063186827E+03  0.78687789029E+03  0.12699999809E+01 0.  1.
       -4    1    3    3    0  502  0.29537587309E+03  0.30902075909E+03  0.17774720696E+04  0.18281546179E+04  0.12699999809E+01 0. -1.
</event>
<event>
 5   0  0.6676612E-05  0.2252176E+04  0.7818609E-02  0.8497020E-01
        2   -1    0    0  501    0  0.00000000000E+00  0.00000000000E+00  0.28938704113E+04  0.28938704113E+04  0.25500000920E-02 0. -1.
       -2   -1    0    0    0  501  0.00000000000E+00  0.00000000000E+00 -0.43819301913E+03  0.43819301914E+03  0.25500000920E-02 0.  1.
    10030    2    1    2    0    0  0.00000000000E+00  0.00000000000E+00  0.24556773922E+04  0.33320634305E+04  0.22521756704E+04 0.  0.
        2    1    3    3  502    0  0.56504541533E+03 -0.93299381058E+03  0.81379378672E+03  0.13608872471E+04  0.25500000920E-02 0.  1.
       -2    1    3    3    0  502 -0.56504541533E+03  0.93299381058E+03  0.16418836055E+04  0.19711761834E+04  0.25500000920E-02 0. -1.
</event>
<event>
 5   0  0.2982385E-05  0.2283873E+04  0.7818609E-02  0.8484307E-01
       -1   -1    0    0    0  501  0.00000000000E+00  0.00000000000E+00  0.88899315746E+03  0.88899315748E+03  0.50400001928E-02 0.  1.
        1   -1    0    0  501    0  0.00000000000E+00  0.00000000000E+00 -0.14668487472E+04  0.14668487472E+04  0.50400001928E-02 0. -1.
    10030    2    1    2    0    0  0.00000000000E+00  0.00000000000E+00 -0.57785558975E+03  0.23558419047E+04  0.22838725878E+04 0.  0.
        4    1    3    3  502    0  0.16477379972E+03 -0.82912548132E+03 -0.10808558948E+04  0.13721700139E+04  0.12699999809E+01 0. -1.
       -4    1    3    3    0  502 -0.16477379972E+03  0.82912548132E+03  0.50300030509E+03  0.98367189076E+03  0.12699999809E+01 0.  1.
</event>
<event>
 5   0  0.6495405E-05  0.2313417E+04  0.7818609E-02  0.8472650E-01
        2   -1    0    0  501    0  0.00000000000E+00  0.00000000000E+00  0.13459124574E+04  0.13459124574E+04  0.25500000920E-02 0.  1.
       -2   -1    0    0    0  501  0.00000000000E+00  0.00000000000E+00 -0.99410239243E+03  0.99410239243E+03  0.25500000920E-02 0. -1.
    10030    2    1    2    0    0  0.00000000000E+00  0.00000000000E+00  0.35181006493E+03  0.23400148498E+04  0.23134172074E+04 0.  0.
        5    1    3    3  502    0  0.38200545026E+03 -0.10877836172E+04  0.81280885361E+02  0.11557811360E+04  0.46999998093E+01 0. -1.
       -5    1    3    3    0  502 -0.38200545026E+03  0.10877836172E+04  0.27052917956E+03  0.11842337138E+04  0.46999998093E+01 0.  1.
</event>
<event>
 5   0  0.2962279E-05  0.2252023E+04  0.7818609E-02  0.8497082E-01
       -1   -1    0    0    0  501  0.00000000000E+00  0.00000000000E+00  0.10804621455E+04  0.10804621455E+04  0.50400001928E-02 0.  1.
        1   -1    0    0  501    0  0.00000000000E+00  0.00000000000E+00 -0.11734810558E+04  0.11734810558E+04  0.50400001928E-02 0. -1.
    10030    2    1    2    0    0  0.00000000000E+00  0.00000000000E+00 -0.93018910365E+02  0.22539432013E+04  0.22520229655E+04 0.  0.
        1    1    3    3  502    0 -0.73305702111E+03 -0.76110228968E+03 -0.43575310021E+03  0.11430354570E+04  0.50400001928E-02 0. -1.
       -1    1    3    3    0  502  0.73305702111E+03  0.76110228968E+03  0.34273418984E+03  0.11109077444E+04  0.50400001928E-02 0.  1.
</event>
<event>
 5   0  0.6702421E-05  0.2174112E+04  0.7818609E-02  0.8529281E-01
       -2   -1    0    0    0  501  0.00000000000E+00  0.00000000000E+00  0.12785886765E+04  0.12785886765E+04  0.25500000920E-02 0.  1.
        2   -1    0    0  501    0  0.00000000000E+00  0.00000000000E+00 -0.92421500185E+03  0.92421500185E+03  0.25500000920E-02 0. -1.
    10030    2    1    2    0    0  0.00000000000E+00  0.00000000000E+00  0.35437367466E+03  0.22028036784E+04  0.21741120818E+04 0.  0.
        4    1    3    3  502    0 -0.67785691070E+03 -0.18542523243E+03 -0.66310515780E+03  0.96622076743E+03  0.12699999809E+01 0. -1.
       -4    1    3    3    0  502  0.67785691070E+03  0.18542523243E+03  0.10174788325E+04  0.12365829109E+04  0.12699999809E+01 0.  1.
</event>
<event>
 5   0  0.3006265E-05  0.2314976E+04  0.7818609E-02  0.8472039E-01
        1   -1    0    0  501    0  0.00000000000E+00  0.00000000000E+00  0.11254823446E+04  0.11254823446E+04  0.50400001928E-02 0. -1.
       -1   -1    0    0    0  501  0.00000000000E+00  0.00000000000E+00 -0.11904041704E+04  0.11904041704E+04  0.50400001928E-02 0.  1.
    10030    2    1    2    0    0  0.00000000000E+00  0.00000000000E+00 -0.64921825772E+02  0.23158865150E+04  0.23149763513E+04 0.  0.
        2    1    3    3  502    0 -0.63698733064E+03  0.20220293719E+03  0.91297148944E+03  0.11314397146E+04  0.25500000920E-02 0. -1.
       -2    1    3    3    0  502  0.63698733064E+03 -0.20220293719E+03 -0.97789331521E+03  0.11844468005E+04  0.25500000920E-02 0.  1.
</event>
<event>
 5   0  0.3006265E-05  0.2048908E+04  0.7818609E-02  0.8584090E-01
       -1   -1    0    0    0  501  0.00000000000E+00  0.00000000000E+00  0.14889768038E+04  0.14889768038E+04  0.50400001928E-02 0.  1.
        1   -1    0    0  501    0  0.00000000000E+00  0.00000000000E+00 -0.70485047458E+03  0.70485047460E+03  0.50400001928E-02 0. -1.
    10030    2    1    2    0    0  0.00000000000E+00  0.00000000000E+00  0.78412632926E+03  0.21938272784E+04  0.20489080085E+04 0.  0.
        2    1    3    3  502    0  0.13892790722E+03  0.89338697407E+03  0.90786700162E+03  0.12812742647E+04  0.25500000920E-02 0.  1.
       -2    1    3    3    0  502 -0.13892790722E+03 -0.89338697407E+03 -0.12374067236E+03  0.91255301371E+03  0.25500000920E-02 0. -1.
</event>
<event>
 5   0  0.6676612E-05  0.2199153E+04  0.7818609E-02  0.8518781E-01
        2   -1    0    0  501    0  0.00000000000E+00  0.00000000000E+00  0.12652706581E+04  0.12652706581E+04  0.25500000920E-02 0. -1.
       -2   -1    0    0    0  501  0.00000000000E+00  0.00000000000E+00 -0.95558066702E+03  0.95558066703E+03  0.25500000920E-02 0.  1.
    10030    2    1    2    0    0  0.00000000000E+00  0.00000000000E+00  0.30968999106E+03  0.22208513251E+04  0.21991527272E+04 0.  0.
        2    1    3    3  502    0  0.56776966508E+03  0.22189923534E+03 -0.76931639416E+03  0.98155457187E+03  0.25500000920E-02 0.  1.
       -2    1    3    3    0  502 -0.56776966508E+03 -0.22189923534E+03  0.10790063852E+04  0.12392967532E+04  0.25500000920E-02 0. -1.
</event>
<event>
 5   0  0.2944089E-05  0.2264499E+04  0.7818609E-02  0.8492052E-01
       -1   -1    0    0    0  501  0.00000000000E+00  0.00000000000E+00  0.14382172651E+04  0.14382172651E+04  0.50400001928E-02 0. -1.
        1   -1    0    0  501    0  0.00000000000E+00  0.00000000000E+00 -0.89137378119E+03  0.89137378120E+03  0.50400001928E-02 0.  1.
    10030    2    1    2    0    0  0.00000000000E+00  0.00000000000E+00  0.54684348387E+03  0.23295910463E+04  0.22644992045E+04 0.  0.
        5    1    3    3  502    0 -0.93903482477E+03  0.28794479166E+03  0.85287841790E+03  0.13008160096E+04  0.46999998093E+01 0. -1.
       -5    1    3    3    0  502  0.93903482477E+03 -0.28794479166E+03 -0.30603493403E+03  0.10287750366E+04  0.46999998093E+01 0.  1.
</event>
<event>
 5   0  0.2982385E-05  0.2305255E+04  0.7818609E-02  0.8475852E-01
        1   -1    0    0  501    0  0.00000000000E+00  0.00000000000E+00  0.13426268616E+04  0.13426268616E+04  0.50400001928E-02 0.  1.
       -1   -1    0    0    0  501  0.00000000000E+00  0.00000000000E+00 -0.98951555633E+03  0.98951555634E+03  0.50400001928E-02 0. -1.
    10030    2    1    2    0    0  0.00000000000E+00  0.00000000000E+00  0.35311130531E+03  0.23321424180E+04  0.23052550106E+04 0.  0.
        4    1    3    3  502    0  0.29895071652E+03  0.43227118924E+02 -0.94876186854E+03  0.99568610055E+03  0.12699999809E+01 0. -1.
       -4    1    3    3    0  502 -0.29895071652E+03 -0.43227118924E+02  0.13018731739E+04  0.13364563174E+04  0.12699999809E+01 0.  1.
</event>
<event>
 5   0  0.2944089E-05  0.2349300E+04  0.7818609E-02  0.8458733E-01
        1   -1    0    0  501    0  0.00000000000E+00  0.00000000000E+00  0.95892541733E+03  0.95892541734E+03  0.50400001928E-02 0. -1.
       -1   -1    0    0    0  501  0.00000000000E+00  0.00000000000E+00 -0.14389048836E+04  0.14389048836E+04  0.50400001928E-02 0.  1.
    10030    2    1    2    0    0  0.00000000000E+00  0.00000000000E+00 -0.47997946622E+03  0.23978303009E+04  0.23492998668E+04 0.  0.
        5    1    3    3  502    0 -0.99553765335E+02  0.77112722432E+03 -0.11386507428E+04  0.13788022891E+04  0.46999998093E+01 0.  1.
       -5    1    3    3    0  502  0.99553765335E+02 -0.77112722432E+03  0.65867127658E+03  0.10190280118E+04  0.46999998093E+01 0. -1.
</event>
<event>
 5   0  0.6676612E-05  0.2287581E+04  0.7818609E-02  0.8482834E-01
        2   -1    0    0  501    0  0.00000000000E+00  0.00000000000E+00  0.11529039946E+04  0.11529039946E+04  0.25500000920E-02 0. -1.
       -2   -1    0    0    0  501  0.00000000000E+00  0.00000000000E+00 -0.11347487459E+04  0.11347487459E+04  0.25500000920E-02 0.  1.
    10030    2    1    2    0    0  0.00000000000E+00  0.00000000000E+00  0.18155248713E+02  0.22876527405E+04  0.22875806976E+04 0.  0.
        2    1    3    3  502    0  0.16753714439E+03 -0.49637250963E+02 -0.11213224334E+04  0.11348552997E+04  0.25500000920E-02 0.  1.
       -2    1    3    3    0  502 -0.16753714439E+03  0.49637250963E+02  0.11394776821E+04  0.11527974408E+04  0.25500000920E-02 0. -1.
</event>
<event>
 5   0  0.6676612E-05  0.2291556E+04  0.7818609E-02  0.8481258E-01
       -2   -1    0    0    0  501  0.00000000000E+00  0.00000000000E+00  0.53631101208E+03  0.53631101208E+03  0.25500000920E-02 0. -1.
        2   -1    0    0  501    0  0.00000000000E+00  0.00000000000E+00 -0.24478465437E+04  0.24478465437E+04  0.25500000920E-02 0.  1.
    10030    2    1    2    0    0  0.00000000000E+00  0.00000000000E+00 -0.19115355317E+04  0.29841575558E+04  0.22915558534E+04 0.  0.
        2    1    3    3  502    0 -0.77584472317E+03  0.48044189418E+03 -0.18580314085E+04  0.20700338556E+04  0.25500000920E-02 0.  1.
       -2    1    3    3    0  502  0.77584472317E+03 -0.48044189418E+03 -0.53504123125E+02  0.91412370024E+03  0.25500000920E-02 0. -1.
</event>
<event>
 5   0  0.2962279E-05  0.2310889E+04  0.7818609E-02  0.8473640E-01
       -1   -1    0    0    0  501  0.00000000000E+00  0.00000000000E+00  0.14705973220E+04  0.14705973220E+04  0.50400001928E-02 0.  1.
        1   -1    0    0  501    0  0.00000000000E+00  0.00000000000E+00 -0.90782989375E+03  0.90782989377E+03  0.50400001928E-02 0. -1.
    10030    2    1    2    0    0  0.00000000000E+00  0.00000000000E+00  0.56276742822E+03  0.23784272157E+04  0.23108891887E+04 0.  0.
        1    1    3    3  502    0  0.10362216003E+04  0.39268859037E+02  0.80594069556E+03  0.13133307477E+04  0.50400001928E-02 0. -1.
       -1    1    3    3    0  502 -0.10362216003E+04 -0.39268859037E+02 -0.24317326734E+03  0.10650964680E+04  0.50400001928E-02 0.  1.
</event>
<event>
 5   0  0.6468758E-05  0.2337235E+04  0.7818609E-02  0.8463383E-01
        2   -1    0    0  501    0  0.00000000000E+00  0.00000000000E+00  0.14706879899E+04  0.14706879900E+04  0.25500000920E-02 0. -1.
       -2   -1    0    0    0  501  0.00000000000E+00  0.00000000000E+00 -0.92859050204E+03  0.92859050204E+03  0.25500000920E-02 0.  1.
    10030    2    1    2    0    0  0.00000000000E+00  0.00000000000E+00  0.54209748791E+03  0.23992784920E+04  0.23372350322E+04 0.  0.
        3    1    3    3  502    0  0.33119603106E+01 -0.48712319561E+03  0.13614929390E+04  0.14460162551E+04  0.10100000352E+00 0. -1.
       -3    1    3    3    0  502 -0.33119603106E+01  0.48712319561E+03 -0.81939545111E+03  0.95326223690E+03  0.10100000352E+00 0.  1.
</event>
<event>
 5   0  0.6468758E-05  0.2311027E+04  0.7818609E-02  0.8473586E-01
       -2   -1    0    0    0  501  0.00000000000E+00  0.00000000000E+00  0.50884361014E+03  0.50884361014E+03  0.25500000920E-02 0.  1.
        2   -1    0    0  501    0  0.00000000000E+00  0.00000000000E+00 -0.26240109593E+04  0.26240109593E+04  0.25500000920E-02 0. -1.
    10030    2    1    2    0    0  0.00000000000E+00  0.00000000000E+00 -0.21151673492E+04  0.31328545695E+04  0.23110267931E+04 0.  0.
        3    1    3    3  502    0  0.29821614880E+03  0.59222833482E+03 -0.23404420120E+04  0.24325575212E+04  0.10100000352E+00 0. -1.
       -3    1    3    3    0  502 -0.29821614880E+03 -0.59222833482E+03  0.22527466282E+03  0.70029704831E+03  0.10100000352E+00 0.  1.
</event>
<event>
 5   0  0.6702421E-05  0.2305966E+04  0.7818609E-02  0.8475572E-01
       -2   -1    0    0    0  501  0.00000000000E+00  0.00000000000E+00  0.59970245383E+03  0.59970245384E+03  0.25500000920E-02 0.  1.
        2   -1    0    0  501    0  0.00000000000E+00  0.00000000000E+00 -0.22167160477E+04  0.22167160477E+04  0.25500000920E-02 0. -1.
    10030    2    1    2    0    0  0.00000000000E+00  0.00000000000E+00 -0.16170135939E+04  0.28164185016E+04  0.23059662212E+04 0.  0.
        4    1    3    3  502    0 -0.10606759945E+04  0.30777298670E+03 -0.40414450354E+03  0.11760493907E+04  0.12699999809E+01 0.  1.
       -4    1    3    3    0  502  0.10606759945E+04 -0.30777298670E+03 -0.12128690904E+04  0.16403691109E+04  0.12699999809E+01 0. -1.
</event>
<event>
 5   0  0.2982385E-05  0.2363665E+04  0.7818609E-02  0.8453233E-01
        1   -1    0    0  501    0  0.00000000000E+00  0.00000000000E+00  0.21408171693E+04  0.21408171693E+04  0.50400001928E-02 0. -1.
       -1   -1    0    0    0  501  0.00000000000E+00  0.00000000000E+00 -0.65242749775E+03  0.65242749777E+03  0.50400001928E-02 0.  1.
    10030    2    1    2    0    0  0.00000000000E+00  0.00000000000E+00  0.14883896716E+04  0.27932446671E+04  0.23636649415E+04 0.  0.
        4    1    3    3  502    0 -0.12961481223E+03 -0.10163932639E+04  0.48198217677E+02  0.10257582306E+04  0.12699999809E+01 0.  1.
       -4    1    3    3    0  502  0.12961481223E+03  0.10163932639E+04  0.14401914539E+04  0.17674864365E+04  0.12699999809E+01 0. -1.
</event>
<event>
 5   0  0.2982385E-05  0.2050521E+04  0.7818609E-02  0.8583358E-01
       -1   -1    0    0    0  501  0.00000000000E+00  0.00000000000E+00  0.95102646442E+03  0.95102646443E+03  0.50400001928E-02 0.  1.
        1   -1    0    0  501    0  0.00000000000E+00  0.00000000000E+00 -0.11052889628E+04  0.11052889628E+04  0.50400001928E-02 0. -1.
    10030    2    1    2    0    0  0.00000000000E+00  0.00000000000E+00 -0.15426249840E+03  0.20563154273E+04  0.20505209626E+04 0.  0.
        4    1    3    3  502    0 -0.64149512371E+03  0.50625779568E+03  0.54376656961E+03  0.98157864920E+03  0.12699999809E+01 0.  1.
       -4    1    3    3    0  502  0.64149512371E+03 -0.50625779568E+03 -0.69802906801E+03  0.10747367781E+04  0.12699999809E+01 0. -1.
</event>
<event>
 5   0  0.6495405E-05  0.2374278E+04  0.7818609E-02  0.8449197E-01
        2   -1    0    0  501    0  0.00000000000E+00  0.00000000000E+00  0.14699326609E+04  0.14699326609E+04  0.25500000920E-02 0. -1.
       -2   -1    0    0    0  501  0.00000000000E+00  0.00000000000E+00 -0.95875032448E+03  0.95875032448E+03  0.25500000920E-02 0.  1.
    10030    2    1    2    0    0  0.00000000000E+00  0.00000000000E+00  0.51118233645E+03  0.24286829854E+04  0.23742775033E+04 0.  0.
        5    1    3    3  502    0  0.45376333654E+03 -0.61411012204E+03 -0.67421728593E+03  0.10186380349E+04  0.46999998093E+01 0.  1.
       -5    1    3    3    0  502 -0.45376333654E+03  0.61411012204E+03  0.11853996224E+04  0.14100449505E+04  0.46999998093E+01 0. -1.
</event>
<event>
 5   0  0.2982385E-05  0.2262507E+04  0.7818609E-02  0.8492852E-01
       -1   -1    0    0    0  501  0.00000000000E+00  0.00000000000E+00  0.13089743118E+04  0.13089743118E+04  0.50400001928E-02 0. -1.
        1   -1    0    0  501    0  0.00000000000E+00  0.00000000000E+00 -0.97766224474E+03  0.97766224475E+03  0.50400001928E-02 0.  1.
    10030    2    1    2    0    0  0.00000000000E+00  0.00000000000E+00  0.33131206706E+03  0.22866365566E+04  0.22625072499E+04 0.  0.
        4    1    3    3  502    0  0.10745725599E+04 -0.27535857436E+03  0.38984286805E+03  0.11758008358E+04  0.12699999809E+01 0.  1.
       -4    1    3    3    0  502 -0.10745725599E+04  0.27535857436E+03 -0.58530800987E+02  0.11108357207E+04  0.12699999809E+01 0. -1.
</event>
<event>
 5   0  0.6468758E-05  0.2240434E+04  0.7818609E-02  0.8501785E-01
       -2   -1    0    0    0  501  0.00000000000E+00  0.00000000000E+00  0.14347147999E+04  0.14347147999E+04  0.25500000920E-02 0.  1.
        2   -1    0    0  501    0  0.00000000000E+00  0.00000000000E+00 -0.87465890602E+03  0.87465890602E+03  0.25500000920E-02 0. -1.
    10030    2    1    2    0    0  0.00000000000E+00  0.00000000000E+00  0.56005589391E+03  0.23093737060E+04  0.22404339556E+04 0.  0.
        3    1    3    3  502    0 -0.15626987777E+03 -0.33668839079E+03 -0.80942731984E+03  0.89047849131E+03  0.10100000352E+00 0. -1.
       -3    1    3    3    0  502  0.15626987777E+03  0.33668839079E+03  0.13694832137E+04  0.14188952146E+04  0.10100000352E+00 0.  1.
</event>
<event>
 5   0  0.6468758E-05  0.2263986E+04  0.7818609E-02  0.8492258E-01
       -2   -1    0    0    0  501  0.00000000000E+00  0.00000000000E+00  0.75340396152E+03  0.75340396152E+03  0.25500000920E-02 0.  1.
        2   -1    0    0  501    0  0.00000000000E+00  0.00000000000E+00 -0.17008247508E+04  0.17008247508E+04  0.25500000920E-02 0. -1.
    10030    2    1    2    0    0  0.00000000000E+00  0.00000000000E+00 -0.94742078931E+03  0.24542287123E+04  0.22639859585E+04 0.  0.
        3    1    3    3  502    0  0.28482564405E+03 -0.81574535554E+03 -0.12664928683E+04  0.15331569809E+04  0.10100000352E+00 0. -1.
       -3    1    3    3    0  502 -0.28482564405E+03  0.81574535554E+03  0.31907207898E+03  0.92107173140E+03  0.10100000352E+00 0.  1.
</event>
<event>
 5   0  0.2982385E-05  0.2209552E+04  0.7818609E-02  0.8514463E-01
        1   -1    0    0  501    0  0.00000000000E+00  0.00000000000E+00  0.92143964889E+03  0.92143964890E+03  0.50400001928E-02 0. -1.
       -1   -1    0    0    0  501  0.00000000000E+00  0.00000000000E+00 -0.13245906611E+04  0.13245906611E+04  0.50400001928E-02 0.  1.
    10030    2    1    2    0    0  0.00000000000E+00  0.00000000000E+00 -0.40315101221E+03  0.22460303100E+04  0.22095523110E+04 0.  0.
        4    1    3    3  502    0  0.60835494029E+03  0.82109258988E+03  0.22516466338E+03  0.10464174660E+04  0.12699999809E+01 0. -1.
       -4    1    3    3    0  502 -0.60835494029E+03 -0.82109258988E+03 -0.62831567559E+03  0.11996128441E+04  0.12699999809E+01 0.  1.
</event>
<event>
 5   0  0.3118614E-05  0.2332070E+04  0.7818609E-02  0.8465383E-01
        1   -1    0    0  501    0  0.00000000000E+00  0.00000000000E+00  0.13741874706E+04  0.13741874707E+04  0.50400001928E-02 0. -1.
       -1   -1    0    0    0  501  0.00000000000E+00  0.00000000000E+00 -0.98941174826E+03  0.98941174827E+03  0.50400001928E-02 0.  1.
    10030    2    1    2    0    0  0.00000000000E+00  0.00000000000E+00  0.38477572239E+03  0.23635992189E+04  0.23320696626E+04 0.  0.
        3    1    3    3  502    0 -0.10857401326E+04  0.10872463948E+03 -0.22424718494E+03  0.11139746375E+04  0.10100000352E+00 0. -1.
       -3    1    3    3    0  502  0.10857401326E+04 -0.10872463948E+03  0.60902290732E+03  0.12496245815E+04  0.10100000352E+00 0.  1.
</event>
<event>
 5   0  0.2982385E-05  0.2302196E+04  0.7818609E-02  0.8477056E-01
        1   -1    0    0  501    0  0.00000000000E+00  0.00000000000E+00  0.15701949020E+04  0.15701949020E+04  0.50400001928E-02 0.  1.
       -1   -1    0    0    0  501  0.00000000000E+00  0.00000000000E+00 -0.84386094144E+03  0.84386094145E+03  0.50400001928E-02 0. -1.
    10030    2    1    2    0    0  0.00000000000E+00  0.00000000000E+00  0.72633396059E+03  0.24140558435E+04  0.23021956027E+04 0.  0.
        4    1    3    3  502    0  0.10771468936E+04  0.25876671735E+02 -0.61620743225E+02  0.10792190517E+04  0.12699999809E+01 0. -1.
       -4    1    3    3    0  502 -0.10771468936E+04 -0.25876671735E+02  0.78795470382E+03  0.13348367918E+04  0.12699999809E+01 0.  1.
</event>
<event>
 5   0  0.6495405E-05  0.2318565E+04  0.7818609E-02  0.8470637E-01
       -2   -1    0    0    0  501  0.00000000000E+00  0.00000000000E+00  0.13401702614E+04  0.13401702614E+04  0.25500000920E-02 0.  1.
        2   -1    0    0  501    0  0.00000000000E+00  0.00000000000E+00 -0.10028102488E+04  0.10028102488E+04  0.25500000920E-02 0. -1.
    10030    2    1    2    0    0  0.00000000000E+00  0.00000000000E+00  0.33736001258E+03  0.23429805102E+04  0.23185654817E+04 0.  0.
        5    1    3    3  502    0  0.31930828172E+03  0.33457828657E+03  0.12428950182E+04  0.13261638379E+04  0.46999998093E+01 0.  1.
       -5    1    3    3    0  502 -0.31930828172E+03 -0.33457828657E+03 -0.90553500563E+03  0.10168166723E+04  0.46999998093E+01 0. -1.
</event>
<event>
 5   0  0.2982385E-05  0.2253298E+04  0.7818609E-02  0.8496566E-01
        1   -1    0    0  501    0  0.00000000000E+00  0.00000000000E+00  0.12429047166E+04  0.12429047166E+04  0.50400001928E-02 0.  1.
       -1   -1    0    0    0  501  0.00000000000E+00  0.00000000000E+00 -0.10212673484E+04  0.10212673484E+04  0.50400001928E-02 0. -1.
    10030    2    1    2    0    0  0.00000000000E+00  0.00000000000E+00  0.22163736816E+03  0.22641720650E+04  0.22532980311E+04 0.  0.
        4    1    3    3  502    0 -0.27593927420E+03  0.87855153463E+03  0.76305910227E+03  0.11959331455E+04  0.12699999809E+01 0.  1.
       -4    1    3    3    0  502  0.27593927420E+03 -0.87855153463E+03 -0.54142173411E+03  0.10682389195E+04  0.12699999809E+01 0. -1.
</event>
<event>
 5   0  0.3006265E-05  0.2389046E+04  0.7818609E-02  0.8443616E-01
       -1   -1    0    0    0  501  0.00000000000E+00  0.00000000000E+00  0.11844424159E+04  0.11844424159E+04  0.50400001928E-02 0.  1.
        1   -1    0    0  501    0  0.00000000000E+00  0.00000000000E+00 -0.12046896313E+04  0.12046896313E+04  0.50400001928E-02 0. -1.
    10030    2    1    2    0    0  0.00000000000E+00  0.00000000000E+00 -0.20247215424E+02  0.23891320473E+04  0.23890462510E+04 0.  0.
        2    1    3    3  502    0 -0.12640508712E+03  0.46189414014E+03 -0.11044942353E+04  0.12038405038E+04  0.25500000920E-02 0. -1.
       -2    1    3    3    0  502  0.12640508712E+03 -0.46189414014E+03  0.10842470199E+04  0.11852915434E+04  0.25500000920E-02 0.  1.
</event>
<event>
 5   0  0.2944089E-05  0.2287128E+04  0.7818609E-02  0.8483014E-01
       -1   -1    0    0    0  501  0.00000000000E+00  0.00000000000E+00  0.69373836692E+03  0.69373836694E+03  0.50400001928E-02 0. -1.
        1   -1    0    0  501    0  0.00000000000E+00  0.00000000000E+00 -0.18850598571E+04  0.18850598572E+04  0.50400001928E-02 0.  1.
    10030    2    1    2    0    0  0.00000000000E+00  0.00000000000E+00 -0.11913214902E+04  0.25787982241E+04  0.22871277593E+04 0.  0.
        5    1    3    3  502    0 -0.10929615734E+04  0.27219187796E+03 -0.37281269873E+03  0.11864505121E+04  0.46999998093E+01 0.  1.
       -5    1    3    3    0  502  0.10929615734E+04 -0.27219187796E+03 -0.81850879150E+03  0.13923477120E+04  0.46999998093E+01 0. -1.
</event>
<event>
 5   0  0.6676612E-05  0.2306115E+04  0.7818609E-02  0.8475514E-01
       -2   -1    0    0    0  501  0.00000000000E+00  0.00000000000E+00  0.12771766514E+04  0.12771766514E+04  0.25500000920E-02 0.  1.
        2   -1    0    0  501    0  0.00000000000E+00  0.00000000000E+00 -0.10410006227E+04  0.10410006227E+04  0.25500000920E-02 0. -1.
    10030    2    1    2    0    0  0.00000000000E+00  0.00000000000E+00  0.23617602866E+03  0.23181772741E+04  0.23061150790E+04 0.  0.
        2    1    3    3  502    0 -0.11151135199E+04 -0.47975994586E+02 -0.17284214842E+03  0.11294486560E+04  0.25500000920E-02 0. -1.
       -2    1    3    3    0  502  0.11151135199E+04  0.47975994586E+02  0.40901817708E+03  0.11887286181E+04  0.25500000920E-02 0.  1.
</event>
<event>
 5   0  0.6702421E-05  0.2263746E+04  0.7818609E-02  0.8492354E-01
        2   -1    0    0  501    0  0.00000000000E+00  0.00000000000E+00  0.24806401668E+04  0.24806401668E+04  0.25500000920E-02 0.  1.
       -2   -1    0    0    0  501  0.00000000000E+00  0.00000000000E+00 -0.51645395991E+03  0.51645395992E+03  0.25500000920E-02 0. -1.
    10030    2    1    2    0    0  0.00000000000E+00  0.00000000000E+00  0.19641862069E+04  0.29970941268E+04  0.22637459551E+04 0.  0.
        4    1    3    3  502    0 -0.30185540487E+03  0.10152972178E+04  0.45385445233E+03  0.11523587127E+04  0.12699999809E+01 0. -1.
       -4    1    3    3    0  502  0.30185540487E+03 -0.10152972178E+04  0.15103317546E+04  0.18447354140E+04  0.12699999809E+01 0.  1.
</event>
<event>
 5   0  0.6468758E-05  0.2392432E+04  0.7818609E-02  0.8442342E-01
        2   -1    0    0  501    0  0.00000000000E+00  0.00000000000E+00  0.14108182593E+04  0.14108182593E+04  0.25500000920E-02 0. -1.
       -2   -1    0    0    0  501  0.00000000000E+00  0.00000000000E+00 -0.10142570114E+04  0.10142570114E+04  0.25500000920E-02 0.  1.
    10030    2    1    2    0    0  0.00000000000E+00  0.00000000000E+00  0.39656124791E+03  0.24250752706E+04  0.23924316594E+04 0.  0.
        3    1    3    3  502    0 -0.11592618685E+04  0.20850607738E+03  0.40986161927E+03  0.12471364886E+04  0.10100000352E+00 0. -1.
       -3    1    3    3    0  502  0.11592618685E+04 -0.20850607738E+03 -0.13300371364E+02  0.11779387820E+04  0.10100000352E+00 0.  1.
</event>
<event>
 5   0  0.2982385E-05  0.2284025E+04  0.7818609E-02  0.8484246E-01
        1   -1    0    0  501    0  0.00000000000E+00  0.00000000000E+00  0.23902254144E+04  0.23902254144E+04  0.50400001928E-02 0.  1.
       -1   -1    0    0    0  501  0.00000000000E+00  0.00000000000E+00 -0.54563595093E+03  0.54563595096E+03  0.50400001928E-02 0. -1.
    10030    2    1    2    0    0  0.00000000000E+00  0.00000000000E+00  0.18445894634E+04  0.29358613653E+04  0.22840253212E+04 0.  0.
        4    1    3    3  502    0 -0.17124454445E+03 -0.12239950590E+03 -0.52048514800E+03  0.56143809565E+03  0.12699999809E+01 0. -1.
       -4    1    3    3    0  502  0.17124454445E+03  0.12239950590E+03  0.23650746114E+04  0.23744232697E+04  0.12699999809E+01 0.  1.
</event>
<event>
 5   0  0.3118614E-05  0.2346114E+04  0.7818609E-02  0.8459958E-01
       -1   -1    0    0    0  501  0.00000000000E+00  0.00000000000E+00  0.14571078934E+04  0.14571078934E+04  0.50400001928E-02 0.  1.
        1   -1    0    0  501    0  0.00000000000E+00  0.00000000000E+00 -0.94437911602E+03  0.94437911603E+03  0.50400001928E-02 0. -1.
    10030    2    1    2    0    0  0.00000000000E+00  0.00000000000E+00  0.51272877739E+03  0.24014870095E+04  0.23461136071E+04 0.  0.
        3    1    3    3  502    0 -0.68267638143E+03 -0.84877101834E+03 -0.18934704216E+03  0.11055820168E+04  0.10100000352E+00 0. -1.
       -3    1    3    3    0  502  0.68267638143E+03  0.84877101834E+03  0.70207581955E+03  0.12959049926E+04  0.10100000352E+00 0.  1.
</event>
<event>
 5   0  0.2944089E-05  0.2333709E+04  0.7818609E-02  0.8464748E-01
       -1   -1    0    0    0  501  0.00000000000E+00  0.00000000000E+00  0.11128052354E+04  0.11128052354E+04  0.50400001928E-02 0.  1.
        1   -1    0    0  501    0  0.00000000000E+00  0.00000000000E+00 -0.12235287843E+04  0.12235287843E+04  0.50400001928E-02 0. -1.
    10030    2    1    2    0    0  0.00000000000E+00  0.00000000000E+00 -0.11072354890E+03  0.23363340198E+04  0.23337088395E+04 0.  0.
        5    1    3    3  502    0 -0.23156819770E+03  0.10444091772E+04  0.41111600710E+03  0.11460596935E+04  0.46999998093E+01 0.  1.
       -5    1    3    3    0  502  0.23156819770E+03 -0.10444091772E+04 -0.52183955601E+03  0.11902743263E+04  0.46999998093E+01 0. -1.
</event>
<event>
 5   0  0.2944089E-05  0.2309970E+04  0.7818609E-02  0.8474000E-01
        1   -1    0    0  501    0  0.00000000000E+00  0.00000000000E+00  0.18873707436E+04  0.18873707436E+04  0.50400001928E-02 0. -1.
       -1   -1    0    0    0  501  0.00000000000E+00  0.00000000000E+00 -0.70679849510E+03  0.70679849512E+03  0.50400001928E-02 0.  1.
    10030    2    1    2    0    0  0.00000000000E+00  0.00000000000E+00  0.11805722485E+04  0.25941692387E+04  0.23099703905E+04 0.  0.
        5    1    3    3  502    0 -0.55299798132E+03 -0.75115000706E+03 -0.17464220759E+03  0.94897581166E+03  0.46999998093E+01 0.  1.
       -5    1    3    3    0  502  0.55299798132E+03  0.75115000706E+03  0.13552144561E+04  0.16451934270E+04  0.46999998093E+01 0. -1.
</event>
<event>
 5   0  0.6676612E-05  0.2309718E+04  0.7818609E-02  0.8474099E-01
        2   -1    0    0  501    0  0.00000000000E+00  0.00000000000E+00  0.12294028918E+04  0.12294028918E+04  0.25500000920E-02 0.  1.
       -2   -1    0    0    0  501  0.00000000000E+00  0.00000000000E+00 -0.10848354888E+04  0.10848354888E+04  0.25500000920E-02 0. -1.
    10030    2    1    2    0    0  0.00000000000E+00  0.00000000000E+00  0.14456740296E+03  0.23142383806E+04  0.23097184998E+04 0.  0.
        2    1    3    3  502    0 -0.50660934242E+03  0.64179139193E+03  0.88944738161E+03  0.12081663218E+04  0.25500000920E-02 0.  1.
       -2    1    3    3    0  502  0.50660934242E+03 -0.64179139193E+03 -0.74487997865E+03  0.11060720588E+04  0.25500000920E-02 0. -1.
</event>
<event>
 5   0  0.6676612E-05  0.2293392E+04  0.7818609E-02  0.8480531E-01
        2   -1    0    0  501    0  0.00000000000E+00  0.00000000000E+00  0.10376792272E+04  0.10376792272E+04  0.25500000920E-02 0.  1.
       -2   -1    0    0    0  501  0.00000000000E+00  0.00000000000E+00 -0.12671655831E+04  0.12671655831E+04  0.25500000920E-02 0. -1.
    10030    2    1    2    0    0  0.00000000000E+00  0.00000000000E+00 -0.22948635597E+03  0.23048448103E+04  0.22933917267E+04 0.  0.
        2    1    3    3  502    0 -0.54712922365E+03 -0.55179257427E+03 -0.96221350805E+03  0.12368024367E+04  0.25500000920E-02 0. -1.
       -2    1    3    3    0  502  0.54712922365E+03  0.55179257427E+03  0.73272715208E+03  0.10680423736E+04  0.25500000920E-02 0.  1.
</event>
<event>
 5   0  0.3118614E-05  0.2265414E+04  0.7818609E-02  0.8491684E-01
       -1   -1    0    0    0  501  0.00000000000E+00  0.00000000000E+00  0.90147562752E+03  0.90147562753E+03  0.50400001928E-02 0.  1.
        1   -1    0    0  501    0  0.00000000000E+00  0.00000000000E+00 -0.14232496600E+04  0.14232496600E+04  0.50400001928E-02 0. -1.
    10030    2    1    2    0    0  0.00000000000E+00  0.00000000000E+00 -0.52177403247E+03  0.23247252875E+04  0.22654137639E+04 0.  0.
        3    1    3    3  502    0 -0.65487728070E+03 -0.60196732360E+03  0.45875511782E+03  0.10008422352E+04  0.10100000352E+00 0.  1.
       -3    1    3    3    0  502  0.65487728070E+03  0.60196732360E+03 -0.98052915029E+03  0.13238830523E+04  0.10100000352E+00 0. -1.
</event>
<event>
 5   0  0.2962279E-05  0.2309673E+04  0.7818609E-02  0.8474117E-01
        1   -1    0    0  501    0  0.00000000000E+00  0.00000000000E+00  0.10846398429E+04  0.10846398429E+04  0.50400001928E-02 0.  1.
       -1   -1    0    0    0  501  0.00000000000E+00  0.00000000000E+00 -0.12295763798E+04  0.12295763798E+04  0.50400001928E-02 0. -1.
    10030    2    1    2    0    0  0.00000000000E+00  0.00000000000E+00 -0.14493653690E+03  0.23142162227E+04  0.23096731642E+04 0.  0.
        1    1    3    3  502    0  0.38276550052E+03 -0.20068352624E+03  0.10005556633E+04  0.10899059324E+04  0.50400001928E-02 0.  1.
       -1    1    3    3    0  502 -0.38276550052E+03  0.20068352624E+03 -0.11454922002E+04  0.12243102903E+04  0.50400001928E-02 0. -1.
</event>
<event>
 5   0  0.6814789E-05  0.2312439E+04  0.7818609E-02  0.8473033E-01
        2   -1    0    0  501    0  0.00000000000E+00  0.00000000000E+00  0.10563516471E+04  0.10563516471E+04  0.25500000920E-02 0. -1.
       -2   -1    0    0    0  501  0.00000000000E+00  0.00000000000E+00 -0.12655293388E+04  0.12655293388E+04  0.25500000920E-02 0.  1.
    10030    2    1    2    0    0  0.00000000000E+00  0.00000000000E+00 -0.20917769170E+03  0.23218809859E+04  0.23124394059E+04 0.  0.
        1    1    3    3  502    0  0.19536635243E+03 -0.33356729856E+03  0.98954318890E+03  0.10623704048E+04  0.50400001928E-02 0. -1.
       -1    1    3    3    0  502 -0.19536635243E+03  0.33356729856E+03 -0.11987208806E+04  0.12595105811E+04  0.50400001928E-02 0.  1.
</event>
<event>
 5   0  0.6495405E-05  0.2242711E+04  0.7818609E-02  0.8500858E-01
       -2   -1    0    0    0  501  0.00000000000E+00  0.00000000000E+00  0.19377304122E+04  0.19377304122E+04  0.25500000920E-02 0.  1.
        2   -1    0    0  501    0  0.00000000000E+00  0.00000000000E+00 -0.64892318726E+03  0.64892318726E+03  0.25500000920E-02 0. -1.
    10030    2    1    2    0    0  0.00000000000E+00  0.00000000000E+00  0.12888072249E+04  0.25866535995E+04  0.22427110337E+04 0.  0.
        5    1    3    3  502    0  0.31538444185E+03 -0.80499127755E+03  0.14680173024E+04  0.17036945716E+04  0.46999998093E+01 0.  1.
       -5    1    3    3    0  502 -0.31538444185E+03  0.80499127755E+03 -0.17921007744E+03  0.88295902790E+03  0.46999998093E+01 0. -1.
</event>
<event>
 5   0  0.3006265E-05  0.2293413E+04  0.7818609E-02  0.8480523E-01
       -1   -1    0    0    0  501  0.00000000000E+00  0.00000000000E+00  0.75505105956E+03  0.75505105958E+03  0.50400001928E-02 0. -1.
        1   -1    0    0  501    0  0.00000000000E+00  0.00000000000E+00 -0.17415191748E+04  0.17415191748E+04  0.50400001928E-02 0.  1.
    10030    2    1    2    0    0  0.00000000000E+00  0.00000000000E+00 -0.98646811522E+03  0.24965702344E+04  0.22934130881E+04 0.  0.
        2    1    3    3  502    0 -0.10697669350E+04 -0.40928967166E+03 -0.55302260996E+03  0.12719093276E+04  0.25500000920E-02 0. -1.
       -2    1    3    3    0  502  0.10697669350E+04  0.40928967166E+03 -0.43344550526E+03  0.12246609068E+04  0.25500000920E-02 0.  1.
</event>
<event>
 5   0  0.3006265E-05  0.2246680E+04  0.7818609E-02  0.8499246E-01
        1   -1    0    0  501    0  0.00000000000E+00  0.00000000000E+00  0.17984240068E+04  0.17984240068E+04  0.50400001928E-02 0.  1.
       -1   -1    0    0    0  501  0.00000000000E+00  0.00000000000E+00 -0.70166585799E+03  0.70166585801E+03  0.50400001928E-02 0. -1.
    10030    2    1    2    0    0  0.00000000000E+00  0.00000000000E+00  0.10967581488E+04  0.25000898648E+04  0.22466799717E+04 0.  0.
        2    1    3    3  502    0  0.32773820456E+03 -0.16435836611E+03  0.17299676183E+04  0.17683930455E+04  0.25500000920E-02 0.  1.
       -2    1    3    3    0  502 -0.32773820456E+03  0.16435836611E+03 -0.63320946941E+03  0.73169681932E+03  0.25500000920E-02 0. -1.
</event>
<event>
 5   0  0.3118614E-05  0.2275978E+04  0.7818609E-02  0.8487453E-01
       -1   -1    0    0    0  501  0.00000000000E+00  0.00000000000E+00  0.63074830126E+03  0.63074830128E+03  0.50400001928E-02 0. -1.
        1   -1    0    0  501    0  0.00000000000E+00  0.00000000000E+00 -0.20531476876E+04  0.20531476876E+04  0.50400001928E-02 0.  1.
    10030    2    1    2    0    0  0.00000000000E+00  0.00000000000E+00 -0.14223993864E+04  0.26838959889E+04  0.22759783973E+04 0.  0.
        3    1    3    3  502    0 -0.78859672227E+03 -0.46646132977E+03  0.84711897408E+02  0.92013427189E+03  0.10100000352E+00 0. -1.
       -3    1    3    3    0  502  0.78859672227E+03  0.46646132977E+03 -0.15071112838E+04  0.17637617170E+04  0.10100000352E+00 0.  1.
</event>
<event>
 5   0  0.6468758E-05  0.2276392E+04  0.7818609E-02  0.8487288E-01
       -2   -1    0    0    0  501  0.00000000000E+00  0.00000000000E+00  0.44924691621E+03  0.44924691621E+03  0.25500000920E-02 0.  1.
        2   -1    0    0  501    0  0.00000000000E+00  0.00000000000E+00 -0.28836928900E+04  0.28836928900E+04  0.25500000920E-02 0. -1.
    10030    2    1    2    0    0  0.00000000000E+00  0.00000000000E+00 -0.24344459738E+04  0.33329398063E+04  0.22763920033E+04 0.  0.
        3    1    3    3  502    0  0.50657565552E+03  0.59484765711E+03 -0.54132953576E+01  0.78133983893E+03  0.10100000352E+00 0.  1.
       -3    1    3    3    0  502 -0.50657565552E+03 -0.59484765711E+03 -0.24290326785E+04  0.25515999673E+04  0.10100000352E+00 0. -1.
</event>
<event>
 5   0  0.2944089E-05  0.2308549E+04  0.7818609E-02  0.8474558E-01
       -1   -1    0    0    0  501  0.00000000000E+00  0.00000000000E+00  0.20023004464E+04  0.20023004464E+04  0.50400001928E-02 0. -1.
        1   -1    0    0  501    0  0.00000000000E+00  0.00000000000E+00 -0.66540952098E+03  0.66540952100E+03  0.50400001928E-02 0.  1.
    10030    2    1    2    0    0  0.00000000000E+00  0.00000000000E+00  0.13368909255E+04  0.26677099674E+04  0.23085491383E+04 0.  0.
        5    1    3    3  502    0  0.79106310562E+03 -0.84044934554E+03  0.65244366384E+03  0.13258358737E+04  0.46999998093E+01 0.  1.
       -5    1    3    3    0  502 -0.79106310562E+03  0.84044934554E+03  0.68444726162E+03  0.13418740937E+04  0.46999998093E+01 0. -1.
</event>
<event>
 5   0  0.3006265E-05  0.2272161E+04  0.7818609E-02  0.8488979E-01
        1   -1    0    0  501    0  0.00000000000E+00  0.00000000000E+00  0.23897241016E+04  0.23897241016E+04  0.50400001928E-02 0.  1.
       -1   -1    0    0    0  501  0.00000000000E+00  0.00000000000E+00 -0.54009547102E+03  0.54009547104E+03  0.50400001928E-02 0. -1.
    10030    2    1    2    0    0  0.00000000000E+00  0.00000000000E+00  0.18496286306E+04  0.29298195727E+04  0.22721612305E+04 0.  0.
        2    1    3    3  502    0 -0.23071174818E+03 -0.67028527997E+03  0.20695662258E+04  0.21876047701E+04  0.25500000920E-02 0.  1.
       -2    1    3    3    0  502  0.23071174818E+03  0.67028527997E+03 -0.21993759522E+03  0.74221480253E+03  0.25500000920E-02 0. -1.
</event>
<event>
 5   0  0.6468758E-05  0.2297841E+04  0.7818609E-02  0.8478773E-01
        2   -1    0    0  501    0  0.00000000000E+00  0.00000000000E+00  0.22456323137E+04  0.22456323137E+04  0.25500000920E-02 0. -1.
       -2   -1    0    0    0  501  0.00000000000E+00  0.00000000000E+00 -0.58781577724E+03  0.58781577724E+03  0.25500000920E-02 0.  1.
    10030    2    1    2    0    0  0.00000000000E+00  0.00000000000E+00  0.16578165365E+04  0.28334480910E+04  0.22978408160E+04 0.  0.
        3    1    3    3  502    0 -0.93241649053E+03 -0.62353273432E+03  0.52230578591E+03  0.12373346058E+04  0.10100000352E+00 0.  1.
       -3    1    3    3    0  502  0.93241649053E+03  0.62353273432E+03  0.11355107506E+04  0.15961134851E+04  0.10100000352E+00 0. -1.
</event>
<event>
 5   0  0.6495405E-05  0.2302182E+04  0.7818609E-02  0.8477061E-01
        2   -1    0    0  501    0  0.00000000000E+00  0.00000000000E+00  0.13157080574E+04  0.13157080574E+04  0.25500000920E-02 0. -1.
       -2   -1    0    0    0  501  0.00000000000E+00  0.00000000000E+00 -0.10070701417E+04  0.10070701417E+04  0.25500000920E-02 0.  1.
    10030    2    1    2    0    0  0.00000000000E+00  0.00000000000E+00  0.30863791568E+03  0.23227781991E+04  0.23021818345E+04 0.  0.
        5    1    3    3  502    0  0.84248001670E+03  0.35952537791E+03  0.85766184436E+03  0.12548454109E+04  0.46999998093E+01 0. -1.
       -5    1    3    3    0  502 -0.84248001670E+03 -0.35952537791E+03 -0.54902392867E+03  0.10679327882E+04  0.46999998093E+01 0.  1.
</event>
<event>
 5   0  0.6495405E-05  0.2300058E+04  0.7818609E-02  0.8477898E-01
       -2   -1    0    0    0  501  0.00000000000E+00  0.00000000000E+00  0.11542164007E+04  0.11542164007E+04  0.25500000920E-02 0. -1.
        2   -1    0    0  501    0  0.00000000000E+00  0.00000000000E+00 -0.11458565325E+04  0.11458565325E+04  0.25500000920E-02 0.  1.
    10030    2    1    2    0    0  0.00000000000E+00  0.00000000000E+00  0.83598682116E+01  0.23000729332E+04  0.23000577407E+04 0.  0.
        5    1    3    3  502    0 -0.61554655174E+03  0.93987428947E+03 -0.24134780695E+03  0.11491440690E+04  0.46999998093E+01 0. -1.
       -5    1    3    3    0  502  0.61554655174E+03 -0.93987428947E+03  0.24970767516E+03  0.11509288642E+04  0.46999998093E+01 0.  1.
</event>
<event>
 5   0  0.6495405E-05  0.2398178E+04  0.7818609E-02  0.8440186E-01
       -2   -1    0    0    0  501  0.00000000000E+00  0.00000000000E+00  0.86710109593E+03  0.86710109594E+03  0.25500000920E-02 0. -1.
        2   -1    0    0  501    0  0.00000000000E+00  0.00000000000E+00 -0.16581859084E+04  0.16581859084E+04  0.25500000920E-02 0.  1.
    10030    2    1    2    0    0  0.00000000000E+00  0.00000000000E+00 -0.79108481250E+03  0.25252870044E+04  0.23981783240E+04 0.  0.
        5    1    3    3  502    0 -0.22182781082E+03 -0.20103630306E+02  0.84511627178E+03  0.87398817866E+03  0.46999998093E+01 0. -1.
       -5    1    3    3    0  502  0.22182781082E+03  0.20103630306E+02 -0.16362010843E+04  0.16512988257E+04  0.46999998093E+01 0.  1.
</event>
<event>
 5   0  0.6676612E-05  0.2308258E+04  0.7818609E-02  0.8474672E-01
       -2   -1    0    0    0  501  0.00000000000E+00  0.00000000000E+00  0.15502340748E+04  0.15502340748E+04  0.25500000920E-02 0.  1.
        2   -1    0    0  501    0  0.00000000000E+00  0.00000000000E+00 -0.85923405956E+03  0.85923405956E+03  0.25500000920E-02 0. -1.
    10030    2    1    2    0    0  0.00000000000E+00  0.00000000000E+00  0.69100001524E+03  0.24094681344E+04  0.23082581462E+04 0.  0.
        2    1    3    3  502    0 -0.44818361906E+03 -0.44559019204E+03  0.13535528333E+04  0.14938287881E+04  0.25500000920E-02 0.  1.
       -2    1    3    3    0  502  0.44818361906E+03  0.44559019204E+03 -0.66255281807E+03  0.91563934624E+03  0.25500000920E-02 0. -1.
</event>
<event>
 5   0  0.6702421E-05  0.2239505E+04  0.7818609E-02  0.8502163E-01
       -2   -1    0    0    0  501  0.00000000000E+00  0.00000000000E+00  0.19750739739E+04  0.19750739739E+04  0.25500000920E-02 0. -1.
        2   -1    0    0  501    0  0.00000000000E+00  0.00000000000E+00 -0.63483505711E+03  0.63483505712E+03  0.25500000920E-02 0.  1.
    10030    2    1    2    0    0  0.00000000000E+00  0.00000000000E+00  0.13402389168E+04  0.26099090311E+04  0.22395054803E+04 0.  0.
        4    1    3    3  502    0  0.40725109169E+02 -0.65054572537E+03  0.17311901058E+04  0.18498348766E+04  0.12699999809E+01 0. -1.
       -4    1    3    3    0  502 -0.40725109169E+02  0.65054572537E+03 -0.39095118894E+03  0.76007415450E+03  0.12699999809E+01 0.  1.
</event>
<event>
 5   0  0.6468758E-05  0.2292847E+04  0.7818609E-02  0.8480747E-01
       -2   -1    0    0    0  501  0.00000000000E+00  0.00000000000E+00  0.98100319416E+03  0.98100319416E+03  0.25500000920E-02 0. -1.
        2   -1    0    0  501    0  0.00000000000E+00  0.00000000000E+00 -0.13397377196E+04  0.13397377196E+04  0.25500000920E-02 0.  1.
    10030    2    1    2    0    0  0.00000000000E+00  0.00000000000E+00 -0.35873452542E+03  0.23207409137E+04  0.22928471229E+04 0.  0.
        3    1    3    3  502    0  0.97704489083E+03 -0.33691721548E+03 -0.68154527492E+03  0.12379959211E+04  0.10100000352E+00 0.  1.
       -3    1    3    3    0  502 -0.97704489083E+03  0.33691721548E+03  0.32281074951E+03  0.10827449926E+04  0.10100000352E+00 0. -1.
</event>
<event>
 5   0  0.6495405E-05  0.2339597E+04  0.7818609E-02  0.8462470E-01
       -2   -1    0    0    0  501  0.00000000000E+00  0.00000000000E+00  0.11456213828E+04  0.11456213828E+04  0.25500000920E-02 0. -1.
        2   -1    0    0  501    0  0.00000000000E+00  0.00000000000E+00 -0.11944857188E+04  0.11944857188E+04  0.25500000920E-02 0.  1.
    10030    2    1    2    0    0  0.00000000000E+00  0.00000000000E+00 -0.48864336026E+02  0.23401071017E+04  0.23395968721E+04 0.  0.
        5    1    3    3  502    0 -0.10649103864E+03  0.93806341449E+03 -0.71530921945E+03  0.11844799198E+04  0.46999998093E+01 0.  1.
       -5    1    3    3    0  502  0.10649103864E+03 -0.93806341449E+03  0.66644488342E+03  0.11556271819E+04  0.46999998093E+01 0. -1.
</event>
<event>
 5   0  0.6814789E-05  0.2477455E+04  0.7818609E-02  0.8411062E-01
       -2   -1    0    0    0  501  0.00000000000E+00  0.00000000000E+00  0.87782710974E+03  0.87782710975E+03  0.25500000920E-02 0.  1.
        2   -1    0    0  501    0  0.00000000000E+00  0.00000000000E+00 -0.17480044078E+04  0.17480044078E+04  0.25500000920E-02 0. -1.
    10030    2    1    2    0    0  0.00000000000E+00  0.00000000000E+00 -0.87017729805E+03  0.26258315175E+04  0.24774548691E+04 0.  0.
        1    1    3    3  502    0  0.11437711700E+04 -0.18580925924E+03  0.28979029565E+02  0.11591278421E+04  0.50400001928E-02 0.  1.
       -1    1    3    3    0  502 -0.11437711700E+04  0.18580925924E+03 -0.89915632762E+03  0.14667036755E+04  0.50400001928E-02 0. -1.
</event>
<event>
 5   0  0.2342500E-05  0.1863987E+04  0.7818609E-02  0.8672993E-01
       -3   -1    0    0    0  501  0.00000000000E+00  0.00000000000E+00  0.10325976892E+04  0.10325976941E+04  0.10100000352E+00 0.  1.
        3   -1    0    0  501    0  0.00000000000E+00  0.00000000000E+00 -0.84119138678E+03  0.84119139285E+03  0.10100000352E+00 0. -1.
    10030    2    1    2    0    0  0.00000000000E+00  0.00000000000E+00  0.19140630240E+03  0.18737890870E+04  0.18639874382E+04 0.  0.
        3    1    3    3  502    0  0.64832996052E+03  0.36441733335E+02 -0.57635744228E+03  0.86824400321E+03  0.10100000352E+00 0. -1.
       -3    1    3    3    0  502 -0.64832996052E+03 -0.36441733335E+02  0.76776374469E+03  0.10055450838E+04  0.10100000352E+00 0.  1.
</event>
<event>
 5   0  0.6814789E-05  0.2464859E+04  0.7818609E-02  0.8415613E-01
       -2   -1    0    0    0  501  0.00000000000E+00  0.00000000000E+00  0.10851822559E+04  0.10851822559E+04  0.25500000920E-02 0.  1.
        2   -1    0    0  501    0  0.00000000000E+00  0.00000000000E+00 -0.13996568184E+04  0.13996568184E+04  0.25500000920E-02 0. -1.
    10030    2    1    2    0    0  0.00000000000E+00  0.00000000000E+00 -0.31447456252E+03  0.24848390743E+04  0.24648592201E+04 0.  0.
        1    1    3    3  502    0  0.52116404165E+03 -0.10865455523E+03 -0.12777618068E+04  0.13842301130E+04  0.50400001928E-02 0. -1.
       -1    1    3    3    0  502 -0.52116404165E+03  0.10865455523E+03  0.96328724431E+03  0.11006089613E+04  0.50400001928E-02 0.  1.
</event>
<event>
 5   0  0.3006265E-05  0.2219324E+04  0.7818609E-02  0.8510428E-01
       -1   -1    0    0    0  501  0.00000000000E+00  0.00000000000E+00  0.10111279545E+04  0.10111279546E+04  0.50400001928E-02 0.  1.
        1   -1    0    0  501    0  0.00000000000E+00  0.00000000000E+00 -0.12177981627E+04  0.12177981627E+04  0.50400001928E-02 0. -1.
    10030    2    1    2    0    0  0.00000000000E+00  0.00000000000E+00 -0.20667020813E+03  0.22289261172E+04  0.22193240100E+04 0.  0.
        2    1    3    3  502    0  0.57673915687E+03  0.26312418215E+03  0.81136736543E+03  0.10296501309E+04  0.25500000920E-02 0.  1.
       -2    1    3    3    0  502 -0.57673915687E+03 -0.26312418215E+03 -0.10180375736E+04  0.11992759864E+04  0.25500000920E-02 0. -1.
</event>
<event>
 5   0  0.6468758E-05  0.2321897E+04  0.7818609E-02  0.8469337E-01
       -2   -1    0    0    0  501  0.00000000000E+00  0.00000000000E+00  0.10336323313E+04  0.10336323313E+04  0.25500000920E-02 0.  1.
        2   -1    0    0  501    0  0.00000000000E+00  0.00000000000E+00 -0.13039461146E+04  0.13039461146E+04  0.25500000920E-02 0. -1.
    10030    2    1    2    0    0  0.00000000000E+00  0.00000000000E+00 -0.27031378321E+03  0.23375784459E+04  0.23218965200E+04 0.  0.
        3    1    3    3  502    0  0.11183059710E+04  0.17127080224E+03  0.12709993658E+03  0.11384622684E+04  0.10100000352E+00 0. -1.
       -3    1    3    3    0  502 -0.11183059710E+04 -0.17127080224E+03 -0.39741371979E+03  0.11991161776E+04  0.10100000352E+00 0.  1.
</event>
<event>
 5   0  0.2982385E-05  0.2448006E+04  0.7818609E-02  0.8421746E-01
       -1   -1    0    0    0  501  0.00000000000E+00  0.00000000000E+00  0.16570220527E+04  0.16570220527E+04  0.50400001928E-02 0.  1.
        1   -1    0    0  501    0  0.00000000000E+00  0.00000000000E+00 -0.90414226243E+03  0.90414226244E+03  0.50400001928E-02 0. -1.
    10030    2    1    2    0    0  0.00000000000E+00  0.00000000000E+00  0.75287979025E+03  0.25611643151E+04  0.24480062644E+04 0.  0.
        4    1    3    3  502    0  0.98395811628E+03  0.54217485546E+03  0.88475314813E+03  0.14300059072E+04  0.12699999809E+01 0.  1.
       -4    1    3    3    0  502 -0.98395811628E+03 -0.54217485546E+03 -0.13187335788E+03  0.11311584080E+04  0.12699999809E+01 0. -1.
</event>
<event>
 5   0  0.2962279E-05  0.2332787E+04  0.7818609E-02  0.8465105E-01
        1   -1    0    0  501    0  0.00000000000E+00  0.00000000000E+00  0.15596741450E+04  0.15596741450E+04  0.50400001928E-02 0.  1.
       -1   -1    0    0    0  501  0.00000000000E+00  0.00000000000E+00 -0.87228087849E+03  0.87228087850E+03  0.50400001928E-02 0. -1.
    10030    2    1    2    0    0  0.00000000000E+00  0.00000000000E+00  0.68739326647E+03  0.24319550235E+04  0.23327871170E+04 0.  0.
        1    1    3    3  502    0 -0.10403144371E+04  0.52738738494E+03  0.35315717430E+03  0.12186515383E+04  0.50400001928E-02 0.  1.
       -1    1    3    3    0  502  0.10403144371E+04 -0.52738738494E+03  0.33423609216E+03  0.12133034852E+04  0.50400001928E-02 0. -1.
</event>
<event>
 5   0  0.2944089E-05  0.2151034E+04  0.7818609E-02  0.8539090E-01
       -1   -1    0    0    0  501  0.00000000000E+00  0.00000000000E+00  0.18330568107E+04  0.18330568107E+04  0.50400001928E-02 0.  1.
        1   -1    0    0  501    0  0.00000000000E+00  0.00000000000E+00 -0.63104252889E+03  0.63104252891E+03  0.50400001928E-02 0. -1.
    10030    2    1    2    0    0  0.00000000000E+00  0.00000000000E+00  0.12020142818E+04  0.24640993396E+04  0.21510339890E+04 0.  0.
        5    1    3    3  502    0 -0.49923089095E+03  0.68042171311E+03  0.13647575844E+04  0.16046153882E+04  0.46999998093E+01 0.  1.
       -5    1    3    3    0  502  0.49923089095E+03 -0.68042171311E+03 -0.16274330255E+03  0.85948395137E+03  0.46999998093E+01 0. -1.
</event>
<event>
 5   0  0.6702421E-05  0.2352771E+04  0.7818609E-02  0.8457400E-01
        2   -1    0    0  501    0  0.00000000000E+00  0.00000000000E+00  0.15035316637E+04  0.15035316637E+04  0.25500000920E-02 0. -1.
       -2   -1    0    0    0  501  0.00000000000E+00  0.00000000000E+00 -0.92042173303E+03  0.92042173303E+03  0.25500000920E-02 0.  1.
    10030    2    1    2    0    0  0.00000000000E+00  0.00000000000E+00  0.58310993064E+03  0.24239533967E+04  0.23527713187E+04 0.  0.
        4    1    3    3  502    0  0.47968714495E+03  0.31193443097E+03 -0.76739376420E+03  0.95723437490E+03  0.12699999809E+01 0.  1.
       -4    1    3    3    0  502 -0.47968714495E+03 -0.31193443097E+03  0.13505036948E+04  0.14667190218E+04  0.12699999809E+01 0. -1.
</event>
<event>
 5   0  0.3006265E-05  0.2301521E+04  0.7818609E-02  0.8477322E-01
       -1   -1    0    0    0  501  0.00000000000E+00  0.00000000000E+00  0.96795309032E+03  0.96795309034E+03  0.50400001928E-02 0.  1.
        1   -1    0    0  501    0  0.00000000000E+00  0.00000000000E+00 -0.13680925759E+04  0.13680925759E+04  0.50400001928E-02 0. -1.
    10030    2    1    2    0    0  0.00000000000E+00  0.00000000000E+00 -0.40013948560E+03  0.23360456663E+04  0.23015207466E+04 0.  0.
        2    1    3    3  502    0 -0.87767696142E+02 -0.78707721440E+03  0.64735313423E+03  0.10228684130E+04  0.25500000920E-02 0.  1.
       -2    1    3    3    0  502  0.87767696142E+02  0.78707721440E+03 -0.10474926198E+04  0.13131772533E+04  0.25500000920E-02 0. -1.
</event>
<event>
 5   0  0.6676612E-05  0.2271409E+04  0.7818609E-02  0.8489280E-01
        2   -1    0    0  501    0  0.00000000000E+00  0.00000000000E+00  0.17643605826E+04  0.17643605826E+04  0.25500000920E-02 0. -1.
       -2   -1    0    0    0  501  0.00000000000E+00  0.00000000000E+00 -0.73104365153E+03  0.73104365154E+03  0.25500000920E-02 0.  1.
    10030    2    1    2    0    0  0.00000000000E+00  0.00000000000E+00  0.10333169311E+04  0.24954042342E+04  0.22714089046E+04 0.  0.
        2    1    3    3  502    0  0.24162941805E+03 -0.74806314054E+03 -0.38383165715E+03  0.87481996944E+03  0.25500000920E-02 0.  1.
       -2    1    3    3    0  502 -0.24162941805E+03  0.74806314054E+03  0.14171485883E+04  0.16205842647E+04  0.25500000920E-02 0. -1.
</event>
<event>
 5   0  0.6814789E-05  0.2277604E+04  0.7818609E-02  0.8486804E-01
        2   -1    0    0  501    0  0.00000000000E+00  0.00000000000E+00  0.10196586472E+04  0.10196586472E+04  0.25500000920E-02 0.  1.
       -2   -1    0    0    0  501  0.00000000000E+00  0.00000000000E+00 -0.12718663652E+04  0.12718663652E+04  0.25500000920E-02 0. -1.
    10030    2    1    2    0    0  0.00000000000E+00  0.00000000000E+00 -0.25220771798E+03  0.22915250125E+04  0.22776035980E+04 0.  0.
        1    1    3    3  502    0 -0.56311153132E+03 -0.74258762712E+03  0.53237228629E+03  0.10732899105E+04  0.50400001928E-02 0.  1.
       -1    1    3    3    0  502  0.56311153132E+03  0.74258762712E+03 -0.78458000428E+03  0.12182351020E+04  0.50400001928E-02 0. -1.
</event>
<event>
 5   0  0.6495405E-05  0.2280630E+04  0.7818609E-02  0.8485598E-01
       -2   -1    0    0    0  501  0.00000000000E+00  0.00000000000E+00  0.11132846708E+04  0.11132846708E+04  0.25500000920E-02 0.  1.
        2   -1    0    0  501    0  0.00000000000E+00  0.00000000000E+00 -0.11680019808E+04  0.11680019808E+04  0.25500000920E-02 0. -1.
    10030    2    1    2    0    0  0.00000000000E+00  0.00000000000E+00 -0.54717310010E+02  0.22812866516E+04  0.22806303521E+04 0.  0.
        5    1    3    3  502    0 -0.44460009754E+03  0.15640196829E+03  0.10112877755E+04  0.11157310954E+04  0.46999998093E+01 0.  1.
       -5    1    3    3    0  502  0.44460009754E+03 -0.15640196829E+03 -0.10660050855E+04  0.11655555562E+04  0.46999998093E+01 0. -1.
</event>
<event>
 5   0  0.3006265E-05  0.2124584E+04  0.7818609E-02  0.8550491E-01
        1   -1    0    0  501    0  0.00000000000E+00  0.00000000000E+00  0.92593548497E+03  0.92593548499E+03  0.50400001928E-02 0.  1.
       -1   -1    0    0    0  501  0.00000000000E+00  0.00000000000E+00 -0.12187290233E+04  0.12187290233E+04  0.50400001928E-02 0. -1.
    10030    2    1    2    0    0  0.00000000000E+00  0.00000000000E+00 -0.29279353833E+03  0.21446645083E+04  0.21245841469E+04 0.  0.
        2    1    3    3  502    0  0.59435066703E+02 -0.53224573564E+03 -0.10724805178E+04  0.11987629087E+04  0.25500000920E-02 0. -1.
       -2    1    3    3    0  502 -0.59435066703E+02  0.53224573564E+03  0.77968697943E+03  0.94590159962E+03  0.25500000920E-02 0.  1.
</event>
<event>
 5   0  0.2982385E-05  0.2317458E+04  0.7818609E-02  0.8471069E-01
        1   -1    0    0  501    0  0.00000000000E+00  0.00000000000E+00  0.17110104677E+04  0.17110104677E+04  0.50400001928E-02 0.  1.
       -1   -1    0    0    0  501  0.00000000000E+00  0.00000000000E+00 -0.78471323371E+03  0.78471323373E+03  0.50400001928E-02 0. -1.
    10030    2    1    2    0    0  0.00000000000E+00  0.00000000000E+00  0.92629723400E+03  0.24957237014E+04  0.23174577080E+04 0.  0.
        4    1    3    3  502    0 -0.24478793655E+02 -0.70423866248E+02  0.17084238934E+04  0.17100504509E+04  0.12699999809E+01 0.  1.
       -4    1    3    3    0  502  0.24478793655E+02  0.70423866248E+02 -0.78212665942E+03  0.78567325050E+03  0.12699999809E+01 0. -1.
</event>
<event>
 5   0  0.6702421E-05  0.2258301E+04  0.7818609E-02  0.8494546E-01
       -2   -1    0    0    0  501  0.00000000000E+00  0.00000000000E+00  0.85826554731E+03  0.85826554732E+03  0.25500000920E-02 0. -1.
        2   -1    0    0  501    0  0.00000000000E+00  0.00000000000E+00 -0.14855322031E+04  0.14855322031E+04  0.25500000920E-02 0.  1.
    10030    2    1    2    0    0  0.00000000000E+00  0.00000000000E+00 -0.62726665576E+03  0.23437977504E+04  0.22583012282E+04 0.  0.
        4    1    3    3  502    0  0.21513910170E+03 -0.11081226285E+04 -0.28504218344E+03  0.11642470752E+04  0.12699999809E+01 0. -1.
       -4    1    3    3    0  502 -0.21513910170E+03  0.11081226285E+04 -0.34222447231E+03  0.11795506752E+04  0.12699999809E+01 0.  1.
</event>
<event>
 5   0  0.6468758E-05  0.2424488E+04  0.7818609E-02  0.8430392E-01
        2   -1    0    0  501    0  0.00000000000E+00  0.00000000000E+00  0.14514917911E+04  0.14514917911E+04  0.25500000920E-02 0.  1.
       -2   -1    0    0    0  501  0.00000000000E+00  0.00000000000E+00 -0.10124308241E+04  0.10124308241E+04  0.25500000920E-02 0. -1.
    10030    2    1    2    0    0  0.00000000000E+00  0.00000000000E+00  0.43906096693E+03  0.24639226152E+04  0.24244875997E+04 0.  0.
        3    1    3    3  502    0 -0.14314418382E+03  0.40029332628E+02  0.14421962258E+04  0.14498353592E+04  0.10100000352E+00 0.  1.
       -3    1    3    3    0  502  0.14314418382E+03 -0.40029332628E+02 -0.10031352589E+04  0.10140872560E+04  0.10100000352E+00 0. -1.
</event>
<event>
 5   0  0.2962279E-05  0.2293891E+04  0.7818609E-02  0.8480334E-01
       -1   -1    0    0    0  501  0.00000000000E+00  0.00000000000E+00  0.12756685613E+04  0.12756685613E+04  0.50400001928E-02 0.  1.
        1   -1    0    0  501    0  0.00000000000E+00  0.00000000000E+00 -0.10312110326E+04  0.10312110326E+04  0.50400001928E-02 0. -1.
    10030    2    1    2    0    0  0.00000000000E+00  0.00000000000E+00  0.24445752866E+03  0.23068795939E+04  0.22938905766E+04 0.  0.
        1    1    3    3  502    0 -0.74558367598E+03  0.85882273006E+03 -0.26975738809E+02  0.11376287576E+04  0.50400001928E-02 0. -1.
       -1    1    3    3    0  502  0.74558367598E+03 -0.85882273006E+03  0.27143326747E+03  0.11692508363E+04  0.50400001928E-02 0.  1.
</event>
<event>
 5   0  0.2962279E-05  0.2312895E+04  0.7818609E-02  0.8472854E-01
        1   -1    0    0  501    0  0.00000000000E+00  0.00000000000E+00  0.13619444303E+04  0.13619444303E+04  0.50400001928E-02 0.  1.
       -1   -1    0    0    0  501  0.00000000000E+00  0.00000000000E+00 -0.98195665507E+03  0.98195665508E+03  0.50400001928E-02 0. -1.
    10030    2    1    2    0    0  0.00000000000E+00  0.00000000000E+00  0.37998777523E+03  0.23439010854E+04  0.23128946342E+04 0.  0.
        1    1    3    3  502    0  0.63820494900E+03  0.52972176917E+03  0.10066882002E+04  0.13043511192E+04  0.50400001928E-02 0.  1.
       -1    1    3    3    0  502 -0.63820494900E+03 -0.52972176917E+03 -0.62670042494E+03  0.10395499662E+04  0.50400001928E-02 0. -1.
</event>
<event>
 5   0  0.3006265E-05  0.2296385E+04  0.7818609E-02  0.8479348E-01
        1   -1    0    0  501    0  0.00000000000E+00  0.00000000000E+00  0.96606089402E+03  0.96606089403E+03  0.50400001928E-02 0.  1.
       -1   -1    0    0    0  501  0.00000000000E+00  0.00000000000E+00 -0.13646618660E+04  0.13646618660E+04  0.50400001928E-02 0. -1.
    10030    2    1    2    0    0  0.00000000000E+00  0.00000000000E+00 -0.39860097199E+03  0.23307227600E+04  0.22963853878E+04 0.  0.
        2    1    3    3  502    0 -0.11747615888E+03 -0.11421347801E+04 -0.19057198536E+03  0.11638686290E+04  0.25500000920E-02 0. -1.
       -2    1    3    3    0  502  0.11747615888E+03  0.11421347801E+04 -0.20802898663E+03  0.11668541311E+04  0.25500000920E-02 0.  1.
</event>
<event>
 5   0  0.3006265E-05  0.2285232E+04  0.7818609E-02  0.8483767E-01
        1   -1    0    0  501    0  0.00000000000E+00  0.00000000000E+00  0.95553505816E+03  0.95553505818E+03  0.50400001928E-02 0.  1.
       -1   -1    0    0    0  501  0.00000000000E+00  0.00000000000E+00 -0.13663244830E+04  0.13663244831E+04  0.50400001928E-02 0. -1.
    10030    2    1    2    0    0  0.00000000000E+00  0.00000000000E+00 -0.41078942488E+03  0.23218595412E+04  0.22852316683E+04 0.  0.
        2    1    3    3  502    0  0.86698334278E+03  0.32362200472E+03  0.47555608791E+03  0.10404541851E+04  0.25500000920E-02 0.  1.
       -2    1    3    3    0  502 -0.86698334278E+03 -0.32362200472E+03 -0.88634551279E+03  0.12814053561E+04  0.25500000920E-02 0. -1.
</event>
<event>
 5   0  0.6495405E-05  0.2293343E+04  0.7818609E-02  0.8480550E-01
       -2   -1    0    0    0  501  0.00000000000E+00  0.00000000000E+00  0.10281937705E+04  0.10281937705E+04  0.25500000920E-02 0. -1.
        2   -1    0    0  501    0  0.00000000000E+00  0.00000000000E+00 -0.12788015256E+04  0.12788015256E+04  0.25500000920E-02 0.  1.
    10030    2    1    2    0    0  0.00000000000E+00  0.00000000000E+00 -0.25060775506E+03  0.23069952961E+04  0.22933432035E+04 0.  0.
        5    1    3    3  502    0  0.10837465266E+04  0.28036606079E+03  0.12461420926E+03  0.11263491702E+04  0.46999998093E+01 0. -1.
       -5    1    3    3    0  502 -0.10837465266E+04 -0.28036606079E+03 -0.37522196433E+03  0.11806461259E+04  0.46999998093E+01 0.  1.
</event>
<event>
 5   0  0.2944089E-05  0.2330884E+04  0.7818609E-02  0.8465843E-01
       -1   -1    0    0    0  501  0.00000000000E+00  0.00000000000E+00  0.87486030601E+03  0.87486030602E+03  0.50400001928E-02 0.  1.
        1   -1    0    0  501    0  0.00000000000E+00  0.00000000000E+00 -0.15525386920E+04  0.15525386920E+04  0.50400001928E-02 0. -1.
    10030    2    1    2    0    0  0.00000000000E+00  0.00000000000E+00 -0.67767838596E+03  0.24273989980E+04  0.23308835022E+04 0.  0.
        5    1    3    3  502    0 -0.17414190536E+03  0.22396890401E+03  0.83834027997E+03  0.88505592376E+03  0.46999998093E+01 0.  1.
       -5    1    3    3    0  502  0.17414190536E+03 -0.22396890401E+03 -0.15160186659E+04  0.15423430742E+04  0.46999998093E+01 0. -1.
</event>
<event>
 5   0  0.3118614E-05  0.2306342E+04  0.7818609E-02  0.8475425E-01
        1   -1    0    0  501    0  0.00000000000E+00  0.00000000000E+00  0.15033936411E+04  0.15033936411E+04  0.50400001928E-02 0. -1.
       -1   -1    0    0    0  501  0.00000000000E+00  0.00000000000E+00 -0.88453414209E+03  0.88453414211E+03  0.50400001928E-02 0.  1.
    10030    2    1    2    0    0  0.00000000000E+00  0.00000000000E+00  0.61885949904E+03  0.23879277832E+04  0.23063416959E+04 0.  0.
        3    1    3    3  502    0  0.99965782219E+03 -0.48009775698E+03 -0.17973627853E+02  0.11091134654E+04  0.10100000352E+00 0.  1.
       -3    1    3    3    0  502 -0.99965782219E+03  0.48009775698E+03  0.63683312689E+03  0.12788143178E+04  0.10100000352E+00 0. -1.
</event>
<event>
 5   0  0.2944089E-05  0.2299148E+04  0.7818609E-02  0.8478257E-01
       -1   -1    0    0    0  501  0.00000000000E+00  0.00000000000E+00  0.68240368362E+03  0.68240368364E+03  0.50400001928E-02 0.  1.
        1   -1    0    0  501    0  0.00000000000E+00  0.00000000000E+00 -0.19365664802E+04  0.19365664802E+04  0.50400001928E-02 0. -1.
    10030    2    1    2    0    0  0.00000000000E+00  0.00000000000E+00 -0.12541627966E+04  0.26189701639E+04  0.22991477549E+04 0.  0.
        5    1    3    3  502    0  0.48857529534E+03  0.18606294849E+03 -0.17933003784E+04  0.18679597365E+04  0.46999998093E+01 0. -1.
       -5    1    3    3    0  502 -0.48857529534E+03 -0.18606294849E+03  0.53913758175E+03  0.75101042741E+03  0.46999998093E+01 0.  1.
</event>
<event>
 5   0  0.2982385E-05  0.2308876E+04  0.7818609E-02  0.8474429E-01
       -1   -1    0    0    0  501  0.00000000000E+00  0.00000000000E+00  0.88276955659E+03  0.88276955661E+03  0.50400001928E-02 0. -1.
        1   -1    0    0  501    0  0.00000000000E+00  0.00000000000E+00 -0.15097118560E+04  0.15097118560E+04  0.50400001928E-02 0.  1.
    10030    2    1    2    0    0  0.00000000000E+00  0.00000000000E+00 -0.62694229936E+03  0.23924814126E+04  0.23088764936E+04 0.  0.
        4    1    3    3  502    0 -0.33038355350E+02 -0.47529943616E+03  0.77613972220E+03  0.91071157246E+03  0.12699999809E+01 0. -1.
       -4    1    3    3    0  502  0.33038355350E+02  0.47529943616E+03 -0.14030820216E+04  0.14817698401E+04  0.12699999809E+01 0.  1.
</event>
<event>
 5   0  0.6676612E-05  0.2316448E+04  0.7818609E-02  0.8471464E-01
       -2   -1    0    0    0  501  0.00000000000E+00  0.00000000000E+00  0.80001621128E+03  0.80001621128E+03  0.25500000920E-02 0. -1.
        2   -1    0    0  501    0  0.00000000000E+00  0.00000000000E+00 -0.16768189879E+04  0.16768189879E+04  0.25500000920E-02 0.  1.
    10030    2    1    2    0    0  0.00000000000E+00  0.00000000000E+00 -0.87680277659E+03  0.24768351991E+04  0.23164476024E+04 0.  0.
        2    1    3    3  502    0  0.48720460740E+03 -0.87916451460E+03 -0.10537329233E+04  0.14562457371E+04  0.25500000920E-02 0.  1.
       -2    1    3    3    0  502 -0.48720460740E+03  0.87916451460E+03  0.17693014670E+03  0.10205894620E+04  0.25500000920E-02 0. -1.
</event>
<event>
 5   0  0.6814789E-05  0.2299982E+04  0.7818609E-02  0.8477928E-01
        2   -1    0    0  501    0  0.00000000000E+00  0.00000000000E+00  0.14654844984E+04  0.14654844984E+04  0.25500000920E-02 0.  1.
       -2   -1    0    0    0  501  0.00000000000E+00  0.00000000000E+00 -0.90241771891E+03  0.90241771892E+03  0.25500000920E-02 0. -1.
    10030    2    1    2    0    0  0.00000000000E+00  0.00000000000E+00  0.56306677948E+03  0.23679022173E+04  0.22999818940E+04 0.  0.
        1    1    3    3  502    0 -0.37918143842E+03 -0.84869485247E+03  0.97859315884E+03  0.13497059259E+04  0.50400001928E-02 0.  1.
       -1    1    3    3    0  502  0.37918143842E+03  0.84869485247E+03 -0.41552637936E+03  0.10181962914E+04  0.50400001928E-02 0. -1.
</event>
<event>
 5   0  0.2944089E-05  0.2229271E+04  0.7818609E-02  0.8506343E-01
       -1   -1    0    0    0  501  0.00000000000E+00  0.00000000000E+00  0.16003250642E+04  0.16003250642E+04  0.50400001928E-02 0. -1.
        1   -1    0    0  501    0  0.00000000000E+00  0.00000000000E+00 -0.77634978303E+03  0.77634978305E+03  0.50400001928E-02 0.  1.
    10030    2    1    2    0    0  0.00000000000E+00  0.00000000000E+00  0.82397528115E+03  0.23766748472E+04  0.22292707475E+04 0.  0.
        5    1    3    3  502    0 -0.34863511878E+03  0.95891617781E+03 -0.66371319321E+02  0.10224939727E+04  0.46999998093E+01 0.  1.
       -5    1    3    3    0  502  0.34863511878E+03 -0.95891617781E+03  0.89034660047E+03  0.13541808746E+04  0.46999998093E+01 0. -1.
</event>
<event>
 5   0  0.3006265E-05  0.2278685E+04  0.7818609E-02  0.8486373E-01
        1   -1    0    0  501    0  0.00000000000E+00  0.00000000000E+00  0.32176431751E+04  0.32176431751E+04  0.50400001928E-02 0. -1.
       -1   -1    0    0    0  501  0.00000000000E+00  0.00000000000E+00 -0.40343232615E+03  0.40343232618E+03  0.50400001928E-02 0.  1.
    10030    2    1    2    0    0  0.00000000000E+00  0.00000000000E+00  0.28142108489E+04  0.36210755012E+04  0.22786849461E+04 0.  0.
        2    1    3    3  502    0  0.60974828457E+03  0.69182519126E+03  0.24703670823E+04  0.26368785689E+04  0.25500000920E-02 0. -1.
       -2    1    3    3    0  502 -0.60974828457E+03 -0.69182519126E+03  0.34384376663E+03  0.98419693236E+03  0.25500000920E-02 0.  1.
</event>
<event>
 5   0  0.3118614E-05  0.2253269E+04  0.7818609E-02  0.8496578E-01
       -1   -1    0    0    0  501  0.00000000000E+00  0.00000000000E+00  0.69878296729E+03  0.69878296731E+03  0.50400001928E-02 0. -1.
        1   -1    0    0  501    0  0.00000000000E+00  0.00000000000E+00 -0.18164520182E+04  0.18164520182E+04  0.50400001928E-02 0.  1.
    10030    2    1    2    0    0  0.00000000000E+00  0.00000000000E+00 -0.11176690509E+04  0.25152349856E+04  0.22532693858E+04 0.  0.
        3    1    3    3  502    0 -0.52430871700E+03  0.64854090533E+03 -0.14043976168E+04  0.16333516501E+04  0.10100000352E+00 0.  1.
       -3    1    3    3    0  502  0.52430871700E+03 -0.64854090533E+03  0.28672856589E+03  0.88188333543E+03  0.10100000352E+00 0. -1.
</event>
<event>
 5   0  0.6676612E-05  0.2276669E+04  0.7818609E-02  0.8487178E-01
        2   -1    0    0  501    0  0.00000000000E+00  0.00000000000E+00  0.26418153773E+04  0.26418153773E+04  0.25500000920E-02 0. -1.
       -2   -1    0    0    0  501  0.00000000000E+00  0.00000000000E+00 -0.49049796724E+03  0.49049796725E+03  0.25500000920E-02 0.  1.
    10030    2    1    2    0    0  0.00000000000E+00  0.00000000000E+00  0.21513174101E+04  0.31323133446E+04  0.22766686825E+04 0.  0.
        2    1    3    3  502    0  0.10707377359E+04  0.14670653228E+03  0.15675122828E+04  0.19039687136E+04  0.25500000920E-02 0. -1.
       -2    1    3    3    0  502 -0.10707377359E+04 -0.14670653228E+03  0.58380512728E+03  0.12283446310E+04  0.25500000920E-02 0.  1.
</event>
<event>
 5   0  0.6814789E-05  0.2329121E+04  0.7818609E-02  0.8466527E-01
       -2   -1    0    0    0  501  0.00000000000E+00  0.00000000000E+00  0.82298385914E+03  0.82298385915E+03  0.25500000920E-02 0.  1.
        2   -1    0    0  501    0  0.00000000000E+00  0.00000000000E+00 -0.16479067765E+04  0.16479067765E+04  0.25500000920E-02 0. -1.
    10030    2    1    2    0    0  0.00000000000E+00  0.00000000000E+00 -0.82492291735E+03  0.24708906356E+04  0.23291205881E+04 0.  0.
        1    1    3    3  502    0 -0.66643549897E+03 -0.38835083529E+03  0.51314130114E+03  0.92642681336E+03  0.50400001928E-02 0.  1.
       -1    1    3    3    0  502  0.66643549897E+03  0.38835083529E+03 -0.13380642185E+04  0.15444638223E+04  0.50400001928E-02 0. -1.
</event>
<event>
 5   0  0.2962279E-05  0.2262673E+04  0.7818609E-02  0.8492786E-01
       -1   -1    0    0    0  501  0.00000000000E+00  0.00000000000E+00  0.10578196078E+04  0.10578196078E+04  0.50400001928E-02 0. -1.
        1   -1    0    0  501    0  0.00000000000E+00  0.00000000000E+00 -0.12099630245E+04  0.12099630245E+04  0.50400001928E-02 0.  1.
    10030    2    1    2    0    0  0.00000000000E+00  0.00000000000E+00 -0.15214341669E+03  0.22677826324E+04  0.22626732969E+04 0.  0.
        1    1    3    3  502    0 -0.73464027203E+03 -0.55250289406E+03  0.58493770704E+03  0.10895448125E+04  0.50400001928E-02 0. -1.
       -1    1    3    3    0  502  0.73464027203E+03  0.55250289406E+03 -0.73708112373E+03  0.11782378199E+04  0.50400001928E-02 0.  1.
</event>
<event>
 5   0  0.6676612E-05  0.2298734E+04  0.7818609E-02  0.8478420E-01
       -2   -1    0    0    0  501  0.00000000000E+00  0.00000000000E+00  0.17651764032E+04  0.17651764032E+04  0.25500000920E-02 0. -1.
        2   -1    0    0  501    0  0.00000000000E+00  0.00000000000E+00 -0.74839262114E+03  0.74839262115E+03  0.25500000920E-02 0.  1.
    10030    2    1    2    0    0  0.00000000000E+00  0.00000000000E+00  0.10167837821E+04  0.25135690244E+04  0.22987344303E+04 0.  0.
        2    1    3    3  502    0  0.23140849455E+03  0.57121431905E+03  0.15692202502E+04  0.16859086225E+04  0.25500000920E-02 0. -1.
       -2    1    3    3    0  502 -0.23140849455E+03 -0.57121431905E+03 -0.55243646810E+03  0.82766040194E+03  0.25500000920E-02 0.  1.
</event>
<event>
 5   0  0.2982385E-05  0.2290155E+04  0.7818609E-02  0.8481813E-01
       -1   -1    0    0    0  501  0.00000000000E+00  0.00000000000E+00  0.10972591115E+04  0.10972591115E+04  0.50400001928E-02 0.  1.
        1   -1    0    0  501    0  0.00000000000E+00  0.00000000000E+00 -0.11949799574E+04  0.11949799575E+04  0.50400001928E-02 0. -1.
    10030    2    1    2    0    0  0.00000000000E+00  0.00000000000E+00 -0.97720845939E+02  0.22922390690E+04  0.22901551444E+04 0.  0.
        4    1    3    3  502    0  0.21395508957E+03  0.94403601779E+03 -0.66115251245E+03  0.11722222660E+04  0.12699999809E+01 0. -1.
       -4    1    3    3    0  502 -0.21395508957E+03 -0.94403601779E+03  0.56343166651E+03  0.11200168030E+04  0.12699999809E+01 0.  1.
</event>
<event>
 5   0  0.3118614E-05  0.2231900E+04  0.7818609E-02  0.8505267E-01
        1   -1    0    0  501    0  0.00000000000E+00  0.00000000000E+00  0.14673467604E+04  0.14673467604E+04  0.50400001928E-02 0.  1.
       -1   -1    0    0    0  501  0.00000000000E+00  0.00000000000E+00 -0.84870517133E+03  0.84870517135E+03  0.50400001928E-02 0. -1.
    10030    2    1    2    0    0  0.00000000000E+00  0.00000000000E+00  0.61864158905E+03  0.23160519317E+04  0.22319003416E+04 0.  0.
        3    1    3    3  502    0 -0.80579963067E+03 -0.13140132673E+03  0.10987710726E+04  0.13688963560E+04  0.10100000352E+00 0.  1.
       -3    1    3    3    0  502  0.80579963067E+03  0.13140132673E+03 -0.48012948351E+03  0.94715557571E+03  0.10100000352E+00 0. -1.
</event>
<event>
 5   0  0.6495405E-05  0.2333950E+04  0.7818609E-02  0.8464654E-01
       -2   -1    0    0    0  501  0.00000000000E+00  0.00000000000E+00  0.12620169801E+04  0.12620169801E+04  0.25500000920E-02 0.  1.
        2   -1    0    0  501    0  0.00000000000E+00  0.00000000000E+00 -0.10790902340E+04  0.10790902340E+04  0.25500000920E-02 0. -1.
    10030    2    1    2    0    0  0.00000000000E+00  0.00000000000E+00  0.18292674608E+03  0.23411072142E+04  0.23339496125E+04 0.  0.
        5    1    3    3  502    0  0.11383841609E+04  0.13638634451E+03 -0.12666242147E+03  0.11535099443E+04  0.46999998093E+01 0. -1.
       -5    1    3    3    0  502 -0.11383841609E+04 -0.13638634451E+03  0.30958916756E+03  0.11875972698E+04  0.46999998093E+01 0.  1.
</event>
<event>
 5   0  0.6676612E-05  0.2387269E+04  0.7818609E-02  0.8444285E-01
        2   -1    0    0  501    0  0.00000000000E+00  0.00000000000E+00  0.13213050699E+04  0.13213050699E+04  0.25500000920E-02 0.  1.
       -2   -1    0    0    0  501  0.00000000000E+00  0.00000000000E+00 -0.10782997292E+04  0.10782997292E+04  0.25500000920E-02 0. -1.
    10030    2    1    2    0    0  0.00000000000E+00  0.00000000000E+00  0.24300534076E+03  0.23996047991E+04  0.23872686477E+04 0.  0.
        2    1    3    3  502    0  0.37783497838E+03  0.78804961884E+03 -0.69570616869E+03  0.11170445586E+04  0.25500000920E-02 0. -1.
       -2    1    3    3    0  502 -0.37783497838E+03 -0.78804961884E+03  0.93871150945E+03  0.12825602405E+04  0.25500000920E-02 0.  1.
</event>
<event>
 5   0  0.2342500E-05  0.1941388E+04  0.7818609E-02  0.8634525E-01
       -3   -1    0    0    0  501  0.00000000000E+00  0.00000000000E+00  0.11304637193E+04  0.11304637238E+04  0.10100000352E+00 0.  1.
        3   -1    0    0  501    0  0.00000000000E+00  0.00000000000E+00 -0.83350480941E+03  0.83350481553E+03  0.10100000352E+00 0. -1.
    10030    2    1    2    0    0  0.00000000000E+00  0.00000000000E+00  0.29695890986E+03  0.19639685393E+04  0.19413881192E+04 0.  0.
        4    1    3    3  502    0 -0.94714164456E+02  0.98840505607E+02  0.11206485575E+04  0.11289796370E+04  0.12699999809E+01 0.  1.
       -4    1    3    3    0  502  0.94714164456E+02 -0.98840505607E+02 -0.82368964761E+03  0.83498890231E+03  0.12699999809E+01 0. -1.
</event>
<event>
 5   0  0.2944089E-05  0.2166550E+04  0.7818609E-02  0.8532481E-01
       -1   -1    0    0    0  501  0.00000000000E+00  0.00000000000E+00  0.86330209693E+03  0.86330209695E+03  0.50400001928E-02 0.  1.
        1   -1    0    0  501    0  0.00000000000E+00  0.00000000000E+00 -0.13592984605E+04  0.13592984605E+04  0.50400001928E-02 0. -1.
    10030    2    1    2    0    0  0.00000000000E+00  0.00000000000E+00 -0.49599636354E+03  0.22226005574E+04  0.21665504484E+04 0.  0.
        5    1    3    3  502    0  0.83704518452E+03  0.51879531084E+03 -0.71097158676E+03  0.12146175952E+04  0.46999998093E+01 0. -1.
       -5    1    3    3    0  502 -0.83704518452E+03 -0.51879531084E+03  0.21497522322E+03  0.10079829622E+04  0.46999998093E+01 0.  1.
</event>
<event>
 5   0  0.3006265E-05  0.2294843E+04  0.7818609E-02  0.8479957E-01
       -1   -1    0    0    0  501  0.00000000000E+00  0.00000000000E+00  0.10383087884E+04  0.10383087884E+04  0.50400001928E-02 0. -1.
        1   -1    0    0  501    0  0.00000000000E+00  0.00000000000E+00 -0.12680010315E+04  0.12680010315E+04  0.50400001928E-02 0.  1.
    10030    2    1    2    0    0  0.00000000000E+00  0.00000000000E+00 -0.22969224316E+03  0.23063098199E+04  0.22948434498E+04 0.  0.
        2    1    3    3  502    0  0.42796262278E+03 -0.18186453892E+03 -0.11690630550E+04  0.12581475047E+04  0.25500000920E-02 0.  1.
       -2    1    3    3    0  502 -0.42796262278E+03  0.18186453892E+03  0.93937081181E+03  0.10481623152E+04  0.25500000920E-02 0. -1.
</event>
<event>
 5   0  0.2962279E-05  0.2336603E+04  0.7818609E-02  0.8463627E-01
        1   -1    0    0  501    0  0.00000000000E+00  0.00000000000E+00  0.48515605863E+03  0.48515605865E+03  0.50400001928E-02 0.  1.
       -1   -1    0    0    0  501  0.00000000000E+00  0.00000000000E+00 -0.28133810654E+04  0.28133810654E+04  0.50400001928E-02 0. -1.
    10030    2    1    2    0    0  0.00000000000E+00  0.00000000000E+00 -0.23282250068E+04  0.32985371241E+04  0.23366034059E+04 0.  0.
        1    1    3    3  502    0 -0.92360575213E+03  0.32745991998E+03 -0.26611147794E+03  0.10154274486E+04  0.50400001928E-02 0.  1.
       -1    1    3    3    0  502  0.92360575213E+03 -0.32745991998E+03 -0.20621135288E+04  0.22831096755E+04  0.50400001928E-02 0. -1.
</event>
<event>
 5   0  0.6676612E-05  0.1836482E+04  0.7818609E-02  0.8687136E-01
        2   -1    0    0  501    0  0.00000000000E+00  0.00000000000E+00  0.15268215652E+04  0.15268215652E+04  0.25500000920E-02 0. -1.
       -2   -1    0    0    0  501  0.00000000000E+00  0.00000000000E+00 -0.55223668569E+03  0.55223668569E+03  0.25500000920E-02 0.  1.
    10030    2    1    2    0    0  0.00000000000E+00  0.00000000000E+00  0.97458487949E+03  0.20790582509E+04  0.18364823776E+04 0.  0.
        2    1    3    3  502    0  0.20708592897E+03 -0.19716810123E+03  0.14751363703E+04  0.15025934756E+04  0.25500000920E-02 0. -1.
       -2    1    3    3    0  502 -0.20708592897E+03  0.19716810123E+03 -0.50055149080E+03  0.57646477522E+03  0.25500000920E-02 0.  1.
</event>
<event>
 5   0  0.2962279E-05  0.2350659E+04  0.7818609E-02  0.8458211E-01
        1   -1    0    0  501    0  0.00000000000E+00  0.00000000000E+00  0.14476455073E+04  0.14476455073E+04  0.50400001928E-02 0. -1.
       -1   -1    0    0    0  501  0.00000000000E+00  0.00000000000E+00 -0.95423836216E+03  0.95423836217E+03  0.50400001928E-02 0.  1.
    10030    2    1    2    0    0  0.00000000000E+00  0.00000000000E+00  0.49340714511E+03  0.24018838695E+04  0.23506585272E+04 0.  0.
        1    1    3    3  502    0  0.93884534405E+03  0.65532544116E+03 -0.24633387772E+02  0.11452025226E+04  0.50400001928E-02 0.  1.
       -1    1    3    3    0  502 -0.93884534405E+03 -0.65532544116E+03  0.51804053288E+03  0.12566813469E+04  0.50400001928E-02 0. -1.
</event>
<event>
 5   0  0.6495405E-05  0.2315439E+04  0.7818609E-02  0.8471859E-01
       -2   -1    0    0    0  501  0.00000000000E+00  0.00000000000E+00  0.74933933563E+03  0.74933933564E+03  0.25500000920E-02 0.  1.
        2   -1    0    0  501    0  0.00000000000E+00  0.00000000000E+00 -0.17886612966E+04  0.17886612966E+04  0.25500000920E-02 0. -1.
    10030    2    1    2    0    0  0.00000000000E+00  0.00000000000E+00 -0.10393219610E+04  0.25380006322E+04  0.23154388506E+04 0.  0.
        5    1    3    3  502    0  0.47514289921E+03 -0.25627531061E+02  0.63718772958E+03  0.79526589123E+03  0.46999998093E+01 0.  1.
       -5    1    3    3    0  502 -0.47514289921E+03  0.25627531061E+02 -0.16765096905E+04  0.17427347410E+04  0.46999998093E+01 0. -1.
</event>
<event>
 5   0  0.3118614E-05  0.2264713E+04  0.7818609E-02  0.8491966E-01
       -1   -1    0    0    0  501  0.00000000000E+00  0.00000000000E+00  0.43244311023E+03  0.43244311026E+03  0.50400001928E-02 0. -1.
        1   -1    0    0  501    0  0.00000000000E+00  0.00000000000E+00 -0.29650861972E+04  0.29650861972E+04  0.50400001928E-02 0.  1.
    10030    2    1    2    0    0  0.00000000000E+00  0.00000000000E+00 -0.25326430870E+04  0.33975293074E+04  0.22647128712E+04 0.  0.
        3    1    3    3  502    0  0.18314311509E+03  0.92130001549E+03 -0.22150099121E+04  0.24059517950E+04  0.10100000352E+00 0.  1.
       -3    1    3    3    0  502 -0.18314311509E+03 -0.92130001549E+03 -0.31763317486E+03  0.99157751241E+03  0.10100000352E+00 0. -1.
</event>
<event>
 5   0  0.2342500E-05  0.2070321E+04  0.7818609E-02  0.8574431E-01
        3   -1    0    0  501    0  0.00000000000E+00  0.00000000000E+00  0.84136443554E+03  0.84136444160E+03  0.10100000352E+00 0. -1.
       -3   -1    0    0    0  501  0.00000000000E+00  0.00000000000E+00 -0.12735943900E+04  0.12735943940E+04  0.10100000352E+00 0.  1.
    10030    2    1    2    0    0  0.00000000000E+00  0.00000000000E+00 -0.43222995446E+03  0.21149588356E+04  0.20703207826E+04 0.  0.
        4    1    3    3  502    0 -0.89500578286E+03  0.12150984273E+03 -0.73274151185E+03  0.11630613609E+04  0.12699999809E+01 0.  1.
       -4    1    3    3    0  502  0.89500578286E+03 -0.12150984273E+03  0.30051155740E+03  0.95189747466E+03  0.12699999809E+01 0. -1.
</event>
<event>
 5   0  0.2944089E-05  0.2471950E+04  0.7818609E-02  0.8413047E-01
       -1   -1    0    0    0  501  0.00000000000E+00  0.00000000000E+00  0.17930606270E+04  0.17930606270E+04  0.50400001928E-02 0. -1.
        1   -1    0    0  501    0  0.00000000000E+00  0.00000000000E+00 -0.85197004761E+03  0.85197004762E+03  0.50400001928E-02 0.  1.
    10030    2    1    2    0    0  0.00000000000E+00  0.00000000000E+00  0.94109057939E+03  0.26450306746E+04  0.24719497954E+04 0.  0.
        5    1    3    3  502    0 -0.76266497125E+03 -0.54616736082E+03  0.13316639486E+04  0.16288976660E+04  0.46999998093E+01 0. -1.
       -5    1    3    3    0  502  0.76266497125E+03  0.54616736082E+03 -0.39057336923E+03  0.10161330086E+04  0.46999998093E+01 0.  1.
</event>
<event>
 5   0  0.6676612E-05  0.2321032E+04  0.7818609E-02  0.8469674E-01
       -2   -1    0    0    0  501  0.00000000000E+00  0.00000000000E+00  0.94049391823E+03  0.94049391824E+03  0.25500000920E-02 0.  1.
        2   -1    0    0  501    0  0.00000000000E+00  0.00000000000E+00 -0.14320107707E+04  0.14320107707E+04  0.25500000920E-02 0. -1.
    10030    2    1    2    0    0  0.00000000000E+00  0.00000000000E+00 -0.49151685243E+03  0.23725046889E+04  0.23210320297E+04 0.  0.
        2    1    3    3  502    0  0.91526133908E+03 -0.69016083031E+03 -0.43080382095E+03  0.12245885932E+04  0.25500000920E-02 0. -1.
       -2    1    3    3    0  502 -0.91526133908E+03  0.69016083031E+03 -0.60713031485E+02  0.11479160957E+04  0.25500000920E-02 0.  1.
</event>
<event>
 5   0  0.2342500E-05  0.2243023E+04  0.7818609E-02  0.8500731E-01
       -3   -1    0    0    0  501  0.00000000000E+00  0.00000000000E+00  0.10077243892E+04  0.10077243943E+04  0.10100000352E+00 0. -1.
        3   -1    0    0  501    0  0.00000000000E+00  0.00000000000E+00 -0.12481466252E+04  0.12481466292E+04  0.10100000352E+00 0.  1.
    10030    2    1    2    0    0  0.00000000000E+00  0.00000000000E+00 -0.24042223596E+03  0.22558710235E+04  0.22430227870E+04 0.  0.
        4    1    3    3  502    0  0.35780644572E+03  0.21919106419E+03  0.92580219138E+03  0.10164553535E+04  0.12699999809E+01 0. -1.
       -4    1    3    3    0  502 -0.35780644572E+03 -0.21919106419E+03 -0.11662244273E+04  0.12394156700E+04  0.12699999809E+01 0.  1.
</event>
<event>
 5   0  0.2962279E-05  0.2299645E+04  0.7818609E-02  0.8478061E-01
        1   -1    0    0  501    0  0.00000000000E+00  0.00000000000E+00  0.91035142970E+03  0.91035142971E+03  0.50400001928E-02 0.  1.
       -1   -1    0    0    0  501  0.00000000000E+00  0.00000000000E+00 -0.14522871614E+04  0.14522871614E+04  0.50400001928E-02 0. -1.
    10030    2    1    2    0    0  0.00000000000E+00  0.00000000000E+00 -0.54193573172E+03  0.23626385911E+04  0.22996449237E+04 0.  0.
        1    1    3    3  502    0 -0.67406379253E+03  0.33097691267E+03  0.62362166505E+03  0.97612073755E+03  0.50400001928E-02 0.  1.
       -1    1    3    3    0  502  0.67406379253E+03 -0.33097691267E+03 -0.11655573968E+04  0.13865178536E+04  0.50400001928E-02 0. -1.
</event>
<event>
 5   0  0.6676612E-05  0.2273894E+04  0.7818609E-02  0.8488286E-01
        2   -1    0    0  501    0  0.00000000000E+00  0.00000000000E+00  0.13245317760E+04  0.13245317760E+04  0.25500000920E-02 0. -1.
       -2   -1    0    0    0  501  0.00000000000E+00  0.00000000000E+00 -0.97592879161E+03  0.97592879161E+03  0.25500000920E-02 0.  1.
    10030    2    1    2    0    0  0.00000000000E+00  0.00000000000E+00  0.34860298440E+03  0.23004605676E+04  0.22738941889E+04 0.  0.
        2    1    3    3  502    0  0.54585782036E+03 -0.62040903731E+03 -0.61570621767E+03  0.10305155409E+04  0.25500000920E-02 0.  1.
       -2    1    3    3    0  502 -0.54585782036E+03  0.62040903731E+03  0.96430920206E+03  0.12699450267E+04  0.25500000920E-02 0. -1.
</event>
<event>
 5   0  0.3006265E-05  0.2284355E+04  0.7818609E-02  0.8484115E-01
       -1   -1    0    0    0  501  0.00000000000E+00  0.00000000000E+00  0.70490824371E+03  0.70490824372E+03  0.50400001928E-02 0.  1.
        1   -1    0    0  501    0  0.00000000000E+00  0.00000000000E+00 -0.18506943528E+04  0.18506943528E+04  0.50400001928E-02 0. -1.
    10030    2    1    2    0    0  0.00000000000E+00  0.00000000000E+00 -0.11457861091E+04  0.25556025966E+04  0.22843552315E+04 0.  0.
        2    1    3    3  502    0  0.17075656860E+03 -0.89940860753E+03 -0.13369827786E+04  0.16203754501E+04  0.25500000920E-02 0. -1.
       -2    1    3    3    0  502 -0.17075656860E+03  0.89940860753E+03  0.19119666950E+03  0.93522714644E+03  0.25500000920E-02 0.  1.
</event>
<event>
 5   0  0.3006265E-05  0.2248648E+04  0.7818609E-02  0.8498448E-01
       -1   -1    0    0    0  501  0.00000000000E+00  0.00000000000E+00  0.88179604579E+03  0.88179604580E+03  0.50400001928E-02 0.  1.
        1   -1    0    0  501    0  0.00000000000E+00  0.00000000000E+00 -0.14335560157E+04  0.14335560157E+04  0.50400001928E-02 0. -1.
    10030    2    1    2    0    0  0.00000000000E+00  0.00000000000E+00 -0.55175996995E+03  0.23153520615E+04  0.22486476168E+04 0.  0.
        2    1    3    3  502    0 -0.74671931779E+03  0.19584287242E+03 -0.11175383104E+04  0.13582474169E+04  0.25500000920E-02 0. -1.
       -2    1    3    3    0  502  0.74671931779E+03 -0.19584287242E+03  0.56577834048E+03  0.95710464465E+03  0.25500000920E-02 0.  1.
</event>
<event>
 5   0  0.2982385E-05  0.2265412E+04  0.7818609E-02  0.8491685E-01
       -1   -1    0    0    0  501  0.00000000000E+00  0.00000000000E+00  0.11267656490E+04  0.11267656490E+04  0.50400001928E-02 0.  1.
        1   -1    0    0  501    0  0.00000000000E+00  0.00000000000E+00 -0.11386780248E+04  0.11386780248E+04  0.50400001928E-02 0. -1.
    10030    2    1    2    0    0  0.00000000000E+00  0.00000000000E+00 -0.11912375784E+02  0.22654436737E+04  0.22654123541E+04 0.  0.
        4    1    3    3  502    0  0.44644927115E+03 -0.86653238789E+03  0.57096282070E+03  0.11296882253E+04  0.12699999809E+01 0.  1.
       -4    1    3    3    0  502 -0.44644927115E+03  0.86653238789E+03 -0.58287519649E+03  0.11357554484E+04  0.12699999809E+01 0. -1.
</event>
<event>
 5   0  0.2982385E-05  0.2316830E+04  0.7818609E-02  0.8471315E-01
       -1   -1    0    0    0  501  0.00000000000E+00  0.00000000000E+00  0.61746156896E+03  0.61746156898E+03  0.50400001928E-02 0.  1.
        1   -1    0    0  501    0  0.00000000000E+00  0.00000000000E+00 -0.21732931333E+04  0.21732931333E+04  0.50400001928E-02 0. -1.
    10030    2    1    2    0    0  0.00000000000E+00  0.00000000000E+00 -0.15558315643E+04  0.27907547023E+04  0.23168297201E+04 0.  0.
        4    1    3    3  502    0 -0.62229866282E+03 -0.91254461016E+03 -0.11985290671E+04  0.16298671200E+04  0.12699999809E+01 0. -1.
       -4    1    3    3    0  502  0.62229866282E+03  0.91254461016E+03 -0.35730249726E+03  0.11608875823E+04  0.12699999809E+01 0.  1.
</event>
<event>
 5   0  0.2944089E-05  0.2307415E+04  0.7818609E-02  0.8475003E-01
       -1   -1    0    0    0  501  0.00000000000E+00  0.00000000000E+00  0.56488732939E+03  0.56488732941E+03  0.50400001928E-02 0.  1.
        1   -1    0    0  501    0  0.00000000000E+00  0.00000000000E+00 -0.23562949959E+04  0.23562949959E+04  0.50400001928E-02 0. -1.
    10030    2    1    2    0    0  0.00000000000E+00  0.00000000000E+00 -0.17914076665E+04  0.29211823253E+04  0.23074151664E+04 0.  0.
        5    1    3    3  502    0  0.10470895639E+04  0.11856913762E+03 -0.30113773845E+03  0.10959750101E+04  0.46999998093E+01 0.  1.
       -5    1    3    3    0  502 -0.10470895639E+04 -0.11856913762E+03 -0.14902699281E+04  0.18252073153E+04  0.46999998093E+01 0. -1.
</event>
<event>
 5   0  0.3118614E-05  0.2374547E+04  0.7818609E-02  0.8449095E-01
        1   -1    0    0  501    0  0.00000000000E+00  0.00000000000E+00  0.12723782316E+04  0.12723782316E+04  0.50400001928E-02 0.  1.
       -1   -1    0    0    0  501  0.00000000000E+00  0.00000000000E+00 -0.11078613247E+04  0.11078613247E+04  0.50400001928E-02 0. -1.
    10030    2    1    2    0    0  0.00000000000E+00  0.00000000000E+00  0.16451690687E+03  0.23802395564E+04  0.23745472270E+04 0.  0.
        3    1    3    3  502    0  0.61510431211E+03 -0.21521979845E+03 -0.91256499043E+03  0.11213597765E+04  0.10100000352E+00 0. -1.
       -3    1    3    3    0  502 -0.61510431211E+03  0.21521979845E+03  0.10770818973E+04  0.12588797799E+04  0.10100000352E+00 0.  1.
</event>
<event>
 5   0  0.6495405E-05  0.2275024E+04  0.7818609E-02  0.8487835E-01
        2   -1    0    0  501    0  0.00000000000E+00  0.00000000000E+00  0.67925643754E+03  0.67925643755E+03  0.25500000920E-02 0. -1.
       -2   -1    0    0    0  501  0.00000000000E+00  0.00000000000E+00 -0.19049257599E+04  0.19049257599E+04  0.25500000920E-02 0.  1.
    10030    2    1    2    0    0  0.00000000000E+00  0.00000000000E+00 -0.12256693223E+04  0.25841821974E+04  0.22750235915E+04 0.  0.
        5    1    3    3  502    0 -0.71170555338E+03  0.67881332463E+03  0.36314398503E+02  0.98420178315E+03  0.46999998093E+01 0. -1.
       -5    1    3    3    0  502  0.71170555338E+03 -0.67881332463E+03 -0.12619837208E+04  0.15999804143E+04  0.46999998093E+01 0.  1.
</event>
<event>
 5   0  0.2944089E-05  0.2339353E+04  0.7818609E-02  0.8462565E-01
       -1   -1    0    0    0  501  0.00000000000E+00  0.00000000000E+00  0.78870984318E+03  0.78870984319E+03  0.50400001928E-02 0.  1.
        1   -1    0    0  501    0  0.00000000000E+00  0.00000000000E+00 -0.17346592051E+04  0.17346592051E+04  0.50400001928E-02 0. -1.
    10030    2    1    2    0    0  0.00000000000E+00  0.00000000000E+00 -0.94594936194E+03  0.25233690483E+04  0.23393527222E+04 0.  0.
        5    1    3    3  502    0  0.14889232783E+03 -0.10739653121E+04  0.34781208034E+00  0.10842474939E+04  0.46999998093E+01 0. -1.
       -5    1    3    3    0  502 -0.14889232783E+03  0.10739653121E+04 -0.94629717402E+03  0.14391215545E+04  0.46999998093E+01 0.  1.
</event>
<event>
 5   0  0.6814789E-05  0.2312150E+04  0.7818609E-02  0.8473146E-01
        2   -1    0    0  501    0  0.00000000000E+00  0.00000000000E+00  0.18585727073E+04  0.18585727073E+04  0.25500000920E-02 0.  1.
       -2   -1    0    0    0  501  0.00000000000E+00  0.00000000000E+00 -0.71910517455E+03  0.71910517456E+03  0.25500000920E-02 0. -1.
    10030    2    1    2    0    0  0.00000000000E+00  0.00000000000E+00  0.11394675328E+04  0.25776778819E+04  0.23121498664E+04 0.  0.
        1    1    3    3  502    0  0.35100983206E+03 -0.10278956073E+04  0.10110922311E+04  0.14839423107E+04  0.50400001928E-02 0. -1.
       -1    1    3    3    0  502 -0.35100983206E+03  0.10278956073E+04  0.12837530168E+03  0.10937355712E+04  0.50400001928E-02 0.  1.
</event>
<event>
 5   0  0.3118614E-05  0.2296062E+04  0.7818609E-02  0.8479475E-01
        1   -1    0    0  501    0  0.00000000000E+00  0.00000000000E+00  0.13153564994E+04  0.13153564994E+04  0.50400001928E-02 0.  1.
       -1   -1    0    0    0  501  0.00000000000E+00  0.00000000000E+00 -0.10019909426E+04  0.10019909426E+04  0.50400001928E-02 0. -1.
    10030    2    1    2    0    0  0.00000000000E+00  0.00000000000E+00  0.31336555674E+03  0.23173474420E+04  0.22960621060E+04 0.  0.
        3    1    3    3  502    0  0.53804724982E+03 -0.63208920905E+03 -0.64372886859E+03  0.10504372793E+04  0.10100000352E+00 0. -1.
       -3    1    3    3    0  502 -0.53804724982E+03  0.63208920905E+03  0.95709442532E+03  0.12669101627E+04  0.10100000352E+00 0.  1.
</event>
<event>
 5   0  0.3006265E-05  0.2297801E+04  0.7818609E-02  0.8478789E-01
       -1   -1    0    0    0  501  0.00000000000E+00  0.00000000000E+00  0.13166916589E+04  0.13166916589E+04  0.50400001928E-02 0.  1.
        1   -1    0    0  501    0  0.00000000000E+00  0.00000000000E+00 -0.10024917153E+04  0.10024917153E+04  0.50400001928E-02 0. -1.
    10030    2    1    2    0    0  0.00000000000E+00  0.00000000000E+00  0.31419994359E+03  0.23191833743E+04  0.22978011052E+04 0.  0.
        2    1    3    3  502    0 -0.78563167900E+02 -0.15781692443E+03 -0.98875928452E+03  0.10043521672E+04  0.25500000920E-02 0. -1.
       -2    1    3    3    0  502  0.78563167900E+02  0.15781692443E+03  0.13029592281E+04  0.13148312071E+04  0.25500000920E-02 0.  1.
</event>
<event>
 5   0  0.6814789E-05  0.2277389E+04  0.7818609E-02  0.8486890E-01
        2   -1    0    0  501    0  0.00000000000E+00  0.00000000000E+00  0.48217832743E+03  0.48217832744E+03  0.25500000920E-02 0. -1.
       -2   -1    0    0    0  501  0.00000000000E+00  0.00000000000E+00 -0.26890985358E+04  0.26890985358E+04  0.25500000920E-02 0.  1.
    10030    2    1    2    0    0  0.00000000000E+00  0.00000000000E+00 -0.22069202084E+04  0.31712768633E+04  0.22773888858E+04 0.  0.
        1    1    3    3  502    0  0.78168486833E+03 -0.60238895902E+02 -0.22534076472E+04  0.23858973118E+04  0.50400001928E-02 0.  1.
       -1    1    3    3    0  502 -0.78168486833E+03  0.60238895902E+02  0.46487438754E+02  0.78537955152E+03  0.50400001928E-02 0. -1.
</event>
<event>
 5   0  0.6468758E-05  0.2292664E+04  0.7818609E-02  0.8480819E-01
       -2   -1    0    0    0  501  0.00000000000E+00  0.00000000000E+00  0.56679036832E+03  0.56679036832E+03  0.25500000920E-02 0. -1.
        2   -1    0    0  501    0  0.00000000000E+00  0.00000000000E+00 -0.23184529792E+04  0.23184529792E+04  0.25500000920E-02 0.  1.
    10030    2    1    2    0    0  0.00000000000E+00  0.00000000000E+00 -0.17516626109E+04  0.28852433475E+04  0.22926637939E+04 0.  0.
        3    1    3    3  502    0 -0.15753289840E+03 -0.37578095371E+02 -0.23039831767E+04  0.23096682048E+04  0.10100000352E+00 0.  1.
       -3    1    3    3    0  502  0.15753289840E+03  0.37578095371E+02  0.55232056583E+03  0.57557514276E+03  0.10100000352E+00 0. -1.
</event>
<event>
 5   0  0.6814789E-05  0.2280556E+04  0.7818609E-02  0.8485627E-01
       -2   -1    0    0    0  501  0.00000000000E+00  0.00000000000E+00  0.82576113237E+03  0.82576113237E+03  0.25500000920E-02 0. -1.
        2   -1    0    0  501    0  0.00000000000E+00  0.00000000000E+00 -0.15745884038E+04  0.15745884038E+04  0.25500000920E-02 0.  1.
    10030    2    1    2    0    0  0.00000000000E+00  0.00000000000E+00 -0.74882727142E+03  0.24003495362E+04  0.22805559878E+04 0.  0.
        1    1    3    3  502    0 -0.64796043647E+03  0.40491517068E+03 -0.12652933688E+04  0.14780988911E+04  0.50400001928E-02 0.  1.
       -1    1    3    3    0  502  0.64796043647E+03 -0.40491517068E+03  0.51646609734E+03  0.92225064511E+03  0.50400001928E-02 0. -1.
</event>
<event>
 5   0  0.6468758E-05  0.2370521E+04  0.7818609E-02  0.8450623E-01
        2   -1    0    0  501    0  0.00000000000E+00  0.00000000000E+00  0.16284244163E+04  0.16284244163E+04  0.25500000920E-02 0.  1.
       -2   -1    0    0    0  501  0.00000000000E+00  0.00000000000E+00 -0.86270015931E+03  0.86270015931E+03  0.25500000920E-02 0. -1.
    10030    2    1    2    0    0  0.00000000000E+00  0.00000000000E+00  0.76572425701E+03  0.24911245756E+04  0.23705206208E+04 0.  0.
        3    1    3    3  502    0 -0.80840616912E+03 -0.25904196319E+03  0.12521211063E+04  0.15127559446E+04  0.10100000352E+00 0.  1.
       -3    1    3    3    0  502  0.80840616912E+03  0.25904196319E+03 -0.48639684927E+03  0.97836863101E+03  0.10100000352E+00 0. -1.
</event>
<event>
 5   0  0.6676612E-05  0.2321236E+04  0.7818609E-02  0.8469595E-01
        2   -1    0    0  501    0  0.00000000000E+00  0.00000000000E+00  0.20848122076E+04  0.20848122076E+04  0.25500000920E-02 0. -1.
       -2   -1    0    0    0  501  0.00000000000E+00  0.00000000000E+00 -0.64611781690E+03  0.64611781691E+03  0.25500000920E-02 0.  1.
    10030    2    1    2    0    0  0.00000000000E+00  0.00000000000E+00  0.14386943907E+04  0.27309300245E+04  0.23212361467E+04 0.  0.
        2    1    3    3  502    0  0.82656294478E+03  0.12819256219E+03 -0.22727309615E+03  0.86677142023E+03  0.25500000920E-02 0.  1.
       -2    1    3    3    0  502 -0.82656294478E+03 -0.12819256219E+03  0.16659674868E+04  0.18641586043E+04  0.25500000920E-02 0. -1.
</event>
<event>
 5   0  0.6814789E-05  0.2309477E+04  0.7818609E-02  0.8474194E-01
       -2   -1    0    0    0  501  0.00000000000E+00  0.00000000000E+00  0.92560375905E+03  0.92560375905E+03  0.25500000920E-02 0.  1.
        2   -1    0    0  501    0  0.00000000000E+00  0.00000000000E+00 -0.14405955383E+04  0.14405955383E+04  0.25500000920E-02 0. -1.
    10030    2    1    2    0    0  0.00000000000E+00  0.00000000000E+00 -0.51499177926E+03  0.23661992974E+04  0.23094766901E+04 0.  0.
        1    1    3    3  502    0 -0.10166647677E+04  0.28954165147E+03  0.21865382545E+03  0.10794679769E+04  0.50400001928E-02 0.  1.
       -1    1    3    3    0  502  0.10166647677E+04 -0.28954165147E+03 -0.73364560471E+03  0.12867313205E+04  0.50400001928E-02 0. -1.
</event>
<event>
 5   0  0.2944089E-05  0.2338259E+04  0.7818609E-02  0.8462987E-01
       -1   -1    0    0    0  501  0.00000000000E+00  0.00000000000E+00  0.97389397813E+03  0.97389397815E+03  0.50400001928E-02 0. -1.
        1   -1    0    0  501    0  0.00000000000E+00  0.00000000000E+00 -0.14035031620E+04  0.14035031620E+04  0.50400001928E-02 0.  1.
    10030    2    1    2    0    0  0.00000000000E+00  0.00000000000E+00 -0.42960918386E+03  0.23773971401E+04  0.23382585638E+04 0.  0.
        5    1    3    3  502    0  0.92034645219E+03  0.78726005862E+02 -0.94346331271E+03  0.13203713449E+04  0.46999998093E+01 0.  1.
       -5    1    3    3    0  502 -0.92034645219E+03 -0.78726005862E+02  0.51385412885E+03  0.10570257952E+04  0.46999998093E+01 0. -1.
</event>
<event>
 5   0  0.2944089E-05  0.2402864E+04  0.7818609E-02  0.8438432E-01
       -1   -1    0    0    0  501  0.00000000000E+00  0.00000000000E+00  0.96713961753E+03  0.96713961754E+03  0.50400001928E-02 0. -1.
        1   -1    0    0  501    0  0.00000000000E+00  0.00000000000E+00 -0.14924818379E+04  0.14924818379E+04  0.50400001928E-02 0.  1.
    10030    2    1    2    0    0  0.00000000000E+00  0.00000000000E+00 -0.52534222040E+03  0.24596214555E+04  0.24028635533E+04 0.  0.
        5    1    3    3  502    0  0.16176121067E+03 -0.19620422177E+03 -0.14646102201E+04  0.14865288334E+04  0.46999998093E+01 0.  1.
       -5    1    3    3    0  502 -0.16176121067E+03  0.19620422177E+03  0.93926799965E+03  0.97309262205E+03  0.46999998093E+01 0. -1.
</event>
<event>
 5   0  0.6676612E-05  0.2308864E+04  0.7818609E-02  0.8474434E-01
       -2   -1    0    0    0  501  0.00000000000E+00  0.00000000000E+00  0.71765347052E+03  0.71765347052E+03  0.25500000920E-02 0. -1.
        2   -1    0    0  501    0  0.00000000000E+00  0.00000000000E+00 -0.18570432897E+04  0.18570432897E+04  0.25500000920E-02 0.  1.
    10030    2    1    2    0    0  0.00000000000E+00  0.00000000000E+00 -0.11393898191E+04  0.25746967602E+04  0.23088642764E+04 0.  0.
        2    1    3    3  502    0  0.92358268908E+03  0.76204437002E+02 -0.13373598498E+04  0.16270659076E+04  0.25500000920E-02 0.  1.
       -2    1    3    3    0  502 -0.92358268908E+03 -0.76204437002E+02  0.19797003063E+03  0.94763085261E+03  0.25500000920E-02 0. -1.
</event>
<event>
 5   0  0.3118614E-05  0.2278269E+04  0.7818609E-02  0.8486539E-01
       -1   -1    0    0    0  501  0.00000000000E+00  0.00000000000E+00  0.53098376384E+03  0.53098376386E+03  0.50400001928E-02 0. -1.
        1   -1    0    0  501    0  0.00000000000E+00  0.00000000000E+00 -0.24438177886E+04  0.24438177886E+04  0.50400001928E-02 0.  1.
    10030    2    1    2    0    0  0.00000000000E+00  0.00000000000E+00 -0.19128340248E+04  0.29748015525E+04  0.22782691391E+04 0.  0.
        3    1    3    3  502    0 -0.46327506981E+03  0.53459209088E+03  0.20942773449E+03  0.73774824982E+03  0.10100000352E+00 0. -1.
       -3    1    3    3    0  502  0.46327506981E+03 -0.53459209088E+03 -0.21222617593E+04  0.22370533027E+04  0.10100000352E+00 0.  1.
</event>
<event>
 5   0  0.2944089E-05  0.2253428E+04  0.7818609E-02  0.8496514E-01
        1   -1    0    0  501    0  0.00000000000E+00  0.00000000000E+00  0.11482964664E+04  0.11482964665E+04  0.50400001928E-02 0. -1.
       -1   -1    0    0    0  501  0.00000000000E+00  0.00000000000E+00 -0.11055371531E+04  0.11055371531E+04  0.50400001928E-02 0.  1.
    10030    2    1    2    0    0  0.00000000000E+00  0.00000000000E+00  0.42759313370E+02  0.22538336195E+04  0.22534279722E+04 0.  0.
        5    1    3    3  502    0  0.93913706368E+03 -0.29298230272E+03 -0.52794162684E+03  0.11164951883E+04  0.46999998093E+01 0.  1.
       -5    1    3    3    0  502 -0.93913706368E+03  0.29298230272E+03  0.57070094021E+03  0.11373384313E+04  0.46999998093E+01 0. -1.
</event>
<event>
 5   0  0.6495405E-05  0.2209457E+04  0.7818609E-02  0.8514502E-01
       -2   -1    0    0    0  501  0.00000000000E+00  0.00000000000E+00  0.55225200024E+03  0.55225200025E+03  0.25500000920E-02 0.  1.
        2   -1    0    0  501    0  0.00000000000E+00  0.00000000000E+00 -0.22099059604E+04  0.22099059604E+04  0.25500000920E-02 0. -1.
    10030    2    1    2    0    0  0.00000000000E+00  0.00000000000E+00 -0.16576539602E+04  0.27621579607E+04  0.22094569351E+04 0.  0.
        5    1    3    3  502    0  0.53889656717E+03 -0.76557829428E+03 -0.15619358753E+04  0.18210396490E+04  0.46999998093E+01 0. -1.
       -5    1    3    3    0  502 -0.53889656717E+03  0.76557829428E+03 -0.95718084909E+02  0.94111831167E+03  0.46999998093E+01 0.  1.
</event>
<event>
 5   0  0.6468758E-05  0.2283553E+04  0.7818609E-02  0.8484434E-01
        2   -1    0    0  501    0  0.00000000000E+00  0.00000000000E+00  0.14326073464E+04  0.14326073464E+04  0.25500000920E-02 0.  1.
       -2   -1    0    0    0  501  0.00000000000E+00  0.00000000000E+00 -0.90998646368E+03  0.90998646368E+03  0.25500000920E-02 0. -1.
    10030    2    1    2    0    0  0.00000000000E+00  0.00000000000E+00  0.52262088270E+03  0.23425938101E+04  0.22835527522E+04 0.  0.
        3    1    3    3  502    0 -0.74538142751E+03  0.44687832728E+03 -0.49834850481E+03  0.10018208195E+04  0.10100000352E+00 0. -1.
       -3    1    3    3    0  502  0.74538142751E+03 -0.44687832728E+03  0.10209693875E+04  0.13407729906E+04  0.10100000352E+00 0.  1.
</event>
<event>
 5   0  0.2944089E-05  0.2260375E+04  0.7818609E-02  0.8493710E-01
        1   -1    0    0  501    0  0.00000000000E+00  0.00000000000E+00  0.19460072309E+04  0.19460072309E+04  0.50400001928E-02 0. -1.
       -1   -1    0    0    0  501  0.00000000000E+00  0.00000000000E+00 -0.65638199144E+03  0.65638199146E+03  0.50400001928E-02 0.  1.
    10030    2    1    2    0    0  0.00000000000E+00  0.00000000000E+00  0.12896252395E+04  0.26023892224E+04  0.22603752800E+04 0.  0.
        5    1    3    3  502    0 -0.56814164631E+03  0.92038409151E+03  0.10221366601E+04  0.14881791720E+04  0.46999998093E+01 0. -1.
       -5    1    3    3    0  502  0.56814164631E+03 -0.92038409151E+03  0.26748857937E+03  0.11142100503E+04  0.46999998093E+01 0.  1.
</event>
<event>
 5   0  0.6676612E-05  0.2294028E+04  0.7818609E-02  0.8480279E-01
        2   -1    0    0  501    0  0.00000000000E+00  0.00000000000E+00  0.10603252632E+04  0.10603252632E+04  0.25500000920E-02 0.  1.
       -2   -1    0    0    0  501  0.00000000000E+00  0.00000000000E+00 -0.12407904474E+04  0.12407904474E+04  0.25500000920E-02 0. -1.
    10030    2    1    2    0    0  0.00000000000E+00  0.00000000000E+00 -0.18046518413E+03  0.23011157106E+04  0.22940282978E+04 0.  0.
        2    1    3    3  502    0 -0.87088081924E+03  0.54456026529E+03  0.42189561092E+03  0.11103941599E+04  0.25500000920E-02 0.  1.
       -2    1    3    3    0  502  0.87088081924E+03 -0.54456026529E+03 -0.60236079505E+03  0.11907215507E+04  0.25500000920E-02 0. -1.
</event>
<event>
 5   0  0.2962279E-05  0.2300551E+04  0.7818609E-02  0.8477704E-01
        1   -1    0    0  501    0  0.00000000000E+00  0.00000000000E+00  0.18647981106E+04  0.18647981107E+04  0.50400001928E-02 0. -1.
       -1   -1    0    0    0  501  0.00000000000E+00  0.00000000000E+00 -0.70953213815E+03  0.70953213817E+03  0.50400001928E-02 0.  1.
    10030    2    1    2    0    0  0.00000000000E+00  0.00000000000E+00  0.11552659725E+04  0.25743302488E+04  0.23005514041E+04 0.  0.
        1    1    3    3  502    0  0.80567416041E+03  0.14252031454E+02 -0.34092026105E+03  0.87495176872E+03  0.50400001928E-02 0.  1.
       -1    1    3    3    0  502 -0.80567416041E+03 -0.14252031454E+02  0.14961862335E+04  0.16993784801E+04  0.50400001928E-02 0. -1.
</event>
<event>
 5   0  0.6814789E-05  0.2318620E+04  0.7818609E-02  0.8470615E-01
       -2   -1    0    0    0  501  0.00000000000E+00  0.00000000000E+00  0.10353926495E+04  0.10353926495E+04  0.25500000920E-02 0. -1.
        2   -1    0    0  501    0  0.00000000000E+00  0.00000000000E+00 -0.12980584572E+04  0.12980584572E+04  0.25500000920E-02 0.  1.
    10030    2    1    2    0    0  0.00000000000E+00  0.00000000000E+00 -0.26266580765E+03  0.23334511067E+04  0.23186204392E+04 0.  0.
        1    1    3    3  502    0 -0.53189029320E+02  0.45597184463E+02 -0.12959261166E+04  0.12978184295E+04  0.50400001928E-02 0.  1.
       -1    1    3    3    0  502  0.53189029320E+02 -0.45597184463E+02  0.10332603090E+04  0.10356326773E+04  0.50400001928E-02 0. -1.
</event>
<event>
 5   0  0.3006265E-05  0.2344972E+04  0.7818609E-02  0.8460398E-01
        1   -1    0    0  501    0  0.00000000000E+00  0.00000000000E+00  0.16314469460E+04  0.16314469460E+04  0.50400001928E-02 0. -1.
       -1   -1    0    0    0  501  0.00000000000E+00  0.00000000000E+00 -0.84264023908E+03  0.84264023910E+03  0.50400001928E-02 0.  1.
    10030    2    1    2    0    0  0.00000000000E+00  0.00000000000E+00  0.78880670692E+03  0.24740871851E+04  0.23449715091E+04 0.  0.
        2    1    3    3  502    0 -0.10290016700E+04 -0.43985779243E+03  0.76352915330E+03  0.13547310000E+04  0.25500000920E-02 0. -1.
       -2    1    3    3    0  502  0.10290016700E+04  0.43985779243E+03  0.25277553619E+02  0.11193561851E+04  0.25500000920E-02 0.  1.
</event>
<event>
 5   0  0.3118614E-05  0.2295370E+04  0.7818609E-02  0.8479749E-01
       -1   -1    0    0    0  501  0.00000000000E+00  0.00000000000E+00  0.12467773008E+04  0.12467773008E+04  0.50400001928E-02 0. -1.
        1   -1    0    0  501    0  0.00000000000E+00  0.00000000000E+00 -0.10564681027E+04  0.10564681028E+04  0.50400001928E-02 0.  1.
    10030    2    1    2    0    0  0.00000000000E+00  0.00000000000E+00  0.19030919804E+03  0.23032454035E+04  0.22953696430E+04 0.  0.
        3    1    3    3  502    0  0.91282682799E+03  0.48068042060E+03  0.59974574965E+03  0.11933153226E+04  0.10100000352E+00 0. -1.
       -3    1    3    3    0  502 -0.91282682799E+03 -0.48068042060E+03 -0.40943655161E+03  0.11099300810E+04  0.10100000352E+00 0.  1.
</event>
<event>
 5   0  0.2944089E-05  0.2312079E+04  0.7818609E-02  0.8473174E-01
        1   -1    0    0  501    0  0.00000000000E+00  0.00000000000E+00  0.20354096493E+04  0.20354096493E+04  0.50400001928E-02 0.  1.
       -1   -1    0    0    0  501  0.00000000000E+00  0.00000000000E+00 -0.65658882293E+03  0.65658882295E+03  0.50400001928E-02 0. -1.
    10030    2    1    2    0    0  0.00000000000E+00  0.00000000000E+00  0.13788208263E+04  0.26919984722E+04  0.23120789137E+04 0.  0.
        5    1    3    3  502    0 -0.78878887867E+03  0.58061844642E+03 -0.25579823762E+02  0.97978675885E+03  0.46999998093E+01 0. -1.
       -5    1    3    3    0  502  0.78878887867E+03 -0.58061844642E+03  0.14044006501E+04  0.17122117134E+04  0.46999998093E+01 0.  1.
</event>
<event>
 5   0  0.3006265E-05  0.2329567E+04  0.7818609E-02  0.8466354E-01
        1   -1    0    0  501    0  0.00000000000E+00  0.00000000000E+00  0.12029244773E+04  0.12029244773E+04  0.50400001928E-02 0. -1.
       -1   -1    0    0    0  501  0.00000000000E+00  0.00000000000E+00 -0.11278514162E+04  0.11278514162E+04  0.50400001928E-02 0.  1.
    10030    2    1    2    0    0  0.00000000000E+00  0.00000000000E+00  0.75073061143E+02  0.23307758935E+04  0.23295665480E+04 0.  0.
        2    1    3    3  502    0 -0.73724599085E+03  0.16928923037E+03 -0.84866002570E+03  0.11368440235E+04  0.25500000920E-02 0.  1.
       -2    1    3    3    0  502  0.73724599085E+03 -0.16928923037E+03  0.92373308685E+03  0.11939318700E+04  0.25500000920E-02 0. -1.
</event>
<event>
 5   0  0.6702421E-05  0.2303702E+04  0.7818609E-02  0.8476463E-01
       -2   -1    0    0    0  501  0.00000000000E+00  0.00000000000E+00  0.11418350358E+04  0.11418350358E+04  0.25500000920E-02 0.  1.
        2   -1    0    0  501    0  0.00000000000E+00  0.00000000000E+00 -0.11619552581E+04  0.11619552581E+04  0.25500000920E-02 0. -1.
    10030    2    1    2    0    0  0.00000000000E+00  0.00000000000E+00 -0.20120222292E+02  0.23037902939E+04  0.23037024319E+04 0.  0.
        4    1    3    3  502    0 -0.31034809021E+03 -0.10953959927E+03  0.10938138370E+04  0.11422544304E+04  0.12699999809E+01 0.  1.
       -4    1    3    3    0  502  0.31034809021E+03  0.10953959927E+03 -0.11139340592E+04  0.11615358635E+04  0.12699999809E+01 0. -1.
</event>
<event>
 5   0  0.2982385E-05  0.2301134E+04  0.7818609E-02  0.8477474E-01
       -1   -1    0    0    0  501  0.00000000000E+00  0.00000000000E+00  0.63581092059E+03  0.63581092061E+03  0.50400001928E-02 0. -1.
        1   -1    0    0  501    0  0.00000000000E+00  0.00000000000E+00 -0.20820718584E+04  0.20820718584E+04  0.50400001928E-02 0.  1.
    10030    2    1    2    0    0  0.00000000000E+00  0.00000000000E+00 -0.14462609378E+04  0.27178827790E+04  0.23011336555E+04 0.  0.
        4    1    3    3  502    0  0.61632406626E+03  0.88405280665E+03 -0.24716131893E+03  0.11056649809E+04  0.12699999809E+01 0. -1.
       -4    1    3    3    0  502 -0.61632406626E+03 -0.88405280665E+03 -0.11990996189E+04  0.16122177981E+04  0.12699999809E+01 0.  1.
</event>
<event>
 5   0  0.2944089E-05  0.2314998E+04  0.7818609E-02  0.8472031E-01
        1   -1    0    0  501    0  0.00000000000E+00  0.00000000000E+00  0.21124433092E+04  0.21124433092E+04  0.50400001928E-02 0.  1.
       -1   -1    0    0    0  501  0.00000000000E+00  0.00000000000E+00 -0.63424363907E+03  0.63424363909E+03  0.50400001928E-02 0. -1.
    10030    2    1    2    0    0  0.00000000000E+00  0.00000000000E+00  0.14781996701E+04  0.27466869483E+04  0.23149978244E+04 0.  0.
        5    1    3    3  502    0  0.67593591835E+03 -0.79894961103E+03  0.15233812960E+03  0.10575626896E+04  0.46999998093E+01 0. -1.
       -5    1    3    3    0  502 -0.67593591835E+03  0.79894961103E+03  0.13258615405E+04  0.16891242587E+04  0.46999998093E+01 0.  1.
</event>
<event>
 5   0  0.2342500E-05  0.2264621E+04  0.7818609E-02  0.8492003E-01
       -4   -1    0    0    0  501  0.00000000000E+00  0.00000000000E+00  0.99533511250E+03  0.99533592272E+03  0.12699999809E+01 0.  1.
        4   -1    0    0  501    0  0.00000000000E+00  0.00000000000E+00 -0.12881344727E+04  0.12881350987E+04  0.12699999809E+01 0. -1.
    10030    2    1    2    0    0  0.00000000000E+00  0.00000000000E+00 -0.29279936018E+03  0.22834710215E+04  0.22646210368E+04 0.  0.
        4    1    3    3  502    0  0.69857112288E+03  0.38067319645E+03 -0.95884318307E+03  0.12459115373E+04  0.12699999809E+01 0. -1.
       -4    1    3    3    0  502 -0.69857112288E+03 -0.38067319645E+03  0.66604382289E+03  0.10375594841E+04  0.12699999809E+01 0.  1.
</event>
<event>
 5   0  0.6814789E-05  0.2301137E+04  0.7818609E-02  0.8477473E-01
        2   -1    0    0  501    0  0.00000000000E+00  0.00000000000E+00  0.22130123591E+04  0.22130123591E+04  0.25500000920E-02 0.  1.
       -2   -1    0    0    0  501  0.00000000000E+00  0.00000000000E+00 -0.59819260569E+03  0.59819260570E+03  0.25500000920E-02 0. -1.
    10030    2    1    2    0    0  0.00000000000E+00  0.00000000000E+00  0.16148197534E+04  0.28112049648E+04  0.23011367882E+04 0.  0.
        1    1    3    3  502    0  0.91167300760E+02  0.55118676342E+03 -0.42136876789E+03  0.69976421992E+03  0.50400001928E-02 0. -1.
       -1    1    3    3    0  502 -0.91167300760E+02 -0.55118676342E+03  0.20361885213E+04  0.21114407449E+04  0.50400001928E-02 0.  1.
</event>
<event>
 5   0  0.6468758E-05  0.2303187E+04  0.7818609E-02  0.8476666E-01
       -2   -1    0    0    0  501  0.00000000000E+00  0.00000000000E+00  0.74066955124E+03  0.74066955124E+03  0.25500000920E-02 0. -1.
        2   -1    0    0  501    0  0.00000000000E+00  0.00000000000E+00 -0.17904979084E+04  0.17904979084E+04  0.25500000920E-02 0.  1.
    10030    2    1    2    0    0  0.00000000000E+00  0.00000000000E+00 -0.10498283572E+04  0.25311674597E+04  0.23031867335E+04 0.  0.
        3    1    3    3  502    0 -0.17428137998E+03  0.53337133201E+03  0.58026708350E+03  0.80719816378E+03  0.10100000352E+00 0. -1.
       -3    1    3    3    0  502  0.17428137998E+03 -0.53337133201E+03 -0.16300954407E+04  0.17239692959E+04  0.10100000352E+00 0.  1.
</event>
<event>
 5   0  0.6468758E-05  0.2307705E+04  0.7818609E-02  0.8474889E-01
       -2   -1    0    0    0  501  0.00000000000E+00  0.00000000000E+00  0.10809989869E+04  0.10809989869E+04  0.25500000920E-02 0. -1.
        2   -1    0    0  501    0  0.00000000000E+00  0.00000000000E+00 -0.12316158193E+04  0.12316158193E+04  0.25500000920E-02 0.  1.
    10030    2    1    2    0    0  0.00000000000E+00  0.00000000000E+00 -0.15061683241E+03  0.23126148062E+04  0.23077048797E+04 0.  0.
        3    1    3    3  502    0  0.70765795548E+03  0.11792273064E+03  0.83032329929E+03  0.10973250858E+04  0.10100000352E+00 0. -1.
       -3    1    3    3    0  502 -0.70765795548E+03 -0.11792273064E+03 -0.98094013170E+03  0.12152897204E+04  0.10100000352E+00 0.  1.
</event>
<event>
 5   0  0.2982385E-05  0.2285209E+04  0.7818609E-02  0.8483776E-01
        1   -1    0    0  501    0  0.00000000000E+00  0.00000000000E+00  0.92711978833E+03  0.92711978834E+03  0.50400001928E-02 0.  1.
       -1   -1    0    0    0  501  0.00000000000E+00  0.00000000000E+00 -0.14081732380E+04  0.14081732381E+04  0.50400001928E-02 0. -1.
    10030    2    1    2    0    0  0.00000000000E+00  0.00000000000E+00 -0.48105344971E+03  0.23352930264E+04  0.22852092022E+04 0.  0.
        4    1    3    3  502    0  0.17059048032E+03  0.58673034373E+02 -0.13935275663E+04  0.14051563357E+04  0.12699999809E+01 0. -1.
       -4    1    3    3    0  502 -0.17059048032E+03 -0.58673034373E+02  0.91247411659E+03  0.93013669065E+03  0.12699999809E+01 0.  1.
</event>
<event>
 5   0  0.6814789E-05  0.2238603E+04  0.7818609E-02  0.8502530E-01
       -2   -1    0    0    0  501  0.00000000000E+00  0.00000000000E+00  0.87060271003E+03  0.87060271003E+03  0.25500000920E-02 0. -1.
        2   -1    0    0  501    0  0.00000000000E+00  0.00000000000E+00 -0.14390438682E+04  0.14390438682E+04  0.25500000920E-02 0.  1.
    10030    2    1    2    0    0  0.00000000000E+00  0.00000000000E+00 -0.56844115813E+03  0.23096465782E+04  0.22386026816E+04 0.  0.
        1    1    3    3  502    0 -0.92620904958E+03  0.51324890138E+03 -0.65842627354E+03  0.12469213271E+04  0.50400001928E-02 0.  1.
       -1    1    3    3    0  502  0.92620904958E+03 -0.51324890138E+03  0.89985115407E+02  0.10627252511E+04  0.50400001928E-02 0. -1.
</event>
<event>
 5   0  0.3006265E-05  0.2282903E+04  0.7818609E-02  0.8484693E-01
        1   -1    0    0  501    0  0.00000000000E+00  0.00000000000E+00  0.14255193434E+04  0.14255193435E+04  0.50400001928E-02 0.  1.
       -1   -1    0    0    0  501  0.00000000000E+00  0.00000000000E+00 -0.91399073847E+03  0.91399073849E+03  0.50400001928E-02 0. -1.
    10030    2    1    2    0    0  0.00000000000E+00  0.00000000000E+00  0.51152860497E+03  0.23395100819E+04  0.22829029567E+04 0.  0.
        2    1    3    3  502    0 -0.93155619969E+03 -0.56626264086E+03 -0.90945814951E+02  0.10939476555E+04  0.25500000920E-02 0.  1.
       -2    1    3    3    0  502  0.93155619969E+03  0.56626264086E+03  0.60247441992E+03  0.12455624265E+04  0.25500000920E-02 0. -1.
</event>
<event>
 5   0  0.2962279E-05  0.2275496E+04  0.7818609E-02  0.8487646E-01
       -1   -1    0    0    0  501  0.00000000000E+00  0.00000000000E+00  0.74609628240E+03  0.74609628241E+03  0.50400001928E-02 0.  1.
        1   -1    0    0  501    0  0.00000000000E+00  0.00000000000E+00 -0.17349906088E+04  0.17349906089E+04  0.50400001928E-02 0. -1.
    10030    2    1    2    0    0  0.00000000000E+00  0.00000000000E+00 -0.98889432645E+03  0.24810868913E+04  0.22754955885E+04 0.  0.
        1    1    3    3  502    0 -0.11020570202E+04 -0.28051425064E+03 -0.45586474732E+03  0.12251655351E+04  0.50400001928E-02 0. -1.
       -1    1    3    3    0  502  0.11020570202E+04  0.28051425064E+03 -0.53302957912E+03  0.12559213561E+04  0.50400001928E-02 0.  1.
</event>
<event>
 5   0  0.2944089E-05  0.1900126E+04  0.7818609E-02  0.8654794E-01
       -1   -1    0    0    0  501  0.00000000000E+00  0.00000000000E+00  0.87094675543E+03  0.87094675545E+03  0.50400001928E-02 0. -1.
        1   -1    0    0  501    0  0.00000000000E+00  0.00000000000E+00 -0.10363663816E+04  0.10363663816E+04  0.50400001928E-02 0.  1.
    10030    2    1    2    0    0  0.00000000000E+00  0.00000000000E+00 -0.16541962614E+03  0.19073131370E+04  0.19001262458E+04 0.  0.
        5    1    3    3  502    0  0.26783559133E+03 -0.66297796722E+03 -0.71063335168E+03  0.10081158364E+04  0.46999998093E+01 0.  1.
       -5    1    3    3    0  502 -0.26783559133E+03  0.66297796722E+03  0.54521372555E+03  0.89919730067E+03  0.46999998093E+01 0. -1.
</event>
<event>
 5   0  0.6676612E-05  0.2276771E+04  0.7818609E-02  0.8487137E-01
       -2   -1    0    0    0  501  0.00000000000E+00  0.00000000000E+00  0.11584570488E+04  0.11584570488E+04  0.25500000920E-02 0. -1.
        2   -1    0    0  501    0  0.00000000000E+00  0.00000000000E+00 -0.11186614004E+04  0.11186614004E+04  0.25500000920E-02 0.  1.
    10030    2    1    2    0    0  0.00000000000E+00  0.00000000000E+00  0.39795648422E+02  0.22771184492E+04  0.22767706820E+04 0.  0.
        2    1    3    3  502    0  0.49379101553E+03  0.13259780626E+03 -0.99736590634E+03  0.11207811992E+04  0.25500000920E-02 0.  1.
       -2    1    3    3    0  502 -0.49379101553E+03 -0.13259780626E+03  0.10371615548E+04  0.11563372501E+04  0.25500000920E-02 0. -1.
</event>
<event>
 5   0  0.6814789E-05  0.2303732E+04  0.7818609E-02  0.8476451E-01
        2   -1    0    0  501    0  0.00000000000E+00  0.00000000000E+00  0.15652413852E+04  0.15652413852E+04  0.25500000920E-02 0. -1.
       -2   -1    0    0    0  501  0.00000000000E+00  0.00000000000E+00 -0.84766174281E+03  0.84766174282E+03  0.25500000920E-02 0.  1.
    10030    2    1    2    0    0  0.00000000000E+00  0.00000000000E+00  0.71757964236E+03  0.24129031280E+04  0.23037319640E+04 0.  0.
        1    1    3    3  502    0  0.62038359842E+03 -0.12817342889E+03 -0.64882382137E+03  0.90679467812E+03  0.50400001928E-02 0. -1.
       -1    1    3    3    0  502 -0.62038359842E+03  0.12817342889E+03  0.13664034637E+04  0.15061084499E+04  0.50400001928E-02 0.  1.
</event>
<event>
 5   0  0.6468758E-05  0.2351786E+04  0.7818609E-02  0.8457778E-01
        2   -1    0    0  501    0  0.00000000000E+00  0.00000000000E+00  0.15404025728E+04  0.15404025728E+04  0.25500000920E-02 0. -1.
       -2   -1    0    0    0  501  0.00000000000E+00  0.00000000000E+00 -0.89763813275E+03  0.89763813275E+03  0.25500000920E-02 0.  1.
    10030    2    1    2    0    0  0.00000000000E+00  0.00000000000E+00  0.64276444010E+03  0.24380407056E+04  0.23517857804E+04 0.  0.
        3    1    3    3  502    0 -0.19412703936E+03  0.41440814616E+03 -0.80153719290E+03  0.92297416043E+03  0.10100000352E+00 0.  1.
       -3    1    3    3    0  502  0.19412703936E+03 -0.41440814616E+03  0.14443016330E+04  0.15150665452E+04  0.10100000352E+00 0. -1.
</event>
<event>
 5   0  0.2342500E-05  0.2304956E+04  0.7818609E-02  0.8475970E-01
       -3   -1    0    0    0  501  0.00000000000E+00  0.00000000000E+00  0.12463208084E+04  0.12463208125E+04  0.10100000352E+00 0.  1.
        3   -1    0    0  501    0  0.00000000000E+00  0.00000000000E+00 -0.10657011961E+04  0.10657012009E+04  0.10100000352E+00 0. -1.
    10030    2    1    2    0    0  0.00000000000E+00  0.00000000000E+00  0.18061961227E+03  0.23120220133E+04  0.23049560399E+04 0.  0.
        3    1    3    3  502    0  0.99704117969E+03 -0.57645951791E+03  0.13297119339E+03  0.11593437964E+04  0.10100000352E+00 0. -1.
       -3    1    3    3    0  502 -0.99704117969E+03  0.57645951791E+03  0.47648418887E+02  0.11526782169E+04  0.10100000352E+00 0.  1.
</event>
<event>
 5   0  0.2342500E-05  0.2305875E+04  0.7818609E-02  0.8475608E-01
       -4   -1    0    0    0  501  0.00000000000E+00  0.00000000000E+00  0.17985036705E+04  0.17985041189E+04  0.12699999809E+01 0. -1.
        4   -1    0    0  501    0  0.00000000000E+00  0.00000000000E+00 -0.73909412391E+03  0.73909521504E+03  0.12699999809E+01 0.  1.
    10030    2    1    2    0    0  0.00000000000E+00  0.00000000000E+00  0.10594095465E+04  0.25375993339E+04  0.23058754936E+04 0.  0.
        2    1    3    3  502    0 -0.79002286451E+03  0.64509993938E+03 -0.61880871495E+02  0.10218215600E+04  0.25500000920E-02 0.  1.
       -2    1    3    3    0  502  0.79002286451E+03 -0.64509993938E+03  0.11212904180E+04  0.15157777739E+04  0.25500000920E-02 0. -1.
</event>
<event>
 5   0  0.6702421E-05  0.2534255E+04  0.7818609E-02  0.8390883E-01
       -2   -1    0    0    0  501  0.00000000000E+00  0.00000000000E+00  0.14981632116E+04  0.14981632116E+04  0.25500000920E-02 0. -1.
        2   -1    0    0  501    0  0.00000000000E+00  0.00000000000E+00 -0.10717203250E+04  0.10717203250E+04  0.25500000920E-02 0.  1.
    10030    2    1    2    0    0  0.00000000000E+00  0.00000000000E+00  0.42644288660E+03  0.25698835366E+04  0.25342548917E+04 0.  0.
        4    1    3    3  502    0 -0.17686080171E+03  0.39290239193E+03 -0.99515137321E+03  0.10844260700E+04  0.12699999809E+01 0.  1.
       -4    1    3    3    0  502  0.17686080171E+03 -0.39290239193E+03  0.14215942598E+04  0.14854574666E+04  0.12699999809E+01 0. -1.
</event>
<event>
 5   0  0.6814789E-05  0.2250909E+04  0.7818609E-02  0.8497532E-01
        2   -1    0    0  501    0  0.00000000000E+00  0.00000000000E+00  0.14077650128E+04  0.14077650128E+04  0.25500000920E-02 0.  1.
       -2   -1    0    0    0  501  0.00000000000E+00  0.00000000000E+00 -0.89975835713E+03  0.89975835713E+03  0.25500000920E-02 0. -1.
    10030    2    1    2    0    0  0.00000000000E+00  0.00000000000E+00  0.50800665565E+03  0.23075233699E+04  0.22509094474E+04 0.  0.
        1    1    3    3  502    0  0.85601943681E+03 -0.26914083285E+03  0.95038410149E+03  0.13070715376E+04  0.50400001928E-02 0.  1.
       -1    1    3    3    0  502 -0.85601943681E+03  0.26914083285E+03 -0.44237744584E+03  0.10004518323E+04  0.50400001928E-02 0. -1.
</event>
<event>
 5   0  0.2962279E-05  0.2172212E+04  0.7818609E-02  0.8530084E-01
       -1   -1    0    0    0  501  0.00000000000E+00  0.00000000000E+00  0.12517631913E+04  0.12517631913E+04  0.50400001928E-02 0.  1.
        1   -1    0    0  501    0  0.00000000000E+00  0.00000000000E+00 -0.94237150585E+03  0.94237150586E+03  0.50400001928E-02 0. -1.
    10030    2    1    2    0    0  0.00000000000E+00  0.00000000000E+00  0.30939168545E+03  0.21941346972E+04  0.21722117425E+04 0.  0.
        1    1    3    3  502    0  0.97451718225E+03  0.21077077598E+03  0.58976073974E+03  0.11584152056E+04  0.50400001928E-02 0.  1.
       -1    1    3    3    0  502 -0.97451718225E+03 -0.21077077598E+03 -0.28036905430E+03  0.10357194915E+04  0.50400001928E-02 0. -1.
</event>
<event>
 5   0  0.2944089E-05  0.2312285E+04  0.7818609E-02  0.8473093E-01
        1   -1    0    0  501    0  0.00000000000E+00  0.00000000000E+00  0.13393161592E+04  0.13393161592E+04  0.50400001928E-02 0.  1.
       -1   -1    0    0    0  501  0.00000000000E+00  0.00000000000E+00 -0.99802069222E+03  0.99802069224E+03  0.50400001928E-02 0. -1.
    10030    2    1    2    0    0  0.00000000000E+00  0.00000000000E+00  0.34129546701E+03  0.23373368515E+04  0.23122847925E+04 0.  0.
        5    1    3    3  502    0 -0.58252449717E+03  0.57708743840E+03  0.99451085875E+03  0.12889680522E+04  0.46999998093E+01 0.  1.
       -5    1    3    3    0  502  0.58252449717E+03 -0.57708743840E+03 -0.65321539173E+03  0.10483687993E+04  0.46999998093E+01 0. -1.
</event>
<event>
 5   0  0.6495405E-05  0.2299382E+04  0.7818609E-02  0.8478165E-01
       -2   -1    0    0    0  501  0.00000000000E+00  0.00000000000E+00  0.10349906739E+04  0.10349906739E+04  0.25500000920E-02 0. -1.
        2   -1    0    0  501    0  0.00000000000E+00  0.00000000000E+00 -0.12771031036E+04  0.12771031036E+04  0.25500000920E-02 0.  1.
    10030    2    1    2    0    0  0.00000000000E+00  0.00000000000E+00 -0.24211242966E+03  0.23120937775E+04  0.22993823534E+04 0.  0.
        5    1    3    3  502    0 -0.96147633504E+03 -0.78081167345E+02  0.50788884822E+03  0.10901864903E+04  0.46999998093E+01 0. -1.
       -5    1    3    3    0  502  0.96147633504E+03  0.78081167345E+02 -0.75000127788E+03  0.12219072871E+04  0.46999998093E+01 0.  1.
</event>
<event>
 5   0  0.6495405E-05  0.2201942E+04  0.7818609E-02  0.8517620E-01
       -2   -1    0    0    0  501  0.00000000000E+00  0.00000000000E+00  0.76856692787E+03  0.76856692787E+03  0.25500000920E-02 0.  1.
        2   -1    0    0  501    0  0.00000000000E+00  0.00000000000E+00 -0.15771400166E+04  0.15771400166E+04  0.25500000920E-02 0. -1.
    10030    2    1    2    0    0  0.00000000000E+00  0.00000000000E+00 -0.80857308872E+03  0.23457069445E+04  0.22019424673E+04 0.  0.
        5    1    3    3  502    0 -0.58222730817E+03 -0.27687952029E+03  0.54642997772E+03  0.84513828318E+03  0.46999998093E+01 0.  1.
       -5    1    3    3    0  502  0.58222730817E+03  0.27687952029E+03 -0.13550030664E+04  0.15005686613E+04  0.46999998093E+01 0. -1.
</event>
<event>
 5   0  0.6495405E-05  0.2313590E+04  0.7818609E-02  0.8472582E-01
        2   -1    0    0  501    0  0.00000000000E+00  0.00000000000E+00  0.13686862722E+04  0.13686862722E+04  0.25500000920E-02 0. -1.
       -2   -1    0    0    0  501  0.00000000000E+00  0.00000000000E+00 -0.97770750699E+03  0.97770750700E+03  0.25500000920E-02 0.  1.
    10030    2    1    2    0    0  0.00000000000E+00  0.00000000000E+00  0.39097876525E+03  0.23463937792E+04  0.23135901479E+04 0.  0.
        5    1    3    3  502    0  0.30234654471E+03 -0.21969753392E+03 -0.91478028512E+03  0.98819304771E+03  0.46999998093E+01 0.  1.
       -5    1    3    3    0  502 -0.30234654471E+03  0.21969753392E+03  0.13057590504E+04  0.13582007315E+04  0.46999998093E+01 0. -1.
</event>
<event>
 5   0  0.6702421E-05  0.2316454E+04  0.7818609E-02  0.8471462E-01
       -2   -1    0    0    0  501  0.00000000000E+00  0.00000000000E+00  0.80545546755E+03  0.80545546755E+03  0.25500000920E-02 0. -1.
        2   -1    0    0  501    0  0.00000000000E+00  0.00000000000E+00 -0.16655047790E+04  0.16655047790E+04  0.25500000920E-02 0.  1.
    10030    2    1    2    0    0  0.00000000000E+00  0.00000000000E+00 -0.86004931142E+03  0.24709602465E+04  0.23164541269E+04 0.  0.
        4    1    3    3  502    0  0.11191835211E+04 -0.98023655149E+02 -0.12962436237E+03  0.11309219598E+04  0.12699999809E+01 0. -1.
       -4    1    3    3    0  502 -0.11191835211E+04  0.98023655149E+02 -0.73042494905E+03  0.13400382868E+04  0.12699999809E+01 0.  1.
</event>
<event>
 5   0  0.6702421E-05  0.2227426E+04  0.7818609E-02  0.8507099E-01
        2   -1    0    0  501    0  0.00000000000E+00  0.00000000000E+00  0.14571628578E+04  0.14571628578E+04  0.25500000920E-02 0.  1.
       -2   -1    0    0    0  501  0.00000000000E+00  0.00000000000E+00 -0.85121348504E+03  0.85121348504E+03  0.25500000920E-02 0. -1.
    10030    2    1    2    0    0  0.00000000000E+00  0.00000000000E+00  0.60594937280E+03  0.23083763429E+04  0.22274260253E+04 0.  0.
        4    1    3    3  502    0 -0.30301189260E+02  0.28174710255E+03  0.14191764472E+04  0.14471914154E+04  0.12699999809E+01 0.  1.
       -4    1    3    3    0  502  0.30301189260E+02 -0.28174710255E+03 -0.81322707436E+03  0.86118492743E+03  0.12699999809E+01 0. -1.
</event>
<event>
 5   0  0.2944089E-05  0.2292064E+04  0.7818609E-02  0.8481057E-01
       -1   -1    0    0    0  501  0.00000000000E+00  0.00000000000E+00  0.83421494566E+03  0.83421494568E+03  0.50400001928E-02 0. -1.
        1   -1    0    0  501    0  0.00000000000E+00  0.00000000000E+00 -0.15744020751E+04  0.15744020751E+04  0.50400001928E-02 0.  1.
    10030    2    1    2    0    0  0.00000000000E+00  0.00000000000E+00 -0.74018712944E+03  0.24086170208E+04  0.22920643460E+04 0.  0.
        5    1    3    3  502    0 -0.88429517976E+03  0.67055994375E+03 -0.69654961461E+02  0.11119813428E+04  0.46999998093E+01 0. -1.
       -5    1    3    3    0  502  0.88429517976E+03 -0.67055994375E+03 -0.67053216798E+03  0.12966356780E+04  0.46999998093E+01 0.  1.
</event>
<event>
 5   0  0.6468758E-05  0.2145037E+04  0.7818609E-02  0.8541660E-01
        2   -1    0    0  501    0  0.00000000000E+00  0.00000000000E+00  0.14950350129E+04  0.14950350129E+04  0.25500000920E-02 0. -1.
       -2   -1    0    0    0  501  0.00000000000E+00  0.00000000000E+00 -0.76941070984E+03  0.76941070984E+03  0.25500000920E-02 0.  1.
    10030    2    1    2    0    0  0.00000000000E+00  0.00000000000E+00  0.72562430303E+03  0.22644457227E+04  0.21450370165E+04 0.  0.
        3    1    3    3  502    0 -0.29733168767E+03 -0.10598960654E+02 -0.72497488054E+03  0.78364983129E+03  0.10100000352E+00 0.  1.
       -3    1    3    3    0  502  0.29733168767E+03  0.10598960654E+02  0.14505991836E+04  0.14807958914E+04  0.10100000352E+00 0. -1.
</event>
<event>
 5   0  0.6676612E-05  0.2285830E+04  0.7818609E-02  0.8483529E-01
       -2   -1    0    0    0  501  0.00000000000E+00  0.00000000000E+00  0.12612899578E+04  0.12612899578E+04  0.25500000920E-02 0. -1.
        2   -1    0    0  501    0  0.00000000000E+00  0.00000000000E+00 -0.10356493997E+04  0.10356493997E+04  0.25500000920E-02 0.  1.
    10030    2    1    2    0    0  0.00000000000E+00  0.00000000000E+00  0.22564055804E+03  0.22969393575E+04  0.22858295541E+04 0.  0.
        2    1    3    3  502    0 -0.16227835290E+03  0.28650893972E+03  0.12125950211E+04  0.12565063954E+04  0.25500000920E-02 0. -1.
       -2    1    3    3    0  502  0.16227835290E+03 -0.28650893972E+03 -0.98695446311E+03  0.10404329621E+04  0.25500000920E-02 0.  1.
</event>
<event>
 5   0  0.3118614E-05  0.2313459E+04  0.7818609E-02  0.8472633E-01
       -1   -1    0    0    0  501  0.00000000000E+00  0.00000000000E+00  0.27024681066E+04  0.27024681066E+04  0.50400001928E-02 0. -1.
        1   -1    0    0  501    0  0.00000000000E+00  0.00000000000E+00 -0.49511138779E+03  0.49511138782E+03  0.50400001928E-02 0.  1.
    10030    2    1    2    0    0  0.00000000000E+00  0.00000000000E+00  0.22073567188E+04  0.31975794944E+04  0.23134586530E+04 0.  0.
        3    1    3    3  502    0  0.85164984253E+03  0.54853382763E+03  0.33185892922E+03  0.10659864790E+04  0.10100000352E+00 0.  1.
       -3    1    3    3    0  502 -0.85164984253E+03 -0.54853382763E+03  0.18754977896E+04  0.21315930154E+04  0.10100000352E+00 0. -1.
</event>
<event>
 5   0  0.6495405E-05  0.2283416E+04  0.7818609E-02  0.8484489E-01
       -2   -1    0    0    0  501  0.00000000000E+00  0.00000000000E+00  0.61992619382E+03  0.61992619383E+03  0.25500000920E-02 0. -1.
        2   -1    0    0  501    0  0.00000000000E+00  0.00000000000E+00 -0.21026658655E+04  0.21026658655E+04  0.25500000920E-02 0.  1.
    10030    2    1    2    0    0  0.00000000000E+00  0.00000000000E+00 -0.14827396717E+04  0.27225920593E+04  0.22834164289E+04 0.  0.
        5    1    3    3  502    0 -0.78676032332E+03 -0.67491522536E+02  0.24180130272E+03  0.82585523669E+03  0.46999998093E+01 0. -1.
       -5    1    3    3    0  502  0.78676032332E+03  0.67491522536E+02 -0.17245409744E+04  0.18967368226E+04  0.46999998093E+01 0.  1.
</event>
<event>
 5   0  0.6676612E-05  0.2346978E+04  0.7818609E-02  0.8459625E-01
        2   -1    0    0  501    0  0.00000000000E+00  0.00000000000E+00  0.86635762672E+03  0.86635762672E+03  0.25500000920E-02 0. -1.
       -2   -1    0    0    0  501  0.00000000000E+00  0.00000000000E+00 -0.15895015691E+04  0.15895015691E+04  0.25500000920E-02 0.  1.
    10030    2    1    2    0    0  0.00000000000E+00  0.00000000000E+00 -0.72314394242E+03  0.24558591959E+04  0.23469783187E+04 0.  0.
        2    1    3    3  502    0 -0.40937661925E+03  0.34641600752E+03 -0.14537783848E+04  0.15495369821E+04  0.25500000920E-02 0.  1.
       -2    1    3    3    0  502  0.40937661925E+03 -0.34641600752E+03  0.73063444243E+03  0.90632221375E+03  0.25500000920E-02 0. -1.
</event>
<event>
 5   0  0.2962279E-05  0.2282627E+04  0.7818609E-02  0.8484803E-01
        1   -1    0    0  501    0  0.00000000000E+00  0.00000000000E+00  0.13596539969E+04  0.13596539969E+04  0.50400001928E-02 0.  1.
       -1   -1    0    0    0  501  0.00000000000E+00  0.00000000000E+00 -0.95803501763E+03  0.95803501764E+03  0.50400001928E-02 0. -1.
    10030    2    1    2    0    0  0.00000000000E+00  0.00000000000E+00  0.40161897927E+03  0.23176890145E+04  0.22826266807E+04 0.  0.
        1    1    3    3  502    0 -0.14559359419E+03 -0.91640602153E+02 -0.94479467850E+03  0.96032935974E+03  0.50400001928E-02 0. -1.
       -1    1    3    3    0  502  0.14559359419E+03  0.91640602153E+02  0.13464136578E+04  0.13573596548E+04  0.50400001928E-02 0.  1.
</event>
<event>
 5   0  0.6495405E-05  0.2215115E+04  0.7818609E-02  0.8512163E-01
        2   -1    0    0  501    0  0.00000000000E+00  0.00000000000E+00  0.19807416868E+04  0.19807416868E+04  0.25500000920E-02 0.  1.
       -2   -1    0    0    0  501  0.00000000000E+00  0.00000000000E+00 -0.61930499910E+03  0.61930499911E+03  0.25500000920E-02 0. -1.
    10030    2    1    2    0    0  0.00000000000E+00  0.00000000000E+00  0.13614366877E+04  0.26000466859E+04  0.22151146504E+04 0.  0.
        5    1    3    3  502    0 -0.56050331913E+03  0.15264534818E+03 -0.42611905481E+03  0.72046104124E+03  0.46999998093E+01 0. -1.
       -5    1    3    3    0  502  0.56050331913E+03 -0.15264534818E+03  0.17875557425E+04  0.18795856447E+04  0.46999998093E+01 0.  1.
</event>
<event>
 5   0  0.6495405E-05  0.2131611E+04  0.7818609E-02  0.8547445E-01
       -2   -1    0    0    0  501  0.00000000000E+00  0.00000000000E+00  0.41662608671E+03  0.41662608672E+03  0.25500000920E-02 0.  1.
        2   -1    0    0  501    0  0.00000000000E+00  0.00000000000E+00 -0.27265241281E+04  0.27265241281E+04  0.25500000920E-02 0. -1.
    10030    2    1    2    0    0  0.00000000000E+00  0.00000000000E+00 -0.23098980414E+04  0.31431502148E+04  0.21316107317E+04 0.  0.
        5    1    3    3  502    0  0.73815486254E+03  0.67311060020E+03 -0.17026546703E+04  0.19740834575E+04  0.46999998093E+01 0. -1.
       -5    1    3    3    0  502 -0.73815486254E+03 -0.67311060020E+03 -0.60724337112E+03  0.11690667573E+04  0.46999998093E+01 0.  1.
</event>
<event>
 5   0  0.6468758E-05  0.2296819E+04  0.7818609E-02  0.8479176E-01
       -2   -1    0    0    0  501  0.00000000000E+00  0.00000000000E+00  0.50541753398E+03  0.50541753399E+03  0.25500000920E-02 0. -1.
        2   -1    0    0  501    0  0.00000000000E+00  0.00000000000E+00 -0.26094161224E+04  0.26094161224E+04  0.25500000920E-02 0.  1.
    10030    2    1    2    0    0  0.00000000000E+00  0.00000000000E+00 -0.21039985884E+04  0.31148336563E+04  0.22968192456E+04 0.  0.
        3    1    3    3  502    0  0.28898189317E+03 -0.60847085231E+03  0.20936498554E+03  0.70539423025E+03  0.10100000352E+00 0. -1.
       -3    1    3    3    0  502 -0.28898189317E+03  0.60847085231E+03 -0.23133635739E+04  0.24094394261E+04  0.10100000352E+00 0.  1.
</event>
<event>
 5   0  0.3006265E-05  0.2305902E+04  0.7818609E-02  0.8475598E-01
       -1   -1    0    0    0  501  0.00000000000E+00  0.00000000000E+00  0.65534439802E+03  0.65534439804E+03  0.50400001928E-02 0. -1.
        1   -1    0    0  501    0  0.00000000000E+00  0.00000000000E+00 -0.20283930080E+04  0.20283930080E+04  0.50400001928E-02 0.  1.
    10030    2    1    2    0    0  0.00000000000E+00  0.00000000000E+00 -0.13730486100E+04  0.26837374061E+04  0.23059019882E+04 0.  0.
        2    1    3    3  502    0 -0.78651891073E+03  0.57107069085E+03  0.35218575557E+02  0.97261198787E+03  0.25500000920E-02 0. -1.
       -2    1    3    3    0  502  0.78651891073E+03 -0.57107069085E+03 -0.14082671856E+04  0.17111254182E+04  0.25500000920E-02 0.  1.
</event>
<event>
 5   0  0.2944089E-05  0.2225262E+04  0.7818609E-02  0.8507987E-01
        1   -1    0    0  501    0  0.00000000000E+00  0.00000000000E+00  0.84122145523E+03  0.84122145525E+03  0.50400001928E-02 0.  1.
       -1   -1    0    0    0  501  0.00000000000E+00  0.00000000000E+00 -0.14716071363E+04  0.14716071363E+04  0.50400001928E-02 0. -1.
    10030    2    1    2    0    0  0.00000000000E+00  0.00000000000E+00 -0.63038568111E+03  0.23128285916E+04  0.22252617795E+04 0.  0.
        5    1    3    3  502    0 -0.82129955984E+03  0.74104498466E+03 -0.43924092647E+03  0.11902249022E+04  0.46999998093E+01 0.  1.
       -5    1    3    3    0  502  0.82129955984E+03 -0.74104498466E+03 -0.19114475464E+03  0.11226036894E+04  0.46999998093E+01 0. -1.
</event>
<event>
 5   0  0.6676612E-05  0.2243039E+04  0.7818609E-02  0.8500725E-01
       -2   -1    0    0    0  501  0.00000000000E+00  0.00000000000E+00  0.62861019268E+03  0.62861019269E+03  0.25500000920E-02 0.  1.
        2   -1    0    0  501    0  0.00000000000E+00  0.00000000000E+00 -0.20009319982E+04  0.20009319983E+04  0.25500000920E-02 0. -1.
    10030    2    1    2    0    0  0.00000000000E+00  0.00000000000E+00 -0.13723218056E+04  0.26295421909E+04  0.22430392319E+04 0.  0.
        2    1    3    3  502    0 -0.35532522513E+03 -0.49019973444E+03  0.42057533515E+03  0.73718071584E+03  0.25500000920E-02 0.  1.
       -2    1    3    3    0  502  0.35532522513E+03  0.49019973444E+03 -0.17928971407E+04  0.18923614751E+04  0.25500000920E-02 0. -1.
</event>
<event>
 5   0  0.6814789E-05  0.2286216E+04  0.7818609E-02  0.8483376E-01
       -2   -1    0    0    0  501  0.00000000000E+00  0.00000000000E+00  0.65754604489E+03  0.65754604489E+03  0.25500000920E-02 0.  1.
        2   -1    0    0  501    0  0.00000000000E+00  0.00000000000E+00 -0.19872317134E+04  0.19872317134E+04  0.25500000920E-02 0. -1.
    10030    2    1    2    0    0  0.00000000000E+00  0.00000000000E+00 -0.13296856685E+04  0.26447777583E+04  0.22862163970E+04 0.  0.
        1    1    3    3  502    0 -0.23984177451E+03 -0.10783918806E+04 -0.10045731882E+04  0.14931913526E+04  0.50400001928E-02 0. -1.
       -1    1    3    3    0  502  0.23984177451E+03  0.10783918806E+04 -0.32511248037E+03  0.11515864057E+04  0.50400001928E-02 0.  1.
</event>
<event>
 5   0  0.3006265E-05  0.2240277E+04  0.7818609E-02  0.8501849E-01
       -1   -1    0    0    0  501  0.00000000000E+00  0.00000000000E+00  0.46092559509E+03  0.46092559511E+03  0.50400001928E-02 0.  1.
        1   -1    0    0  501    0  0.00000000000E+00  0.00000000000E+00 -0.27221527163E+04  0.27221527163E+04  0.50400001928E-02 0. -1.
    10030    2    1    2    0    0  0.00000000000E+00  0.00000000000E+00 -0.22612271212E+04  0.31830783114E+04  0.22402766443E+04 0.  0.
        2    1    3    3  502    0 -0.40483749394E+03 -0.10193701720E+04 -0.80754492757E+03  0.13620344173E+04  0.25500000920E-02 0.  1.
       -2    1    3    3    0  502  0.40483749394E+03  0.10193701720E+04 -0.14536821936E+04  0.18210438940E+04  0.25500000920E-02 0. -1.
</event>
<event>
 5   0  0.3118614E-05  0.2344289E+04  0.7818609E-02  0.8460660E-01
       -1   -1    0    0    0  501  0.00000000000E+00  0.00000000000E+00  0.84267663090E+03  0.84267663091E+03  0.50400001928E-02 0. -1.
        1   -1    0    0  501    0  0.00000000000E+00  0.00000000000E+00 -0.16304274843E+04  0.16304274843E+04  0.50400001928E-02 0.  1.
    10030    2    1    2    0    0  0.00000000000E+00  0.00000000000E+00 -0.78775085343E+03  0.24731041152E+04  0.23442893503E+04 0.  0.
        3    1    3    3  502    0 -0.60227975514E+03  0.44718979230E+03  0.55628316007E+03  0.93390073250E+03  0.10100000352E+00 0. -1.
       -3    1    3    3    0  502  0.60227975514E+03 -0.44718979230E+03 -0.13440340135E+04  0.15392033827E+04  0.10100000352E+00 0.  1.
</event>
<event>
 5   0  0.6676612E-05  0.2247593E+04  0.7818609E-02  0.8498876E-01
        2   -1    0    0  501    0  0.00000000000E+00  0.00000000000E+00  0.15708213689E+04  0.15708213689E+04  0.25500000920E-02 0. -1.
       -2   -1    0    0    0  501  0.00000000000E+00  0.00000000000E+00 -0.80398647039E+03  0.80398647039E+03  0.25500000920E-02 0.  1.
    10030    2    1    2    0    0  0.00000000000E+00  0.00000000000E+00  0.76683489850E+03  0.23748078393E+04  0.22475934935E+04 0.  0.
        2    1    3    3  502    0  0.21920157913E+03  0.11016150752E+04  0.42171861572E+03  0.11997715187E+04  0.25500000920E-02 0.  1.
       -2    1    3    3    0  502 -0.21920157913E+03 -0.11016150752E+04  0.34511628278E+03  0.11750363206E+04  0.25500000920E-02 0. -1.
</event>
<event>
 5   0  0.2962279E-05  0.2316498E+04  0.7818609E-02  0.8471445E-01
       -1   -1    0    0    0  501  0.00000000000E+00  0.00000000000E+00  0.11426735286E+04  0.11426735286E+04  0.50400001928E-02 0.  1.
        1   -1    0    0  501    0  0.00000000000E+00  0.00000000000E+00 -0.11740363436E+04  0.11740363436E+04  0.50400001928E-02 0. -1.
    10030    2    1    2    0    0  0.00000000000E+00  0.00000000000E+00 -0.31362814971E+02  0.23167098722E+04  0.23164975730E+04 0.  0.
        1    1    3    3  502    0 -0.90190070957E+03  0.41260797573E+03 -0.61395861581E+03  0.11664542055E+04  0.50400001928E-02 0. -1.
       -1    1    3    3    0  502  0.90190070957E+03 -0.41260797573E+03  0.58259580083E+03  0.11502556667E+04  0.50400001928E-02 0.  1.
</event>
<event>
 5   0  0.2962279E-05  0.2361780E+04  0.7818609E-02  0.8453953E-01
        1   -1    0    0  501    0  0.00000000000E+00  0.00000000000E+00  0.11044864634E+04  0.11044864634E+04  0.50400001928E-02 0.  1.
       -1   -1    0    0    0  501  0.00000000000E+00  0.00000000000E+00 -0.12625784414E+04  0.12625784414E+04  0.50400001928E-02 0. -1.
    10030    2    1    2    0    0  0.00000000000E+00  0.00000000000E+00 -0.15809197794E+03  0.23670649048E+04  0.23617796659E+04 0.  0.
        1    1    3    3  502    0  0.41882960693E+03  0.99804396896E+03 -0.55232174086E+03  0.12151416827E+04  0.50400001928E-02 0.  1.
       -1    1    3    3    0  502 -0.41882960693E+03 -0.99804396896E+03  0.39422976292E+03  0.11519232221E+04  0.50400001928E-02 0. -1.
</event>
<event>
 5   0  0.3006265E-05  0.2333386E+04  0.7818609E-02  0.8464873E-01
        1   -1    0    0  501    0  0.00000000000E+00  0.00000000000E+00  0.11026920761E+04  0.11026920761E+04  0.50400001928E-02 0.  1.
       -1   -1    0    0    0  501  0.00000000000E+00  0.00000000000E+00 -0.12344086210E+04  0.12344086210E+04  0.50400001928E-02 0. -1.
    10030    2    1    2    0    0  0.00000000000E+00  0.00000000000E+00 -0.13171654490E+03  0.23371006972E+04  0.23333860419E+04 0.  0.
        2    1    3    3  502    0 -0.36297682570E+02 -0.68716408178E+03  0.87779902582E+03  0.11153668127E+04  0.25500000920E-02 0.  1.
       -2    1    3    3    0  502  0.36297682570E+02  0.68716408178E+03 -0.10095155707E+04  0.12217338845E+04  0.25500000920E-02 0. -1.
</event>
<event>
 5   0  0.6702421E-05  0.2344051E+04  0.7818609E-02  0.8460752E-01
        2   -1    0    0  501    0  0.00000000000E+00  0.00000000000E+00  0.25589955266E+04  0.25589955267E+04  0.25500000920E-02 0. -1.
       -2   -1    0    0    0  501  0.00000000000E+00  0.00000000000E+00 -0.53679021527E+03  0.53679021528E+03  0.25500000920E-02 0.  1.
    10030    2    1    2    0    0  0.00000000000E+00  0.00000000000E+00  0.20222053114E+04  0.30957857419E+04  0.23440509889E+04 0.  0.
        4    1    3    3  502    0 -0.10514941606E+03 -0.52003066450E+03 -0.36910919758E+03  0.64632151779E+03  0.12699999809E+01 0.  1.
       -4    1    3    3    0  502  0.10514941606E+03  0.52003066450E+03  0.23913145090E+04  0.24494642241E+04  0.12699999809E+01 0. -1.
</event>
<event>
 5   0  0.6495405E-05  0.2295675E+04  0.7818609E-02  0.8479628E-01
       -2   -1    0    0    0  501  0.00000000000E+00  0.00000000000E+00  0.73801481429E+03  0.73801481429E+03  0.25500000920E-02 0. -1.
        2   -1    0    0  501    0  0.00000000000E+00  0.00000000000E+00 -0.17852368400E+04  0.17852368400E+04  0.25500000920E-02 0.  1.
    10030    2    1    2    0    0  0.00000000000E+00  0.00000000000E+00 -0.10472220257E+04  0.25232516543E+04  0.22956752688E+04 0.  0.
        5    1    3    3  502    0  0.79344340449E+03  0.69718259831E+03 -0.10174790107E+04  0.14665952539E+04  0.46999998093E+01 0.  1.
       -5    1    3    3    0  502 -0.79344340449E+03 -0.69718259831E+03 -0.29743014993E+02  0.10566564004E+04  0.46999998093E+01 0. -1.
</event>
<event>
 5   0  0.6702421E-05  0.2273339E+04  0.7818609E-02  0.8488508E-01
       -2   -1    0    0    0  501  0.00000000000E+00  0.00000000000E+00  0.93115060182E+03  0.93115060182E+03  0.25500000920E-02 0. -1.
        2   -1    0    0  501    0  0.00000000000E+00  0.00000000000E+00 -0.13875496058E+04  0.13875496058E+04  0.25500000920E-02 0.  1.
    10030    2    1    2    0    0  0.00000000000E+00  0.00000000000E+00 -0.45639900394E+03  0.23187002076E+04  0.22733390864E+04 0.  0.
        4    1    3    3  502    0  0.10989987617E+04 -0.11090201727E+03  0.45327810197E+02  0.11055106327E+04  0.12699999809E+01 0. -1.
       -4    1    3    3    0  502 -0.10989987617E+04  0.11090201727E+03 -0.50172681413E+03  0.12131895749E+04  0.12699999809E+01 0.  1.
</event>
<event>
 5   0  0.6814789E-05  0.2322644E+04  0.7818609E-02  0.8469046E-01
        2   -1    0    0  501    0  0.00000000000E+00  0.00000000000E+00  0.25267200872E+04  0.25267200872E+04  0.25500000920E-02 0.  1.
       -2   -1    0    0    0  501  0.00000000000E+00  0.00000000000E+00 -0.53376282095E+03  0.53376282095E+03  0.25500000920E-02 0. -1.
    10030    2    1    2    0    0  0.00000000000E+00  0.00000000000E+00  0.19929572663E+04  0.30604829082E+04  0.23226443908E+04 0.  0.
        1    1    3    3  502    0  0.10656463026E+04 -0.45191315739E+03  0.11203797038E+04  0.16109246490E+04  0.50400001928E-02 0.  1.
       -1    1    3    3    0  502 -0.10656463026E+04  0.45191315739E+03  0.87257756248E+03  0.14495582592E+04  0.50400001928E-02 0. -1.
</event>
<event>
 5   0  0.6495405E-05  0.1874117E+04  0.7818609E-02  0.8667848E-01
       -2   -1    0    0    0  501  0.00000000000E+00  0.00000000000E+00  0.43189218540E+03  0.43189218541E+03  0.25500000920E-02 0.  1.
        2   -1    0    0  501    0  0.00000000000E+00  0.00000000000E+00 -0.20330974454E+04  0.20330974454E+04  0.25500000920E-02 0. -1.
    10030    2    1    2    0    0  0.00000000000E+00  0.00000000000E+00 -0.16012052600E+04  0.24649896308E+04  0.18741172843E+04 0.  0.
        5    1    3    3  502    0 -0.70815701658E+03  0.42477946808E+03 -0.13830993748E+04  0.16108724118E+04  0.46999998093E+01 0. -1.
       -5    1    3    3    0  502  0.70815701658E+03 -0.42477946808E+03 -0.21810588523E+03  0.85411721901E+03  0.46999998093E+01 0.  1.
</event>
<event>
 5   0  0.6468758E-05  0.2023663E+04  0.7818609E-02  0.8595637E-01
        2   -1    0    0  501    0  0.00000000000E+00  0.00000000000E+00  0.21412864540E+04  0.21412864540E+04  0.25500000920E-02 0. -1.
       -2   -1    0    0    0  501  0.00000000000E+00  0.00000000000E+00 -0.47812518967E+03  0.47812518968E+03  0.25500000920E-02 0.  1.
    10030    2    1    2    0    0  0.00000000000E+00  0.00000000000E+00  0.16631612644E+04  0.26194116437E+04  0.20236630075E+04 0.  0.
        3    1    3    3  502    0 -0.28088879307E+03  0.87200425453E+03  0.13875861507E+04  0.16627342752E+04  0.10100000352E+00 0. -1.
       -3    1    3    3    0  502  0.28088879307E+03 -0.87200425453E+03  0.27557511364E+03  0.95667736853E+03  0.10100000352E+00 0.  1.
</event>
<event>
 5   0  0.6702421E-05  0.2308176E+04  0.7818609E-02  0.8474705E-01
       -2   -1    0    0    0  501  0.00000000000E+00  0.00000000000E+00  0.67207570085E+03  0.67207570085E+03  0.25500000920E-02 0. -1.
        2   -1    0    0  501    0  0.00000000000E+00  0.00000000000E+00 -0.19817986683E+04  0.19817986683E+04  0.25500000920E-02 0.  1.
    10030    2    1    2    0    0  0.00000000000E+00  0.00000000000E+00 -0.13097229674E+04  0.26538743691E+04  0.23081756683E+04 0.  0.
        4    1    3    3  502    0  0.50420067849E+03  0.72434532521E+03 -0.15098946433E+04  0.17489076365E+04  0.12699999809E+01 0.  1.
       -4    1    3    3    0  502 -0.50420067849E+03 -0.72434532521E+03  0.20017167589E+03  0.90496673258E+03  0.12699999809E+01 0. -1.
</event>
<event>
 5   0  0.3118614E-05  0.2270774E+04  0.7818609E-02  0.8489534E-01
       -1   -1    0    0    0  501  0.00000000000E+00  0.00000000000E+00  0.11959504655E+04  0.11959504655E+04  0.50400001928E-02 0. -1.
        1   -1    0    0  501    0  0.00000000000E+00  0.00000000000E+00 -0.10778904884E+04  0.10778904884E+04  0.50400001928E-02 0.  1.
    10030    2    1    2    0    0  0.00000000000E+00  0.00000000000E+00  0.11805997717E+03  0.22738409539E+04  0.22707739926E+04 0.  0.
        3    1    3    3  502    0  0.77941649313E+02  0.82460353298E+03 -0.71858678217E+03  0.10965458773E+04  0.10100000352E+00 0.  1.
       -3    1    3    3    0  502 -0.77941649313E+02 -0.82460353298E+03  0.83664675933E+03  0.11772950766E+04  0.10100000352E+00 0. -1.
</event>
<event>
 5   0  0.3006265E-05  0.2302623E+04  0.7818609E-02  0.8476888E-01
       -1   -1    0    0    0  501  0.00000000000E+00  0.00000000000E+00  0.91824057583E+03  0.91824057584E+03  0.50400001928E-02 0.  1.
        1   -1    0    0  501    0  0.00000000000E+00  0.00000000000E+00 -0.14435408510E+04  0.14435408510E+04  0.50400001928E-02 0. -1.
    10030    2    1    2    0    0  0.00000000000E+00  0.00000000000E+00 -0.52530027515E+03  0.23617814268E+04  0.23026226632E+04 0.  0.
        2    1    3    3  502    0  0.10699009745E+03 -0.62254270554E+03 -0.12499346649E+04  0.14004795492E+04  0.25500000920E-02 0. -1.
       -2    1    3    3    0  502 -0.10699009745E+03  0.62254270554E+03  0.72463438974E+03  0.96130187765E+03  0.25500000920E-02 0.  1.
</event>
<event>
 5   0  0.2944089E-05  0.2321973E+04  0.7818609E-02  0.8469308E-01
        1   -1    0    0  501    0  0.00000000000E+00  0.00000000000E+00  0.11252987233E+04  0.11252987233E+04  0.50400001928E-02 0.  1.
       -1   -1    0    0    0  501  0.00000000000E+00  0.00000000000E+00 -0.11978056356E+04  0.11978056356E+04  0.50400001928E-02 0. -1.
    10030    2    1    2    0    0  0.00000000000E+00  0.00000000000E+00 -0.72506912281E+02  0.23231043590E+04  0.23219725688E+04 0.  0.
        5    1    3    3  502    0  0.95148899756E+03  0.66241617954E+03  0.24936433311E+02  0.11596423686E+04  0.46999998093E+01 0. -1.
       -5    1    3    3    0  502 -0.95148899756E+03 -0.66241617954E+03 -0.97443345592E+02  0.11634619903E+04  0.46999998093E+01 0.  1.
</event>
<event>
 5   0  0.6702421E-05  0.2328826E+04  0.7818609E-02  0.8466641E-01
        2   -1    0    0  501    0  0.00000000000E+00  0.00000000000E+00  0.12884648380E+04  0.12884648380E+04  0.25500000920E-02 0. -1.
       -2   -1    0    0    0  501  0.00000000000E+00  0.00000000000E+00 -0.10523045985E+04  0.10523045985E+04  0.25500000920E-02 0.  1.
    10030    2    1    2    0    0  0.00000000000E+00  0.00000000000E+00  0.23616023950E+03  0.23407694366E+04  0.23288258622E+04 0.  0.
        4    1    3    3  502    0  0.52308587291E+03  0.86243685338E+02  0.11601222098E+04  0.12755163497E+04  0.12699999809E+01 0. -1.
       -4    1    3    3    0  502 -0.52308587291E+03 -0.86243685338E+02 -0.92396197030E+03  0.10652530869E+04  0.12699999809E+01 0.  1.
</event>
<event>
 5   0  0.2962279E-05  0.2062318E+04  0.7818609E-02  0.8578026E-01
        1   -1    0    0  501    0  0.00000000000E+00  0.00000000000E+00  0.15095676492E+04  0.15095676492E+04  0.50400001928E-02 0. -1.
       -1   -1    0    0    0  501  0.00000000000E+00  0.00000000000E+00 -0.70436677660E+03  0.70436677662E+03  0.50400001928E-02 0.  1.
    10030    2    1    2    0    0  0.00000000000E+00  0.00000000000E+00  0.80520087260E+03  0.22139344258E+04  0.20623184033E+04 0.  0.
        1    1    3    3  502    0  0.28706784137E+03  0.81570247237E+02 -0.65699300509E+03  0.72159646586E+03  0.50400001928E-02 0.  1.
       -1    1    3    3    0  502 -0.28706784137E+03 -0.81570247237E+02  0.14621938777E+04  0.14923379600E+04  0.50400001928E-02 0. -1.
</event>
<event>
 5   0  0.2944089E-05  0.2301708E+04  0.7818609E-02  0.8477248E-01
        1   -1    0    0  501    0  0.00000000000E+00  0.00000000000E+00  0.16394649669E+04  0.16394649670E+04  0.50400001928E-02 0.  1.
       -1   -1    0    0    0  501  0.00000000000E+00  0.00000000000E+00 -0.80786428033E+03  0.80786428035E+03  0.50400001928E-02 0. -1.
    10030    2    1    2    0    0  0.00000000000E+00  0.00000000000E+00  0.83160068661E+03  0.24473292473E+04  0.23017082228E+04 0.  0.
        5    1    3    3  502    0 -0.61298058196E+03 -0.97394432089E+03  0.40366039008E+03  0.12195394764E+04  0.46999998093E+01 0. -1.
       -5    1    3    3    0  502  0.61298058196E+03  0.97394432089E+03  0.42794029653E+03  0.12277897709E+04  0.46999998093E+01 0.  1.
</event>
<event>
 5   0  0.2962279E-05  0.2297444E+04  0.7818609E-02  0.8478930E-01
       -1   -1    0    0    0  501  0.00000000000E+00  0.00000000000E+00  0.22771138377E+04  0.22771138377E+04  0.50400001928E-02 0.  1.
        1   -1    0    0  501    0  0.00000000000E+00  0.00000000000E+00 -0.57948870195E+03  0.57948870198E+03  0.50400001928E-02 0. -1.
    10030    2    1    2    0    0  0.00000000000E+00  0.00000000000E+00  0.16976251357E+04  0.28566025397E+04  0.22974435724E+04 0.  0.
        1    1    3    3  502    0 -0.64711424650E+03 -0.87190422447E+03  0.13150197537E+04  0.17053594276E+04  0.50400001928E-02 0.  1.
       -1    1    3    3    0  502  0.64711424650E+03  0.87190422447E+03  0.38260538201E+03  0.11512431120E+04  0.50400001928E-02 0. -1.
</event>
<event>
 5   0  0.3006265E-05  0.2277534E+04  0.7818609E-02  0.8486832E-01
       -1   -1    0    0    0  501  0.00000000000E+00  0.00000000000E+00  0.76534831656E+03  0.76534831657E+03  0.50400001928E-02 0. -1.
        1   -1    0    0  501    0  0.00000000000E+00  0.00000000000E+00 -0.16943794048E+04  0.16943794048E+04  0.50400001928E-02 0.  1.
    10030    2    1    2    0    0  0.00000000000E+00  0.00000000000E+00 -0.92903108823E+03  0.24597277214E+04  0.22775341272E+04 0.  0.
        2    1    3    3  502    0  0.63320440462E+03  0.28321726364E+03 -0.14398844239E+04  0.15982574857E+04  0.25500000920E-02 0.  1.
       -2    1    3    3    0  502 -0.63320440462E+03 -0.28321726364E+03  0.51085333562E+03  0.86147023569E+03  0.25500000920E-02 0. -1.
</event>
<event>
 5   0  0.6495405E-05  0.2258602E+04  0.7818609E-02  0.8494425E-01
        2   -1    0    0  501    0  0.00000000000E+00  0.00000000000E+00  0.72315807624E+03  0.72315807624E+03  0.25500000920E-02 0. -1.
       -2   -1    0    0    0  501  0.00000000000E+00  0.00000000000E+00 -0.17635438970E+04  0.17635438970E+04  0.25500000920E-02 0.  1.
    10030    2    1    2    0    0  0.00000000000E+00  0.00000000000E+00 -0.10403858207E+04  0.24867019732E+04  0.22586022331E+04 0.  0.
        5    1    3    3  502    0  0.10170620768E+03  0.98587522952E+03 -0.11161587322E+04  0.14926910351E+04  0.46999998093E+01 0.  1.
       -5    1    3    3    0  502 -0.10170620768E+03 -0.98587522952E+03  0.75772911506E+02  0.99401093806E+03  0.46999998093E+01 0. -1.
</event>
<event>
 5   0  0.6702421E-05  0.2318253E+04  0.7818609E-02  0.8470759E-01
        2   -1    0    0  501    0  0.00000000000E+00  0.00000000000E+00  0.18470907641E+04  0.18470907641E+04  0.25500000920E-02 0. -1.
       -2   -1    0    0    0  501  0.00000000000E+00  0.00000000000E+00 -0.72740034317E+03  0.72740034317E+03  0.25500000920E-02 0.  1.
    10030    2    1    2    0    0  0.00000000000E+00  0.00000000000E+00  0.11196904209E+04  0.25744911072E+04  0.23182531835E+04 0.  0.
        4    1    3    3  502    0  0.10530485713E+04  0.43342603070E+03  0.31959191707E+03  0.11827552680E+04  0.12699999809E+01 0.  1.
       -4    1    3    3    0  502 -0.10530485713E+04 -0.43342603070E+03  0.80009850383E+03  0.13917358393E+04  0.12699999809E+01 0. -1.
</event>
<event>
 5   0  0.3118614E-05  0.2242081E+04  0.7818609E-02  0.8501114E-01
        1   -1    0    0  501    0  0.00000000000E+00  0.00000000000E+00  0.87306757845E+03  0.87306757847E+03  0.50400001928E-02 0. -1.
       -1   -1    0    0    0  501  0.00000000000E+00  0.00000000000E+00 -0.14394444230E+04  0.14394444230E+04  0.50400001928E-02 0.  1.
    10030    2    1    2    0    0  0.00000000000E+00  0.00000000000E+00 -0.56637684450E+03  0.23125120014E+04  0.22420814050E+04 0.  0.
        3    1    3    3  502    0  0.47211653098E+03  0.55992431196E+03 -0.11585676912E+04  0.13706525305E+04  0.10100000352E+00 0.  1.
       -3    1    3    3    0  502 -0.47211653098E+03 -0.55992431196E+03  0.59219084670E+03  0.94185947098E+03  0.10100000352E+00 0. -1.
</event>
<event>
 5   0  0.3006265E-05  0.2300217E+04  0.7818609E-02  0.8477836E-01
       -1   -1    0    0    0  501  0.00000000000E+00  0.00000000000E+00  0.92352948603E+03  0.92352948605E+03  0.50400001928E-02 0. -1.
        1   -1    0    0  501    0  0.00000000000E+00  0.00000000000E+00 -0.14322760854E+04  0.14322760854E+04  0.50400001928E-02 0.  1.
    10030    2    1    2    0    0  0.00000000000E+00  0.00000000000E+00 -0.50874659934E+03  0.23558055714E+04  0.23002166828E+04 0.  0.
        2    1    3    3  502    0 -0.70411570741E+02 -0.80815181795E+03  0.58060977035E+03  0.99758451050E+03  0.25500000920E-02 0. -1.
       -2    1    3    3    0  502  0.70411570741E+02  0.80815181795E+03 -0.10893563697E+04  0.13582210609E+04  0.25500000920E-02 0.  1.
</event>
<event>
 5   0  0.6702421E-05  0.2335473E+04  0.7818609E-02  0.8464065E-01
        2   -1    0    0  501    0  0.00000000000E+00  0.00000000000E+00  0.13037556505E+04  0.13037556505E+04  0.25500000920E-02 0.  1.
       -2   -1    0    0    0  501  0.00000000000E+00  0.00000000000E+00 -0.10459076644E+04  0.10459076644E+04  0.25500000920E-02 0. -1.
    10030    2    1    2    0    0  0.00000000000E+00  0.00000000000E+00  0.25784798609E+03  0.23496633150E+04  0.23354725667E+04 0.  0.
        4    1    3    3  502    0 -0.91946660980E+03  0.71701718869E+03  0.19313907918E+03  0.11818785099E+04  0.12699999809E+01 0. -1.
       -4    1    3    3    0  502  0.91946660980E+03 -0.71701718869E+03  0.64708906904E+02  0.11677848051E+04  0.12699999809E+01 0.  1.
</event>
<event>
 5   0  0.2962279E-05  0.2316907E+04  0.7818609E-02  0.8471285E-01
       -1   -1    0    0    0  501  0.00000000000E+00  0.00000000000E+00  0.80483994455E+03  0.80483994456E+03  0.50400001928E-02 0.  1.
        1   -1    0    0  501    0  0.00000000000E+00  0.00000000000E+00 -0.16674302045E+04  0.16674302046E+04  0.50400001928E-02 0. -1.
    10030    2    1    2    0    0  0.00000000000E+00  0.00000000000E+00 -0.86259026000E+03  0.24722701491E+04  0.23169069324E+04 0.  0.
        1    1    3    3  502    0  0.11522676337E+04  0.23897001491E+02 -0.55629414690E+03  0.12797480003E+04  0.50400001928E-02 0. -1.
       -1    1    3    3    0  502 -0.11522676337E+04 -0.23897001491E+02 -0.30629611310E+03  0.11925221488E+04  0.50400001928E-02 0.  1.
</event>
<event>
 5   0  0.6814789E-05  0.2296917E+04  0.7818609E-02  0.8479138E-01
       -2   -1    0    0    0  501  0.00000000000E+00  0.00000000000E+00  0.56432818632E+03  0.56432818632E+03  0.25500000920E-02 0. -1.
        2   -1    0    0  501    0  0.00000000000E+00  0.00000000000E+00 -0.23372168516E+04  0.23372168516E+04  0.25500000920E-02 0.  1.
    10030    2    1    2    0    0  0.00000000000E+00  0.00000000000E+00 -0.17728886653E+04  0.29015450379E+04  0.22969173663E+04 0.  0.
        1    1    3    3  502    0 -0.77327711058E+03 -0.15118106461E+03  0.16905143004E+03  0.80584836667E+03  0.50400001928E-02 0. -1.
       -1    1    3    3    0  502  0.77327711058E+03  0.15118106461E+03 -0.19419400953E+04  0.20956966712E+04  0.50400001928E-02 0.  1.
</event>
<event>
 5   0  0.2962279E-05  0.2255009E+04  0.7818609E-02  0.8495875E-01
        1   -1    0    0  501    0  0.00000000000E+00  0.00000000000E+00  0.14125546647E+04  0.14125546647E+04  0.50400001928E-02 0.  1.
       -1   -1    0    0    0  501  0.00000000000E+00  0.00000000000E+00 -0.89997645834E+03  0.89997645835E+03  0.50400001928E-02 0. -1.
    10030    2    1    2    0    0  0.00000000000E+00  0.00000000000E+00  0.51257820638E+03  0.23125311231E+04  0.22550085981E+04 0.  0.
        1    1    3    3  502    0  0.21404340340E+03 -0.33685839489E+02 -0.87842449278E+03  0.90475350448E+03  0.50400001928E-02 0. -1.
       -1    1    3    3    0  502 -0.21404340340E+03  0.33685839489E+02  0.13910026992E+04  0.14077776186E+04  0.50400001928E-02 0.  1.
</event>
<event>
 5   0  0.2962279E-05  0.2265304E+04  0.7818609E-02  0.8491728E-01
        1   -1    0    0  501    0  0.00000000000E+00  0.00000000000E+00  0.12015723246E+04  0.12015723246E+04  0.50400001928E-02 0. -1.
       -1   -1    0    0    0  501  0.00000000000E+00  0.00000000000E+00 -0.10676849268E+04  0.10676849268E+04  0.50400001928E-02 0.  1.
    10030    2    1    2    0    0  0.00000000000E+00  0.00000000000E+00  0.13388739780E+03  0.22692572513E+04  0.22653040938E+04 0.  0.
        1    1    3    3  502    0 -0.33646052700E+03  0.47481055678E+03 -0.90647727084E+03  0.10771962651E+04  0.50400001928E-02 0.  1.
       -1    1    3    3    0  502  0.33646052700E+03 -0.47481055678E+03  0.10403646686E+04  0.11920609862E+04  0.50400001928E-02 0. -1.
</event>
<event>
 5   0  0.6468758E-05  0.2307345E+04  0.7818609E-02  0.8475031E-01
       -2   -1    0    0    0  501  0.00000000000E+00  0.00000000000E+00  0.70533379180E+03  0.70533379181E+03  0.25500000920E-02 0.  1.
        2   -1    0    0  501    0  0.00000000000E+00  0.00000000000E+00 -0.18869928638E+04  0.18869928638E+04  0.25500000920E-02 0. -1.
    10030    2    1    2    0    0  0.00000000000E+00  0.00000000000E+00 -0.11816590720E+04  0.25923266556E+04  0.23073446485E+04 0.  0.
        3    1    3    3  502    0  0.38547568148E+03  0.53979409688E+03  0.46967817259E+03  0.81275258477E+03  0.10100000352E+00 0.  1.
       -3    1    3    3    0  502 -0.38547568148E+03 -0.53979409688E+03 -0.16513372445E+04  0.17795740708E+04  0.10100000352E+00 0. -1.
</event>
<event>
 5   0  0.2944089E-05  0.2288266E+04  0.7818609E-02  0.8482562E-01
       -1   -1    0    0    0  501  0.00000000000E+00  0.00000000000E+00  0.12784981059E+04  0.12784981059E+04  0.50400001928E-02 0.  1.
        1   -1    0    0  501    0  0.00000000000E+00  0.00000000000E+00 -0.10238893269E+04  0.10238893269E+04  0.50400001928E-02 0. -1.
    10030    2    1    2    0    0  0.00000000000E+00  0.00000000000E+00  0.25460877903E+03  0.23023874328E+04  0.22882662127E+04 0.  0.
        5    1    3    3  502    0 -0.96065922441E+02 -0.20144416985E+03 -0.10017658242E+04  0.10263358473E+04  0.46999998093E+01 0. -1.
       -5    1    3    3    0  502  0.96065922441E+02  0.20144416985E+03  0.12563746032E+04  0.12760515854E+04  0.46999998093E+01 0.  1.
</event>
<event>
 5   0  0.6468758E-05  0.2293420E+04  0.7818609E-02  0.8480520E-01
        2   -1    0    0  501    0  0.00000000000E+00  0.00000000000E+00  0.14992857321E+04  0.14992857321E+04  0.25500000920E-02 0. -1.
       -2   -1    0    0    0  501  0.00000000000E+00  0.00000000000E+00 -0.87704679780E+03  0.87704679781E+03  0.25500000920E-02 0.  1.
    10030    2    1    2    0    0  0.00000000000E+00  0.00000000000E+00  0.62223893426E+03  0.23763325299E+04  0.22934199356E+04 0.  0.
        3    1    3    3  502    0  0.49650171619E+03 -0.13124057342E+03  0.13734691264E+04  0.14663408518E+04  0.10100000352E+00 0. -1.
       -3    1    3    3    0  502 -0.49650171619E+03  0.13124057342E+03 -0.75123019217E+03  0.90999167805E+03  0.10100000352E+00 0.  1.
</event>
<event>
 5   0  0.6702421E-05  0.2303715E+04  0.7818609E-02  0.8476458E-01
        2   -1    0    0  501    0  0.00000000000E+00  0.00000000000E+00  0.13505208352E+04  0.13505208352E+04  0.25500000920E-02 0. -1.
       -2   -1    0    0    0  501  0.00000000000E+00  0.00000000000E+00 -0.98241806923E+03  0.98241806924E+03  0.25500000920E-02 0.  1.
    10030    2    1    2    0    0  0.00000000000E+00  0.00000000000E+00  0.36810276600E+03  0.23329389045E+04  0.23037153222E+04 0.  0.
        4    1    3    3  502    0  0.11084035035E+04 -0.31329799143E+03  0.19192826109E+03  0.11677123055E+04  0.12699999809E+01 0. -1.
       -4    1    3    3    0  502 -0.11084035035E+04  0.31329799143E+03  0.17617450491E+03  0.11652265990E+04  0.12699999809E+01 0.  1.
</event>
<event>
 5   0  0.6468758E-05  0.2298163E+04  0.7818609E-02  0.8478646E-01
       -2   -1    0    0    0  501  0.00000000000E+00  0.00000000000E+00  0.84973387020E+03  0.84973387021E+03  0.25500000920E-02 0.  1.
        2   -1    0    0  501    0  0.00000000000E+00  0.00000000000E+00 -0.15538851368E+04  0.15538851368E+04  0.25500000920E-02 0. -1.
    10030    2    1    2    0    0  0.00000000000E+00  0.00000000000E+00 -0.70415126660E+03  0.24036190070E+04  0.22981634678E+04 0.  0.
        3    1    3    3  502    0  0.12357675014E+03  0.59642242262E+03 -0.13711569667E+04  0.15003540772E+04  0.10100000352E+00 0. -1.
       -3    1    3    3    0  502 -0.12357675014E+03 -0.59642242262E+03  0.66700570008E+03  0.90326492986E+03  0.10100000352E+00 0.  1.
</event>
<event>
 5   0  0.6814789E-05  0.2230772E+04  0.7818609E-02  0.8505728E-01
       -2   -1    0    0    0  501  0.00000000000E+00  0.00000000000E+00  0.84433479321E+03  0.84433479321E+03  0.25500000920E-02 0.  1.
        2   -1    0    0  501    0  0.00000000000E+00  0.00000000000E+00 -0.14734508531E+04  0.14734508531E+04  0.25500000920E-02 0. -1.
    10030    2    1    2    0    0  0.00000000000E+00  0.00000000000E+00 -0.62911605993E+03  0.23177856463E+04  0.22307719035E+04 0.  0.
        1    1    3    3  502    0 -0.11225876086E+03 -0.25989441736E+03 -0.14355000620E+04  0.14631498781E+04  0.50400001928E-02 0. -1.
       -1    1    3    3    0  502  0.11225876086E+03  0.25989441736E+03  0.80638400210E+03  0.85463576828E+03  0.50400001928E-02 0.  1.
</event>
<event>
 5   0  0.3006265E-05  0.2205974E+04  0.7818609E-02  0.8515946E-01
        1   -1    0    0  501    0  0.00000000000E+00  0.00000000000E+00  0.16637637779E+04  0.16637637779E+04  0.50400001928E-02 0.  1.
       -1   -1    0    0    0  501  0.00000000000E+00  0.00000000000E+00 -0.73122154652E+03  0.73122154654E+03  0.50400001928E-02 0. -1.
    10030    2    1    2    0    0  0.00000000000E+00  0.00000000000E+00  0.93254223139E+03  0.23949853245E+04  0.22059736379E+04 0.  0.
        2    1    3    3  502    0  0.90121933346E+03 -0.60777974060E+03  0.66934707534E+03  0.12765649249E+04  0.25500000920E-02 0. -1.
       -2    1    3    3    0  502 -0.90121933346E+03  0.60777974060E+03  0.26319515605E+03  0.11184203996E+04  0.25500000920E-02 0.  1.
</event>
<event>
 5   0  0.2982385E-05  0.2250208E+04  0.7818609E-02  0.8497816E-01
       -1   -1    0    0    0  501  0.00000000000E+00  0.00000000000E+00  0.63022908261E+03  0.63022908263E+03  0.50400001928E-02 0.  1.
        1   -1    0    0  501    0  0.00000000000E+00  0.00000000000E+00 -0.20085688610E+04  0.20085688610E+04  0.50400001928E-02 0. -1.
    10030    2    1    2    0    0  0.00000000000E+00  0.00000000000E+00 -0.13783397784E+04  0.26387979437E+04  0.22502075555E+04 0.  0.
        4    1    3    3  502    0 -0.72282762609E+03  0.70410296745E+03 -0.12727131072E+04  0.16242047383E+04  0.12699999809E+01 0. -1.
       -4    1    3    3    0  502  0.72282762609E+03 -0.70410296745E+03 -0.10562667124E+03  0.10145932054E+04  0.12699999809E+01 0.  1.
</event>
<event>
 5   0  0.6495405E-05  0.2235820E+04  0.7818609E-02  0.8503665E-01
        2   -1    0    0  501    0  0.00000000000E+00  0.00000000000E+00  0.17990568601E+04  0.17990568601E+04  0.25500000920E-02 0. -1.
       -2   -1    0    0    0  501  0.00000000000E+00  0.00000000000E+00 -0.69465413130E+03  0.69465413131E+03  0.25500000920E-02 0.  1.
    10030    2    1    2    0    0  0.00000000000E+00  0.00000000000E+00  0.11044027288E+04  0.24937109914E+04  0.22358195637E+04 0.  0.
        5    1    3    3  502    0 -0.96369658585E+03  0.25907860867E+01  0.11841036937E+04  0.15267093598E+04  0.46999998093E+01 0. -1.
       -5    1    3    3    0  502  0.96369658585E+03 -0.25907860867E+01 -0.79700964938E+02  0.96700163162E+03  0.46999998093E+01 0.  1.
</event>
<event>
 5   0  0.2962279E-05  0.2301573E+04  0.7818609E-02  0.8477301E-01
        1   -1    0    0  501    0  0.00000000000E+00  0.00000000000E+00  0.14284478332E+04  0.14284478332E+04  0.50400001928E-02 0. -1.
       -1   -1    0    0    0  501  0.00000000000E+00  0.00000000000E+00 -0.92709695278E+03  0.92709695280E+03  0.50400001928E-02 0.  1.
    10030    2    1    2    0    0  0.00000000000E+00  0.00000000000E+00  0.50135088040E+03  0.23555447860E+04  0.23015730563E+04 0.  0.
        1    1    3    3  502    0 -0.70861537429E+03  0.81151382319E+02 -0.67360147175E+03  0.98105057887E+03  0.50400001928E-02 0.  1.
       -1    1    3    3    0  502  0.70861537429E+03 -0.81151382319E+02  0.11749523521E+04  0.13744942071E+04  0.50400001928E-02 0. -1.
</event>
<event>
 5   0  0.2982385E-05  0.2168663E+04  0.7818609E-02  0.8531585E-01
        1   -1    0    0  501    0  0.00000000000E+00  0.00000000000E+00  0.10684946719E+04  0.10684946719E+04  0.50400001928E-02 0. -1.
       -1   -1    0    0    0  501  0.00000000000E+00  0.00000000000E+00 -0.11004034977E+04  0.11004034977E+04  0.50400001928E-02 0.  1.
    10030    2    1    2    0    0  0.00000000000E+00  0.00000000000E+00 -0.31908825848E+02  0.21688981696E+04  0.21686634357E+04 0.  0.
        4    1    3    3  502    0 -0.70455750903E+02 -0.95689301968E+03  0.48923925105E+03  0.10770166766E+04  0.12699999809E+01 0. -1.
       -4    1    3    3    0  502  0.70455750903E+02  0.95689301968E+03 -0.52114807690E+03  0.10918814931E+04  0.12699999809E+01 0.  1.
</event>
<event>
 5   0  0.2944089E-05  0.2304767E+04  0.7818609E-02  0.8476044E-01
       -1   -1    0    0    0  501  0.00000000000E+00  0.00000000000E+00  0.11073723893E+04  0.11073723893E+04  0.50400001928E-02 0.  1.
        1   -1    0    0  501    0  0.00000000000E+00  0.00000000000E+00 -0.11992245351E+04  0.11992245351E+04  0.50400001928E-02 0. -1.
    10030    2    1    2    0    0  0.00000000000E+00  0.00000000000E+00 -0.91852145777E+02  0.23065969244E+04  0.23047673538E+04 0.  0.
        5    1    3    3  502    0  0.69044892824E+03  0.19591447701E+03 -0.94823139344E+03  0.11892296121E+04  0.46999998093E+01 0. -1.
       -5    1    3    3    0  502 -0.69044892824E+03 -0.19591447701E+03  0.85637924767E+03  0.11173673123E+04  0.46999998093E+01 0.  1.
</event>
<event>
 5   0  0.6702421E-05  0.2111289E+04  0.7818609E-02  0.8556287E-01
       -2   -1    0    0    0  501  0.00000000000E+00  0.00000000000E+00  0.81385446425E+03  0.81385446425E+03  0.25500000920E-02 0.  1.
        2   -1    0    0  501    0  0.00000000000E+00  0.00000000000E+00 -0.13692684969E+04  0.13692684969E+04  0.25500000920E-02 0. -1.
    10030    2    1    2    0    0  0.00000000000E+00  0.00000000000E+00 -0.55541403269E+03  0.21831229612E+04  0.21112889703E+04 0.  0.
        4    1    3    3  502    0  0.39790285421E+03 -0.94443274957E+03 -0.53950861343E+03  0.11581671109E+04  0.12699999809E+01 0. -1.
       -4    1    3    3    0  502 -0.39790285421E+03  0.94443274957E+03 -0.15905419257E+02  0.10249558503E+04  0.12699999809E+01 0.  1.
</event>
<event>
 5   0  0.2962279E-05  0.2268324E+04  0.7818609E-02  0.8490516E-01
        1   -1    0    0  501    0  0.00000000000E+00  0.00000000000E+00  0.15928086166E+04  0.15928086167E+04  0.50400001928E-02 0.  1.
       -1   -1    0    0    0  501  0.00000000000E+00  0.00000000000E+00 -0.80758195681E+03  0.80758195682E+03  0.50400001928E-02 0. -1.
    10030    2    1    2    0    0  0.00000000000E+00  0.00000000000E+00  0.78522665984E+03  0.24003905735E+04  0.22683240505E+04 0.  0.
        1    1    3    3  502    0  0.73913807342E+02 -0.28918842739E+03 -0.76527230303E+03  0.82142248281E+03  0.50400001928E-02 0. -1.
       -1    1    3    3    0  502 -0.73913807342E+02  0.28918842739E+03  0.15504989629E+04  0.15789680907E+04  0.50400001928E-02 0.  1.
</event>
<event>
 5   0  0.6676612E-05  0.2326883E+04  0.7818609E-02  0.8467396E-01
       -2   -1    0    0    0  501  0.00000000000E+00  0.00000000000E+00  0.71491988769E+03  0.71491988769E+03  0.25500000920E-02 0.  1.
        2   -1    0    0  501    0  0.00000000000E+00  0.00000000000E+00 -0.18933532131E+04  0.18933532131E+04  0.25500000920E-02 0. -1.
    10030    2    1    2    0    0  0.00000000000E+00  0.00000000000E+00 -0.11784333254E+04  0.26082731008E+04  0.23268827787E+04 0.  0.
        2    1    3    3  502    0 -0.33310544898E+03  0.64099945277E+03  0.43307922524E+03  0.84225717802E+03  0.25500000920E-02 0.  1.
       -2    1    3    3    0  502  0.33310544898E+03 -0.64099945277E+03 -0.16115125506E+04  0.17660159228E+04  0.25500000920E-02 0. -1.
</event>
<event>
 5   0  0.6495405E-05  0.2359658E+04  0.7818609E-02  0.8454763E-01
       -2   -1    0    0    0  501  0.00000000000E+00  0.00000000000E+00  0.13273642162E+04  0.13273642162E+04  0.25500000920E-02 0. -1.
        2   -1    0    0  501    0  0.00000000000E+00  0.00000000000E+00 -0.10486925373E+04  0.10486925374E+04  0.25500000920E-02 0.  1.
    10030    2    1    2    0    0  0.00000000000E+00  0.00000000000E+00  0.27867167883E+03  0.23760567535E+04  0.23596584057E+04 0.  0.
        5    1    3    3  502    0  0.27670713854E+03  0.74649029052E+03 -0.73743920882E+03  0.10851973420E+04  0.46999998093E+01 0.  1.
       -5    1    3    3    0  502 -0.27670713854E+03 -0.74649029052E+03  0.10161108876E+04  0.12908594115E+04  0.46999998093E+01 0. -1.
</event>
<event>
 5   0  0.3118614E-05  0.2187544E+04  0.7818609E-02  0.8523631E-01
       -1   -1    0    0    0  501  0.00000000000E+00  0.00000000000E+00  0.84473493609E+03  0.84473493611E+03  0.50400001928E-02 0.  1.
        1   -1    0    0  501    0  0.00000000000E+00  0.00000000000E+00 -0.14162278168E+04  0.14162278168E+04  0.50400001928E-02 0. -1.
    10030    2    1    2    0    0  0.00000000000E+00  0.00000000000E+00 -0.57149288071E+03  0.22609627529E+04  0.21875439327E+04 0.  0.
        3    1    3    3  502    0  0.61782782372E+02  0.28969148534E+03  0.80249142477E+03  0.85541262903E+03  0.10100000352E+00 0.  1.
       -3    1    3    3    0  502 -0.61782782372E+02 -0.28969148534E+03 -0.13739843055E+04  0.14055501239E+04  0.10100000352E+00 0. -1.
</event>
<event>
 5   0  0.2944089E-05  0.1868255E+04  0.7818609E-02  0.8670821E-01
       -1   -1    0    0    0  501  0.00000000000E+00  0.00000000000E+00  0.21119510208E+04  0.21119510208E+04  0.50400001928E-02 0. -1.
        1   -1    0    0  501    0  0.00000000000E+00  0.00000000000E+00 -0.41316966151E+03  0.41316966154E+03  0.50400001928E-02 0.  1.
    10030    2    1    2    0    0  0.00000000000E+00  0.00000000000E+00  0.16987813593E+04  0.25251206823E+04  0.18682548953E+04 0.  0.
        5    1    3    3  502    0  0.69525652662E+02 -0.24003322928E+03  0.20659163713E+04  0.20809810933E+04  0.46999998093E+01 0. -1.
       -5    1    3    3    0  502 -0.69525652662E+02  0.24003322928E+03 -0.36713501199E+03  0.44413958905E+03  0.46999998093E+01 0.  1.
</event>
<event>
 5   0  0.6676612E-05  0.2304589E+04  0.7818609E-02  0.8476114E-01
        2   -1    0    0  501    0  0.00000000000E+00  0.00000000000E+00  0.19976175319E+04  0.19976175319E+04  0.25500000920E-02 0.  1.
       -2   -1    0    0    0  501  0.00000000000E+00  0.00000000000E+00 -0.66468283857E+03  0.66468283858E+03  0.25500000920E-02 0. -1.
    10030    2    1    2    0    0  0.00000000000E+00  0.00000000000E+00  0.13329346933E+04  0.26623003705E+04  0.23045885459E+04 0.  0.
        2    1    3    3  502    0 -0.51650012739E+03 -0.82620472523E+03  0.13770860161E+04  0.16869358392E+04  0.25500000920E-02 0.  1.
       -2    1    3    3    0  502  0.51650012739E+03  0.82620472523E+03 -0.44151322847E+02  0.97536453129E+03  0.25500000920E-02 0. -1.
</event>
<event>
 5   0  0.2982385E-05  0.2381656E+04  0.7818609E-02  0.8446403E-01
       -1   -1    0    0    0  501  0.00000000000E+00  0.00000000000E+00  0.86121924794E+03  0.86121924796E+03  0.50400001928E-02 0.  1.
        1   -1    0    0  501    0  0.00000000000E+00  0.00000000000E+00 -0.16465861420E+04  0.16465861420E+04  0.50400001928E-02 0. -1.
    10030    2    1    2    0    0  0.00000000000E+00  0.00000000000E+00 -0.78536689410E+03  0.25078053900E+04  0.23816562967E+04 0.  0.
        4    1    3    3  502    0 -0.48323592052E+03  0.46597330085E+03 -0.14283566093E+04  0.15782434186E+04  0.12699999809E+01 0. -1.
       -4    1    3    3    0  502  0.48323592052E+03 -0.46597330085E+03  0.64298971520E+03  0.92956197144E+03  0.12699999809E+01 0.  1.
</event>
<event>
 5   0  0.6468758E-05  0.2339839E+04  0.7818609E-02  0.8462377E-01
        2   -1    0    0  501    0  0.00000000000E+00  0.00000000000E+00  0.10015880688E+04  0.10015880688E+04  0.25500000920E-02 0. -1.
       -2   -1    0    0    0  501  0.00000000000E+00  0.00000000000E+00 -0.13665414832E+04  0.13665414832E+04  0.25500000920E-02 0.  1.
    10030    2    1    2    0    0  0.00000000000E+00  0.00000000000E+00 -0.36495341440E+03  0.23681295520E+04  0.23398390073E+04 0.  0.
        3    1    3    3  502    0  0.55049124524E+03 -0.21391252449E+03 -0.12045944528E+04  0.13415837601E+04  0.10100000352E+00 0.  1.
       -3    1    3    3    0  502 -0.55049124524E+03  0.21391252449E+03  0.83964103844E+03  0.10265457919E+04  0.10100000352E+00 0. -1.
</event>
<event>
 5   0  0.6495405E-05  0.2291812E+04  0.7818609E-02  0.8481157E-01
        2   -1    0    0  501    0  0.00000000000E+00  0.00000000000E+00  0.79940872863E+03  0.79940872864E+03  0.25500000920E-02 0. -1.
       -2   -1    0    0    0  501  0.00000000000E+00  0.00000000000E+00 -0.16425895858E+04  0.16425895858E+04  0.25500000920E-02 0.  1.
    10030    2    1    2    0    0  0.00000000000E+00  0.00000000000E+00 -0.84318085719E+03  0.24419983145E+04  0.22918119054E+04 0.  0.
        5    1    3    3  502    0 -0.17878974888E+03 -0.66656266801E+02  0.78235176581E+03  0.80529821040E+03  0.46999998093E+01 0. -1.
       -5    1    3    3    0  502  0.17878974888E+03  0.66656266801E+02 -0.16255326230E+04  0.16367001041E+04  0.46999998093E+01 0.  1.
</event>
<event>
 5   0  0.6814789E-05  0.2282330E+04  0.7818609E-02  0.8484921E-01
        2   -1    0    0  501    0  0.00000000000E+00  0.00000000000E+00  0.11406662664E+04  0.11406662664E+04  0.25500000920E-02 0. -1.
       -2   -1    0    0    0  501  0.00000000000E+00  0.00000000000E+00 -0.11416636046E+04  0.11416636046E+04  0.25500000920E-02 0.  1.
    10030    2    1    2    0    0  0.00000000000E+00  0.00000000000E+00 -0.99733820913E+00  0.22823298710E+04  0.22823296531E+04 0.  0.
        1    1    3    3  502    0  0.14352571621E+03  0.55365068593E+03 -0.98798468638E+03  0.11415964496E+04  0.50400001928E-02 0.  1.
       -1    1    3    3    0  502 -0.14352571621E+03 -0.55365068593E+03  0.98698734817E+03  0.11407334214E+04  0.50400001928E-02 0. -1.
</event>
<event>
 5   0  0.2982385E-05  0.2342709E+04  0.7818609E-02  0.8461269E-01
       -1   -1    0    0    0  501  0.00000000000E+00  0.00000000000E+00  0.12109892092E+04  0.12109892093E+04  0.50400001928E-02 0.  1.
        1   -1    0    0  501    0  0.00000000000E+00  0.00000000000E+00 -0.11330173157E+04  0.11330173157E+04  0.50400001928E-02 0. -1.
    10030    2    1    2    0    0  0.00000000000E+00  0.00000000000E+00  0.77971893534E+02  0.23440065250E+04  0.23427093232E+04 0.  0.
        4    1    3    3  502    0 -0.43758632084E+02 -0.98025645518E+03 -0.60109681474E+03  0.11507113145E+04  0.12699999809E+01 0. -1.
       -4    1    3    3    0  502  0.43758632084E+02  0.98025645518E+03  0.67906870828E+03  0.11932952104E+04  0.12699999809E+01 0.  1.
</event>
<event>
 5   0  0.6814789E-05  0.2313768E+04  0.7818609E-02  0.8472512E-01
        2   -1    0    0  501    0  0.00000000000E+00  0.00000000000E+00  0.87283589625E+03  0.87283589625E+03  0.25500000920E-02 0. -1.
       -2   -1    0    0    0  501  0.00000000000E+00  0.00000000000E+00 -0.15333704017E+04  0.15333704017E+04  0.25500000920E-02 0.  1.
    10030    2    1    2    0    0  0.00000000000E+00  0.00000000000E+00 -0.66053450540E+03  0.24062062979E+04  0.23137681205E+04 0.  0.
        1    1    3    3  502    0  0.46199998849E+03 -0.48841348824E+03  0.64882858897E+03  0.93432877658E+03  0.50400001928E-02 0. -1.
       -1    1    3    3    0  502 -0.46199998849E+03  0.48841348824E+03 -0.13093630944E+04  0.14718775213E+04  0.50400001928E-02 0.  1.
</event>
<event>
 5   0  0.2982385E-05  0.2365427E+04  0.7818609E-02  0.8452562E-01
        1   -1    0    0  501    0  0.00000000000E+00  0.00000000000E+00  0.18246928089E+04  0.18246928089E+04  0.50400001928E-02 0. -1.
       -1   -1    0    0    0  501  0.00000000000E+00  0.00000000000E+00 -0.76660091942E+03  0.76660091943E+03  0.50400001928E-02 0.  1.
    10030    2    1    2    0    0  0.00000000000E+00  0.00000000000E+00  0.10580918895E+04  0.25912937284E+04  0.23654269678E+04 0.  0.
        4    1    3    3  502    0 -0.48191716251E+03 -0.93815101364E+03  0.11153494483E+04  0.15350496671E+04  0.12699999809E+01 0. -1.
       -4    1    3    3    0  502  0.48191716251E+03  0.93815101364E+03 -0.57257558784E+02  0.10562440612E+04  0.12699999809E+01 0.  1.
</event>
<event>
 5   0  0.6702421E-05  0.1870042E+04  0.7818609E-02  0.8669914E-01
       -2   -1    0    0    0  501  0.00000000000E+00  0.00000000000E+00  0.95611629802E+03  0.95611629802E+03  0.25500000920E-02 0. -1.
        2   -1    0    0  501    0  0.00000000000E+00  0.00000000000E+00 -0.91439152027E+03  0.91439152028E+03  0.25500000920E-02 0.  1.
    10030    2    1    2    0    0  0.00000000000E+00  0.00000000000E+00  0.41724777747E+02  0.18705078183E+04  0.18700423902E+04 0.  0.
        4    1    3    3  502    0 -0.88509871081E+03 -0.13451573234E+03  0.29068647810E+03  0.94127278277E+03  0.12699999809E+01 0.  1.
       -4    1    3    3    0  502  0.88509871081E+03  0.13451573234E+03 -0.24896170036E+03  0.92923503554E+03  0.12699999809E+01 0. -1.
</event>
<event>
 5   0  0.2962279E-05  0.2302923E+04  0.7818609E-02  0.8476770E-01
        1   -1    0    0  501    0  0.00000000000E+00  0.00000000000E+00  0.21522163117E+04  0.21522163117E+04  0.50400001928E-02 0.  1.
       -1   -1    0    0    0  501  0.00000000000E+00  0.00000000000E+00 -0.61604542610E+03  0.61604542612E+03  0.50400001928E-02 0. -1.
    10030    2    1    2    0    0  0.00000000000E+00  0.00000000000E+00  0.15361708856E+04  0.27682617378E+04  0.23029225040E+04 0.  0.
        1    1    3    3  502    0  0.70421835539E+03  0.95983995850E+01  0.18631177776E+04  0.19917890135E+04  0.50400001928E-02 0.  1.
       -1    1    3    3    0  502 -0.70421835539E+03 -0.95983995850E+01 -0.32694689198E+03  0.77647272427E+03  0.50400001928E-02 0. -1.
</event>
<event>
 5   0  0.6495405E-05  0.2322425E+04  0.7818609E-02  0.8469132E-01
       -2   -1    0    0    0  501  0.00000000000E+00  0.00000000000E+00  0.95674808618E+03  0.95674808618E+03  0.25500000920E-02 0.  1.
        2   -1    0    0  501    0  0.00000000000E+00  0.00000000000E+00 -0.14093719830E+04  0.14093719830E+04  0.25500000920E-02 0. -1.
    10030    2    1    2    0    0  0.00000000000E+00  0.00000000000E+00 -0.45262389687E+03  0.23661200692E+04  0.23224245499E+04 0.  0.
        5    1    3    3  502    0 -0.29296921848E+03  0.44546205973E+03  0.82466060898E+03  0.98201559033E+03  0.46999998093E+01 0.  1.
       -5    1    3    3    0  502  0.29296921848E+03 -0.44546205973E+03 -0.12772845058E+04  0.13841044789E+04  0.46999998093E+01 0. -1.
</event>
<event>
 5   0  0.6495405E-05  0.2319319E+04  0.7818609E-02  0.8470343E-01
        2   -1    0    0  501    0  0.00000000000E+00  0.00000000000E+00  0.10029989047E+04  0.10029989047E+04  0.25500000920E-02 0.  1.
       -2   -1    0    0    0  501  0.00000000000E+00  0.00000000000E+00 -0.13407891304E+04  0.13407891304E+04  0.25500000920E-02 0. -1.
    10030    2    1    2    0    0  0.00000000000E+00  0.00000000000E+00 -0.33779022568E+03  0.23437880351E+04  0.23193188907E+04 0.  0.
        5    1    3    3  502    0 -0.97609859927E+00  0.95340744388E+02 -0.13368118003E+04  0.13402159116E+04  0.46999998093E+01 0. -1.
       -5    1    3    3    0  502  0.97609859927E+00 -0.95340744388E+02  0.99902157465E+03  0.10035721234E+04  0.46999998093E+01 0.  1.
</event>
<event>
 5   0  0.6676612E-05  0.2271498E+04  0.7818609E-02  0.8489244E-01
       -2   -1    0    0    0  501  0.00000000000E+00  0.00000000000E+00  0.81195131520E+03  0.81195131520E+03  0.25500000920E-02 0.  1.
        2   -1    0    0  501    0  0.00000000000E+00  0.00000000000E+00 -0.15886741512E+04  0.15886741512E+04  0.25500000920E-02 0. -1.
    10030    2    1    2    0    0  0.00000000000E+00  0.00000000000E+00 -0.77672283598E+03  0.24006254664E+04  0.22714982425E+04 0.  0.
        2    1    3    3  502    0 -0.93157575814E+03  0.64966182032E+03 -0.39435780440E+03  0.12022528652E+04  0.25500000920E-02 0.  1.
       -2    1    3    3    0  502  0.93157575814E+03 -0.64966182032E+03 -0.38236503158E+03  0.11983726012E+04  0.25500000920E-02 0. -1.
</event>
<event>
 5   0  0.6676612E-05  0.2145013E+04  0.7818609E-02  0.8541670E-01
       -2   -1    0    0    0  501  0.00000000000E+00  0.00000000000E+00  0.66378222071E+03  0.66378222072E+03  0.25500000920E-02 0. -1.
        2   -1    0    0  501    0  0.00000000000E+00  0.00000000000E+00 -0.17329034595E+04  0.17329034595E+04  0.25500000920E-02 0.  1.
    10030    2    1    2    0    0  0.00000000000E+00  0.00000000000E+00 -0.10691212388E+04  0.23966856802E+04  0.21450132928E+04 0.  0.
        2    1    3    3  502    0  0.67654456068E+03  0.21354111032E+03 -0.14332698245E+04  0.15992419261E+04  0.25500000920E-02 0.  1.
       -2    1    3    3    0  502 -0.67654456068E+03 -0.21354111032E+03  0.36414858576E+03  0.79744375407E+03  0.25500000920E-02 0. -1.
</event>
<event>
 5   0  0.6814789E-05  0.2292089E+04  0.7818609E-02  0.8481047E-01
        2   -1    0    0  501    0  0.00000000000E+00  0.00000000000E+00  0.10220262294E+04  0.10220262294E+04  0.25500000920E-02 0.  1.
       -2   -1    0    0    0  501  0.00000000000E+00  0.00000000000E+00 -0.12851116200E+04  0.12851116200E+04  0.25500000920E-02 0. -1.
    10030    2    1    2    0    0  0.00000000000E+00  0.00000000000E+00 -0.26308539059E+03  0.23071378494E+04  0.22920888144E+04 0.  0.
        1    1    3    3  502    0  0.11060823363E+03  0.53885460783E+02  0.10153592221E+04  0.10227864753E+04  0.50400001928E-02 0.  1.
       -1    1    3    3    0  502 -0.11060823363E+03 -0.53885460783E+02 -0.12784446127E+04  0.12843513740E+04  0.50400001928E-02 0. -1.
</event>
<event>
 5   0  0.2944089E-05  0.2122417E+04  0.7818609E-02  0.8551432E-01
       -1   -1    0    0    0  501  0.00000000000E+00  0.00000000000E+00  0.53910012420E+03  0.53910012423E+03  0.50400001928E-02 0.  1.
        1   -1    0    0  501    0  0.00000000000E+00  0.00000000000E+00 -0.20889700013E+04  0.20889700013E+04  0.50400001928E-02 0. -1.
    10030    2    1    2    0    0  0.00000000000E+00  0.00000000000E+00 -0.15498698771E+04  0.26280701256E+04  0.21224174775E+04 0.  0.
        5    1    3    3  502    0 -0.16867530593E+03 -0.95797910997E+03 -0.24964141328E+03  0.10042500979E+04  0.46999998093E+01 0.  1.
       -5    1    3    3    0  502  0.16867530593E+03  0.95797910997E+03 -0.13002284639E+04  0.16238200276E+04  0.46999998093E+01 0. -1.
</event>
<event>
 5   0  0.3118614E-05  0.2392967E+04  0.7818609E-02  0.8442141E-01
        1   -1    0    0  501    0  0.00000000000E+00  0.00000000000E+00  0.21030273359E+04  0.21030273359E+04  0.50400001928E-02 0. -1.
       -1   -1    0    0    0  501  0.00000000000E+00  0.00000000000E+00 -0.68071976638E+03  0.68071976640E+03  0.50400001928E-02 0.  1.
    10030    2    1    2    0    0  0.00000000000E+00  0.00000000000E+00  0.14223075696E+04  0.27837471023E+04  0.23929665914E+04 0.  0.
        3    1    3    3  502    0 -0.10776327826E+04  0.32219852657E+03  0.11857873788E+04  0.16343793998E+04  0.10100000352E+00 0. -1.
       -3    1    3    3    0  502  0.10776327826E+04 -0.32219852657E+03  0.23652019075E+03  0.11493677025E+04  0.10100000352E+00 0.  1.
</event>
<event>
 5   0  0.6468758E-05  0.2277649E+04  0.7818609E-02  0.8486786E-01
       -2   -1    0    0    0  501  0.00000000000E+00  0.00000000000E+00  0.59657086568E+03  0.59657086569E+03  0.25500000920E-02 0.  1.
        2   -1    0    0  501    0  0.00000000000E+00  0.00000000000E+00 -0.21739593401E+04  0.21739593401E+04  0.25500000920E-02 0. -1.
    10030    2    1    2    0    0  0.00000000000E+00  0.00000000000E+00 -0.15773884744E+04  0.27705302058E+04  0.22776486169E+04 0.  0.
        3    1    3    3  502    0  0.43938372447E+02 -0.23471266676E+03 -0.21431646616E+04  0.21564265333E+04  0.10100000352E+00 0. -1.
       -3    1    3    3    0  502 -0.43938372447E+02  0.23471266676E+03  0.56577618714E+03  0.61410367255E+03  0.10100000352E+00 0.  1.
</event>
<event>
 5   0  0.2962279E-05  0.2034066E+04  0.7818609E-02  0.8590857E-01
        1   -1    0    0  501    0  0.00000000000E+00  0.00000000000E+00  0.17799433817E+04  0.17799433817E+04  0.50400001928E-02 0.  1.
       -1   -1    0    0    0  501  0.00000000000E+00  0.00000000000E+00 -0.58111729969E+03  0.58111729972E+03  0.50400001928E-02 0. -1.
    10030    2    1    2    0    0  0.00000000000E+00  0.00000000000E+00  0.11988260820E+04  0.23610606814E+04  0.20340657724E+04 0.  0.
        1    1    3    3  502    0  0.31243141729E+03  0.41190501878E+02  0.17218413436E+04  0.17504421329E+04  0.50400001928E-02 0.  1.
       -1    1    3    3    0  502 -0.31243141729E+03 -0.41190501878E+02 -0.52301526159E+03  0.61061854856E+03  0.50400001928E-02 0. -1.
</event>
<event>
 5   0  0.6676612E-05  0.2405668E+04  0.7818609E-02  0.8437385E-01
       -2   -1    0    0    0  501  0.00000000000E+00  0.00000000000E+00  0.69314888392E+03  0.69314888392E+03  0.25500000920E-02 0. -1.
        2   -1    0    0  501    0  0.00000000000E+00  0.00000000000E+00 -0.20872991375E+04  0.20872991375E+04  0.25500000920E-02 0.  1.
    10030    2    1    2    0    0  0.00000000000E+00  0.00000000000E+00 -0.13941502535E+04  0.27804480214E+04  0.24056675311E+04 0.  0.
        2    1    3    3  502    0  0.11881652524E+04  0.70171839937E+02 -0.49639208084E+03  0.12895991052E+04  0.25500000920E-02 0.  1.
       -2    1    3    3    0  502 -0.11881652524E+04 -0.70171839937E+02 -0.89775817270E+03  0.14908489162E+04  0.25500000920E-02 0. -1.
</event>
<event>
 5   0  0.2982385E-05  0.2321745E+04  0.7818609E-02  0.8469396E-01
        1   -1    0    0  501    0  0.00000000000E+00  0.00000000000E+00  0.19718030831E+04  0.19718030831E+04  0.50400001928E-02 0. -1.
       -1   -1    0    0    0  501  0.00000000000E+00  0.00000000000E+00 -0.68344809755E+03  0.68344809757E+03  0.50400001928E-02 0.  1.
    10030    2    1    2    0    0  0.00000000000E+00  0.00000000000E+00  0.12883549855E+04  0.26552511807E+04  0.23217450902E+04 0.  0.
        4    1    3    3  502    0 -0.64742214828E+03  0.29600068031E+03 -0.40452126947E+03  0.81878624267E+03  0.12699999809E+01 0.  1.
       -4    1    3    3    0  502  0.64742214828E+03 -0.29600068031E+03  0.16928762550E+04  0.18364649380E+04  0.12699999809E+01 0. -1.
</event>
<event>
 5   0  0.2962279E-05  0.2273882E+04  0.7818609E-02  0.8488291E-01
        1   -1    0    0  501    0  0.00000000000E+00  0.00000000000E+00  0.12953882367E+04  0.12953882367E+04  0.50400001928E-02 0. -1.
       -1   -1    0    0    0  501  0.00000000000E+00  0.00000000000E+00 -0.99787456264E+03  0.99787456266E+03  0.50400001928E-02 0.  1.
    10030    2    1    2    0    0  0.00000000000E+00  0.00000000000E+00  0.29751367403E+03  0.22932627993E+04  0.22738821167E+04 0.  0.
        1    1    3    3  502    0 -0.88080430339E+03  0.91307328161E+02 -0.57039989917E+03  0.10533324708E+04  0.50400001928E-02 0.  1.
       -1    1    3    3    0  502  0.88080430339E+03 -0.91307328161E+02  0.86791357320E+03  0.12399303285E+04  0.50400001928E-02 0. -1.
</event>
<event>
 5   0  0.3006265E-05  0.2309823E+04  0.7818609E-02  0.8474058E-01
        1   -1    0    0  501    0  0.00000000000E+00  0.00000000000E+00  0.11723100093E+04  0.11723100093E+04  0.50400001928E-02 0.  1.
       -1   -1    0    0    0  501  0.00000000000E+00  0.00000000000E+00 -0.11377708747E+04  0.11377708748E+04  0.50400001928E-02 0. -1.
    10030    2    1    2    0    0  0.00000000000E+00  0.00000000000E+00  0.34539134501E+02  0.23100808840E+04  0.23098226640E+04 0.  0.
        2    1    3    3  502    0  0.10078639700E+04  0.17026523875E+03 -0.52041507977E+03  0.11470012593E+04  0.25500000920E-02 0. -1.
       -2    1    3    3    0  502 -0.10078639700E+04 -0.17026523875E+03  0.55495421427E+03  0.11630796247E+04  0.25500000920E-02 0.  1.
</event>
<event>
 5   0  0.3118614E-05  0.2261724E+04  0.7818609E-02  0.8493167E-01
        1   -1    0    0  501    0  0.00000000000E+00  0.00000000000E+00  0.13432326969E+04  0.13432326969E+04  0.50400001928E-02 0.  1.
       -1   -1    0    0    0  501  0.00000000000E+00  0.00000000000E+00 -0.95206828423E+03  0.95206828424E+03  0.50400001928E-02 0. -1.
    10030    2    1    2    0    0  0.00000000000E+00  0.00000000000E+00  0.39116441270E+03  0.22953009812E+04  0.22617243414E+04 0.  0.
        3    1    3    3  502    0  0.82130917465E+03  0.56396788091E+03  0.73853949675E+03  0.12401810874E+04  0.10100000352E+00 0.  1.
       -3    1    3    3    0  502 -0.82130917465E+03 -0.56396788091E+03 -0.34737508404E+03  0.10551198938E+04  0.10100000352E+00 0. -1.
</event>
<event>
 5   0  0.6702421E-05  0.2268090E+04  0.7818609E-02  0.8490610E-01
       -2   -1    0    0    0  501  0.00000000000E+00  0.00000000000E+00  0.63235222067E+03  0.63235222067E+03  0.25500000920E-02 0. -1.
        2   -1    0    0  501    0  0.00000000000E+00  0.00000000000E+00 -0.20337684609E+04  0.20337684609E+04  0.25500000920E-02 0.  1.
    10030    2    1    2    0    0  0.00000000000E+00  0.00000000000E+00 -0.14014162402E+04  0.26661206816E+04  0.22680899476E+04 0.  0.
        4    1    3    3  502    0  0.42238633340E+03  0.82051012518E+03 -0.14754715122E+04  0.17403059721E+04  0.12699999809E+01 0.  1.
       -4    1    3    3    0  502 -0.42238633340E+03 -0.82051012518E+03  0.74055271954E+02  0.92581470953E+03  0.12699999809E+01 0. -1.
</event>
<event>
 5   0  0.6702421E-05  0.2303694E+04  0.7818609E-02  0.8476466E-01
        2   -1    0    0  501    0  0.00000000000E+00  0.00000000000E+00  0.16731429272E+04  0.16731429272E+04  0.25500000920E-02 0.  1.
       -2   -1    0    0    0  501  0.00000000000E+00  0.00000000000E+00 -0.79296955025E+03  0.79296955026E+03  0.25500000920E-02 0. -1.
    10030    2    1    2    0    0  0.00000000000E+00  0.00000000000E+00  0.88017337695E+03  0.24661124775E+04  0.23036938985E+04 0.  0.
        4    1    3    3  502    0 -0.95153734543E+03 -0.64198050521E+03  0.54269596228E+03  0.12696782306E+04  0.12699999809E+01 0. -1.
       -4    1    3    3    0  502  0.95153734543E+03  0.64198050521E+03  0.33747741467E+03  0.11964342469E+04  0.12699999809E+01 0.  1.
</event>
<event>
 5   0  0.3006265E-05  0.2326181E+04  0.7818609E-02  0.8467669E-01
        1   -1    0    0  501    0  0.00000000000E+00  0.00000000000E+00  0.15626475631E+04  0.15626475631E+04  0.50400001928E-02 0. -1.
       -1   -1    0    0    0  501  0.00000000000E+00  0.00000000000E+00 -0.86569735208E+03  0.86569735209E+03  0.50400001928E-02 0.  1.
    10030    2    1    2    0    0  0.00000000000E+00  0.00000000000E+00  0.69695021100E+03  0.24283449152E+04  0.23261812978E+04 0.  0.
        2    1    3    3  502    0  0.98947671764E+03  0.58992079224E+03  0.18109239269E+03  0.11661325699E+04  0.25500000920E-02 0. -1.
       -2    1    3    3    0  502 -0.98947671764E+03 -0.58992079224E+03  0.51585781831E+03  0.12622123453E+04  0.25500000920E-02 0.  1.
</event>
<event>
 5   0  0.6702421E-05  0.2367141E+04  0.7818609E-02  0.8451909E-01
        2   -1    0    0  501    0  0.00000000000E+00  0.00000000000E+00  0.17292689112E+04  0.17292689112E+04  0.25500000920E-02 0.  1.
       -2   -1    0    0    0  501  0.00000000000E+00  0.00000000000E+00 -0.81007622711E+03  0.81007622711E+03  0.25500000920E-02 0. -1.
    10030    2    1    2    0    0  0.00000000000E+00  0.00000000000E+00  0.91919268412E+03  0.25393451383E+04  0.23671414282E+04 0.  0.
        4    1    3    3  502    0 -0.90290964328E+03  0.72159363209E+03  0.73287302096E+03  0.13685933185E+04  0.12699999809E+01 0.  1.
       -4    1    3    3    0  502  0.90290964328E+03 -0.72159363209E+03  0.18631966316E+03  0.11707518198E+04  0.12699999809E+01 0. -1.
</event>
<event>
 5   0  0.6814789E-05  0.2054485E+04  0.7818609E-02  0.8581562E-01
       -2   -1    0    0    0  501  0.00000000000E+00  0.00000000000E+00  0.74727824583E+03  0.74727824584E+03  0.25500000920E-02 0.  1.
        2   -1    0    0  501    0  0.00000000000E+00  0.00000000000E+00 -0.14120944842E+04  0.14120944842E+04  0.25500000920E-02 0. -1.
    10030    2    1    2    0    0  0.00000000000E+00  0.00000000000E+00 -0.66481623833E+03  0.21593727300E+04  0.20544853264E+04 0.  0.
        1    1    3    3  502    0 -0.17319205079E+03  0.53631704570E+03  0.57027195046E+03  0.80177400648E+03  0.50400001928E-02 0. -1.
       -1    1    3    3    0  502  0.17319205079E+03 -0.53631704570E+03 -0.12350881888E+04  0.13575987235E+04  0.50400001928E-02 0.  1.
</event>
<event>
 5   0  0.6702421E-05  0.2118527E+04  0.7818609E-02  0.8553126E-01
        2   -1    0    0  501    0  0.00000000000E+00  0.00000000000E+00  0.13518983348E+04  0.13518983348E+04  0.25500000920E-02 0.  1.
       -2   -1    0    0    0  501  0.00000000000E+00  0.00000000000E+00 -0.82997311569E+03  0.82997311570E+03  0.25500000920E-02 0. -1.
    10030    2    1    2    0    0  0.00000000000E+00  0.00000000000E+00  0.52192521912E+03  0.21818714505E+04  0.21185271044E+04 0.  0.
        4    1    3    3  502    0 -0.87277696821E+03  0.59178945764E+03  0.15754472379E+03  0.10661971447E+04  0.12699999809E+01 0. -1.
       -4    1    3    3    0  502  0.87277696821E+03 -0.59178945764E+03  0.36438049533E+03  0.11156743058E+04  0.12699999809E+01 0.  1.
</event>
<event>
 5   0  0.2944089E-05  0.2281447E+04  0.7818609E-02  0.8485273E-01
        1   -1    0    0  501    0  0.00000000000E+00  0.00000000000E+00  0.11315539300E+04  0.11315539300E+04  0.50400001928E-02 0. -1.
       -1   -1    0    0    0  501  0.00000000000E+00  0.00000000000E+00 -0.11499669882E+04  0.11499669882E+04  0.50400001928E-02 0.  1.
    10030    2    1    2    0    0  0.00000000000E+00  0.00000000000E+00 -0.18413058227E+02  0.22815209182E+04  0.22814466155E+04 0.  0.
        5    1    3    3  502    0 -0.10718701806E+04  0.39026024306E+03 -0.48666420225E+01  0.11407254339E+04  0.46999998093E+01 0. -1.
       -5    1    3    3    0  502  0.10718701806E+04 -0.39026024306E+03 -0.13546416205E+02  0.11407954842E+04  0.46999998093E+01 0.  1.
</event>
<event>
 5   0  0.6495405E-05  0.2303987E+04  0.7818609E-02  0.8476351E-01
       -2   -1    0    0    0  501  0.00000000000E+00  0.00000000000E+00  0.17898932578E+04  0.17898932579E+04  0.25500000920E-02 0. -1.
        2   -1    0    0  501    0  0.00000000000E+00  0.00000000000E+00 -0.74143443029E+03  0.74143443030E+03  0.25500000920E-02 0.  1.
    10030    2    1    2    0    0  0.00000000000E+00  0.00000000000E+00  0.10484588276E+04  0.25313276881E+04  0.23039865346E+04 0.  0.
        5    1    3    3  502    0  0.92860512448E+03 -0.27697864933E+03 -0.16016689635E+03  0.98219151599E+03  0.46999998093E+01 0.  1.
       -5    1    3    3    0  502 -0.92860512448E+03  0.27697864933E+03  0.12086257239E+04  0.15491361722E+04  0.46999998093E+01 0. -1.
</event>
<event>
 5   0  0.2944089E-05  0.2299389E+04  0.7818609E-02  0.8478162E-01
       -1   -1    0    0    0  501  0.00000000000E+00  0.00000000000E+00  0.69779200469E+03  0.69779200471E+03  0.50400001928E-02 0.  1.
        1   -1    0    0  501    0  0.00000000000E+00  0.00000000000E+00 -0.18942567376E+04  0.18942567376E+04  0.50400001928E-02 0. -1.
    10030    2    1    2    0    0  0.00000000000E+00  0.00000000000E+00 -0.11964647329E+04  0.25920487423E+04  0.22993887939E+04 0.  0.
        5    1    3    3  502    0 -0.50272456746E+02 -0.63388521003E+03 -0.16779717904E+04  0.17944216892E+04  0.46999998093E+01 0. -1.
       -5    1    3    3    0  502  0.50272456746E+02  0.63388521003E+03  0.48150705749E+03  0.79762705308E+03  0.46999998093E+01 0.  1.
</event>
<event>
 5   0  0.3118614E-05  0.2292250E+04  0.7818609E-02  0.8480983E-01
       -1   -1    0    0    0  501  0.00000000000E+00  0.00000000000E+00  0.99303165224E+03  0.99303165225E+03  0.50400001928E-02 0. -1.
        1   -1    0    0  501    0  0.00000000000E+00  0.00000000000E+00 -0.13228207264E+04  0.13228207264E+04  0.50400001928E-02 0.  1.
    10030    2    1    2    0    0  0.00000000000E+00  0.00000000000E+00 -0.32978907412E+03  0.23158523786E+04  0.22922502931E+04 0.  0.
        3    1    3    3  502    0  0.50966644099E+03 -0.50707555833E+03 -0.10666753064E+04  0.12863443250E+04  0.10100000352E+00 0.  1.
       -3    1    3    3    0  502 -0.50966644099E+03  0.50707555833E+03  0.73688623230E+03  0.10295080536E+04  0.10100000352E+00 0. -1.
</event>
<event>
 5   0  0.6468758E-05  0.1787909E+04  0.7818609E-02  0.8712756E-01
       -2   -1    0    0    0  501  0.00000000000E+00  0.00000000000E+00  0.73733732472E+03  0.73733732472E+03  0.25500000920E-02 0. -1.
        2   -1    0    0  501    0  0.00000000000E+00  0.00000000000E+00 -0.10838390418E+04  0.10838390418E+04  0.25500000920E-02 0.  1.
    10030    2    1    2    0    0  0.00000000000E+00  0.00000000000E+00 -0.34650171709E+03  0.18211763665E+04  0.17879093708E+04 0.  0.
        3    1    3    3  502    0 -0.55668266107E+03 -0.36762287981E+03 -0.77939696434E+03  0.10259151062E+04  0.10100000352E+00 0.  1.
       -3    1    3    3    0  502  0.55668266107E+03  0.36762287981E+03  0.43289524725E+03  0.79526126034E+03  0.10100000352E+00 0. -1.
</event>
<event>
 5   0  0.2962279E-05  0.2320094E+04  0.7818609E-02  0.8470040E-01
       -1   -1    0    0    0  501  0.00000000000E+00  0.00000000000E+00  0.62468064184E+03  0.62468064186E+03  0.50400001928E-02 0. -1.
        1   -1    0    0  501    0  0.00000000000E+00  0.00000000000E+00 -0.21542356171E+04  0.21542356171E+04  0.50400001928E-02 0.  1.
    10030    2    1    2    0    0  0.00000000000E+00  0.00000000000E+00 -0.15295549752E+04  0.27789162589E+04  0.23200942119E+04 0.  0.
        1    1    3    3  502    0 -0.78909860412E+03  0.79169604337E+03 -0.11363728919E+04  0.15939895174E+04  0.50400001928E-02 0.  1.
       -1    1    3    3    0  502  0.78909860412E+03 -0.79169604337E+03 -0.39318208329E+03  0.11849267415E+04  0.50400001928E-02 0. -1.
</event>
<event>
 5   0  0.2982385E-05  0.2332714E+04  0.7818609E-02  0.8465133E-01
        1   -1    0    0  501    0  0.00000000000E+00  0.00000000000E+00  0.20004556506E+04  0.20004556506E+04  0.50400001928E-02 0.  1.
       -1   -1    0    0    0  501  0.00000000000E+00  0.00000000000E+00 -0.68003933048E+03  0.68003933050E+03  0.50400001928E-02 0. -1.
    10030    2    1    2    0    0  0.00000000000E+00  0.00000000000E+00  0.13204163201E+04  0.26804949811E+04  0.23327138884E+04 0.  0.
        4    1    3    3  502    0 -0.77067643017E+02 -0.91397182514E+03 -0.16769642617E+03  0.93242030383E+03  0.12699999809E+01 0. -1.
       -4    1    3    3    0  502  0.77067643017E+02  0.91397182514E+03  0.14881127462E+04  0.17480746772E+04  0.12699999809E+01 0.  1.
</event>
<event>
 5   0  0.2944089E-05  0.2277158E+04  0.7818609E-02  0.8486982E-01
       -1   -1    0    0    0  501  0.00000000000E+00  0.00000000000E+00  0.10073843238E+04  0.10073843238E+04  0.50400001928E-02 0.  1.
        1   -1    0    0  501    0  0.00000000000E+00  0.00000000000E+00 -0.12868594604E+04  0.12868594604E+04  0.50400001928E-02 0. -1.
    10030    2    1    2    0    0  0.00000000000E+00  0.00000000000E+00 -0.27947513659E+03  0.22942437842E+04  0.22771579193E+04 0.  0.
        5    1    3    3  502    0 -0.39200355389E+03 -0.35941626223E+03  0.87453999085E+03  0.10235668622E+04  0.46999998093E+01 0.  1.
       -5    1    3    3    0  502  0.39200355389E+03  0.35941626223E+03 -0.11540151274E+04  0.12706769220E+04  0.46999998093E+01 0. -1.
</event>
<event>
 5   0  0.2982385E-05  0.2336015E+04  0.7818609E-02  0.8463855E-01
       -1   -1    0    0    0  501  0.00000000000E+00  0.00000000000E+00  0.84106241292E+03  0.84106241294E+03  0.50400001928E-02 0.  1.
        1   -1    0    0  501    0  0.00000000000E+00  0.00000000000E+00 -0.16220449384E+04  0.16220449384E+04  0.50400001928E-02 0. -1.
    10030    2    1    2    0    0  0.00000000000E+00  0.00000000000E+00 -0.78098252545E+03  0.24631073513E+04  0.23360145802E+04 0.  0.
        4    1    3    3  502    0 -0.26927718040E+03  0.64472940063E+02 -0.15869387179E+04  0.16109137367E+04  0.12699999809E+01 0. -1.
       -4    1    3    3    0  502  0.26927718040E+03 -0.64472940063E+02  0.80595619240E+03  0.85219361465E+03  0.12699999809E+01 0.  1.
</event>
<event>
 5   0  0.2962279E-05  0.1726197E+04  0.7818609E-02  0.8746563E-01
        1   -1    0    0  501    0  0.00000000000E+00  0.00000000000E+00  0.15501323153E+04  0.15501323153E+04  0.50400001928E-02 0.  1.
       -1   -1    0    0    0  501  0.00000000000E+00  0.00000000000E+00 -0.48056489705E+03  0.48056489708E+03  0.50400001928E-02 0. -1.
    10030    2    1    2    0    0  0.00000000000E+00  0.00000000000E+00  0.10695674182E+04  0.20306972124E+04  0.17261971806E+04 0.  0.
        1    1    3    3  502    0  0.57264071672E+03 -0.49123760535E+03  0.41666910725E+02  0.75562418359E+03  0.50400001928E-02 0.  1.
       -1    1    3    3    0  502 -0.57264071672E+03  0.49123760535E+03  0.10279005075E+04  0.12750730288E+04  0.50400001928E-02 0. -1.
</event>
<event>
 5   0  0.6702421E-05  0.2290836E+04  0.7818609E-02  0.8481543E-01
       -2   -1    0    0    0  501  0.00000000000E+00  0.00000000000E+00  0.91480000350E+03  0.91480000351E+03  0.25500000920E-02 0. -1.
        2   -1    0    0  501    0  0.00000000000E+00  0.00000000000E+00 -0.14341746279E+04  0.14341746279E+04  0.25500000920E-02 0.  1.
    10030    2    1    2    0    0  0.00000000000E+00  0.00000000000E+00 -0.51937462441E+03  0.23489746314E+04  0.22908364888E+04 0.  0.
        4    1    3    3  502    0  0.31032437872E+03 -0.13370346149E+03  0.86253015576E+03  0.92635723030E+03  0.12699999809E+01 0. -1.
       -4    1    3    3    0  502 -0.31032437872E+03  0.13370346149E+03 -0.13819047802E+04  0.14226174011E+04  0.12699999809E+01 0.  1.
</event>
<event>
 5   0  0.2982385E-05  0.2342015E+04  0.7818609E-02  0.8461537E-01
       -1   -1    0    0    0  501  0.00000000000E+00  0.00000000000E+00  0.13158168941E+04  0.13158168941E+04  0.50400001928E-02 0.  1.
        1   -1    0    0  501    0  0.00000000000E+00  0.00000000000E+00 -0.10421347242E+04  0.10421347242E+04  0.50400001928E-02 0. -1.
    10030    2    1    2    0    0  0.00000000000E+00  0.00000000000E+00  0.27368216990E+03  0.23579516184E+04  0.23420149240E+04 0.  0.
        4    1    3    3  502    0 -0.95977777969E+03  0.48333994302E+03  0.60526607240E+03  0.12333448497E+04  0.12699999809E+01 0.  1.
       -4    1    3    3    0  502  0.95977777969E+03 -0.48333994302E+03 -0.33158390251E+03  0.11246067687E+04  0.12699999809E+01 0. -1.
</event>
<event>
 5   0  0.2962279E-05  0.2316444E+04  0.7818609E-02  0.8471465E-01
       -1   -1    0    0    0  501  0.00000000000E+00  0.00000000000E+00  0.75340399240E+03  0.75340399241E+03  0.50400001928E-02 0. -1.
        1   -1    0    0  501    0  0.00000000000E+00  0.00000000000E+00 -0.17805568999E+04  0.17805568999E+04  0.50400001928E-02 0.  1.
    10030    2    1    2    0    0  0.00000000000E+00  0.00000000000E+00 -0.10271529075E+04  0.25339608924E+04  0.23164444108E+04 0.  0.
        1    1    3    3  502    0 -0.80494219498E+03 -0.36291833590E+03  0.30636567628E+03  0.93461306615E+03  0.50400001928E-02 0. -1.
       -1    1    3    3    0  502  0.80494219498E+03  0.36291833590E+03 -0.13335185838E+04  0.15993478262E+04  0.50400001928E-02 0.  1.
</event>
<event>
 5   0  0.3118614E-05  0.2340387E+04  0.7818609E-02  0.8462165E-01
        1   -1    0    0  501    0  0.00000000000E+00  0.00000000000E+00  0.15684391520E+04  0.15684391520E+04  0.50400001928E-02 0.  1.
       -1   -1    0    0    0  501  0.00000000000E+00  0.00000000000E+00 -0.87306696549E+03  0.87306696551E+03  0.50400001928E-02 0. -1.
    10030    2    1    2    0    0  0.00000000000E+00  0.00000000000E+00  0.69537218652E+03  0.24415061175E+04  0.23403866441E+04 0.  0.
        3    1    3    3  502    0  0.89909594685E+03  0.34499244170E+03 -0.34583750499E+03  0.10232286629E+04  0.10100000352E+00 0. -1.
       -3    1    3    3    0  502 -0.89909594685E+03 -0.34499244170E+03  0.10412096915E+04  0.14182774546E+04  0.10100000352E+00 0.  1.
</event>
<event>
 5   0  0.3118614E-05  0.2344367E+04  0.7818609E-02  0.8460630E-01
        1   -1    0    0  501    0  0.00000000000E+00  0.00000000000E+00  0.17025248090E+04  0.17025248090E+04  0.50400001928E-02 0. -1.
       -1   -1    0    0    0  501  0.00000000000E+00  0.00000000000E+00 -0.80704504622E+03  0.80704504623E+03  0.50400001928E-02 0.  1.
    10030    2    1    2    0    0  0.00000000000E+00  0.00000000000E+00  0.89547976282E+03  0.25095698553E+04  0.23443670474E+04 0.  0.
        3    1    3    3  502    0 -0.92493347726E+03  0.50640041292E+03  0.99574305102E+03  0.14503267044E+04  0.10100000352E+00 0. -1.
       -3    1    3    3    0  502  0.92493347726E+03 -0.50640041292E+03 -0.10026328820E+03  0.10592431509E+04  0.10100000352E+00 0.  1.
</event>
<event>
 5   0  0.6702421E-05  0.2324743E+04  0.7818609E-02  0.8468229E-01
       -2   -1    0    0    0  501  0.00000000000E+00  0.00000000000E+00  0.77104821998E+03  0.77104821998E+03  0.25500000920E-02 0.  1.
        2   -1    0    0  501    0  0.00000000000E+00  0.00000000000E+00 -0.17523001798E+04  0.17523001798E+04  0.25500000920E-02 0. -1.
    10030    2    1    2    0    0  0.00000000000E+00  0.00000000000E+00 -0.98125195987E+03  0.25233483998E+04  0.23247433704E+04 0.  0.
        4    1    3    3  502    0 -0.62919098152E+03  0.10173747909E+03  0.56446343949E+03  0.85138263624E+03  0.12699999809E+01 0.  1.
       -4    1    3    3    0  502  0.62919098152E+03 -0.10173747909E+03 -0.15457153994E+04  0.16719657636E+04  0.12699999809E+01 0. -1.
</event>
<event>
 5   0  0.3006265E-05  0.1844005E+04  0.7818609E-02  0.8683242E-01
        1   -1    0    0  501    0  0.00000000000E+00  0.00000000000E+00  0.13347892300E+04  0.13347892300E+04  0.50400001928E-02 0. -1.
       -1   -1    0    0    0  501  0.00000000000E+00  0.00000000000E+00 -0.63687116178E+03  0.63687116180E+03  0.50400001928E-02 0.  1.
    10030    2    1    2    0    0  0.00000000000E+00  0.00000000000E+00  0.69791806818E+03  0.19716603918E+04  0.18440051710E+04 0.  0.
        2    1    3    3  502    0 -0.91985726228E+03  0.61371904376E+02  0.36349714279E+03  0.99097631982E+03  0.25500000920E-02 0.  1.
       -2    1    3    3    0  502  0.91985726228E+03 -0.61371904376E+02  0.33442092538E+03  0.98068407194E+03  0.25500000920E-02 0. -1.
</event>
<event>
 5   0  0.2982385E-05  0.2272737E+04  0.7818609E-02  0.8488749E-01
       -1   -1    0    0    0  501  0.00000000000E+00  0.00000000000E+00  0.88606825173E+03  0.88606825175E+03  0.50400001928E-02 0.  1.
        1   -1    0    0  501    0  0.00000000000E+00  0.00000000000E+00 -0.14573747660E+04  0.14573747661E+04  0.50400001928E-02 0. -1.
    10030    2    1    2    0    0  0.00000000000E+00  0.00000000000E+00 -0.57130651431E+03  0.23434430178E+04  0.22727371261E+04 0.  0.
        4    1    3    3  502    0  0.53409234636E+03 -0.72582276538E+03 -0.99947560175E+03  0.13457438139E+04  0.12699999809E+01 0. -1.
       -4    1    3    3    0  502 -0.53409234636E+03  0.72582276538E+03  0.42816908744E+03  0.99769920393E+03  0.12699999809E+01 0.  1.
</event>
<event>
 5   0  0.6702421E-05  0.2327727E+04  0.7818609E-02  0.8467068E-01
        2   -1    0    0  501    0  0.00000000000E+00  0.00000000000E+00  0.13960921191E+04  0.13960921191E+04  0.25500000920E-02 0. -1.
       -2   -1    0    0    0  501  0.00000000000E+00  0.00000000000E+00 -0.97026404822E+03  0.97026404822E+03  0.25500000920E-02 0.  1.
    10030    2    1    2    0    0  0.00000000000E+00  0.00000000000E+00  0.42582807088E+03  0.23663561673E+04  0.23277267805E+04 0.  0.
        4    1    3    3  502    0  0.66551643018E+03  0.51373424963E+03 -0.60526609827E+03  0.10359457808E+04  0.12699999809E+01 0.  1.
       -4    1    3    3    0  502 -0.66551643018E+03 -0.51373424963E+03  0.10310941692E+04  0.13304103866E+04  0.12699999809E+01 0. -1.
</event>
<event>
 5   0  0.6495405E-05  0.2308793E+04  0.7818609E-02  0.8474462E-01
       -2   -1    0    0    0  501  0.00000000000E+00  0.00000000000E+00  0.12287068729E+04  0.12287068729E+04  0.25500000920E-02 0. -1.
        2   -1    0    0  501    0  0.00000000000E+00  0.00000000000E+00 -0.10845799946E+04  0.10845799946E+04  0.25500000920E-02 0.  1.
    10030    2    1    2    0    0  0.00000000000E+00  0.00000000000E+00  0.14412687832E+03  0.23132868674E+04  0.23087926659E+04 0.  0.
        5    1    3    3  502    0  0.72957953660E+03 -0.85860192057E+03 -0.17967300735E+03  0.11409592621E+04  0.46999998093E+01 0.  1.
       -5    1    3    3    0  502 -0.72957953660E+03  0.85860192057E+03  0.32379988567E+03  0.11723276053E+04  0.46999998093E+01 0. -1.
</event>
<event>
 5   0  0.2982385E-05  0.2294956E+04  0.7818609E-02  0.8479913E-01
       -1   -1    0    0    0  501  0.00000000000E+00  0.00000000000E+00  0.16380980796E+04  0.16380980796E+04  0.50400001928E-02 0. -1.
        1   -1    0    0  501    0  0.00000000000E+00  0.00000000000E+00 -0.80380154210E+03  0.80380154211E+03  0.50400001928E-02 0.  1.
    10030    2    1    2    0    0  0.00000000000E+00  0.00000000000E+00  0.83429653754E+03  0.24418996218E+04  0.22949560018E+04 0.  0.
        4    1    3    3  502    0 -0.86677840038E+03 -0.22937440428E+03 -0.34479359464E+03  0.96062565472E+03  0.12699999809E+01 0.  1.
       -4    1    3    3    0  502  0.86677840038E+03  0.22937440428E+03  0.11790901322E+04  0.14812739670E+04  0.12699999809E+01 0. -1.
</event>
<event>
 5   0  0.6702421E-05  0.2320814E+04  0.7818609E-02  0.8469759E-01
       -2   -1    0    0    0  501  0.00000000000E+00  0.00000000000E+00  0.79246565141E+03  0.79246565141E+03  0.25500000920E-02 0.  1.
        2   -1    0    0  501    0  0.00000000000E+00  0.00000000000E+00 -0.16991829762E+04  0.16991829762E+04  0.25500000920E-02 0. -1.
    10030    2    1    2    0    0  0.00000000000E+00  0.00000000000E+00 -0.90671732483E+03  0.24916486277E+04  0.23208137746E+04 0.  0.
        4    1    3    3  502    0 -0.11222375472E+04 -0.29180734930E+03 -0.50105751631E+03  0.12631820491E+04  0.12699999809E+01 0.  1.
       -4    1    3    3    0  502  0.11222375472E+04  0.29180734930E+03 -0.40565980852E+03  0.12284665786E+04  0.12699999809E+01 0. -1.
</event>
<event>
 5   0  0.6468758E-05  0.2279165E+04  0.7818609E-02  0.8486182E-01
       -2   -1    0    0    0  501  0.00000000000E+00  0.00000000000E+00  0.53370368513E+03  0.53370368514E+03  0.25500000920E-02 0.  1.
        2   -1    0    0  501    0  0.00000000000E+00  0.00000000000E+00 -0.24332755157E+04  0.24332755157E+04  0.25500000920E-02 0. -1.
    10030    2    1    2    0    0  0.00000000000E+00  0.00000000000E+00 -0.18995718305E+04  0.29669792008E+04  0.22791648555E+04 0.  0.
        3    1    3    3  502    0 -0.71276481204E+03 -0.27720715015E+03  0.15002517722E+03  0.77934911649E+03  0.10100000352E+00 0.  1.
       -3    1    3    3    0  502  0.71276481204E+03  0.27720715015E+03 -0.20495970078E+04  0.21876300843E+04  0.10100000352E+00 0. -1.
</event>
<event>
 5   0  0.2944089E-05  0.2325262E+04  0.7818609E-02  0.8468027E-01
       -1   -1    0    0    0  501  0.00000000000E+00  0.00000000000E+00  0.71497762681E+03  0.71497762683E+03  0.50400001928E-02 0. -1.
        1   -1    0    0  501    0  0.00000000000E+00  0.00000000000E+00 -0.18905640997E+04  0.18905640997E+04  0.50400001928E-02 0.  1.
    10030    2    1    2    0    0  0.00000000000E+00  0.00000000000E+00 -0.11755864729E+04  0.26055417265E+04  0.23252621645E+04 0.  0.
        5    1    3    3  502    0  0.11543429381E+03 -0.72834120052E+03  0.41937108434E+03  0.84835144660E+03  0.46999998093E+01 0. -1.
       -5    1    3    3    0  502 -0.11543429381E+03  0.72834120052E+03 -0.15949575572E+04  0.17571902799E+04  0.46999998093E+01 0.  1.
</event>
<event>
 5   0  0.6676612E-05  0.2238506E+04  0.7818609E-02  0.8502570E-01
       -2   -1    0    0    0  501  0.00000000000E+00  0.00000000000E+00  0.85044504375E+03  0.85044504375E+03  0.25500000920E-02 0. -1.
        2   -1    0    0  501    0  0.00000000000E+00  0.00000000000E+00 -0.14730255503E+04  0.14730255503E+04  0.25500000920E-02 0.  1.
    10030    2    1    2    0    0  0.00000000000E+00  0.00000000000E+00 -0.62258050655E+03  0.23234705941E+04  0.22385060005E+04 0.  0.
        2    1    3    3  502    0  0.51300665017E+03 -0.98026050695E+03 -0.48694967313E+03  0.12088037346E+04  0.25500000920E-02 0.  1.
       -2    1    3    3    0  502 -0.51300665017E+03  0.98026050695E+03 -0.13563083342E+03  0.11146668595E+04  0.25500000920E-02 0. -1.
</event>
<event>
 5   0  0.2944089E-05  0.2302231E+04  0.7818609E-02  0.8477042E-01
       -1   -1    0    0    0  501  0.00000000000E+00  0.00000000000E+00  0.13298002109E+04  0.13298002109E+04  0.50400001928E-02 0. -1.
        1   -1    0    0  501    0  0.00000000000E+00  0.00000000000E+00 -0.99644017911E+03  0.99644017912E+03  0.50400001928E-02 0.  1.
    10030    2    1    2    0    0  0.00000000000E+00  0.00000000000E+00  0.33336003181E+03  0.23262403900E+04  0.23022305361E+04 0.  0.
        5    1    3    3  502    0  0.99864875508E+02  0.15917412360E+03  0.13141887608E+04  0.13275630245E+04  0.46999998093E+01 0. -1.
       -5    1    3    3    0  502 -0.99864875508E+02 -0.15917412360E+03 -0.98082872896E+03  0.99867736558E+03  0.46999998093E+01 0.  1.
</event>
<event>
 5   0  0.6676612E-05  0.2303948E+04  0.7818609E-02  0.8476366E-01
       -2   -1    0    0    0  501  0.00000000000E+00  0.00000000000E+00  0.19546545290E+04  0.19546545290E+04  0.25500000920E-02 0.  1.
        2   -1    0    0  501    0  0.00000000000E+00  0.00000000000E+00 -0.67891506517E+03  0.67891506517E+03  0.25500000920E-02 0. -1.
    10030    2    1    2    0    0  0.00000000000E+00  0.00000000000E+00  0.12757394639E+04  0.26335695942E+04  0.23039482693E+04 0.  0.
        2    1    3    3  502    0 -0.63589179278E+03  0.86584314958E+03  0.16242807588E+03  0.10864739351E+04  0.25500000920E-02 0. -1.
       -2    1    3    3    0  502  0.63589179278E+03 -0.86584314958E+03  0.11133113880E+04  0.15470956591E+04  0.25500000920E-02 0.  1.
</event>
<event>
 5   0  0.3118614E-05  0.2289601E+04  0.7818609E-02  0.8482033E-01
        1   -1    0    0  501    0  0.00000000000E+00  0.00000000000E+00  0.12939256506E+04  0.12939256506E+04  0.50400001928E-02 0. -1.
       -1   -1    0    0    0  501  0.00000000000E+00  0.00000000000E+00 -0.10128620186E+04  0.10128620186E+04  0.50400001928E-02 0.  1.
    10030    2    1    2    0    0  0.00000000000E+00  0.00000000000E+00  0.28106363202E+03  0.23067876692E+04  0.22896009664E+04 0.  0.
        3    1    3    3  502    0 -0.53105348346E+03 -0.59654098262E+03  0.96686471895E+03  0.12540758913E+04  0.10100000352E+00 0. -1.
       -3    1    3    3    0  502  0.53105348346E+03  0.59654098262E+03 -0.68580108694E+03  0.10527117779E+04  0.10100000352E+00 0.  1.
</event>
<event>
 5   0  0.6468758E-05  0.2282852E+04  0.7818609E-02  0.8484713E-01
       -2   -1    0    0    0  501  0.00000000000E+00  0.00000000000E+00  0.79156371544E+03  0.79156371545E+03  0.25500000920E-02 0. -1.
        2   -1    0    0  501    0  0.00000000000E+00  0.00000000000E+00 -0.16459235868E+04  0.16459235868E+04  0.25500000920E-02 0.  1.
    10030    2    1    2    0    0  0.00000000000E+00  0.00000000000E+00 -0.85435987138E+03  0.24374873023E+04  0.22828520668E+04 0.  0.
        3    1    3    3  502    0 -0.78286833895E+03 -0.73778804009E+03 -0.19702128260E+02  0.10759192406E+04  0.10100000352E+00 0. -1.
       -3    1    3    3    0  502  0.78286833895E+03  0.73778804009E+03 -0.83465774312E+03  0.13615680617E+04  0.10100000352E+00 0.  1.
</event>
<event>
 5   0  0.3006265E-05  0.2124332E+04  0.7818609E-02  0.8550600E-01
        1   -1    0    0  501    0  0.00000000000E+00  0.00000000000E+00  0.11605131604E+04  0.11605131604E+04  0.50400001928E-02 0. -1.
       -1   -1    0    0    0  501  0.00000000000E+00  0.00000000000E+00 -0.97215325542E+03  0.97215325544E+03  0.50400001928E-02 0.  1.
    10030    2    1    2    0    0  0.00000000000E+00  0.00000000000E+00  0.18835990497E+03  0.21326664158E+04  0.21243320332E+04 0.  0.
        2    1    3    3  502    0 -0.94680497653E+03  0.47331465295E+03  0.18244657960E+03  0.10741290326E+04  0.25500000920E-02 0.  1.
       -2    1    3    3    0  502  0.94680497653E+03 -0.47331465295E+03  0.59133253740E+01  0.10585373832E+04  0.25500000920E-02 0. -1.
</event>
<event>
 5   0  0.2962279E-05  0.2175508E+04  0.7818609E-02  0.8528692E-01
        1   -1    0    0  501    0  0.00000000000E+00  0.00000000000E+00  0.21002623411E+04  0.21002623411E+04  0.50400001928E-02 0.  1.
       -1   -1    0    0    0  501  0.00000000000E+00  0.00000000000E+00 -0.56336258540E+03  0.56336258542E+03  0.50400001928E-02 0. -1.
    10030    2    1    2    0    0  0.00000000000E+00  0.00000000000E+00  0.15368997557E+04  0.26636249265E+04  0.21755084211E+04 0.  0.
        1    1    3    3  502    0  0.10415972565E+03 -0.10821867355E+04  0.72547742996E+03  0.13070175516E+04  0.50400001928E-02 0.  1.
       -1    1    3    3    0  502 -0.10415972565E+03  0.10821867355E+04  0.81142232573E+03  0.13566073749E+04  0.50400001928E-02 0. -1.
</event>
<event>
 5   0  0.6676612E-05  0.2312892E+04  0.7818609E-02  0.8472855E-01
        2   -1    0    0  501    0  0.00000000000E+00  0.00000000000E+00  0.12621645079E+04  0.12621645079E+04  0.25500000920E-02 0. -1.
       -2   -1    0    0    0  501  0.00000000000E+00  0.00000000000E+00 -0.10595826557E+04  0.10595826557E+04  0.25500000920E-02 0.  1.
    10030    2    1    2    0    0  0.00000000000E+00  0.00000000000E+00  0.20258185220E+03  0.23217471636E+04  0.23128922337E+04 0.  0.
        2    1    3    3  502    0  0.15050032777E+03  0.61313715563E+03 -0.87132519453E+03  0.10760088824E+04  0.25500000920E-02 0.  1.
       -2    1    3    3    0  502 -0.15050032777E+03 -0.61313715563E+03  0.10739070467E+04  0.12457382812E+04  0.25500000920E-02 0. -1.
</event>
<event>
 5   0  0.3118614E-05  0.2301370E+04  0.7818609E-02  0.8477381E-01
       -1   -1    0    0    0  501  0.00000000000E+00  0.00000000000E+00  0.15832016930E+04  0.15832016930E+04  0.50400001928E-02 0.  1.
        1   -1    0    0  501    0  0.00000000000E+00  0.00000000000E+00 -0.83632779941E+03  0.83632779943E+03  0.50400001928E-02 0. -1.
    10030    2    1    2    0    0  0.00000000000E+00  0.00000000000E+00  0.74687389355E+03  0.24195294924E+04  0.23013696686E+04 0.  0.
        3    1    3    3  502    0  0.32817040287E+03 -0.26256839378E+03  0.14996202245E+04  0.15574012979E+04  0.10100000352E+00 0.  1.
       -3    1    3    3    0  502 -0.32817040287E+03  0.26256839378E+03 -0.75274633098E+03  0.86212819449E+03  0.10100000352E+00 0. -1.
</event>
<event>
 5   0  0.6702421E-05  0.2279703E+04  0.7818609E-02  0.8485967E-01
        2   -1    0    0  501    0  0.00000000000E+00  0.00000000000E+00  0.96908451533E+03  0.96908451534E+03  0.25500000920E-02 0. -1.
       -2   -1    0    0    0  501  0.00000000000E+00  0.00000000000E+00 -0.13407104350E+04  0.13407104350E+04  0.25500000920E-02 0.  1.
    10030    2    1    2    0    0  0.00000000000E+00  0.00000000000E+00 -0.37162591962E+03  0.23097949503E+04  0.22797032457E+04 0.  0.
        4    1    3    3  502    0 -0.66424020175E+02 -0.60835171304E+03 -0.11601489044E+04  0.13116596550E+04  0.12699999809E+01 0.  1.
       -4    1    3    3    0  502  0.66424020175E+02  0.60835171304E+03  0.78852298481E+03  0.99813529529E+03  0.12699999809E+01 0. -1.
</event>
<event>
 5   0  0.6468758E-05  0.2331631E+04  0.7818609E-02  0.8465553E-01
        2   -1    0    0  501    0  0.00000000000E+00  0.00000000000E+00  0.17194345452E+04  0.17194345452E+04  0.25500000920E-02 0. -1.
       -2   -1    0    0    0  501  0.00000000000E+00  0.00000000000E+00 -0.79044922610E+03  0.79044922611E+03  0.25500000920E-02 0.  1.
    10030    2    1    2    0    0  0.00000000000E+00  0.00000000000E+00  0.92898531907E+03  0.25098837713E+04  0.23316309361E+04 0.  0.
        3    1    3    3  502    0  0.95895652457E+03  0.12102881864E+03  0.11661531119E+04  0.15146480389E+04  0.10100000352E+00 0. -1.
       -3    1    3    3    0  502 -0.95895652457E+03 -0.12102881864E+03 -0.23716779285E+03  0.99523573244E+03  0.10100000352E+00 0.  1.
</event>
<event>
 5   0  0.6495405E-05  0.2324970E+04  0.7818609E-02  0.8468140E-01
       -2   -1    0    0    0  501  0.00000000000E+00  0.00000000000E+00  0.61233229090E+03  0.61233229091E+03  0.25500000920E-02 0. -1.
        2   -1    0    0  501    0  0.00000000000E+00  0.00000000000E+00 -0.22069249467E+04  0.22069249467E+04  0.25500000920E-02 0.  1.
    10030    2    1    2    0    0  0.00000000000E+00  0.00000000000E+00 -0.15945926558E+04  0.28192572376E+04  0.23249700286E+04 0.  0.
        5    1    3    3  502    0 -0.56320569971E+03 -0.26541029192E+03 -0.19876873279E+04  0.20829225349E+04  0.46999998093E+01 0.  1.
       -5    1    3    3    0  502  0.56320569971E+03  0.26541029192E+03  0.39309467202E+03  0.73633470271E+03  0.46999998093E+01 0. -1.
</event>
<event>
 5   0  0.2982385E-05  0.2270516E+04  0.7818609E-02  0.8489638E-01
        1   -1    0    0  501    0  0.00000000000E+00  0.00000000000E+00  0.26513318177E+04  0.26513318177E+04  0.50400001928E-02 0. -1.
       -1   -1    0    0    0  501  0.00000000000E+00  0.00000000000E+00 -0.48609923630E+03  0.48609923632E+03  0.50400001928E-02 0.  1.
    10030    2    1    2    0    0  0.00000000000E+00  0.00000000000E+00  0.21652325814E+04  0.31374310540E+04  0.22705156875E+04 0.  0.
        4    1    3    3  502    0 -0.28755129150E+03 -0.10911464649E+04  0.12547750806E+04  0.16875273239E+04  0.12699999809E+01 0.  1.
       -4    1    3    3    0  502  0.28755129150E+03  0.10911464649E+04  0.91045750076E+03  0.14499037301E+04  0.12699999809E+01 0. -1.
</event>
<event>
 5   0  0.3118614E-05  0.2302709E+04  0.7818609E-02  0.8476854E-01
       -1   -1    0    0    0  501  0.00000000000E+00  0.00000000000E+00  0.80003128594E+03  0.80003128595E+03  0.50400001928E-02 0. -1.
        1   -1    0    0  501    0  0.00000000000E+00  0.00000000000E+00 -0.16569569809E+04  0.16569569809E+04  0.50400001928E-02 0.  1.
    10030    2    1    2    0    0  0.00000000000E+00  0.00000000000E+00 -0.85692569498E+03  0.24569882669E+04  0.23027092081E+04 0.  0.
        3    1    3    3  502    0  0.39766132453E+03 -0.16817592561E+03  0.71038032921E+03  0.83129891935E+03  0.10100000352E+00 0. -1.
       -3    1    3    3    0  502 -0.39766132453E+03  0.16817592561E+03 -0.15673060242E+04  0.16256893475E+04  0.10100000352E+00 0.  1.
</event>
<event>
 5   0  0.2944089E-05  0.2314838E+04  0.7818609E-02  0.8472094E-01
        1   -1    0    0  501    0  0.00000000000E+00  0.00000000000E+00  0.12932696843E+04  0.12932696843E+04  0.50400001928E-02 0.  1.
       -1   -1    0    0    0  501  0.00000000000E+00  0.00000000000E+00 -0.10358385213E+04  0.10358385213E+04  0.50400001928E-02 0. -1.
    10030    2    1    2    0    0  0.00000000000E+00  0.00000000000E+00  0.25743116294E+03  0.23291082056E+04  0.23148378409E+04 0.  0.
        5    1    3    3  502    0  0.74800827670E+03 -0.72469792854E+03 -0.37926609235E+03  0.11084080153E+04  0.46999998093E+01 0. -1.
       -5    1    3    3    0  502 -0.74800827670E+03  0.72469792854E+03  0.63669725529E+03  0.12207001903E+04  0.46999998093E+01 0.  1.
</event>
<event>
 5   0  0.6702421E-05  0.1790457E+04  0.7818609E-02  0.8711391E-01
        2   -1    0    0  501    0  0.00000000000E+00  0.00000000000E+00  0.18356489557E+04  0.18356489557E+04  0.25500000920E-02 0.  1.
       -2   -1    0    0    0  501  0.00000000000E+00  0.00000000000E+00 -0.43659418309E+03  0.43659418310E+03  0.25500000920E-02 0. -1.
    10030    2    1    2    0    0  0.00000000000E+00  0.00000000000E+00  0.13990547726E+04  0.22722431388E+04  0.17904565409E+04 0.  0.
        4    1    3    3  502    0  0.15108856383E+03 -0.75887312320E+03  0.12709203575E+04  0.14879369406E+04  0.12699999809E+01 0.  1.
       -4    1    3    3    0  502 -0.15108856383E+03  0.75887312320E+03  0.12813441506E+03  0.78430619815E+03  0.12699999809E+01 0. -1.
</event>
<event>
 5   0  0.6814789E-05  0.2233339E+04  0.7818609E-02  0.8504678E-01
       -2   -1    0    0    0  501  0.00000000000E+00  0.00000000000E+00  0.80545746152E+03  0.80545746153E+03  0.25500000920E-02 0. -1.
        2   -1    0    0  501    0  0.00000000000E+00  0.00000000000E+00 -0.15481278571E+04  0.15481278571E+04  0.25500000920E-02 0.  1.
    10030    2    1    2    0    0  0.00000000000E+00  0.00000000000E+00 -0.74267039556E+03  0.23535853186E+04  0.22333393239E+04 0.  0.
        1    1    3    3  502    0  0.41460701665E+03  0.33463492321E+03 -0.14055351821E+04  0.15031329476E+04  0.50400001928E-02 0.  1.
       -1    1    3    3    0  502 -0.41460701665E+03 -0.33463492321E+03  0.66286478653E+03  0.85045237100E+03  0.50400001928E-02 0. -1.
</event>
<event>
 5   0  0.6495405E-05  0.2248573E+04  0.7818609E-02  0.8498479E-01
       -2   -1    0    0    0  501  0.00000000000E+00  0.00000000000E+00  0.11819319731E+04  0.11819319731E+04  0.25500000920E-02 0.  1.
        2   -1    0    0  501    0  0.00000000000E+00  0.00000000000E+00 -0.10694526233E+04  0.10694526233E+04  0.25500000920E-02 0. -1.
    10030    2    1    2    0    0  0.00000000000E+00  0.00000000000E+00  0.11247934982E+03  0.22513845964E+04  0.22485731024E+04 0.  0.
        5    1    3    3  502    0 -0.85495441356E+03 -0.72085476898E+03  0.17222713546E+03  0.11314870408E+04  0.46999998093E+01 0. -1.
       -5    1    3    3    0  502  0.85495441356E+03  0.72085476898E+03 -0.59747785637E+02  0.11198975556E+04  0.46999998093E+01 0.  1.
</event>
<event>
 5   0  0.6702421E-05  0.2308912E+04  0.7818609E-02  0.8474416E-01
       -2   -1    0    0    0  501  0.00000000000E+00  0.00000000000E+00  0.12576891093E+04  0.12576891093E+04  0.25500000920E-02 0. -1.
        2   -1    0    0  501    0  0.00000000000E+00  0.00000000000E+00 -0.10596962557E+04  0.10596962557E+04  0.25500000920E-02 0.  1.
    10030    2    1    2    0    0  0.00000000000E+00  0.00000000000E+00  0.19799285356E+03  0.23173853650E+04  0.23089118129E+04 0.  0.
        4    1    3    3  502    0 -0.50720457722E+03 -0.21483129335E+03  0.11172925881E+04  0.12456939063E+04  0.12699999809E+01 0. -1.
       -4    1    3    3    0  502  0.50720457722E+03  0.21483129335E+03 -0.91929973456E+03  0.10716914587E+04  0.12699999809E+01 0.  1.
</event>
<event>
 5   0  0.6676612E-05  0.2269864E+04  0.7818609E-02  0.8489899E-01
       -2   -1    0    0    0  501  0.00000000000E+00  0.00000000000E+00  0.90012840198E+03  0.90012840198E+03  0.25500000920E-02 0. -1.
        2   -1    0    0  501    0  0.00000000000E+00  0.00000000000E+00 -0.14309850250E+04  0.14309850250E+04  0.25500000920E-02 0.  1.
    10030    2    1    2    0    0  0.00000000000E+00  0.00000000000E+00 -0.53085662302E+03  0.23311134270E+04  0.22698636645E+04 0.  0.
        2    1    3    3  502    0 -0.86877768224E+03 -0.31904818567E+03 -0.94004328208E+03  0.13191845125E+04  0.25500000920E-02 0.  1.
       -2    1    3    3    0  502  0.86877768224E+03  0.31904818567E+03  0.40918665906E+03  0.10119289144E+04  0.25500000920E-02 0. -1.
</event>
<event>
 5   0  0.6495405E-05  0.2211523E+04  0.7818609E-02  0.8513647E-01
       -2   -1    0    0    0  501  0.00000000000E+00  0.00000000000E+00  0.12524006875E+04  0.12524006875E+04  0.25500000920E-02 0.  1.
        2   -1    0    0  501    0  0.00000000000E+00  0.00000000000E+00 -0.97629215608E+03  0.97629215608E+03  0.25500000920E-02 0. -1.
    10030    2    1    2    0    0  0.00000000000E+00  0.00000000000E+00  0.27610853145E+03  0.22286928436E+04  0.22115234274E+04 0.  0.
        5    1    3    3  502    0  0.26528472985E+03  0.21987543945E+03 -0.92080065806E+03  0.98316689257E+03  0.46999998093E+01 0. -1.
       -5    1    3    3    0  502 -0.26528472985E+03 -0.21987543945E+03  0.11969091895E+04  0.12455259510E+04  0.46999998093E+01 0.  1.
</event>
<event>
 5   0  0.6495405E-05  0.2211343E+04  0.7818609E-02  0.8513722E-01
        2   -1    0    0  501    0  0.00000000000E+00  0.00000000000E+00  0.13099034424E+04  0.13099034424E+04  0.25500000920E-02 0.  1.
       -2   -1    0    0    0  501  0.00000000000E+00  0.00000000000E+00 -0.93328232631E+03  0.93328232631E+03  0.25500000920E-02 0. -1.
    10030    2    1    2    0    0  0.00000000000E+00  0.00000000000E+00  0.37662111606E+03  0.22431857687E+04  0.22113432406E+04 0.  0.
        5    1    3    3  502    0 -0.10806499544E+04  0.20757641172E+03  0.29754284835E+03  0.11399325099E+04  0.46999998093E+01 0.  1.
       -5    1    3    3    0  502  0.10806499544E+04 -0.20757641172E+03  0.79078267713E+02  0.11032532588E+04  0.46999998093E+01 0. -1.
</event>
<event>
 5   0  0.3006265E-05  0.2301808E+04  0.7818609E-02  0.8477208E-01
        1   -1    0    0  501    0  0.00000000000E+00  0.00000000000E+00  0.11729321956E+04  0.11729321957E+04  0.50400001928E-02 0. -1.
       -1   -1    0    0    0  501  0.00000000000E+00  0.00000000000E+00 -0.11292897940E+04  0.11292897940E+04  0.50400001928E-02 0.  1.
    10030    2    1    2    0    0  0.00000000000E+00  0.00000000000E+00  0.43642401665E+02  0.23022219896E+04  0.23018082958E+04 0.  0.
        2    1    3    3  502    0  0.77580944711E+03  0.68301512771E+03 -0.48442230867E+03  0.11415143171E+04  0.25500000920E-02 0.  1.
       -2    1    3    3    0  502 -0.77580944711E+03 -0.68301512771E+03  0.52806471034E+03  0.11607076726E+04  0.25500000920E-02 0. -1.
</event>
<event>
 5   0  0.3006265E-05  0.2314841E+04  0.7818609E-02  0.8472093E-01
       -1   -1    0    0    0  501  0.00000000000E+00  0.00000000000E+00  0.45437376481E+03  0.45437376484E+03  0.50400001928E-02 0. -1.
        1   -1    0    0  501    0  0.00000000000E+00  0.00000000000E+00 -0.29482816258E+04  0.29482816258E+04  0.50400001928E-02 0.  1.
    10030    2    1    2    0    0  0.00000000000E+00  0.00000000000E+00 -0.24939078610E+04  0.34026553907E+04  0.23148406616E+04 0.  0.
        2    1    3    3  502    0  0.35837742418E+03 -0.48533746780E+03 -0.26988667771E+04  0.27654780267E+04  0.25500000920E-02 0.  1.
       -2    1    3    3    0  502 -0.35837742418E+03  0.48533746780E+03  0.20495891609E+03  0.63717736393E+03  0.25500000920E-02 0. -1.
</event>
<event>
 5   0  0.2342500E-05  0.2318819E+04  0.7818609E-02  0.8470538E-01
       -4   -1    0    0    0  501  0.00000000000E+00  0.00000000000E+00  0.16534887261E+04  0.16534892139E+04  0.12699999809E+01 0. -1.
        4   -1    0    0  501    0  0.00000000000E+00  0.00000000000E+00 -0.81296483630E+03  0.81296582828E+03  0.12699999809E+01 0.  1.
    10030    2    1    2    0    0  0.00000000000E+00  0.00000000000E+00  0.84052388984E+03  0.24664550421E+04  0.23188186789E+04 0.  0.
        4    1    3    3  502    0  0.50421329397E+03 -0.95607250543E+02  0.15260972604E+04  0.16100764743E+04  0.12699999809E+01 0. -1.
       -4    1    3    3    0  502 -0.50421329397E+03  0.95607250543E+02 -0.68557337052E+03  0.85637856783E+03  0.12699999809E+01 0.  1.
</event>
<event>
 5   0  0.2944089E-05  0.2694178E+04  0.7818609E-02  0.8336896E-01
        1   -1    0    0  501    0  0.00000000000E+00  0.00000000000E+00  0.97844083158E+03  0.97844083159E+03  0.50400001928E-02 0.  1.
       -1   -1    0    0    0  501  0.00000000000E+00  0.00000000000E+00 -0.18546335202E+04  0.18546335202E+04  0.50400001928E-02 0. -1.
    10030    2    1    2    0    0  0.00000000000E+00  0.00000000000E+00 -0.87619268860E+03  0.28330743518E+04  0.26941782894E+04 0.  0.
        5    1    3    3  502    0 -0.34221052923E+03  0.10730955700E+04 -0.12150980392E+04  0.16568426249E+04  0.46999998093E+01 0. -1.
       -5    1    3    3    0  502  0.34221052923E+03 -0.10730955700E+04  0.33890535065E+03  0.11762317269E+04  0.46999998093E+01 0.  1.
</event>
<event>
 5   0  0.6468758E-05  0.2321305E+04  0.7818609E-02  0.8469568E-01
        2   -1    0    0  501    0  0.00000000000E+00  0.00000000000E+00  0.17212904304E+04  0.17212904304E+04  0.25500000920E-02 0.  1.
       -2   -1    0    0    0  501  0.00000000000E+00  0.00000000000E+00 -0.78261876060E+03  0.78261876061E+03  0.25500000920E-02 0. -1.
    10030    2    1    2    0    0  0.00000000000E+00  0.00000000000E+00  0.93867166980E+03  0.25039091910E+04  0.23213049634E+04 0.  0.
        3    1    3    3  502    0 -0.95411284948E+03  0.65848754967E+03  0.40853712977E+03  0.12291622266E+04  0.10100000352E+00 0. -1.
       -3    1    3    3    0  502  0.95411284948E+03 -0.65848754967E+03  0.53013454003E+03  0.12747469644E+04  0.10100000352E+00 0.  1.
</event>
<event>
 5   0  0.2962279E-05  0.2274355E+04  0.7818609E-02  0.8488102E-01
       -1   -1    0    0    0  501  0.00000000000E+00  0.00000000000E+00  0.56870612203E+03  0.56870612205E+03  0.50400001928E-02 0. -1.
        1   -1    0    0  501    0  0.00000000000E+00  0.00000000000E+00 -0.22738847301E+04  0.22738847301E+04  0.50400001928E-02 0.  1.
    10030    2    1    2    0    0  0.00000000000E+00  0.00000000000E+00 -0.17051786080E+04  0.28425908521E+04  0.22743545606E+04 0.  0.
        1    1    3    3  502    0 -0.77045673635E+03  0.81592369651E+03 -0.62268198986E+03  0.12833814404E+04  0.50400001928E-02 0.  1.
       -1    1    3    3    0  502  0.77045673635E+03 -0.81592369651E+03 -0.10824966182E+04  0.15592094117E+04  0.50400001928E-02 0. -1.
</event>
<event>
 5   0  0.3006265E-05  0.2309199E+04  0.7818609E-02  0.8474303E-01
       -1   -1    0    0    0  501  0.00000000000E+00  0.00000000000E+00  0.72986534482E+03  0.72986534483E+03  0.50400001928E-02 0. -1.
        1   -1    0    0  501    0  0.00000000000E+00  0.00000000000E+00 -0.18265010610E+04  0.18265010610E+04  0.50400001928E-02 0.  1.
    10030    2    1    2    0    0  0.00000000000E+00  0.00000000000E+00 -0.10966357162E+04  0.25563664058E+04  0.23091988453E+04 0.  0.
        2    1    3    3  502    0 -0.72819032466E+03  0.32981037449E+03  0.37395932664E+03  0.88254269588E+03  0.25500000920E-02 0. -1.
       -2    1    3    3    0  502  0.72819032466E+03 -0.32981037449E+03 -0.14705950428E+04  0.16738237100E+04  0.25500000920E-02 0.  1.
</event>
<event>
 5   0  0.2944089E-05  0.2240362E+04  0.7818609E-02  0.8501814E-01
        1   -1    0    0  501    0  0.00000000000E+00  0.00000000000E+00  0.10836071495E+04  0.10836071495E+04  0.50400001928E-02 0.  1.
       -1   -1    0    0    0  501  0.00000000000E+00  0.00000000000E+00 -0.11579891302E+04  0.11579891302E+04  0.50400001928E-02 0. -1.
    10030    2    1    2    0    0  0.00000000000E+00  0.00000000000E+00 -0.74381980747E+02  0.22415962797E+04  0.22403618463E+04 0.  0.
        5    1    3    3  502    0  0.14184576086E+03  0.74420300394E+03 -0.86276676021E+03  0.11481928860E+04  0.46999998093E+01 0. -1.
       -5    1    3    3    0  502 -0.14184576086E+03 -0.74420300394E+03  0.78838477947E+03  0.10934033937E+04  0.46999998093E+01 0.  1.
</event>
<event>
 5   0  0.6676612E-05  0.2330780E+04  0.7818609E-02  0.8465883E-01
       -2   -1    0    0    0  501  0.00000000000E+00  0.00000000000E+00  0.10843254508E+04  0.10843254508E+04  0.25500000920E-02 0. -1.
        2   -1    0    0  501    0  0.00000000000E+00  0.00000000000E+00 -0.12525154569E+04  0.12525154569E+04  0.25500000920E-02 0.  1.
    10030    2    1    2    0    0  0.00000000000E+00  0.00000000000E+00 -0.16819000609E+03  0.23368409076E+04  0.23307804593E+04 0.  0.
        2    1    3    3  502    0 -0.72638458661E+02  0.64515248936E+02  0.10802583137E+04  0.10846181758E+04  0.25500000920E-02 0. -1.
       -2    1    3    3    0  502  0.72638458661E+02 -0.64515248936E+02 -0.12484483198E+04  0.12522227318E+04  0.25500000920E-02 0.  1.
</event>
<event>
 5   0  0.6702421E-05  0.2340202E+04  0.7818609E-02  0.8462237E-01
        2   -1    0    0  501    0  0.00000000000E+00  0.00000000000E+00  0.10066334852E+04  0.10066334852E+04  0.25500000920E-02 0. -1.
       -2   -1    0    0    0  501  0.00000000000E+00  0.00000000000E+00 -0.13601138350E+04  0.13601138350E+04  0.25500000920E-02 0.  1.
    10030    2    1    2    0    0  0.00000000000E+00  0.00000000000E+00 -0.35348034977E+03  0.23667473202E+04  0.23402018118E+04 0.  0.
        4    1    3    3  502    0  0.11615765809E+04  0.12522762428E+03 -0.24222342715E+03  0.11931537675E+04  0.12699999809E+01 0.  1.
       -4    1    3    3    0  502 -0.11615765809E+04 -0.12522762428E+03 -0.11125692262E+03  0.11735935527E+04  0.12699999809E+01 0. -1.
</event>
<event>
 5   0  0.3118614E-05  0.2181469E+04  0.7818609E-02  0.8526181E-01
       -1   -1    0    0    0  501  0.00000000000E+00  0.00000000000E+00  0.61981780178E+03  0.61981780180E+03  0.50400001928E-02 0. -1.
        1   -1    0    0  501    0  0.00000000000E+00  0.00000000000E+00 -0.19194372030E+04  0.19194372030E+04  0.50400001928E-02 0.  1.
    10030    2    1    2    0    0  0.00000000000E+00  0.00000000000E+00 -0.12996194013E+04  0.25392550048E+04  0.21814686318E+04 0.  0.
        3    1    3    3  502    0 -0.25105507833E+03  0.70161009454E+03 -0.15769477289E+04  0.17441472206E+04  0.10100000352E+00 0.  1.
       -3    1    3    3    0  502  0.25105507833E+03 -0.70161009454E+03  0.27732832764E+03  0.79510778428E+03  0.10100000352E+00 0. -1.
</event>
<event>
 5   0  0.6676612E-05  0.2309096E+04  0.7818609E-02  0.8474343E-01
       -2   -1    0    0    0  501  0.00000000000E+00  0.00000000000E+00  0.93892690769E+03  0.93892690769E+03  0.25500000920E-02 0. -1.
        2   -1    0    0  501    0  0.00000000000E+00  0.00000000000E+00 -0.14196860730E+04  0.14196860730E+04  0.25500000920E-02 0.  1.
    10030    2    1    2    0    0  0.00000000000E+00  0.00000000000E+00 -0.48075916535E+03  0.23586129807E+04  0.23090963206E+04 0.  0.
        2    1    3    3  502    0  0.77815267210E+03  0.26793354366E+03  0.58671996814E+03  0.10107177083E+04  0.25500000920E-02 0. -1.
       -2    1    3    3    0  502 -0.77815267210E+03 -0.26793354366E+03 -0.10674791335E+04  0.13478952724E+04  0.25500000920E-02 0.  1.
</event>
<event>
 5   0  0.2944089E-05  0.2300244E+04  0.7818609E-02  0.8477825E-01
        1   -1    0    0  501    0  0.00000000000E+00  0.00000000000E+00  0.14158121397E+04  0.14158121397E+04  0.50400001928E-02 0. -1.
       -1   -1    0    0    0  501  0.00000000000E+00  0.00000000000E+00 -0.93429102859E+03  0.93429102860E+03  0.50400001928E-02 0.  1.
    10030    2    1    2    0    0  0.00000000000E+00  0.00000000000E+00  0.48152111114E+03  0.23501031683E+04  0.23002439700E+04 0.  0.
        5    1    3    3  502    0 -0.93260512308E+02 -0.10492556195E+04  0.71242029984E+03  0.12716916497E+04  0.46999998093E+01 0. -1.
       -5    1    3    3    0  502  0.93260512308E+02  0.10492556195E+04 -0.23089918869E+03  0.10784115187E+04  0.46999998093E+01 0.  1.
</event>
<event>
 5   0  0.2982385E-05  0.2309525E+04  0.7818609E-02  0.8474175E-01
       -1   -1    0    0    0  501  0.00000000000E+00  0.00000000000E+00  0.13314005206E+04  0.13314005206E+04  0.50400001928E-02 0.  1.
        1   -1    0    0  501    0  0.00000000000E+00  0.00000000000E+00 -0.10015595571E+04  0.10015595571E+04  0.50400001928E-02 0. -1.
    10030    2    1    2    0    0  0.00000000000E+00  0.00000000000E+00  0.32984096357E+03  0.23329600777E+04  0.23095254194E+04 0.  0.
        4    1    3    3  502    0  0.47898589319E+03  0.58606681692E+03  0.10458783852E+04  0.12910325361E+04  0.12699999809E+01 0.  1.
       -4    1    3    3    0  502 -0.47898589319E+03 -0.58606681692E+03 -0.71603742166E+03  0.10419275416E+04  0.12699999809E+01 0. -1.
</event>
<event>
 5   0  0.3006265E-05  0.2173853E+04  0.7818609E-02  0.8529390E-01
        1   -1    0    0  501    0  0.00000000000E+00  0.00000000000E+00  0.17644619327E+04  0.17644619327E+04  0.50400001928E-02 0. -1.
       -1   -1    0    0    0  501  0.00000000000E+00  0.00000000000E+00 -0.66955789998E+03  0.66955789999E+03  0.50400001928E-02 0.  1.
    10030    2    1    2    0    0  0.00000000000E+00  0.00000000000E+00  0.10949040327E+04  0.24340198327E+04  0.21738531931E+04 0.  0.
        2    1    3    3  502    0  0.30732011078E+03 -0.61942677023E+03  0.14864318387E+04  0.16393946399E+04  0.25500000920E-02 0. -1.
       -2    1    3    3    0  502 -0.30732011078E+03  0.61942677023E+03 -0.39152780599E+03  0.79462519281E+03  0.25500000920E-02 0.  1.
</event>
<event>
 5   0  0.2944089E-05  0.2289585E+04  0.7818609E-02  0.8482039E-01
       -1   -1    0    0    0  501  0.00000000000E+00  0.00000000000E+00  0.13143662594E+04  0.13143662594E+04  0.50400001928E-02 0. -1.
        1   -1    0    0  501    0  0.00000000000E+00  0.00000000000E+00 -0.99709648970E+03  0.99709648971E+03  0.50400001928E-02 0.  1.
    10030    2    1    2    0    0  0.00000000000E+00  0.00000000000E+00  0.31726976966E+03  0.23114627491E+04  0.22895851008E+04 0.  0.
        5    1    3    3  502    0  0.72990256531E+03 -0.76385290246E+03 -0.28637049295E+03  0.10946502458E+04  0.46999998093E+01 0.  1.
       -5    1    3    3    0  502 -0.72990256531E+03  0.76385290246E+03  0.60364026261E+03  0.12168125033E+04  0.46999998093E+01 0. -1.
</event>
<event>
 5   0  0.2962279E-05  0.2258976E+04  0.7818609E-02  0.8494274E-01
        1   -1    0    0  501    0  0.00000000000E+00  0.00000000000E+00  0.15713628808E+04  0.15713628808E+04  0.50400001928E-02 0.  1.
       -1   -1    0    0    0  501  0.00000000000E+00  0.00000000000E+00 -0.81187032277E+03  0.81187032279E+03  0.50400001928E-02 0. -1.
    10030    2    1    2    0    0  0.00000000000E+00  0.00000000000E+00  0.75949255800E+03  0.23832332036E+04  0.22589757761E+04 0.  0.
        1    1    3    3  502    0  0.17732119829E+03  0.78161930270E+03 -0.45987642459E+03  0.92404429961E+03  0.50400001928E-02 0. -1.
       -1    1    3    3    0  502 -0.17732119829E+03 -0.78161930270E+03  0.12193689826E+04  0.14591889040E+04  0.50400001928E-02 0.  1.
</event>
<event>
 5   0  0.6468758E-05  0.2360457E+04  0.7818609E-02  0.8454458E-01
       -2   -1    0    0    0  501  0.00000000000E+00  0.00000000000E+00  0.99078591367E+03  0.99078591368E+03  0.25500000920E-02 0. -1.
        2   -1    0    0  501    0  0.00000000000E+00  0.00000000000E+00 -0.14058928824E+04  0.14058928824E+04  0.25500000920E-02 0.  1.
    10030    2    1    2    0    0  0.00000000000E+00  0.00000000000E+00 -0.41510696872E+03  0.23966787961E+04  0.23604566202E+04 0.  0.
        3    1    3    3  502    0  0.10259240067E+04 -0.57852221477E+02 -0.79704164752E+03  0.13004392893E+04  0.10100000352E+00 0. -1.
       -3    1    3    3    0  502 -0.10259240067E+04  0.57852221477E+02  0.38193467880E+03  0.10962395068E+04  0.10100000352E+00 0.  1.
</event>
<event>
 5   0  0.6468758E-05  0.2318103E+04  0.7818609E-02  0.8470817E-01
        2   -1    0    0  501    0  0.00000000000E+00  0.00000000000E+00  0.13427596551E+04  0.13427596551E+04  0.25500000920E-02 0. -1.
       -2   -1    0    0    0  501  0.00000000000E+00  0.00000000000E+00 -0.10004769585E+04  0.10004769585E+04  0.25500000920E-02 0.  1.
    10030    2    1    2    0    0  0.00000000000E+00  0.00000000000E+00  0.34228269659E+03  0.23432366135E+04  0.23181027550E+04 0.  0.
        3    1    3    3  502    0 -0.95527198086E+03  0.26988474120E+03 -0.43369202110E+03  0.10832687157E+04  0.10100000352E+00 0.  1.
       -3    1    3    3    0  502  0.95527198086E+03 -0.26988474120E+03  0.77597471769E+03  0.12599678979E+04  0.10100000352E+00 0. -1.
</event>
<event>
 5   0  0.2944089E-05  0.2246721E+04  0.7818609E-02  0.8499229E-01
        1   -1    0    0  501    0  0.00000000000E+00  0.00000000000E+00  0.13228899779E+04  0.13228899779E+04  0.50400001928E-02 0.  1.
       -1   -1    0    0    0  501  0.00000000000E+00  0.00000000000E+00 -0.95392615313E+03  0.95392615314E+03  0.50400001928E-02 0. -1.
    10030    2    1    2    0    0  0.00000000000E+00  0.00000000000E+00  0.36896382479E+03  0.22768161311E+04  0.22467214760E+04 0.  0.
        5    1    3    3  502    0 -0.94170508600E+03 -0.55231498032E+03  0.45271005345E+03  0.11818751156E+04  0.46999998093E+01 0.  1.
       -5    1    3    3    0  502  0.94170508600E+03  0.55231498032E+03 -0.83746228657E+02  0.10949410154E+04  0.46999998093E+01 0. -1.
</event>
<event>
 5   0  0.3118614E-05  0.1781722E+04  0.7818609E-02  0.8716080E-01
        1   -1    0    0  501    0  0.00000000000E+00  0.00000000000E+00  0.12905071826E+04  0.12905071826E+04  0.50400001928E-02 0. -1.
       -1   -1    0    0    0  501  0.00000000000E+00  0.00000000000E+00 -0.61497804137E+03  0.61497804139E+03  0.50400001928E-02 0.  1.
    10030    2    1    2    0    0  0.00000000000E+00  0.00000000000E+00  0.67552914120E+03  0.19054852240E+04  0.17817222899E+04 0.  0.
        3    1    3    3  502    0 -0.44249878574E+03  0.23028450513E+03 -0.45160994530E+03  0.67289500042E+03  0.10100000352E+00 0.  1.
       -3    1    3    3    0  502  0.44249878574E+03 -0.23028450513E+03  0.11271390865E+04  0.12325902236E+04  0.10100000352E+00 0. -1.
</event>
<event>
 5   0  0.3118614E-05  0.2387140E+04  0.7818609E-02  0.8444334E-01
       -1   -1    0    0    0  501  0.00000000000E+00  0.00000000000E+00  0.12590245619E+04  0.12590245619E+04  0.50400001928E-02 0. -1.
        1   -1    0    0  501    0  0.00000000000E+00  0.00000000000E+00 -0.11315185532E+04  0.11315185532E+04  0.50400001928E-02 0.  1.
    10030    2    1    2    0    0  0.00000000000E+00  0.00000000000E+00  0.12750600869E+03  0.23905431151E+04  0.23871402562E+04 0.  0.
        3    1    3    3  502    0 -0.82628095590E+03 -0.84802397391E+03  0.21471523944E+03  0.12033235320E+04  0.10100000352E+00 0. -1.
       -3    1    3    3    0  502  0.82628095590E+03  0.84802397391E+03 -0.87209230741E+02  0.11872195831E+04  0.10100000352E+00 0.  1.
</event>
<event>
 5   0  0.6676612E-05  0.2245275E+04  0.7818609E-02  0.8499816E-01
       -2   -1    0    0    0  501  0.00000000000E+00  0.00000000000E+00  0.17722708215E+04  0.17722708215E+04  0.25500000920E-02 0. -1.
        2   -1    0    0  501    0  0.00000000000E+00  0.00000000000E+00 -0.71113016963E+03  0.71113016963E+03  0.25500000920E-02 0.  1.
    10030    2    1    2    0    0  0.00000000000E+00  0.00000000000E+00  0.10611406519E+04  0.24834009911E+04  0.22452752615E+04 0.  0.
        2    1    3    3  502    0  0.21279601691E+03  0.54098692635E+03 -0.53168510626E+03  0.78780584633E+03  0.25500000920E-02 0.  1.
       -2    1    3    3    0  502 -0.21279601691E+03 -0.54098692635E+03  0.15928257581E+04  0.16955951448E+04  0.25500000920E-02 0. -1.
</event>
<event>
 5   0  0.6676612E-05  0.2291048E+04  0.7818609E-02  0.8481459E-01
       -2   -1    0    0    0  501  0.00000000000E+00  0.00000000000E+00  0.10721910454E+04  0.10721910454E+04  0.25500000920E-02 0.  1.
        2   -1    0    0  501    0  0.00000000000E+00  0.00000000000E+00 -0.12238729024E+04  0.12238729024E+04  0.25500000920E-02 0. -1.
    10030    2    1    2    0    0  0.00000000000E+00  0.00000000000E+00 -0.15168185695E+03  0.22960639478E+04  0.22910482899E+04 0.  0.
        2    1    3    3  502    0 -0.46366364544E+03  0.79522622292E+03  0.60745581574E+03  0.11028922385E+04  0.25500000920E-02 0.  1.
       -2    1    3    3    0  502  0.46366364544E+03 -0.79522622292E+03 -0.75913767269E+03  0.11931717093E+04  0.25500000920E-02 0. -1.
</event>
<event>
 5   0  0.2982385E-05  0.1666467E+04  0.7818609E-02  0.8780724E-01
       -1   -1    0    0    0  501  0.00000000000E+00  0.00000000000E+00  0.80443859075E+03  0.80443859076E+03  0.50400001928E-02 0. -1.
        1   -1    0    0  501    0  0.00000000000E+00  0.00000000000E+00 -0.86305867575E+03  0.86305867577E+03  0.50400001928E-02 0.  1.
    10030    2    1    2    0    0  0.00000000000E+00  0.00000000000E+00 -0.58620085004E+02  0.16674972665E+04  0.16664665672E+04 0.  0.
        4    1    3    3  502    0  0.17755324390E+03  0.29335067651E+03 -0.78918496973E+03  0.86046168025E+03  0.12699999809E+01 0.  1.
       -4    1    3    3    0  502 -0.17755324390E+03 -0.29335067651E+03  0.73056488473E+03  0.80703558628E+03  0.12699999809E+01 0. -1.
</event>
<event>
 5   0  0.6814789E-05  0.2307549E+04  0.7818609E-02  0.8474951E-01
       -2   -1    0    0    0  501  0.00000000000E+00  0.00000000000E+00  0.91902771032E+03  0.91902771032E+03  0.25500000920E-02 0.  1.
        2   -1    0    0  501    0  0.00000000000E+00  0.00000000000E+00 -0.14484822831E+04  0.14484822831E+04  0.25500000920E-02 0. -1.
    10030    2    1    2    0    0  0.00000000000E+00  0.00000000000E+00 -0.52945457282E+03  0.23675099935E+04  0.23075487913E+04 0.  0.
        1    1    3    3  502    0  0.44811913713E+03 -0.56445469591E+03 -0.11891250707E+04  0.13904813190E+04  0.50400001928E-02 0. -1.
       -1    1    3    3    0  502 -0.44811913713E+03  0.56445469591E+03  0.65967049790E+03  0.97702867441E+03  0.50400001928E-02 0.  1.
</event>
<event>
 5   0  0.2342500E-05  0.2291205E+04  0.7818609E-02  0.8481397E-01
       -3   -1    0    0    0  501  0.00000000000E+00  0.00000000000E+00  0.67636864725E+03  0.67636865479E+03  0.10100000352E+00 0.  1.
        3   -1    0    0  501    0  0.00000000000E+00  0.00000000000E+00 -0.19403699955E+04  0.19403699982E+04  0.10100000352E+00 0. -1.
    10030    2    1    2    0    0  0.00000000000E+00  0.00000000000E+00 -0.12640013483E+04  0.26167386530E+04  0.22912053093E+04 0.  0.
        5    1    3    3  502    0 -0.99683444369E+03 -0.13702784603E+03 -0.65332241760E+01  0.10062406828E+04  0.46999998093E+01 0.  1.
       -5    1    3    3    0  502  0.99683444369E+03  0.13702784603E+03 -0.12574681241E+04  0.16104979702E+04  0.46999998093E+01 0. -1.
</event>
<event>
 5   0  0.6495405E-05  0.2310589E+04  0.7818609E-02  0.8473758E-01
        2   -1    0    0  501    0  0.00000000000E+00  0.00000000000E+00  0.12389560716E+04  0.12389560716E+04  0.25500000920E-02 0. -1.
       -2   -1    0    0    0  501  0.00000000000E+00  0.00000000000E+00 -0.10772822401E+04  0.10772822401E+04  0.25500000920E-02 0.  1.
    10030    2    1    2    0    0  0.00000000000E+00  0.00000000000E+00  0.16167383156E+03  0.23162383117E+04  0.23105889918E+04 0.  0.
        5    1    3    3  502    0  0.28991895697E+03  0.89473344365E+02 -0.10366193873E+04  0.10801205142E+04  0.46999998093E+01 0.  1.
       -5    1    3    3    0  502 -0.28991895697E+03 -0.89473344365E+02  0.11982932189E+04  0.12361177975E+04  0.46999998093E+01 0. -1.
</event>
<event>
 5   0  0.6495405E-05  0.2304888E+04  0.7818609E-02  0.8475996E-01
        2   -1    0    0  501    0  0.00000000000E+00  0.00000000000E+00  0.24038036426E+04  0.24038036426E+04  0.25500000920E-02 0.  1.
       -2   -1    0    0    0  501  0.00000000000E+00  0.00000000000E+00 -0.55251052416E+03  0.55251052417E+03  0.25500000920E-02 0. -1.
    10030    2    1    2    0    0  0.00000000000E+00  0.00000000000E+00  0.18512931185E+04  0.29563141668E+04  0.23048876854E+04 0.  0.
        5    1    3    3  502    0 -0.32329016793E+03  0.79377936407E+03 -0.62478917126E+02  0.85937646965E+03  0.46999998093E+01 0. -1.
       -5    1    3    3    0  502  0.32329016793E+03 -0.79377936407E+03  0.19137720356E+04  0.20969376972E+04  0.46999998093E+01 0.  1.
</event>
<event>
 5   0  0.6676612E-05  0.2280709E+04  0.7818609E-02  0.8485566E-01
       -2   -1    0    0    0  501  0.00000000000E+00  0.00000000000E+00  0.10392249236E+04  0.10392249236E+04  0.25500000920E-02 0. -1.
        2   -1    0    0  501    0  0.00000000000E+00  0.00000000000E+00 -0.12513252017E+04  0.12513252017E+04  0.25500000920E-02 0.  1.
    10030    2    1    2    0    0  0.00000000000E+00  0.00000000000E+00 -0.21210027810E+03  0.22905501254E+04  0.22807089575E+04 0.  0.
        2    1    3    3  502    0  0.76336457943E+03  0.54705543974E+03  0.54358965711E+03  0.10851197402E+04  0.25500000920E-02 0. -1.
       -2    1    3    3    0  502 -0.76336457943E+03 -0.54705543974E+03 -0.75568993521E+03  0.12054303852E+04  0.25500000920E-02 0.  1.
</event>
<event>
 5   0  0.2944089E-05  0.2290278E+04  0.7818609E-02  0.8481764E-01
        1   -1    0    0  501    0  0.00000000000E+00  0.00000000000E+00  0.13538288869E+04  0.13538288869E+04  0.50400001928E-02 0. -1.
       -1   -1    0    0    0  501  0.00000000000E+00  0.00000000000E+00 -0.96861840030E+03  0.96861840032E+03  0.50400001928E-02 0.  1.
    10030    2    1    2    0    0  0.00000000000E+00  0.00000000000E+00  0.38521048657E+03  0.23224472872E+04  0.22902782108E+04 0.  0.
        5    1    3    3  502    0 -0.89209599409E+03  0.33139525439E+03  0.83846844209E+03  0.12683491222E+04  0.46999998093E+01 0.  1.
       -5    1    3    3    0  502  0.89209599409E+03 -0.33139525439E+03 -0.45325795552E+03  0.10540981650E+04  0.46999998093E+01 0. -1.
</event>
<event>
 5   0  0.6468758E-05  0.2308012E+04  0.7818609E-02  0.8474769E-01
        2   -1    0    0  501    0  0.00000000000E+00  0.00000000000E+00  0.12363973787E+04  0.12363973787E+04  0.25500000920E-02 0.  1.
       -2   -1    0    0    0  501  0.00000000000E+00  0.00000000000E+00 -0.10771048559E+04  0.10771048559E+04  0.25500000920E-02 0. -1.
    10030    2    1    2    0    0  0.00000000000E+00  0.00000000000E+00  0.15929252279E+03  0.23135022345E+04  0.23080118027E+04 0.  0.
        3    1    3    3  502    0 -0.27494457037E+03 -0.23927633928E+03  0.11771856231E+04  0.12323204473E+04  0.10100000352E+00 0.  1.
       -3    1    3    3    0  502  0.27494457037E+03  0.23927633928E+03 -0.10178931003E+04  0.10811817873E+04  0.10100000352E+00 0. -1.
</event>
<event>
 5   0  0.3118614E-05  0.2300599E+04  0.7818609E-02  0.8477685E-01
       -1   -1    0    0    0  501  0.00000000000E+00  0.00000000000E+00  0.13241725678E+04  0.13241725678E+04  0.50400001928E-02 0.  1.
        1   -1    0    0  501    0  0.00000000000E+00  0.00000000000E+00 -0.99925744219E+03  0.99925744220E+03  0.50400001928E-02 0. -1.
    10030    2    1    2    0    0  0.00000000000E+00  0.00000000000E+00  0.32491512558E+03  0.23234300100E+04  0.23005993072E+04 0.  0.
        3    1    3    3  502    0  0.26443806579E+02 -0.36747491527E+03  0.12629743638E+04  0.13156144352E+04  0.10100000352E+00 0.  1.
       -3    1    3    3    0  502 -0.26443806579E+02  0.36747491527E+03 -0.93805923820E+03  0.10078155748E+04  0.10100000352E+00 0. -1.
</event>
<event>
 5   0  0.6702421E-05  0.2315585E+04  0.7818609E-02  0.8471801E-01
        2   -1    0    0  501    0  0.00000000000E+00  0.00000000000E+00  0.95477711889E+03  0.95477711890E+03  0.25500000920E-02 0.  1.
       -2   -1    0    0    0  501  0.00000000000E+00  0.00000000000E+00 -0.14039757712E+04  0.14039757712E+04  0.25500000920E-02 0. -1.
    10030    2    1    2    0    0  0.00000000000E+00  0.00000000000E+00 -0.44919865228E+03  0.23587528901E+04  0.23155854049E+04 0.  0.
        4    1    3    3  502    0  0.57021546252E+03 -0.29609152144E+03  0.75651037638E+03  0.99253484837E+03  0.12699999809E+01 0.  1.
       -4    1    3    3    0  502 -0.57021546252E+03  0.29609152144E+03 -0.12057090287E+04  0.13662180417E+04  0.12699999809E+01 0. -1.
</event>
<event>
 5   0  0.3006265E-05  0.2312996E+04  0.7818609E-02  0.8472815E-01
       -1   -1    0    0    0  501  0.00000000000E+00  0.00000000000E+00  0.13156079968E+04  0.13156079968E+04  0.50400001928E-02 0. -1.
        1   -1    0    0  501    0  0.00000000000E+00  0.00000000000E+00 -0.10166305488E+04  0.10166305488E+04  0.50400001928E-02 0.  1.
    10030    2    1    2    0    0  0.00000000000E+00  0.00000000000E+00  0.29897744800E+03  0.23322385456E+04  0.23129957024E+04 0.  0.
        2    1    3    3  502    0  0.20877795968E+03 -0.10396112142E+04 -0.31598758090E+03  0.11064483108E+04  0.25500000920E-02 0.  1.
       -2    1    3    3    0  502 -0.20877795968E+03  0.10396112142E+04  0.61496502890E+03  0.12257902349E+04  0.25500000920E-02 0. -1.
</event>
<event>
 5   0  0.2962279E-05  0.2319045E+04  0.7818609E-02  0.8470449E-01
        1   -1    0    0  501    0  0.00000000000E+00  0.00000000000E+00  0.20732592540E+04  0.20732592540E+04  0.50400001928E-02 0. -1.
       -1   -1    0    0    0  501  0.00000000000E+00  0.00000000000E+00 -0.64849234995E+03  0.64849234997E+03  0.50400001928E-02 0.  1.
    10030    2    1    2    0    0  0.00000000000E+00  0.00000000000E+00  0.14247669040E+04  0.27217516039E+04  0.23190452912E+04 0.  0.
        1    1    3    3  502    0  0.10232476867E+04 -0.34944792282E+03  0.12038382515E+04  0.16181397390E+04  0.50400001928E-02 0. -1.
       -1    1    3    3    0  502 -0.10232476867E+04  0.34944792282E+03  0.22092865251E+03  0.11036118650E+04  0.50400001928E-02 0.  1.
</event>
<event>
 5   0  0.6495405E-05  0.2337301E+04  0.7818609E-02  0.8463357E-01
       -2   -1    0    0    0  501  0.00000000000E+00  0.00000000000E+00  0.15923988781E+04  0.15923988781E+04  0.25500000920E-02 0.  1.
        2   -1    0    0  501    0  0.00000000000E+00  0.00000000000E+00 -0.85766475666E+03  0.85766475667E+03  0.25500000920E-02 0. -1.
    10030    2    1    2    0    0  0.00000000000E+00  0.00000000000E+00  0.73473412144E+03  0.24500636348E+04  0.23373013467E+04 0.  0.
        5    1    3    3  502    0  0.55608504611E+03  0.10125918296E+04  0.55237411793E+03  0.12805124162E+04  0.46999998093E+01 0.  1.
       -5    1    3    3    0  502 -0.55608504611E+03 -0.10125918296E+04  0.18236000352E+03  0.11695512186E+04  0.46999998093E+01 0. -1.
</event>
<event>
 5   0  0.2944089E-05  0.2280368E+04  0.7818609E-02  0.8485702E-01
       -1   -1    0    0    0  501  0.00000000000E+00  0.00000000000E+00  0.68370861122E+03  0.68370861124E+03  0.50400001928E-02 0. -1.
        1   -1    0    0  501    0  0.00000000000E+00  0.00000000000E+00 -0.19014230588E+04  0.19014230588E+04  0.50400001928E-02 0.  1.
    10030    2    1    2    0    0  0.00000000000E+00  0.00000000000E+00 -0.12177144475E+04  0.25851316700E+04  0.22803677939E+04 0.  0.
        5    1    3    3  502    0  0.59549820835E+03  0.28586720746E+03 -0.16623921414E+04  0.17888286386E+04  0.46999998093E+01 0.  1.
       -5    1    3    3    0  502 -0.59549820835E+03 -0.28586720746E+03  0.44467769385E+03  0.79630303142E+03  0.46999998093E+01 0. -1.
</event>
<event>
 5   0  0.6468758E-05  0.2322296E+04  0.7818609E-02  0.8469182E-01
        2   -1    0    0  501    0  0.00000000000E+00  0.00000000000E+00  0.10135569908E+04  0.10135569908E+04  0.25500000920E-02 0. -1.
       -2   -1    0    0    0  501  0.00000000000E+00  0.00000000000E+00 -0.13302308978E+04  0.13302308978E+04  0.25500000920E-02 0.  1.
    10030    2    1    2    0    0  0.00000000000E+00  0.00000000000E+00 -0.31667390696E+03  0.23437878886E+04  0.23222961274E+04 0.  0.
        3    1    3    3  502    0  0.32020519263E+03 -0.29939599655E+03 -0.12435064083E+04  0.13185133772E+04  0.10100000352E+00 0.  1.
       -3    1    3    3    0  502 -0.32020519263E+03  0.29939599655E+03  0.92683250130E+03  0.10252745114E+04  0.10100000352E+00 0. -1.
</event>
<event>
 5   0  0.6814789E-05  0.2320016E+04  0.7818609E-02  0.8470071E-01
       -2   -1    0    0    0  501  0.00000000000E+00  0.00000000000E+00  0.13176847254E+04  0.13176847254E+04  0.25500000920E-02 0. -1.
        2   -1    0    0  501    0  0.00000000000E+00  0.00000000000E+00 -0.10211991996E+04  0.10211991996E+04  0.25500000920E-02 0.  1.
    10030    2    1    2    0    0  0.00000000000E+00  0.00000000000E+00  0.29648552586E+03  0.23388839250E+04  0.23200160231E+04 0.  0.
        1    1    3    3  502    0  0.10901567427E+03  0.68545952542E+03  0.10852528061E+04  0.12882208007E+04  0.50400001928E-02 0. -1.
       -1    1    3    3    0  502 -0.10901567427E+03 -0.68545952542E+03 -0.78876728026E+03  0.10506631242E+04  0.50400001928E-02 0.  1.
</event>
<event>
 5   0  0.3006265E-05  0.2300226E+04  0.7818609E-02  0.8477832E-01
       -1   -1    0    0    0  501  0.00000000000E+00  0.00000000000E+00  0.19169774409E+04  0.19169774410E+04  0.50400001928E-02 0. -1.
        1   -1    0    0  501    0  0.00000000000E+00  0.00000000000E+00 -0.69002390886E+03  0.69002390888E+03  0.50400001928E-02 0.  1.
    10030    2    1    2    0    0  0.00000000000E+00  0.00000000000E+00  0.12269535321E+04  0.26070013498E+04  0.23002263080E+04 0.  0.
        2    1    3    3  502    0 -0.56071029606E+03  0.90056660768E+03  0.10999624750E+03  0.10665436819E+04  0.25500000920E-02 0.  1.
       -2    1    3    3    0  502  0.56071029606E+03 -0.90056660768E+03  0.11169572846E+04  0.15404576679E+04  0.25500000920E-02 0. -1.
</event>
<event>
 5   0  0.3006265E-05  0.2301123E+04  0.7818609E-02  0.8477478E-01
       -1   -1    0    0    0  501  0.00000000000E+00  0.00000000000E+00  0.10018103718E+04  0.10018103718E+04  0.50400001928E-02 0. -1.
        1   -1    0    0  501    0  0.00000000000E+00  0.00000000000E+00 -0.13214000972E+04  0.13214000972E+04  0.50400001928E-02 0.  1.
    10030    2    1    2    0    0  0.00000000000E+00  0.00000000000E+00 -0.31958972546E+03  0.23232104690E+04  0.23011234844E+04 0.  0.
        2    1    3    3  502    0  0.10593404616E+04  0.44160411590E+03 -0.77924504696E+02  0.11503428346E+04  0.25500000920E-02 0. -1.
       -2    1    3    3    0  502 -0.10593404616E+04 -0.44160411590E+03 -0.24166522077E+03  0.11728676344E+04  0.25500000920E-02 0.  1.
</event>
<event>
 5   0  0.6468758E-05  0.2274315E+04  0.7818609E-02  0.8488118E-01
        2   -1    0    0  501    0  0.00000000000E+00  0.00000000000E+00  0.15504622624E+04  0.15504622624E+04  0.25500000920E-02 0.  1.
       -2   -1    0    0    0  501  0.00000000000E+00  0.00000000000E+00 -0.83402684299E+03  0.83402684299E+03  0.25500000920E-02 0. -1.
    10030    2    1    2    0    0  0.00000000000E+00  0.00000000000E+00  0.71643541941E+03  0.23844891054E+04  0.22743149702E+04 0.  0.
        3    1    3    3  502    0  0.26691844907E+03 -0.70868759078E+03 -0.53119526155E+03  0.92501458144E+03  0.10100000352E+00 0. -1.
       -3    1    3    3    0  502 -0.26691844907E+03  0.70868759078E+03  0.12476306810E+04  0.14594745239E+04  0.10100000352E+00 0.  1.
</event>
<event>
 5   0  0.6468758E-05  0.2286564E+04  0.7818609E-02  0.8483238E-01
        2   -1    0    0  501    0  0.00000000000E+00  0.00000000000E+00  0.93309640042E+03  0.93309640043E+03  0.25500000920E-02 0. -1.
       -2   -1    0    0    0  501  0.00000000000E+00  0.00000000000E+00 -0.14008130393E+04  0.14008130393E+04  0.25500000920E-02 0.  1.
    10030    2    1    2    0    0  0.00000000000E+00  0.00000000000E+00 -0.46771663889E+03  0.23339094397E+04  0.22865638890E+04 0.  0.
        3    1    3    3  502    0 -0.82818588875E+03  0.59552614768E+03 -0.76083364015E+03  0.12725608422E+04  0.10100000352E+00 0.  1.
       -3    1    3    3    0  502  0.82818588875E+03 -0.59552614768E+03  0.29311700126E+03  0.10613485976E+04  0.10100000352E+00 0. -1.
</event>
<event>
 5   0  0.2982385E-05  0.2310620E+04  0.7818609E-02  0.8473745E-01
        1   -1    0    0  501    0  0.00000000000E+00  0.00000000000E+00  0.18602691819E+04  0.18602691819E+04  0.50400001928E-02 0. -1.
       -1   -1    0    0    0  501  0.00000000000E+00  0.00000000000E+00 -0.71749921521E+03  0.71749921522E+03  0.50400001928E-02 0.  1.
    10030    2    1    2    0    0  0.00000000000E+00  0.00000000000E+00  0.11427699666E+04  0.25777683971E+04  0.23106204172E+04 0.  0.
        4    1    3    3  502    0 -0.28216322304E+03 -0.11183501039E+04  0.49724025793E+03  0.12560145406E+04  0.12699999809E+01 0.  1.
       -4    1    3    3    0  502  0.28216322304E+03  0.11183501039E+04  0.64552970871E+03  0.13217538564E+04  0.12699999809E+01 0. -1.
</event>
<event>
 5   0  0.2982385E-05  0.2333255E+04  0.7818609E-02  0.8464923E-01
       -1   -1    0    0    0  501  0.00000000000E+00  0.00000000000E+00  0.89617774920E+03  0.89617774921E+03  0.50400001928E-02 0.  1.
        1   -1    0    0  501    0  0.00000000000E+00  0.00000000000E+00 -0.15186945722E+04  0.15186945722E+04  0.50400001928E-02 0. -1.
    10030    2    1    2    0    0  0.00000000000E+00  0.00000000000E+00 -0.62251682303E+03  0.24148723215E+04  0.23332554798E+04 0.  0.
        4    1    3    3  502    0  0.60938055854E+03 -0.77693578907E+03  0.33180044571E+03  0.10416655097E+04  0.12699999809E+01 0.  1.
       -4    1    3    3    0  502 -0.60938055854E+03  0.77693578907E+03 -0.95431726875E+03  0.13732068117E+04  0.12699999809E+01 0. -1.
</event>
<event>
 5   0  0.2962279E-05  0.2271270E+04  0.7818609E-02  0.8489336E-01
        1   -1    0    0  501    0  0.00000000000E+00  0.00000000000E+00  0.16769052345E+04  0.16769052345E+04  0.50400001928E-02 0. -1.
       -1   -1    0    0    0  501  0.00000000000E+00  0.00000000000E+00 -0.76907575962E+03  0.76907575964E+03  0.50400001928E-02 0.  1.
    10030    2    1    2    0    0  0.00000000000E+00  0.00000000000E+00  0.90782947484E+03  0.24459809941E+04  0.22712702763E+04 0.  0.
        1    1    3    3  502    0  0.52045600591E+03  0.66237464274E+03  0.12741112705E+04  0.15274076572E+04  0.50400001928E-02 0. -1.
       -1    1    3    3    0  502 -0.52045600591E+03 -0.66237464274E+03 -0.36628179570E+03  0.91857333693E+03  0.50400001928E-02 0.  1.
</event>
<event>
 5   0  0.2962279E-05  0.2595991E+04  0.7818609E-02  0.8369564E-01
        1   -1    0    0  501    0  0.00000000000E+00  0.00000000000E+00  0.25284534732E+04  0.25284534732E+04  0.50400001928E-02 0.  1.
       -1   -1    0    0    0  501  0.00000000000E+00  0.00000000000E+00 -0.66633289277E+03  0.66633289279E+03  0.50400001928E-02 0. -1.
    10030    2    1    2    0    0  0.00000000000E+00  0.00000000000E+00  0.18621205804E+04  0.31947863660E+04  0.25959905370E+04 0.  0.
        1    1    3    3  502    0  0.89306968295E+03  0.32151597398E+03  0.20206274822E+04  0.22324608399E+04  0.50400001928E-02 0.  1.
       -1    1    3    3    0  502 -0.89306968295E+03 -0.32151597398E+03 -0.15850690177E+03  0.96232552603E+03  0.50400001928E-02 0. -1.
</event>
<event>
 5   0  0.3006265E-05  0.2329813E+04  0.7818609E-02  0.8466258E-01
        1   -1    0    0  501    0  0.00000000000E+00  0.00000000000E+00  0.15711066786E+04  0.15711066786E+04  0.50400001928E-02 0. -1.
       -1   -1    0    0    0  501  0.00000000000E+00  0.00000000000E+00 -0.86372675673E+03  0.86372675675E+03  0.50400001928E-02 0.  1.
    10030    2    1    2    0    0  0.00000000000E+00  0.00000000000E+00  0.70737992186E+03  0.24348334353E+04  0.23298127616E+04 0.  0.
        2    1    3    3  502    0  0.30677468465E+03  0.41915499620E+03  0.14433825797E+04  0.15339996380E+04  0.25500000920E-02 0. -1.
       -2    1    3    3    0  502 -0.30677468465E+03 -0.41915499620E+03 -0.73600265788E+03  0.90083379732E+03  0.25500000920E-02 0.  1.
</event>
<event>
 5   0  0.2944089E-05  0.2228763E+04  0.7818609E-02  0.8506551E-01
        1   -1    0    0  501    0  0.00000000000E+00  0.00000000000E+00  0.94296359071E+03  0.94296359072E+03  0.50400001928E-02 0. -1.
       -1   -1    0    0    0  501  0.00000000000E+00  0.00000000000E+00 -0.13169610054E+04  0.13169610055E+04  0.50400001928E-02 0.  1.
    10030    2    1    2    0    0  0.00000000000E+00  0.00000000000E+00 -0.37399741473E+03  0.22599245962E+04  0.22287631355E+04 0.  0.
        5    1    3    3  502    0 -0.48443010126E+03  0.10005248415E+04 -0.26620427510E+03  0.11430701149E+04  0.46999998093E+01 0.  1.
       -5    1    3    3    0  502  0.48443010126E+03 -0.10005248415E+04 -0.10779313963E+03  0.11168544813E+04  0.46999998093E+01 0. -1.
</event>
<event>
 5   0  0.3006265E-05  0.2331562E+04  0.7818609E-02  0.8465580E-01
       -1   -1    0    0    0  501  0.00000000000E+00  0.00000000000E+00  0.93422457628E+03  0.93422457629E+03  0.50400001928E-02 0.  1.
        1   -1    0    0  501    0  0.00000000000E+00  0.00000000000E+00 -0.14547311639E+04  0.14547311639E+04  0.50400001928E-02 0. -1.
    10030    2    1    2    0    0  0.00000000000E+00  0.00000000000E+00 -0.52050658761E+03  0.23889557402E+04  0.23315622275E+04 0.  0.
        2    1    3    3  502    0 -0.11599295873E+04  0.11513129446E+03 -0.27952431823E+03  0.11986766482E+04  0.25500000920E-02 0. -1.
       -2    1    3    3    0  502  0.11599295873E+04 -0.11513129446E+03 -0.24098226938E+03  0.11902790919E+04  0.25500000920E-02 0.  1.
</event>
<event>
 5   0  0.6814789E-05  0.2304874E+04  0.7818609E-02  0.8476002E-01
       -2   -1    0    0    0  501  0.00000000000E+00  0.00000000000E+00  0.63104999880E+03  0.63104999880E+03  0.25500000920E-02 0. -1.
        2   -1    0    0  501    0  0.00000000000E+00  0.00000000000E+00 -0.21046056800E+04  0.21046056800E+04  0.25500000920E-02 0.  1.
    10030    2    1    2    0    0  0.00000000000E+00  0.00000000000E+00 -0.14735556812E+04  0.27356556788E+04  0.23048743235E+04 0.  0.
        1    1    3    3  502    0 -0.59674240038E+03 -0.71961870327E+03 -0.15366453776E+04  0.17986749531E+04  0.50400001928E-02 0.  1.
       -1    1    3    3    0  502  0.59674240038E+03  0.71961870327E+03  0.63089696367E+02  0.93698072569E+03  0.50400001928E-02 0. -1.
</event>
<event>
 5   0  0.6814789E-05  0.2256350E+04  0.7818609E-02  0.8495333E-01
        2   -1    0    0  501    0  0.00000000000E+00  0.00000000000E+00  0.10988344609E+04  0.10988344609E+04  0.25500000920E-02 0. -1.
       -2   -1    0    0    0  501  0.00000000000E+00  0.00000000000E+00 -0.11582989534E+04  0.11582989534E+04  0.25500000920E-02 0.  1.
    10030    2    1    2    0    0  0.00000000000E+00  0.00000000000E+00 -0.59464492502E+02  0.22571334143E+04  0.22563499782E+04 0.  0.
        1    1    3    3  502    0  0.33064728860E+03 -0.60756185720E+03  0.86182339404E+03  0.11050785503E+04  0.50400001928E-02 0. -1.
       -1    1    3    3    0  502 -0.33064728860E+03  0.60756185720E+03 -0.92128788655E+03  0.11520548640E+04  0.50400001928E-02 0.  1.
</event>
<event>
 5   0  0.6676612E-05  0.2276915E+04  0.7818609E-02  0.8487079E-01
       -2   -1    0    0    0  501  0.00000000000E+00  0.00000000000E+00  0.67938762456E+03  0.67938762456E+03  0.25500000920E-02 0.  1.
        2   -1    0    0  501    0  0.00000000000E+00  0.00000000000E+00 -0.19077266618E+04  0.19077266618E+04  0.25500000920E-02 0. -1.
    10030    2    1    2    0    0  0.00000000000E+00  0.00000000000E+00 -0.12283390373E+04  0.25871142864E+04  0.22769153564E+04 0.  0.
        2    1    3    3  502    0 -0.13920583299E+03 -0.11285732102E+04 -0.67671549537E+03  0.13232534211E+04  0.25500000920E-02 0.  1.
       -2    1    3    3    0  502  0.13920583299E+03  0.11285732102E+04 -0.55162354190E+03  0.12638608653E+04  0.25500000920E-02 0. -1.
</event>
<event>
 5   0  0.2982385E-05  0.2229113E+04  0.7818609E-02  0.8506408E-01
        1   -1    0    0  501    0  0.00000000000E+00  0.00000000000E+00  0.96030089752E+03  0.96030089753E+03  0.50400001928E-02 0.  1.
       -1   -1    0    0    0  501  0.00000000000E+00  0.00000000000E+00 -0.12935904122E+04  0.12935904122E+04  0.50400001928E-02 0. -1.
    10030    2    1    2    0    0  0.00000000000E+00  0.00000000000E+00 -0.33328951470E+03  0.22538913098E+04  0.22291128584E+04 0.  0.
        4    1    3    3  502    0  0.12632729758E+03 -0.16858926460E+03 -0.12732755847E+04  0.12905863991E+04  0.12699999809E+01 0. -1.
       -4    1    3    3    0  502 -0.12632729758E+03  0.16858926460E+03  0.93998606995E+03  0.96330491063E+03  0.12699999809E+01 0.  1.
</event>
<event>
 5   0  0.2982385E-05  0.2274952E+04  0.7818609E-02  0.8487863E-01
        1   -1    0    0  501    0  0.00000000000E+00  0.00000000000E+00  0.13570634799E+04  0.13570634799E+04  0.50400001928E-02 0. -1.
       -1   -1    0    0    0  501  0.00000000000E+00  0.00000000000E+00 -0.95342048133E+03  0.95342048135E+03  0.50400001928E-02 0.  1.
    10030    2    1    2    0    0  0.00000000000E+00  0.00000000000E+00  0.40364299859E+03  0.23104839613E+04  0.22749524094E+04 0.  0.
        4    1    3    3  502    0  0.19165722657E+03  0.11188979750E+04  0.27495543420E+03  0.11680185250E+04  0.12699999809E+01 0. -1.
       -4    1    3    3    0  502 -0.19165722657E+03 -0.11188979750E+04  0.12868756440E+03  0.11424654363E+04  0.12699999809E+01 0.  1.
</event>
<event>
 5   0  0.2962279E-05  0.1960067E+04  0.7818609E-02  0.8625522E-01
       -1   -1    0    0    0  501  0.00000000000E+00  0.00000000000E+00  0.12194962587E+04  0.12194962587E+04  0.50400001928E-02 0. -1.
        1   -1    0    0  501    0  0.00000000000E+00  0.00000000000E+00 -0.78759206539E+03  0.78759206541E+03  0.50400001928E-02 0.  1.
    10030    2    1    2    0    0  0.00000000000E+00  0.00000000000E+00  0.43190419331E+03  0.20070883241E+04  0.19600669143E+04 0.  0.
        1    1    3    3  502    0 -0.26025495053E+03 -0.38897286533E+03  0.10976738520E+04  0.11932813644E+04  0.50400001928E-02 0. -1.
       -1    1    3    3    0  502  0.26025495053E+03  0.38897286533E+03 -0.66576965869E+03  0.81380695972E+03  0.50400001928E-02 0.  1.
</event>
<event>
 5   0  0.3006265E-05  0.2304005E+04  0.7818609E-02  0.8476344E-01
       -1   -1    0    0    0  501  0.00000000000E+00  0.00000000000E+00  0.10166146650E+04  0.10166146651E+04  0.50400001928E-02 0. -1.
        1   -1    0    0  501    0  0.00000000000E+00  0.00000000000E+00 -0.13054202790E+04  0.13054202790E+04  0.50400001928E-02 0.  1.
    10030    2    1    2    0    0  0.00000000000E+00  0.00000000000E+00 -0.28880561394E+03  0.23220349441E+04  0.23040046872E+04 0.  0.
        2    1    3    3  502    0 -0.10532920761E+04  0.46249310595E+03 -0.82396307497E+02  0.11533053464E+04  0.25500000920E-02 0.  1.
       -2    1    3    3    0  502  0.10532920761E+04 -0.46249310595E+03 -0.20640930644E+03  0.11687295976E+04  0.25500000920E-02 0. -1.
</event>
<event>
 5   0  0.3006265E-05  0.1982449E+04  0.7818609E-02  0.8614871E-01
       -1   -1    0    0    0  501  0.00000000000E+00  0.00000000000E+00  0.49918322351E+03  0.49918322354E+03  0.50400001928E-02 0.  1.
        1   -1    0    0  501    0  0.00000000000E+00  0.00000000000E+00 -0.19682665982E+04  0.19682665982E+04  0.50400001928E-02 0. -1.
    10030    2    1    2    0    0  0.00000000000E+00  0.00000000000E+00 -0.14690833747E+04  0.24674498218E+04  0.19824486528E+04 0.  0.
        2    1    3    3  502    0  0.42820669461E+03 -0.48713320723E+03 -0.16675010587E+04  0.17891952145E+04  0.25500000920E-02 0. -1.
       -2    1    3    3    0  502 -0.42820669461E+03  0.48713320723E+03  0.19841768401E+03  0.67825460723E+03  0.25500000920E-02 0.  1.
</event>
<event>
 5   0  0.6468758E-05  0.2320997E+04  0.7818609E-02  0.8469688E-01
        2   -1    0    0  501    0  0.00000000000E+00  0.00000000000E+00  0.22118023347E+04  0.22118023347E+04  0.25500000920E-02 0.  1.
       -2   -1    0    0    0  501  0.00000000000E+00  0.00000000000E+00 -0.60889558703E+03  0.60889558704E+03  0.25500000920E-02 0. -1.
    10030    2    1    2    0    0  0.00000000000E+00  0.00000000000E+00  0.16029067476E+04  0.28206979217E+04  0.23209969246E+04 0.  0.
        3    1    3    3  502    0 -0.24006077095E+03  0.85615509948E+03  0.17077463016E+04  0.19253644250E+04  0.10100000352E+00 0.  1.
       -3    1    3    3    0  502  0.24006077095E+03 -0.85615509948E+03 -0.10483955396E+03  0.89533349674E+03  0.10100000352E+00 0. -1.
</event>
<event>
 5   0  0.6814789E-05  0.2290731E+04  0.7818609E-02  0.8481585E-01
        2   -1    0    0  501    0  0.00000000000E+00  0.00000000000E+00  0.24521831618E+04  0.24521831618E+04  0.25500000920E-02 0. -1.
       -2   -1    0    0    0  501  0.00000000000E+00  0.00000000000E+00 -0.53497716700E+03  0.53497716701E+03  0.25500000920E-02 0.  1.
    10030    2    1    2    0    0  0.00000000000E+00  0.00000000000E+00  0.19172059948E+04  0.29871603288E+04  0.22907308885E+04 0.  0.
        1    1    3    3  502    0 -0.82086163060E+03 -0.22661452806E+03  0.19574300564E+04  0.21346429178E+04  0.50400001928E-02 0. -1.
       -1    1    3    3    0  502  0.82086163060E+03  0.22661452806E+03 -0.40224061570E+02  0.85251741101E+03  0.50400001928E-02 0.  1.
</event>
<event>
 5   0  0.6468758E-05  0.2293180E+04  0.7818609E-02  0.8480615E-01
        2   -1    0    0  501    0  0.00000000000E+00  0.00000000000E+00  0.16418966124E+04  0.16418966124E+04  0.25500000920E-02 0.  1.
       -2   -1    0    0    0  501  0.00000000000E+00  0.00000000000E+00 -0.80070134156E+03  0.80070134156E+03  0.25500000920E-02 0. -1.
    10030    2    1    2    0    0  0.00000000000E+00  0.00000000000E+00  0.84119527084E+03  0.24425979540E+04  0.22931801676E+04 0.  0.
        3    1    3    3  502    0  0.57981391112E+03 -0.31694504984E+03 -0.57748984142E+03  0.87757214136E+03  0.10100000352E+00 0.  1.
       -3    1    3    3    0  502 -0.57981391112E+03  0.31694504984E+03  0.14186851123E+04  0.15650258126E+04  0.10100000352E+00 0. -1.
</event>
<event>
 5   0  0.2962279E-05  0.2320392E+04  0.7818609E-02  0.8469924E-01
       -1   -1    0    0    0  501  0.00000000000E+00  0.00000000000E+00  0.10853157065E+04  0.10853157065E+04  0.50400001928E-02 0. -1.
        1   -1    0    0  501    0  0.00000000000E+00  0.00000000000E+00 -0.12402422970E+04  0.12402422970E+04  0.50400001928E-02 0.  1.
    10030    2    1    2    0    0  0.00000000000E+00  0.00000000000E+00 -0.15492659054E+03  0.23255580035E+04  0.23203917297E+04 0.  0.
        1    1    3    3  502    0 -0.86205888137E+03  0.10559567271E+03  0.69350783111E+03  0.11114175961E+04  0.50400001928E-02 0. -1.
       -1    1    3    3    0  502  0.86205888137E+03 -0.10559567271E+03 -0.84843442164E+03  0.12141404074E+04  0.50400001928E-02 0.  1.
</event>
<event>
 5   0  0.6676612E-05  0.2231181E+04  0.7818609E-02  0.8505561E-01
        2   -1    0    0  501    0  0.00000000000E+00  0.00000000000E+00  0.14802501133E+04  0.14802501133E+04  0.25500000920E-02 0.  1.
       -2   -1    0    0    0  501  0.00000000000E+00  0.00000000000E+00 -0.84076492090E+03  0.84076492090E+03  0.25500000920E-02 0. -1.
    10030    2    1    2    0    0  0.00000000000E+00  0.00000000000E+00  0.63948519245E+03  0.23210150342E+04  0.22311811844E+04 0.  0.
        2    1    3    3  502    0 -0.47426380809E+03 -0.10085063883E+04  0.37207799990E+03  0.11749269479E+04  0.25500000920E-02 0. -1.
       -2    1    3    3    0  502  0.47426380809E+03  0.10085063883E+04  0.26740719254E+03  0.11460880863E+04  0.25500000920E-02 0.  1.
</event>
<event>
 5   0  0.6676612E-05  0.2333136E+04  0.7818609E-02  0.8464969E-01
        2   -1    0    0  501    0  0.00000000000E+00  0.00000000000E+00  0.16418750323E+04  0.16418750323E+04  0.25500000920E-02 0.  1.
       -2   -1    0    0    0  501  0.00000000000E+00  0.00000000000E+00 -0.82885797345E+03  0.82885797345E+03  0.25500000920E-02 0. -1.
    10030    2    1    2    0    0  0.00000000000E+00  0.00000000000E+00  0.81301705887E+03  0.24707330058E+04  0.23331362686E+04 0.  0.
        2    1    3    3  502    0 -0.96310358587E+03  0.99444466092E+02 -0.28257709095E+03  0.10086166424E+04  0.25500000920E-02 0. -1.
       -2    1    3    3    0  502  0.96310358587E+03 -0.99444466092E+02  0.10955941498E+04  0.14621163634E+04  0.25500000920E-02 0.  1.
</event>
<event>
 5   0  0.2962279E-05  0.2264175E+04  0.7818609E-02  0.8492182E-01
        1   -1    0    0  501    0  0.00000000000E+00  0.00000000000E+00  0.12374666544E+04  0.12374666544E+04  0.50400001928E-02 0.  1.
       -1   -1    0    0    0  501  0.00000000000E+00  0.00000000000E+00 -0.10356823909E+04  0.10356823909E+04  0.50400001928E-02 0. -1.
    10030    2    1    2    0    0  0.00000000000E+00  0.00000000000E+00  0.20178426353E+03  0.22731490453E+04  0.22641752788E+04 0.  0.
        1    1    3    3  502    0  0.53233008704E+03  0.67699884723E+03 -0.63681238063E+03  0.10710895242E+04  0.50400001928E-02 0. -1.
       -1    1    3    3    0  502 -0.53233008704E+03 -0.67699884723E+03  0.83859664416E+03  0.12020595211E+04  0.50400001928E-02 0.  1.
</event>
<event>
 5   0  0.2982385E-05  0.2298821E+04  0.7818609E-02  0.8478386E-01
       -1   -1    0    0    0  501  0.00000000000E+00  0.00000000000E+00  0.71832323284E+03  0.71832323286E+03  0.50400001928E-02 0. -1.
        1   -1    0    0  501    0  0.00000000000E+00  0.00000000000E+00 -0.18392068664E+04  0.18392068664E+04  0.50400001928E-02 0.  1.
    10030    2    1    2    0    0  0.00000000000E+00  0.00000000000E+00 -0.11208836335E+04  0.25575300992E+04  0.22988214564E+04 0.  0.
        4    1    3    3  502    0  0.69455248884E+03  0.90469611605E+03 -0.40206528782E+03  0.12093536831E+04  0.12699999809E+01 0.  1.
       -4    1    3    3    0  502 -0.69455248884E+03 -0.90469611605E+03 -0.71881834571E+03  0.13481764162E+04  0.12699999809E+01 0. -1.
</event>
<event>
 5   0  0.2944089E-05  0.2344671E+04  0.7818609E-02  0.8460513E-01
        1   -1    0    0  501    0  0.00000000000E+00  0.00000000000E+00  0.21495096085E+04  0.21495096085E+04  0.50400001928E-02 0. -1.
       -1   -1    0    0    0  501  0.00000000000E+00  0.00000000000E+00 -0.63938798235E+03  0.63938798237E+03  0.50400001928E-02 0.  1.
    10030    2    1    2    0    0  0.00000000000E+00  0.00000000000E+00  0.15101216262E+04  0.27888975909E+04  0.23446710743E+04 0.  0.
        5    1    3    3  502    0  0.77068238825E+03 -0.29491720949E+03 -0.23542701281E+03  0.85812322680E+03  0.46999998093E+01 0.  1.
       -5    1    3    3    0  502 -0.77068238825E+03  0.29491720949E+03  0.17455486390E+04  0.19307743641E+04  0.46999998093E+01 0. -1.
</event>
<event>
 5   0  0.6702421E-05  0.2310101E+04  0.7818609E-02  0.8473949E-01
       -2   -1    0    0    0  501  0.00000000000E+00  0.00000000000E+00  0.14961393630E+04  0.14961393630E+04  0.25500000920E-02 0.  1.
        2   -1    0    0  501    0  0.00000000000E+00  0.00000000000E+00 -0.89172270217E+03  0.89172270218E+03  0.25500000920E-02 0. -1.
    10030    2    1    2    0    0  0.00000000000E+00  0.00000000000E+00  0.60441666078E+03  0.23878620651E+04  0.23101008078E+04 0.  0.
        4    1    3    3  502    0 -0.95679794374E+03  0.57610857283E+03  0.60670264870E+03  0.12710047638E+04  0.12699999809E+01 0.  1.
       -4    1    3    3    0  502  0.95679794374E+03 -0.57610857283E+03 -0.22859879216E+01  0.11168573013E+04  0.12699999809E+01 0. -1.
</event>
<event>
 5   0  0.2944089E-05  0.2284510E+04  0.7818609E-02  0.8484054E-01
       -1   -1    0    0    0  501  0.00000000000E+00  0.00000000000E+00  0.11236874401E+04  0.11236874401E+04  0.50400001928E-02 0.  1.
        1   -1    0    0  501    0  0.00000000000E+00  0.00000000000E+00 -0.11611291570E+04  0.11611291571E+04  0.50400001928E-02 0. -1.
    10030    2    1    2    0    0  0.00000000000E+00  0.00000000000E+00 -0.37441716998E+02  0.22848165971E+04  0.22845097943E+04 0.  0.
        5    1    3    3  502    0 -0.10781986945E+04  0.35022828768E+03  0.12112596333E+03  0.11401166025E+04  0.46999998093E+01 0.  1.
       -5    1    3    3    0  502  0.10781986945E+04 -0.35022828768E+03 -0.15856768032E+03  0.11446999946E+04  0.46999998093E+01 0. -1.
</event>
<event>
 5   0  0.6814789E-05  0.2255868E+04  0.7818609E-02  0.8495528E-01
       -2   -1    0    0    0  501  0.00000000000E+00  0.00000000000E+00  0.10616132735E+04  0.10616132735E+04  0.25500000920E-02 0. -1.
        2   -1    0    0  501    0  0.00000000000E+00  0.00000000000E+00 -0.11983981191E+04  0.11983981191E+04  0.25500000920E-02 0.  1.
    10030    2    1    2    0    0  0.00000000000E+00  0.00000000000E+00 -0.13678484557E+03  0.22600113925E+04  0.22558682143E+04 0.  0.
        1    1    3    3  502    0  0.95482383781E+03 -0.35771556514E+03 -0.55155025882E+03  0.11592483232E+04  0.50400001928E-02 0.  1.
       -1    1    3    3    0  502 -0.95482383781E+03  0.35771556514E+03  0.41476541324E+03  0.11007630694E+04  0.50400001928E-02 0. -1.
</event>
<event>
 5   0  0.2944089E-05  0.2316673E+04  0.7818609E-02  0.8471376E-01
       -1   -1    0    0    0  501  0.00000000000E+00  0.00000000000E+00  0.60983144899E+03  0.60983144901E+03  0.50400001928E-02 0.  1.
        1   -1    0    0  501    0  0.00000000000E+00  0.00000000000E+00 -0.22001864749E+04  0.22001864749E+04  0.50400001928E-02 0. -1.
    10030    2    1    2    0    0  0.00000000000E+00  0.00000000000E+00 -0.15903550259E+04  0.28100179239E+04  0.23166725328E+04 0.  0.
        5    1    3    3  502    0  0.63128071256E+03  0.25581731626E+03  0.34122731567E+03  0.76185038446E+03  0.46999998093E+01 0.  1.
       -5    1    3    3    0  502 -0.63128071256E+03 -0.25581731626E+03 -0.19315823415E+04  0.20481675394E+04  0.46999998093E+01 0. -1.
</event>
<event>
 5   0  0.3118614E-05  0.2308971E+04  0.7818609E-02  0.8474392E-01
       -1   -1    0    0    0  501  0.00000000000E+00  0.00000000000E+00  0.43812305802E+03  0.43812305805E+03  0.50400001928E-02 0. -1.
        1   -1    0    0  501    0  0.00000000000E+00  0.00000000000E+00 -0.30421510237E+04  0.30421510237E+04  0.50400001928E-02 0.  1.
    10030    2    1    2    0    0  0.00000000000E+00  0.00000000000E+00 -0.26040279657E+04  0.34802740817E+04  0.23089707746E+04 0.  0.
        3    1    3    3  502    0  0.35854622172E+03  0.10783110554E+04 -0.99485938776E+03  0.15103163036E+04  0.10100000352E+00 0. -1.
       -3    1    3    3    0  502 -0.35854622172E+03 -0.10783110554E+04 -0.16091685779E+04  0.19699577781E+04  0.10100000352E+00 0.  1.
</event>
<event>
 5   0  0.3118614E-05  0.2250761E+04  0.7818609E-02  0.8497592E-01
       -1   -1    0    0    0  501  0.00000000000E+00  0.00000000000E+00  0.10181418357E+04  0.10181418357E+04  0.50400001928E-02 0. -1.
        1   -1    0    0  501    0  0.00000000000E+00  0.00000000000E+00 -0.12439145701E+04  0.12439145701E+04  0.50400001928E-02 0.  1.
    10030    2    1    2    0    0  0.00000000000E+00  0.00000000000E+00 -0.22577273444E+03  0.22620564058E+04  0.22507611724E+04 0.  0.
        3    1    3    3  502    0 -0.77661219000E+03 -0.52216571760E+03  0.51530876523E+03  0.10683289119E+04  0.10100000352E+00 0. -1.
       -3    1    3    3    0  502  0.77661219000E+03  0.52216571760E+03 -0.74108149968E+03  0.11937274939E+04  0.10100000352E+00 0.  1.
</event>
<event>
 5   0  0.2944089E-05  0.2242364E+04  0.7818609E-02  0.8500999E-01
       -1   -1    0    0    0  501  0.00000000000E+00  0.00000000000E+00  0.10231874773E+04  0.10231874773E+04  0.50400001928E-02 0.  1.
        1   -1    0    0  501    0  0.00000000000E+00  0.00000000000E+00 -0.12285617793E+04  0.12285617793E+04  0.50400001928E-02 0. -1.
    10030    2    1    2    0    0  0.00000000000E+00  0.00000000000E+00 -0.20537430199E+03  0.22517492566E+04  0.22423639559E+04 0.  0.
        5    1    3    3  502    0 -0.14205848464E+03 -0.57725851227E+03  0.85188022053E+03  0.10388118228E+04  0.46999998093E+01 0.  1.
       -5    1    3    3    0  502  0.14205848464E+03  0.57725851227E+03 -0.10572545225E+04  0.12129374339E+04  0.46999998093E+01 0. -1.
</event>
<event>
 5   0  0.6702421E-05  0.2277417E+04  0.7818609E-02  0.8486879E-01
        2   -1    0    0  501    0  0.00000000000E+00  0.00000000000E+00  0.15973218307E+04  0.15973218308E+04  0.25500000920E-02 0. -1.
       -2   -1    0    0    0  501  0.00000000000E+00  0.00000000000E+00 -0.81176923406E+03  0.81176923407E+03  0.25500000920E-02 0.  1.
    10030    2    1    2    0    0  0.00000000000E+00  0.00000000000E+00  0.78555259668E+03  0.24090910648E+04  0.22774167112E+04 0.  0.
        4    1    3    3  502    0 -0.16631879242E+03 -0.65865055916E+03  0.13594921374E+04  0.15197707012E+04  0.12699999809E+01 0. -1.
       -4    1    3    3    0  502  0.16631879242E+03  0.65865055916E+03 -0.57393954071E+03  0.88932036358E+03  0.12699999809E+01 0.  1.
</event>
<event>
 5   0  0.6468758E-05  0.2309485E+04  0.7818609E-02  0.8474191E-01
        2   -1    0    0  501    0  0.00000000000E+00  0.00000000000E+00  0.14225437298E+04  0.14225437298E+04  0.25500000920E-02 0.  1.
       -2   -1    0    0    0  501  0.00000000000E+00  0.00000000000E+00 -0.93735596123E+03  0.93735596124E+03  0.25500000920E-02 0. -1.
    10030    2    1    2    0    0  0.00000000000E+00  0.00000000000E+00  0.48518776859E+03  0.23598996911E+04  0.23094846570E+04 0.  0.
        3    1    3    3  502    0  0.73391413580E+03  0.27624374359E+03  0.11087349013E+04  0.13580256463E+04  0.10100000352E+00 0.  1.
       -3    1    3    3    0  502 -0.73391413580E+03 -0.27624374359E+03 -0.62354713269E+03  0.10018740447E+04  0.10100000352E+00 0. -1.
</event>
<event>
 5   0  0.6676612E-05  0.2291393E+04  0.7818609E-02  0.8481322E-01
        2   -1    0    0  501    0  0.00000000000E+00  0.00000000000E+00  0.87877500981E+03  0.87877500981E+03  0.25500000920E-02 0. -1.
       -2   -1    0    0    0  501  0.00000000000E+00  0.00000000000E+00 -0.14936935375E+04  0.14936935375E+04  0.25500000920E-02 0.  1.
    10030    2    1    2    0    0  0.00000000000E+00  0.00000000000E+00 -0.61491852772E+03  0.23724685474E+04  0.22913930724E+04 0.  0.
        2    1    3    3  502    0 -0.73903193556E+03  0.82150330188E+03 -0.62079669257E+03  0.12674479912E+04  0.25500000920E-02 0. -1.
       -2    1    3    3    0  502  0.73903193556E+03 -0.82150330188E+03  0.58781648450E+01  0.11050205562E+04  0.25500000920E-02 0.  1.
</event>
<event>
 5   0  0.6814789E-05  0.2312322E+04  0.7818609E-02  0.8473079E-01
       -2   -1    0    0    0  501  0.00000000000E+00  0.00000000000E+00  0.59321104925E+03  0.59321104925E+03  0.25500000920E-02 0.  1.
        2   -1    0    0  501    0  0.00000000000E+00  0.00000000000E+00 -0.22533432551E+04  0.22533432551E+04  0.25500000920E-02 0. -1.
    10030    2    1    2    0    0  0.00000000000E+00  0.00000000000E+00 -0.16601322058E+04  0.28465543043E+04  0.23123218778E+04 0.  0.
        1    1    3    3  502    0 -0.52821250564E+03  0.91426366237E+03 -0.14098593098E+04  0.17614169776E+04  0.50400001928E-02 0. -1.
       -1    1    3    3    0  502  0.52821250564E+03 -0.91426366237E+03 -0.25027289606E+03  0.10851373268E+04  0.50400001928E-02 0.  1.
</event>
<event>
 5   0  0.6495405E-05  0.2168964E+04  0.7818609E-02  0.8531458E-01
        2   -1    0    0  501    0  0.00000000000E+00  0.00000000000E+00  0.22564562548E+04  0.22564562548E+04  0.25500000920E-02 0. -1.
       -2   -1    0    0    0  501  0.00000000000E+00  0.00000000000E+00 -0.52121605473E+03  0.52121605474E+03  0.25500000920E-02 0.  1.
    10030    2    1    2    0    0  0.00000000000E+00  0.00000000000E+00  0.17352402000E+04  0.27776723095E+04  0.21689640170E+04 0.  0.
        5    1    3    3  502    0 -0.61418233549E+03 -0.18158159001E+03 -0.25313597706E+03  0.68868841136E+03  0.46999998093E+01 0.  1.
       -5    1    3    3    0  502  0.61418233549E+03  0.18158159001E+03  0.19883761771E+04  0.20889838982E+04  0.46999998093E+01 0. -1.
</event>
<event>
 5   0  0.6468758E-05  0.2291026E+04  0.7818609E-02  0.8481468E-01
        2   -1    0    0  501    0  0.00000000000E+00  0.00000000000E+00  0.15670085377E+04  0.15670085377E+04  0.25500000920E-02 0.  1.
       -2   -1    0    0    0  501  0.00000000000E+00  0.00000000000E+00 -0.83739173573E+03  0.83739173573E+03  0.25500000920E-02 0. -1.
    10030    2    1    2    0    0  0.00000000000E+00  0.00000000000E+00  0.72961680194E+03  0.24044002734E+04  0.22910259704E+04 0.  0.
        3    1    3    3  502    0  0.84928847697E+03  0.44004807818E+03  0.10262901577E+04  0.14029271992E+04  0.10100000352E+00 0.  1.
       -3    1    3    3    0  502 -0.84928847697E+03 -0.44004807818E+03 -0.29667335573E+03  0.10014730742E+04  0.10100000352E+00 0. -1.
</event>
<event>
 5   0  0.2962279E-05  0.2270783E+04  0.7818609E-02  0.8489531E-01
       -1   -1    0    0    0  501  0.00000000000E+00  0.00000000000E+00  0.90534302820E+03  0.90534302822E+03  0.50400001928E-02 0. -1.
        1   -1    0    0  501    0  0.00000000000E+00  0.00000000000E+00 -0.14238958481E+04  0.14238958481E+04  0.50400001928E-02 0.  1.
    10030    2    1    2    0    0  0.00000000000E+00  0.00000000000E+00 -0.51855281987E+03  0.23292388763E+04  0.22707832825E+04 0.  0.
        1    1    3    3  502    0  0.74813252899E+02 -0.21366025286E+03 -0.14005118201E+04  0.14186899185E+04  0.50400001928E-02 0.  1.
       -1    1    3    3    0  502 -0.74813252899E+02  0.21366025286E+03  0.88195900025E+03  0.91054895783E+03  0.50400001928E-02 0. -1.
</event>
<event>
 5   0  0.3118614E-05  0.2323483E+04  0.7818609E-02  0.8468719E-01
       -1   -1    0    0    0  501  0.00000000000E+00  0.00000000000E+00  0.80615801657E+03  0.80615801658E+03  0.50400001928E-02 0. -1.
        1   -1    0    0  501    0  0.00000000000E+00  0.00000000000E+00 -0.16741667794E+04  0.16741667794E+04  0.50400001928E-02 0.  1.
    10030    2    1    2    0    0  0.00000000000E+00  0.00000000000E+00 -0.86800876280E+03  0.24803247960E+04  0.23234827052E+04 0.  0.
        3    1    3    3  502    0 -0.44571091031E+03 -0.10698836707E+04 -0.34904780074E+03  0.12104311883E+04  0.10100000352E+00 0. -1.
       -3    1    3    3    0  502  0.44571091031E+03  0.10698836707E+04 -0.51896096206E+03  0.12698936076E+04  0.10100000352E+00 0.  1.
</event>
<event>
 5   0  0.2944089E-05  0.2303661E+04  0.7818609E-02  0.8476479E-01
       -1   -1    0    0    0  501  0.00000000000E+00  0.00000000000E+00  0.82206502679E+03  0.82206502681E+03  0.50400001928E-02 0. -1.
        1   -1    0    0  501    0  0.00000000000E+00  0.00000000000E+00 -0.16138793422E+04  0.16138793422E+04  0.50400001928E-02 0.  1.
    10030    2    1    2    0    0  0.00000000000E+00  0.00000000000E+00 -0.79181431539E+03  0.24359443690E+04  0.23036612292E+04 0.  0.
        5    1    3    3  502    0 -0.10846412373E+04  0.88869663071E+02 -0.79486158077E+03  0.13476540555E+04  0.46999998093E+01 0. -1.
       -5    1    3    3    0  502  0.10846412373E+04 -0.88869663071E+02  0.30472653755E+01  0.10882903135E+04  0.46999998093E+01 0.  1.
</event>
<event>
 5   0  0.3118614E-05  0.2315398E+04  0.7818609E-02  0.8471874E-01
       -1   -1    0    0    0  501  0.00000000000E+00  0.00000000000E+00  0.51068143783E+03  0.51068143786E+03  0.50400001928E-02 0.  1.
        1   -1    0    0  501    0  0.00000000000E+00  0.00000000000E+00 -0.26244686833E+04  0.26244686833E+04  0.50400001928E-02 0. -1.
    10030    2    1    2    0    0  0.00000000000E+00  0.00000000000E+00 -0.21137872455E+04  0.31351501212E+04  0.23153984027E+04 0.  0.
        3    1    3    3  502    0  0.31198320172E+03 -0.83652580560E+03 -0.58973230316E+02  0.89475515851E+03  0.10100000352E+00 0.  1.
       -3    1    3    3    0  502 -0.31198320172E+03  0.83652580560E+03 -0.20548140152E+04  0.22403949627E+04  0.10100000352E+00 0. -1.
</event>
<event>
 5   0  0.6676612E-05  0.2192040E+04  0.7818609E-02  0.8521749E-01
       -2   -1    0    0    0  501  0.00000000000E+00  0.00000000000E+00  0.55876742440E+03  0.55876742441E+03  0.25500000920E-02 0.  1.
        2   -1    0    0  501    0  0.00000000000E+00  0.00000000000E+00 -0.21498387935E+04  0.21498387935E+04  0.25500000920E-02 0. -1.
    10030    2    1    2    0    0  0.00000000000E+00  0.00000000000E+00 -0.15910713691E+04  0.27086062179E+04  0.21920400412E+04 0.  0.
        2    1    3    3  502    0 -0.85403743864E+02  0.37795738525E+03 -0.20623774143E+04  0.20984628144E+04  0.25500000920E-02 0. -1.
       -2    1    3    3    0  502  0.85403743864E+02 -0.37795738525E+03  0.47130604521E+03  0.61014340346E+03  0.25500000920E-02 0.  1.
</event>
<event>
 5   0  0.6468758E-05  0.2315563E+04  0.7818609E-02  0.8471810E-01
        2   -1    0    0  501    0  0.00000000000E+00  0.00000000000E+00  0.14335954088E+04  0.14335954088E+04  0.25500000920E-02 0. -1.
       -2   -1    0    0    0  501  0.00000000000E+00  0.00000000000E+00 -0.93503235649E+03  0.93503235649E+03  0.25500000920E-02 0.  1.
    10030    2    1    2    0    0  0.00000000000E+00  0.00000000000E+00  0.49856305227E+03  0.23686277653E+04  0.23155630791E+04 0.  0.
        3    1    3    3  502    0 -0.54234693532E+03 -0.68260751567E+03 -0.52999349504E+03  0.10202873780E+04  0.10100000352E+00 0.  1.
       -3    1    3    3    0  502  0.54234693532E+03  0.68260751567E+03  0.10285565473E+04  0.13483403873E+04  0.10100000352E+00 0. -1.
</event>
<event>
 5   0  0.3118614E-05  0.2292471E+04  0.7818609E-02  0.8480896E-01
        1   -1    0    0  501    0  0.00000000000E+00  0.00000000000E+00  0.16898309839E+04  0.16898309839E+04  0.50400001928E-02 0. -1.
       -1   -1    0    0    0  501  0.00000000000E+00  0.00000000000E+00 -0.77750738258E+03  0.77750738260E+03  0.50400001928E-02 0.  1.
    10030    2    1    2    0    0  0.00000000000E+00  0.00000000000E+00  0.91232360134E+03  0.24673383665E+04  0.22924712128E+04 0.  0.
        3    1    3    3  502    0 -0.25338410670E+03 -0.85646783068E+03  0.12293731713E+04  0.15195719974E+04  0.10100000352E+00 0. -1.
       -3    1    3    3    0  502  0.25338410670E+03  0.85646783068E+03 -0.31704957000E+03  0.94776636918E+03  0.10100000352E+00 0.  1.
</event>
<event>
 5   0  0.3006265E-05  0.2526709E+04  0.7818609E-02  0.8393532E-01
        1   -1    0    0  501    0  0.00000000000E+00  0.00000000000E+00  0.15267219144E+04  0.15267219144E+04  0.50400001928E-02 0.  1.
       -1   -1    0    0    0  501  0.00000000000E+00  0.00000000000E+00 -0.10454189749E+04  0.10454189749E+04  0.50400001928E-02 0. -1.
    10030    2    1    2    0    0  0.00000000000E+00  0.00000000000E+00  0.48130293948E+03  0.25721408894E+04  0.25267085774E+04 0.  0.
        2    1    3    3  502    0  0.25530067473E+02  0.74981765418E+02 -0.10428887460E+04  0.10458924352E+04  0.25500000920E-02 0. -1.
       -2    1    3    3    0  502 -0.25530067473E+02 -0.74981765418E+02  0.15241916855E+04  0.15262484541E+04  0.25500000920E-02 0.  1.
</event>
<event>
 5   0  0.6676612E-05  0.2300782E+04  0.7818609E-02  0.8477613E-01
       -2   -1    0    0    0  501  0.00000000000E+00  0.00000000000E+00  0.67289810015E+03  0.67289810015E+03  0.25500000920E-02 0. -1.
        2   -1    0    0  501    0  0.00000000000E+00  0.00000000000E+00 -0.19667159194E+04  0.19667159194E+04  0.25500000920E-02 0.  1.
    10030    2    1    2    0    0  0.00000000000E+00  0.00000000000E+00 -0.12938178192E+04  0.26396140195E+04  0.23007819590E+04 0.  0.
        2    1    3    3  502    0  0.27384009833E+03 -0.11172401364E+04 -0.66253384055E+03  0.13274656348E+04  0.25500000920E-02 0.  1.
       -2    1    3    3    0  502 -0.27384009833E+03  0.11172401364E+04 -0.63128397867E+03  0.13121483847E+04  0.25500000920E-02 0. -1.
</event>
<event>
 5   0  0.2982385E-05  0.2276680E+04  0.7818609E-02  0.8487173E-01
       -1   -1    0    0    0  501  0.00000000000E+00  0.00000000000E+00  0.70882714240E+03  0.70882714242E+03  0.50400001928E-02 0. -1.
        1   -1    0    0  501    0  0.00000000000E+00  0.00000000000E+00 -0.18281159390E+04  0.18281159390E+04  0.50400001928E-02 0.  1.
    10030    2    1    2    0    0  0.00000000000E+00  0.00000000000E+00 -0.11192887966E+04  0.25369430814E+04  0.22766802121E+04 0.  0.
        4    1    3    3  502    0 -0.60333029190E+03 -0.89246339294E+03 -0.96955283160E+03  0.14493214464E+04  0.12699999809E+01 0.  1.
       -4    1    3    3    0  502  0.60333029190E+03  0.89246339294E+03 -0.14973596502E+03  0.10876216350E+04  0.12699999809E+01 0. -1.
</event>
<event>
 5   0  0.6814789E-05  0.2291928E+04  0.7818609E-02  0.8481111E-01
        2   -1    0    0  501    0  0.00000000000E+00  0.00000000000E+00  0.78132533837E+03  0.78132533837E+03  0.25500000920E-02 0. -1.
       -2   -1    0    0    0  501  0.00000000000E+00  0.00000000000E+00 -0.16807768252E+04  0.16807768252E+04  0.25500000920E-02 0.  1.
    10030    2    1    2    0    0  0.00000000000E+00  0.00000000000E+00 -0.89945148686E+03  0.24621021636E+04  0.22919280283E+04 0.  0.
        1    1    3    3  502    0 -0.39038437566E+03 -0.97131478081E+03 -0.95058538982E+03  0.14140243801E+04  0.50400001928E-02 0.  1.
       -1    1    3    3    0  502  0.39038437566E+03  0.97131478081E+03  0.51133902961E+02  0.10480777835E+04  0.50400001928E-02 0. -1.
</event>
<event>
 5   0  0.2982385E-05  0.2264255E+04  0.7818609E-02  0.8492150E-01
        1   -1    0    0  501    0  0.00000000000E+00  0.00000000000E+00  0.12102578963E+04  0.12102578963E+04  0.50400001928E-02 0.  1.
       -1   -1    0    0    0  501  0.00000000000E+00  0.00000000000E+00 -0.10590407999E+04  0.10590407999E+04  0.50400001928E-02 0. -1.
    10030    2    1    2    0    0  0.00000000000E+00  0.00000000000E+00  0.15121709641E+03  0.22692986962E+04  0.22642548359E+04 0.  0.
        4    1    3    3  502    0 -0.79549676177E+03 -0.17973820112E+03 -0.71137306103E+03  0.10822080039E+04  0.12699999809E+01 0. -1.
       -4    1    3    3    0  502  0.79549676177E+03  0.17973820112E+03  0.86259015744E+03  0.11870906922E+04  0.12699999809E+01 0.  1.
</event>
<event>
 5   0  0.3118614E-05  0.2272748E+04  0.7818609E-02  0.8488744E-01
        1   -1    0    0  501    0  0.00000000000E+00  0.00000000000E+00  0.21233706653E+04  0.21233706653E+04  0.50400001928E-02 0. -1.
       -1   -1    0    0    0  501  0.00000000000E+00  0.00000000000E+00 -0.60815832090E+03  0.60815832093E+03  0.50400001928E-02 0.  1.
    10030    2    1    2    0    0  0.00000000000E+00  0.00000000000E+00  0.15152123444E+04  0.27315289863E+04  0.22727477102E+04 0.  0.
        3    1    3    3  502    0 -0.56388320839E+03 -0.30508098781E+03  0.18852491620E+04  0.19912817719E+04  0.10100000352E+00 0. -1.
       -3    1    3    3    0  502  0.56388320839E+03  0.30508098781E+03 -0.37003681761E+03  0.74024721439E+03  0.10100000352E+00 0.  1.
</event>
<event>
 5   0  0.3006265E-05  0.2244961E+04  0.7818609E-02  0.8499944E-01
        1   -1    0    0  501    0  0.00000000000E+00  0.00000000000E+00  0.20678607626E+04  0.20678607626E+04  0.50400001928E-02 0.  1.
       -1   -1    0    0    0  501  0.00000000000E+00  0.00000000000E+00 -0.60930699310E+03  0.60930699312E+03  0.50400001928E-02 0. -1.
    10030    2    1    2    0    0  0.00000000000E+00  0.00000000000E+00  0.14585537695E+04  0.26771677557E+04  0.22449605996E+04 0.  0.
        2    1    3    3  502    0 -0.47419870483E+03 -0.92517857645E+03  0.12340146847E+04  0.16135712107E+04  0.25500000920E-02 0. -1.
       -2    1    3    3    0  502  0.47419870483E+03  0.92517857645E+03  0.22453908481E+03  0.10635965450E+04  0.25500000920E-02 0.  1.
</event>
<event>
 5   0  0.6814789E-05  0.2201297E+04  0.7818609E-02  0.8517889E-01
       -2   -1    0    0    0  501  0.00000000000E+00  0.00000000000E+00  0.66962933958E+03  0.66962933958E+03  0.25500000920E-02 0.  1.
        2   -1    0    0  501    0  0.00000000000E+00  0.00000000000E+00 -0.18091008634E+04  0.18091008634E+04  0.25500000920E-02 0. -1.
    10030    2    1    2    0    0  0.00000000000E+00  0.00000000000E+00 -0.11394715238E+04  0.24787302029E+04  0.22012969053E+04 0.  0.
        1    1    3    3  502    0  0.72875202249E+03 -0.16946443043E+03  0.33923715138E+03  0.82151052846E+03  0.50400001928E-02 0.  1.
       -1    1    3    3    0  502 -0.72875202249E+03  0.16946443043E+03 -0.14787086752E+04  0.16572196745E+04  0.50400001928E-02 0. -1.
</event>
<event>
 5   0  0.6495405E-05  0.2400592E+04  0.7818609E-02  0.8439282E-01
        2   -1    0    0  501    0  0.00000000000E+00  0.00000000000E+00  0.10929436020E+04  0.10929436020E+04  0.25500000920E-02 0. -1.
       -2   -1    0    0    0  501  0.00000000000E+00  0.00000000000E+00 -0.13181927965E+04  0.13181927965E+04  0.25500000920E-02 0.  1.
    10030    2    1    2    0    0  0.00000000000E+00  0.00000000000E+00 -0.22524919452E+03  0.24111363985E+04  0.24005919130E+04 0.  0.
        5    1    3    3  502    0  0.99320709276E+03  0.32299009419E+03  0.48150165135E+03  0.11500647201E+04  0.46999998093E+01 0.  1.
       -5    1    3    3    0  502 -0.99320709276E+03 -0.32299009419E+03 -0.70675084587E+03  0.12610716785E+04  0.46999998093E+01 0. -1.
</event>
<event>
 5   0  0.2944089E-05  0.2165850E+04  0.7818609E-02  0.8532778E-01
       -1   -1    0    0    0  501  0.00000000000E+00  0.00000000000E+00  0.70132323840E+03  0.70132323842E+03  0.50400001928E-02 0. -1.
        1   -1    0    0  501    0  0.00000000000E+00  0.00000000000E+00 -0.16721622721E+04  0.16721622721E+04  0.50400001928E-02 0.  1.
    10030    2    1    2    0    0  0.00000000000E+00  0.00000000000E+00 -0.97083903365E+03  0.23734855105E+04  0.21658497268E+04 0.  0.
        5    1    3    3  502    0  0.84871639454E+03  0.25696749786E+03 -0.11665809442E+04  0.14653617310E+04  0.46999998093E+01 0.  1.
       -5    1    3    3    0  502 -0.84871639454E+03 -0.25696749786E+03  0.19574191055E+03  0.90812377948E+03  0.46999998093E+01 0. -1.
</event>
<event>
 5   0  0.6702421E-05  0.2215106E+04  0.7818609E-02  0.8512167E-01
       -2   -1    0    0    0  501  0.00000000000E+00  0.00000000000E+00  0.46096952707E+03  0.46096952707E+03  0.25500000920E-02 0.  1.
        2   -1    0    0  501    0  0.00000000000E+00  0.00000000000E+00 -0.26610722070E+04  0.26610722070E+04  0.25500000920E-02 0. -1.
    10030    2    1    2    0    0  0.00000000000E+00  0.00000000000E+00 -0.22001026799E+04  0.31220417340E+04  0.22151055927E+04 0.  0.
        4    1    3    3  502    0 -0.20083399775E+03 -0.50096356592E+03 -0.24631793370E+04  0.25216171098E+04  0.12699999809E+01 0. -1.
       -4    1    3    3    0  502  0.20083399775E+03  0.50096356592E+03  0.26307665711E+03  0.60042462429E+03  0.12699999809E+01 0.  1.
</event>
<event>
 5   0  0.2962279E-05  0.2301328E+04  0.7818609E-02  0.8477398E-01
       -1   -1    0    0    0  501  0.00000000000E+00  0.00000000000E+00  0.63832543238E+03  0.63832543240E+03  0.50400001928E-02 0. -1.
        1   -1    0    0  501    0  0.00000000000E+00  0.00000000000E+00 -0.20742207346E+04  0.20742207346E+04  0.50400001928E-02 0.  1.
    10030    2    1    2    0    0  0.00000000000E+00  0.00000000000E+00 -0.14358953022E+04  0.27125461670E+04  0.23013281794E+04 0.  0.
        1    1    3    3  502    0  0.54751088916E+03  0.13048979459E+03 -0.19008894000E+04  0.19824672183E+04  0.50400001928E-02 0.  1.
       -1    1    3    3    0  502 -0.54751088916E+03 -0.13048979459E+03  0.46499409787E+03  0.73007894870E+03  0.50400001928E-02 0. -1.
</event>
<event>
 5   0  0.2944089E-05  0.2280002E+04  0.7818609E-02  0.8485848E-01
        1   -1    0    0  501    0  0.00000000000E+00  0.00000000000E+00  0.97890308475E+03  0.97890308476E+03  0.50400001928E-02 0.  1.
       -1   -1    0    0    0  501  0.00000000000E+00  0.00000000000E+00 -0.13276108112E+04  0.13276108112E+04  0.50400001928E-02 0. -1.
    10030    2    1    2    0    0  0.00000000000E+00  0.00000000000E+00 -0.34870772648E+03  0.23065138960E+04  0.22800020338E+04 0.  0.
        5    1    3    3  502    0 -0.97064619604E+02  0.19621010903E+03  0.95743150891E+03  0.98214924096E+03  0.46999998093E+01 0.  1.
       -5    1    3    3    0  502  0.97064619604E+02 -0.19621010903E+03 -0.13061392354E+04  0.13243646550E+04  0.46999998093E+01 0. -1.
</event>
<event>
 5   0  0.3006265E-05  0.2302567E+04  0.7818609E-02  0.8476910E-01
        1   -1    0    0  501    0  0.00000000000E+00  0.00000000000E+00  0.56485235596E+03  0.56485235599E+03  0.50400001928E-02 0. -1.
       -1   -1    0    0    0  501  0.00000000000E+00  0.00000000000E+00 -0.23465481520E+04  0.23465481520E+04  0.50400001928E-02 0.  1.
    10030    2    1    2    0    0  0.00000000000E+00  0.00000000000E+00 -0.17816957961E+04  0.29114005080E+04  0.23025666132E+04 0.  0.
        2    1    3    3  502    0 -0.10033403658E+04  0.30069293289E+03 -0.14950547137E+04  0.18254579498E+04  0.25500000920E-02 0.  1.
       -2    1    3    3    0  502  0.10033403658E+04 -0.30069293289E+03 -0.28664108237E+03  0.10859425582E+04  0.25500000920E-02 0. -1.
</event>
<event>
 5   0  0.3006265E-05  0.2301159E+04  0.7818609E-02  0.8477464E-01
       -1   -1    0    0    0  501  0.00000000000E+00  0.00000000000E+00  0.87860782810E+03  0.87860782812E+03  0.50400001928E-02 0. -1.
        1   -1    0    0  501    0  0.00000000000E+00  0.00000000000E+00 -0.15067399372E+04  0.15067399372E+04  0.50400001928E-02 0.  1.
    10030    2    1    2    0    0  0.00000000000E+00  0.00000000000E+00 -0.62813210911E+03  0.23853477653E+04  0.23011592763E+04 0.  0.
        2    1    3    3  502    0 -0.53115626326E+03 -0.39726296797E+03  0.66048322916E+03  0.93604643995E+03  0.25500000920E-02 0. -1.
       -2    1    3    3    0  502  0.53115626326E+03  0.39726296797E+03 -0.12886153383E+04  0.14493013254E+04  0.25500000920E-02 0.  1.
</event>
<event>
 5   0  0.2944089E-05  0.2316034E+04  0.7818609E-02  0.8471626E-01
       -1   -1    0    0    0  501  0.00000000000E+00  0.00000000000E+00  0.14434336762E+04  0.14434336762E+04  0.50400001928E-02 0.  1.
        1   -1    0    0  501    0  0.00000000000E+00  0.00000000000E+00 -0.92903700775E+03  0.92903700777E+03  0.50400001928E-02 0. -1.
    10030    2    1    2    0    0  0.00000000000E+00  0.00000000000E+00  0.51439666843E+03  0.23724706840E+04  0.23160339405E+04 0.  0.
        5    1    3    3  502    0  0.11676337871E+03 -0.57688021243E+03 -0.76437775460E+03  0.96473825871E+03  0.46999998093E+01 0. -1.
       -5    1    3    3    0  502 -0.11676337871E+03  0.57688021243E+03  0.12787744230E+04  0.14077324252E+04  0.46999998093E+01 0.  1.
</event>
<event>
 5   0  0.2944089E-05  0.1760474E+04  0.7818609E-02  0.8727606E-01
       -1   -1    0    0    0  501  0.00000000000E+00  0.00000000000E+00  0.12723855307E+04  0.12723855307E+04  0.50400001928E-02 0. -1.
        1   -1    0    0  501    0  0.00000000000E+00  0.00000000000E+00 -0.60894849348E+03  0.60894849350E+03  0.50400001928E-02 0.  1.
    10030    2    1    2    0    0  0.00000000000E+00  0.00000000000E+00  0.66343703724E+03  0.18813340242E+04  0.17604740862E+04 0.  0.
        5    1    3    3  502    0  0.61110668459E+03 -0.79385439717E+02 -0.33995428308E+03  0.70380709898E+03  0.46999998093E+01 0.  1.
       -5    1    3    3    0  502 -0.61110668459E+03  0.79385439717E+02  0.10033913203E+04  0.11775269253E+04  0.46999998093E+01 0. -1.
</event>
<event>
 5   0  0.3006265E-05  0.2284516E+04  0.7818609E-02  0.8484051E-01
        1   -1    0    0  501    0  0.00000000000E+00  0.00000000000E+00  0.11389964915E+04  0.11389964915E+04  0.50400001928E-02 0. -1.
       -1   -1    0    0    0  501  0.00000000000E+00  0.00000000000E+00 -0.11455289431E+04  0.11455289431E+04  0.50400001928E-02 0.  1.
    10030    2    1    2    0    0  0.00000000000E+00  0.00000000000E+00 -0.65324515257E+01  0.22845254346E+04  0.22845160950E+04 0.  0.
        2    1    3    3  502    0 -0.24942187590E+03  0.16223146264E+03  0.10995633494E+04  0.11391092480E+04  0.25500000920E-02 0. -1.
       -2    1    3    3    0  502  0.24942187590E+03 -0.16223146264E+03 -0.11060958009E+04  0.11454161866E+04  0.25500000920E-02 0.  1.
</event>
<event>
 5   0  0.3006265E-05  0.2294506E+04  0.7818609E-02  0.8480090E-01
       -1   -1    0    0    0  501  0.00000000000E+00  0.00000000000E+00  0.19750122021E+04  0.19750122021E+04  0.50400001928E-02 0. -1.
        1   -1    0    0  501    0  0.00000000000E+00  0.00000000000E+00 -0.66642090964E+03  0.66642090966E+03  0.50400001928E-02 0.  1.
    10030    2    1    2    0    0  0.00000000000E+00  0.00000000000E+00  0.13085912925E+04  0.26414331118E+04  0.22945059846E+04 0.  0.
        2    1    3    3  502    0  0.11309865948E+04 -0.77313534399E+02  0.45134030448E+03  0.12201705334E+04  0.25500000920E-02 0. -1.
       -2    1    3    3    0  502 -0.11309865948E+04  0.77313534399E+02  0.85725098798E+03  0.14212625783E+04  0.25500000920E-02 0.  1.
</event>
<event>
 5   0  0.2342500E-05  0.1729662E+04  0.7818609E-02  0.8744626E-01
        4   -1    0    0  501    0  0.00000000000E+00  0.00000000000E+00  0.47337715707E+03  0.47337886068E+03  0.12699999809E+01 0. -1.
       -4   -1    0    0    0  501  0.00000000000E+00  0.00000000000E+00 -0.15799880858E+04  0.15799885962E+04  0.12699999809E+01 0.  1.
    10030    2    1    2    0    0  0.00000000000E+00  0.00000000000E+00 -0.11066109287E+04  0.20533674569E+04  0.17296618645E+04 0.  0.
        4    1    3    3  502    0  0.83741418649E+03  0.21099437731E+03 -0.49826239783E+03  0.99701964724E+03  0.12699999809E+01 0. -1.
       -4    1    3    3    0  502 -0.83741418649E+03 -0.21099437731E+03 -0.60834853090E+03  0.10563478096E+04  0.12699999809E+01 0.  1.
</event>
<event>
 5   0  0.6814789E-05  0.1757126E+04  0.7818609E-02  0.8729438E-01
        2   -1    0    0  501    0  0.00000000000E+00  0.00000000000E+00  0.17509941962E+04  0.17509941962E+04  0.25500000920E-02 0.  1.
       -2   -1    0    0    0  501  0.00000000000E+00  0.00000000000E+00 -0.44081972627E+03  0.44081972628E+03  0.25500000920E-02 0. -1.
    10030    2    1    2    0    0  0.00000000000E+00  0.00000000000E+00  0.13101744699E+04  0.21918139225E+04  0.17571258148E+04 0.  0.
        1    1    3    3  502    0  0.14219590255E+03 -0.57566272864E+02 -0.42398390880E+03  0.45088347211E+03  0.50400001928E-02 0. -1.
       -1    1    3    3    0  502 -0.14219590255E+03  0.57566272864E+02  0.17341583787E+04  0.17409304504E+04  0.50400001928E-02 0.  1.
</event>
<event>
 5   0  0.2944089E-05  0.2307306E+04  0.7818609E-02  0.8475046E-01
       -1   -1    0    0    0  501  0.00000000000E+00  0.00000000000E+00  0.28676749956E+04  0.28676749956E+04  0.50400001928E-02 0.  1.
        1   -1    0    0  501    0  0.00000000000E+00  0.00000000000E+00 -0.46410939660E+03  0.46410939662E+03  0.50400001928E-02 0. -1.
    10030    2    1    2    0    0  0.00000000000E+00  0.00000000000E+00  0.24035655990E+04  0.33317843923E+04  0.23073057118E+04 0.  0.
        5    1    3    3  502    0  0.71455478260E+03 -0.61297480700E+03  0.21645913847E+04  0.23604670309E+04  0.46999998093E+01 0.  1.
       -5    1    3    3    0  502 -0.71455478260E+03  0.61297480700E+03  0.23897421435E+03  0.97131736135E+03  0.46999998093E+01 0. -1.
</event>
<event>
 5   0  0.3006265E-05  0.2298192E+04  0.7818609E-02  0.8478634E-01
       -1   -1    0    0    0  501  0.00000000000E+00  0.00000000000E+00  0.12833729406E+04  0.12833729406E+04  0.50400001928E-02 0.  1.
        1   -1    0    0  501    0  0.00000000000E+00  0.00000000000E+00 -0.10288683064E+04  0.10288683064E+04  0.50400001928E-02 0. -1.
    10030    2    1    2    0    0  0.00000000000E+00  0.00000000000E+00  0.25450463419E+03  0.23122412469E+04  0.22981921102E+04 0.  0.
        2    1    3    3  502    0 -0.10501387454E+04 -0.76910788765E+02  0.59019019997E+03  0.12070754435E+04  0.25500000920E-02 0.  1.
       -2    1    3    3    0  502  0.10501387454E+04  0.76910788765E+02 -0.33568556578E+03  0.11051658035E+04  0.25500000920E-02 0. -1.
</event>
<event>
 5   0  0.2962279E-05  0.2295526E+04  0.7818609E-02  0.8479687E-01
       -1   -1    0    0    0  501  0.00000000000E+00  0.00000000000E+00  0.92415029417E+03  0.92415029418E+03  0.50400001928E-02 0.  1.
        1   -1    0    0  501    0  0.00000000000E+00  0.00000000000E+00 -0.14254819277E+04  0.14254819277E+04  0.50400001928E-02 0. -1.
    10030    2    1    2    0    0  0.00000000000E+00  0.00000000000E+00 -0.50133163355E+03  0.23496322219E+04  0.22955256852E+04 0.  0.
        1    1    3    3  502    0 -0.14544509602E+02  0.97410733472E+03  0.37048450917E+03  0.10422837492E+04  0.50400001928E-02 0.  1.
       -1    1    3    3    0  502  0.14544509602E+02 -0.97410733472E+03 -0.87181614272E+03  0.13073484727E+04  0.50400001928E-02 0. -1.
</event>
<event>
 5   0  0.6495405E-05  0.2288511E+04  0.7818609E-02  0.8482465E-01
        2   -1    0    0  501    0  0.00000000000E+00  0.00000000000E+00  0.11651943685E+04  0.11651943685E+04  0.25500000920E-02 0.  1.
       -2   -1    0    0    0  501  0.00000000000E+00  0.00000000000E+00 -0.11236924380E+04  0.11236924380E+04  0.25500000920E-02 0. -1.
    10030    2    1    2    0    0  0.00000000000E+00  0.00000000000E+00  0.41501930461E+02  0.22888868065E+04  0.22885105205E+04 0.  0.
        5    1    3    3  502    0  0.79505353300E+03  0.20507061605E+02  0.84354493855E+03  0.11593622442E+04  0.46999998093E+01 0.  1.
       -5    1    3    3    0  502 -0.79505353300E+03 -0.20507061605E+02 -0.80204300809E+03  0.11295245623E+04  0.46999998093E+01 0. -1.
</event>
<event>
 5   0  0.6495405E-05  0.2295704E+04  0.7818609E-02  0.8479617E-01
        2   -1    0    0  501    0  0.00000000000E+00  0.00000000000E+00  0.13612161661E+04  0.13612161661E+04  0.25500000920E-02 0.  1.
       -2   -1    0    0    0  501  0.00000000000E+00  0.00000000000E+00 -0.96793135633E+03  0.96793135634E+03  0.25500000920E-02 0. -1.
    10030    2    1    2    0    0  0.00000000000E+00  0.00000000000E+00  0.39328480975E+03  0.23291475224E+04  0.22957036480E+04 0.  0.
        5    1    3    3  502    0  0.41056829432E+02 -0.79746749201E+03 -0.63993132289E+03  0.10233153239E+04  0.46999998093E+01 0. -1.
       -5    1    3    3    0  502 -0.41056829432E+02  0.79746749201E+03  0.10332161326E+04  0.13058321986E+04  0.46999998093E+01 0.  1.
</event>
<event>
 5   0  0.6702421E-05  0.2198002E+04  0.7818609E-02  0.8519260E-01
       -2   -1    0    0    0  501  0.00000000000E+00  0.00000000000E+00  0.14962331372E+04  0.14962331372E+04  0.25500000920E-02 0.  1.
        2   -1    0    0  501    0  0.00000000000E+00  0.00000000000E+00 -0.80722962185E+03  0.80722962186E+03  0.25500000920E-02 0. -1.
    10030    2    1    2    0    0  0.00000000000E+00  0.00000000000E+00  0.68900351536E+03  0.23034627591E+04  0.21980024655E+04 0.  0.
        4    1    3    3  502    0  0.50952296087E+03 -0.15894148277E+03  0.13512861473E+04  0.14528771137E+04  0.12699999809E+01 0.  1.
       -4    1    3    3    0  502 -0.50952296087E+03  0.15894148277E+03 -0.66228263198E+03  0.85058564538E+03  0.12699999809E+01 0. -1.
</event>
<event>
 5   0  0.2944089E-05  0.2289989E+04  0.7818609E-02  0.8481879E-01
       -1   -1    0    0    0  501  0.00000000000E+00  0.00000000000E+00  0.12027732087E+04  0.12027732087E+04  0.50400001928E-02 0. -1.
        1   -1    0    0  501    0  0.00000000000E+00  0.00000000000E+00 -0.10899911268E+04  0.10899911268E+04  0.50400001928E-02 0.  1.
    10030    2    1    2    0    0  0.00000000000E+00  0.00000000000E+00  0.11278208190E+03  0.22927643354E+04  0.22899887554E+04 0.  0.
        5    1    3    3  502    0  0.25605312449E+03  0.20489447206E+03  0.11547371276E+04  0.12004102928E+04  0.46999998093E+01 0. -1.
       -5    1    3    3    0  502 -0.25605312449E+03 -0.20489447206E+03 -0.10419550457E+04  0.10923540426E+04  0.46999998093E+01 0.  1.
</event>
<event>
 5   0  0.6676612E-05  0.2282515E+04  0.7818609E-02  0.8484847E-01
       -2   -1    0    0    0  501  0.00000000000E+00  0.00000000000E+00  0.78760416703E+03  0.78760416703E+03  0.25500000920E-02 0.  1.
        2   -1    0    0  501    0  0.00000000000E+00  0.00000000000E+00 -0.16537091382E+04  0.16537091382E+04  0.25500000920E-02 0. -1.
    10030    2    1    2    0    0  0.00000000000E+00  0.00000000000E+00 -0.86610497119E+03  0.24413133052E+04  0.22825145856E+04 0.  0.
        2    1    3    3  502    0 -0.18311541268E+03  0.68901244872E+03  0.52012674300E+03  0.88249716013E+03  0.25500000920E-02 0.  1.
       -2    1    3    3    0  502  0.18311541268E+03 -0.68901244872E+03 -0.13862317142E+04  0.15588161451E+04  0.25500000920E-02 0. -1.
</event>
<event>
 5   0  0.3006265E-05  0.2313509E+04  0.7818609E-02  0.8472614E-01
        1   -1    0    0  501    0  0.00000000000E+00  0.00000000000E+00  0.14183861981E+04  0.14183861981E+04  0.50400001928E-02 0.  1.
       -1   -1    0    0    0  501  0.00000000000E+00  0.00000000000E+00 -0.94338240331E+03  0.94338240332E+03  0.50400001928E-02 0. -1.
    10030    2    1    2    0    0  0.00000000000E+00  0.00000000000E+00  0.47500379477E+03  0.23617686014E+04  0.23135086604E+04 0.  0.
        2    1    3    3  502    0  0.62727899333E+03  0.84687773135E+03 -0.24931002888E+03  0.10829756774E+04  0.25500000920E-02 0. -1.
       -2    1    3    3    0  502 -0.62727899333E+03 -0.84687773135E+03  0.72431382365E+03  0.12787929240E+04  0.25500000920E-02 0.  1.
</event>
<event>
 5   0  0.6676612E-05  0.2296123E+04  0.7818609E-02  0.8479451E-01
       -2   -1    0    0    0  501  0.00000000000E+00  0.00000000000E+00  0.77517678882E+03  0.77517678882E+03  0.25500000920E-02 0.  1.
        2   -1    0    0  501    0  0.00000000000E+00  0.00000000000E+00 -0.17003161381E+04  0.17003161381E+04  0.25500000920E-02 0. -1.
    10030    2    1    2    0    0  0.00000000000E+00  0.00000000000E+00 -0.92513934928E+03  0.24754929269E+04  0.22961233450E+04 0.  0.
        2    1    3    3  502    0  0.10542329092E+04 -0.45318941922E+03 -0.42433175417E+03  0.12234562167E+04  0.25500000920E-02 0. -1.
       -2    1    3    3    0  502 -0.10542329092E+04  0.45318941922E+03 -0.50080759511E+03  0.12520367103E+04  0.25500000920E-02 0.  1.
</event>
<event>
 5   0  0.2944089E-05  0.2238715E+04  0.7818609E-02  0.8502485E-01
       -1   -1    0    0    0  501  0.00000000000E+00  0.00000000000E+00  0.60149868438E+03  0.60149868440E+03  0.50400001928E-02 0.  1.
        1   -1    0    0  501    0  0.00000000000E+00  0.00000000000E+00 -0.20830658825E+04  0.20830658825E+04  0.50400001928E-02 0. -1.
    10030    2    1    2    0    0  0.00000000000E+00  0.00000000000E+00 -0.14815671981E+04  0.26845645669E+04  0.22387151563E+04 0.  0.
        5    1    3    3  502    0  0.25008561837E+03  0.23437126305E+03 -0.20185815715E+04  0.20474780478E+04  0.46999998093E+01 0. -1.
       -5    1    3    3    0  502 -0.25008561837E+03 -0.23437126305E+03  0.53701437344E+03  0.63708651904E+03  0.46999998093E+01 0.  1.
</event>
<event>
 5   0  0.6702421E-05  0.2302449E+04  0.7818609E-02  0.8476956E-01
        2   -1    0    0  501    0  0.00000000000E+00  0.00000000000E+00  0.23874607538E+04  0.23874607538E+04  0.25500000920E-02 0. -1.
       -2   -1    0    0    0  501  0.00000000000E+00  0.00000000000E+00 -0.55511583977E+03  0.55511583977E+03  0.25500000920E-02 0.  1.
    10030    2    1    2    0    0  0.00000000000E+00  0.00000000000E+00  0.18323449141E+04  0.29425765936E+04  0.23024485065E+04 0.  0.
        4    1    3    3  502    0  0.59375326357E+03 -0.31596427937E+03 -0.27789778193E+03  0.72773975702E+03  0.12699999809E+01 0.  1.
       -4    1    3    3    0  502 -0.59375326357E+03  0.31596427937E+03  0.21102426960E+04  0.22148368366E+04  0.12699999809E+01 0. -1.
</event>
<event>
 5   0  0.2962279E-05  0.2317277E+04  0.7818609E-02  0.8471140E-01
        1   -1    0    0  501    0  0.00000000000E+00  0.00000000000E+00  0.12635265378E+04  0.12635265378E+04  0.50400001928E-02 0. -1.
       -1   -1    0    0    0  501  0.00000000000E+00  0.00000000000E+00 -0.10624574051E+04  0.10624574051E+04  0.50400001928E-02 0.  1.
    10030    2    1    2    0    0  0.00000000000E+00  0.00000000000E+00  0.20106913270E+03  0.23259839429E+04  0.23172769594E+04 0.  0.
        1    1    3    3  502    0 -0.47666823906E+03  0.10427329882E+04  0.26831054535E+03  0.11774953264E+04  0.50400001928E-02 0. -1.
       -1    1    3    3    0  502  0.47666823906E+03 -0.10427329882E+04 -0.67241412654E+02  0.11484886166E+04  0.50400001928E-02 0.  1.
</event>
<event>
 5   0  0.2944089E-05  0.2282135E+04  0.7818609E-02  0.8484999E-01
       -1   -1    0    0    0  501  0.00000000000E+00  0.00000000000E+00  0.89900978016E+03  0.89900978017E+03  0.50400001928E-02 0.  1.
        1   -1    0    0  501    0  0.00000000000E+00  0.00000000000E+00 -0.14482989415E+04  0.14482989415E+04  0.50400001928E-02 0. -1.
    10030    2    1    2    0    0  0.00000000000E+00  0.00000000000E+00 -0.54928916134E+03  0.23473087217E+04  0.22821348891E+04 0.  0.
        5    1    3    3  502    0 -0.94995496154E+03 -0.34692290946E+03  0.26888096807E+03  0.10464650014E+04  0.46999998093E+01 0.  1.
       -5    1    3    3    0  502  0.94995496154E+03  0.34692290946E+03 -0.81817012941E+03  0.13008437203E+04  0.46999998093E+01 0. -1.
</event>
<event>
 5   0  0.2962279E-05  0.2301408E+04  0.7818609E-02  0.8477366E-01
       -1   -1    0    0    0  501  0.00000000000E+00  0.00000000000E+00  0.25618151139E+04  0.25618151139E+04  0.50400001928E-02 0. -1.
        1   -1    0    0  501    0  0.00000000000E+00  0.00000000000E+00 -0.51686763975E+03  0.51686763977E+03  0.50400001928E-02 0.  1.
    10030    2    1    2    0    0  0.00000000000E+00  0.00000000000E+00  0.20449474742E+04  0.30786827537E+04  0.23014076835E+04 0.  0.
        1    1    3    3  502    0  0.68460892531E+03 -0.61624513535E+03  0.19450985305E+04  0.21521746539E+04  0.50400001928E-02 0. -1.
       -1    1    3    3    0  502 -0.68460892531E+03  0.61624513535E+03  0.99848943680E+02  0.92650809982E+03  0.50400001928E-02 0.  1.
</event>
<event>
 5   0  0.6676612E-05  0.2287722E+04  0.7818609E-02  0.8482778E-01
        2   -1    0    0  501    0  0.00000000000E+00  0.00000000000E+00  0.20684799372E+04  0.20684799372E+04  0.25500000920E-02 0. -1.
       -2   -1    0    0    0  501  0.00000000000E+00  0.00000000000E+00 -0.63255062228E+03  0.63255062228E+03  0.25500000920E-02 0.  1.
    10030    2    1    2    0    0  0.00000000000E+00  0.00000000000E+00  0.14359293149E+04  0.27010305595E+04  0.22877222484E+04 0.  0.
        2    1    3    3  502    0 -0.23667062837E+03  0.97621948785E+03  0.71934669590E+02  0.10070710360E+04  0.25500000920E-02 0.  1.
       -2    1    3    3    0  502  0.23667062837E+03 -0.97621948785E+03  0.13639946453E+04  0.16939595235E+04  0.25500000920E-02 0. -1.
</event>
<event>
 5   0  0.6468758E-05  0.2304710E+04  0.7818609E-02  0.8476066E-01
        2   -1    0    0  501    0  0.00000000000E+00  0.00000000000E+00  0.16538363482E+04  0.16538363482E+04  0.25500000920E-02 0. -1.
       -2   -1    0    0    0  501  0.00000000000E+00  0.00000000000E+00 -0.80293422686E+03  0.80293422686E+03  0.25500000920E-02 0.  1.
    10030    2    1    2    0    0  0.00000000000E+00  0.00000000000E+00  0.85090212134E+03  0.24567705751E+04  0.23047097948E+04 0.  0.
        3    1    3    3  502    0  0.25977716221E+03  0.23068266090E+03  0.15966809023E+04  0.16340405681E+04  0.10100000352E+00 0. -1.
       -3    1    3    3    0  502 -0.25977716221E+03 -0.23068266090E+03 -0.74577878098E+03  0.82273000699E+03  0.10100000352E+00 0.  1.
</event>
<event>
 5   0  0.2944089E-05  0.1952259E+04  0.7818609E-02  0.8629272E-01
       -1   -1    0    0    0  501  0.00000000000E+00  0.00000000000E+00  0.96440357626E+03  0.96440357627E+03  0.50400001928E-02 0.  1.
        1   -1    0    0  501    0  0.00000000000E+00  0.00000000000E+00 -0.98799761795E+03  0.98799761796E+03  0.50400001928E-02 0. -1.
    10030    2    1    2    0    0  0.00000000000E+00  0.00000000000E+00 -0.23594041688E+02  0.19524011942E+04  0.19522586264E+04 0.  0.
        5    1    3    3  502    0  0.27496229057E+03  0.30243928850E+02  0.92437357247E+03  0.96488732397E+03  0.46999998093E+01 0.  1.
       -5    1    3    3    0  502 -0.27496229057E+03 -0.30243928850E+02 -0.94796761416E+03  0.98751387027E+03  0.46999998093E+01 0. -1.
</event>
<event>
 5   0  0.6495405E-05  0.2310214E+04  0.7818609E-02  0.8473905E-01
       -2   -1    0    0    0  501  0.00000000000E+00  0.00000000000E+00  0.79173127044E+03  0.79173127044E+03  0.25500000920E-02 0.  1.
        2   -1    0    0  501    0  0.00000000000E+00  0.00000000000E+00 -0.16852586696E+04  0.16852586696E+04  0.25500000920E-02 0. -1.
    10030    2    1    2    0    0  0.00000000000E+00  0.00000000000E+00 -0.89352739918E+03  0.24769899401E+04  0.23102138321E+04 0.  0.
        5    1    3    3  502    0 -0.69624805326E+03  0.92026082214E+03 -0.39200250646E+03  0.12187409025E+04  0.46999998093E+01 0. -1.
       -5    1    3    3    0  502  0.69624805326E+03 -0.92026082214E+03 -0.50152489272E+03  0.12582490375E+04  0.46999998093E+01 0.  1.
</event>
<event>
 5   0  0.6495405E-05  0.2281295E+04  0.7818609E-02  0.8485333E-01
       -2   -1    0    0    0  501  0.00000000000E+00  0.00000000000E+00  0.46052627629E+03  0.46052627630E+03  0.25500000920E-02 0. -1.
        2   -1    0    0  501    0  0.00000000000E+00  0.00000000000E+00 -0.28251947951E+04  0.28251947951E+04  0.25500000920E-02 0.  1.
    10030    2    1    2    0    0  0.00000000000E+00  0.00000000000E+00 -0.23646685188E+04  0.32857210714E+04  0.22812947541E+04 0.  0.
        5    1    3    3  502    0  0.93647753521E+03  0.15005709451E+03 -0.20950121023E+04  0.22996967418E+04  0.46999998093E+01 0.  1.
       -5    1    3    3    0  502 -0.93647753521E+03 -0.15005709451E+03 -0.26965641651E+03  0.98602432958E+03  0.46999998093E+01 0. -1.
</event>
<event>
 5   0  0.6495405E-05  0.2286784E+04  0.7818609E-02  0.8483150E-01
       -2   -1    0    0    0  501  0.00000000000E+00  0.00000000000E+00  0.12682611908E+04  0.12682611908E+04  0.25500000920E-02 0.  1.
        2   -1    0    0  501    0  0.00000000000E+00  0.00000000000E+00 -0.10308173756E+04  0.10308173756E+04  0.25500000920E-02 0. -1.
    10030    2    1    2    0    0  0.00000000000E+00  0.00000000000E+00  0.23744381519E+03  0.22990785665E+04  0.22867843557E+04 0.  0.
        5    1    3    3  502    0  0.25601684945E+03 -0.94811566879E+03  0.70740863634E+03  0.12103375634E+04  0.46999998093E+01 0.  1.
       -5    1    3    3    0  502 -0.25601684945E+03  0.94811566879E+03 -0.46996482115E+03  0.10887410031E+04  0.46999998093E+01 0. -1.
</event>
<event>
 5   0  0.2962279E-05  0.2278836E+04  0.7818609E-02  0.8486313E-01
        1   -1    0    0  501    0  0.00000000000E+00  0.00000000000E+00  0.10534288930E+04  0.10534288930E+04  0.50400001928E-02 0. -1.
       -1   -1    0    0    0  501  0.00000000000E+00  0.00000000000E+00 -0.12324265581E+04  0.12324265581E+04  0.50400001928E-02 0.  1.
    10030    2    1    2    0    0  0.00000000000E+00  0.00000000000E+00 -0.17899766513E+03  0.22858554511E+04  0.22788363213E+04 0.  0.
        1    1    3    3  502    0  0.32424489182E+03 -0.78832437338E+03 -0.84792538135E+03  0.12023175620E+04  0.50400001928E-02 0. -1.
       -1    1    3    3    0  502 -0.32424489182E+03  0.78832437338E+03  0.66892771621E+03  0.10835378891E+04  0.50400001928E-02 0.  1.
</event>
<event>
 5   0  0.6702421E-05  0.2301576E+04  0.7818609E-02  0.8477300E-01
        2   -1    0    0  501    0  0.00000000000E+00  0.00000000000E+00  0.10596727505E+04  0.10596727505E+04  0.25500000920E-02 0.  1.
       -2   -1    0    0    0  501  0.00000000000E+00  0.00000000000E+00 -0.12497376230E+04  0.12497376230E+04  0.25500000920E-02 0. -1.
    10030    2    1    2    0    0  0.00000000000E+00  0.00000000000E+00 -0.19006487257E+03  0.23094103735E+04  0.23015758987E+04 0.  0.
        4    1    3    3  502    0  0.42477169385E+03 -0.14050527684E+03  0.96883063759E+03  0.10671490720E+04  0.12699999809E+01 0.  1.
       -4    1    3    3    0  502 -0.42477169385E+03  0.14050527684E+03 -0.11588955102E+04  0.12422613014E+04  0.12699999809E+01 0. -1.
</event>
<event>
 5   0  0.2962279E-05  0.2312046E+04  0.7818609E-02  0.8473186E-01
       -1   -1    0    0    0  501  0.00000000000E+00  0.00000000000E+00  0.15612143520E+04  0.15612143520E+04  0.50400001928E-02 0.  1.
        1   -1    0    0  501    0  0.00000000000E+00  0.00000000000E+00 -0.85599369988E+03  0.85599369989E+03  0.50400001928E-02 0. -1.
    10030    2    1    2    0    0  0.00000000000E+00  0.00000000000E+00  0.70522065211E+03  0.24172080519E+04  0.23120464091E+04 0.  0.
        1    1    3    3  502    0 -0.56437060065E+03 -0.31839600485E+03  0.13534939679E+04  0.15006119125E+04  0.50400001928E-02 0.  1.
       -1    1    3    3    0  502  0.56437060065E+03  0.31839600485E+03 -0.64827331578E+03  0.91659613940E+03  0.50400001928E-02 0. -1.
</event>
<event>
 5   0  0.2962279E-05  0.2097350E+04  0.7818609E-02  0.8562412E-01
       -1   -1    0    0    0  501  0.00000000000E+00  0.00000000000E+00  0.11472942298E+04  0.11472942298E+04  0.50400001928E-02 0. -1.
        1   -1    0    0  501    0  0.00000000000E+00  0.00000000000E+00 -0.95853246963E+03  0.95853246964E+03  0.50400001928E-02 0.  1.
    10030    2    1    2    0    0  0.00000000000E+00  0.00000000000E+00  0.18876176021E+03  0.21058266995E+04  0.20973495384E+04 0.  0.
        1    1    3    3  502    0 -0.19998367208E+03 -0.13711932428E+03 -0.92999946986E+03  0.96109010615E+03  0.50400001928E-02 0.  1.
       -1    1    3    3    0  502  0.19998367208E+03  0.13711932428E+03  0.11187612301E+04  0.11447365933E+04  0.50400001928E-02 0. -1.
</event>
<event>
 5   0  0.3006265E-05  0.1690171E+04  0.7818609E-02  0.8766990E-01
        1   -1    0    0  501    0  0.00000000000E+00  0.00000000000E+00  0.10908543872E+04  0.10908543872E+04  0.50400001928E-02 0. -1.
       -1   -1    0    0    0  501  0.00000000000E+00  0.00000000000E+00 -0.65468823088E+03  0.65468823090E+03  0.50400001928E-02 0.  1.
    10030    2    1    2    0    0  0.00000000000E+00  0.00000000000E+00  0.43616615634E+03  0.17455426181E+04  0.16901710315E+04 0.  0.
        2    1    3    3  502    0  0.47544198551E+03  0.38810952418E+03 -0.38189275912E+03  0.72285279540E+03  0.25500000920E-02 0.  1.
       -2    1    3    3    0  502 -0.47544198551E+03 -0.38810952418E+03  0.81805891546E+03  0.10226898227E+04  0.25500000920E-02 0. -1.
</event>
<event>
 5   0  0.6702421E-05  0.2324345E+04  0.7818609E-02  0.8468384E-01
       -2   -1    0    0    0  501  0.00000000000E+00  0.00000000000E+00  0.85318542688E+03  0.85318542688E+03  0.25500000920E-02 0.  1.
        2   -1    0    0  501    0  0.00000000000E+00  0.00000000000E+00 -0.15830608194E+04  0.15830608194E+04  0.25500000920E-02 0. -1.
    10030    2    1    2    0    0  0.00000000000E+00  0.00000000000E+00 -0.72987539254E+03  0.24362462463E+04  0.23243445708E+04 0.  0.
        4    1    3    3  502    0 -0.55216837783E+03  0.10182696966E+04 -0.46370659319E+03  0.12477133124E+04  0.12699999809E+01 0. -1.
       -4    1    3    3    0  502  0.55216837783E+03 -0.10182696966E+04 -0.26616879935E+03  0.11885329339E+04  0.12699999809E+01 0.  1.
</event>
<event>
 5   0  0.2982385E-05  0.2346734E+04  0.7818609E-02  0.8459719E-01
        1   -1    0    0  501    0  0.00000000000E+00  0.00000000000E+00  0.12980566932E+04  0.12980566932E+04  0.50400001928E-02 0.  1.
       -1   -1    0    0    0  501  0.00000000000E+00  0.00000000000E+00 -0.10606547591E+04  0.10606547592E+04  0.50400001928E-02 0. -1.
    10030    2    1    2    0    0  0.00000000000E+00  0.00000000000E+00  0.23740193405E+03  0.23587114524E+04  0.23467339085E+04 0.  0.
        4    1    3    3  502    0 -0.42248910792E+03  0.10900074006E+04  0.17313843981E+02  0.11691512143E+04  0.12699999809E+01 0.  1.
       -4    1    3    3    0  502  0.42248910792E+03 -0.10900074006E+04  0.22008809007E+03  0.11895602381E+04  0.12699999809E+01 0. -1.
</event>
<event>
 5   0  0.3118614E-05  0.2326987E+04  0.7818609E-02  0.8467356E-01
       -1   -1    0    0    0  501  0.00000000000E+00  0.00000000000E+00  0.15121504463E+04  0.15121504463E+04  0.50400001928E-02 0. -1.
        1   -1    0    0  501    0  0.00000000000E+00  0.00000000000E+00 -0.89522667801E+03  0.89522667802E+03  0.50400001928E-02 0.  1.
    10030    2    1    2    0    0  0.00000000000E+00  0.00000000000E+00  0.61692376827E+03  0.24073771243E+04  0.23269872545E+04 0.  0.
        3    1    3    3  502    0 -0.92797871561E+03  0.29154977966E+03 -0.35200660640E+03  0.10344343535E+04  0.10100000352E+00 0. -1.
       -3    1    3    3    0  502  0.92797871561E+03 -0.29154977966E+03  0.96893037467E+03  0.13729427708E+04  0.10100000352E+00 0.  1.
</event>
<event>
 5   0  0.6814789E-05  0.2310998E+04  0.7818609E-02  0.8473597E-01
        2   -1    0    0  501    0  0.00000000000E+00  0.00000000000E+00  0.15799418206E+04  0.15799418206E+04  0.25500000920E-02 0.  1.
       -2   -1    0    0    0  501  0.00000000000E+00  0.00000000000E+00 -0.84508061553E+03  0.84508061553E+03  0.25500000920E-02 0. -1.
    10030    2    1    2    0    0  0.00000000000E+00  0.00000000000E+00  0.73486120511E+03  0.24250224362E+04  0.23109982313E+04 0.  0.
        1    1    3    3  502    0  0.14849041972E+03 -0.10608862114E+04  0.82198887104E+03  0.13502572579E+04  0.50400001928E-02 0.  1.
       -1    1    3    3    0  502 -0.14849041972E+03  0.10608862114E+04 -0.87127665932E+02  0.10747651783E+04  0.50400001928E-02 0. -1.
</event>
<event>
 5   0  0.6495405E-05  0.2322781E+04  0.7818609E-02  0.8468993E-01
       -2   -1    0    0    0  501  0.00000000000E+00  0.00000000000E+00  0.93314422703E+03  0.93314422703E+03  0.25500000920E-02 0.  1.
        2   -1    0    0  501    0  0.00000000000E+00  0.00000000000E+00 -0.14454659145E+04  0.14454659145E+04  0.25500000920E-02 0. -1.
    10030    2    1    2    0    0  0.00000000000E+00  0.00000000000E+00 -0.51232168745E+03  0.23786101415E+04  0.23227812411E+04 0.  0.
        5    1    3    3  502    0  0.97350175066E+03  0.50314835179E+03 -0.65003812846E+03  0.12741411150E+04  0.46999998093E+01 0.  1.
       -5    1    3    3    0  502 -0.97350175066E+03 -0.50314835179E+03  0.13771644100E+03  0.11044690265E+04  0.46999998093E+01 0. -1.
</event>
<event>
 5   0  0.2982385E-05  0.2275730E+04  0.7818609E-02  0.8487552E-01
       -1   -1    0    0    0  501  0.00000000000E+00  0.00000000000E+00  0.11991502170E+04  0.11991502170E+04  0.50400001928E-02 0. -1.
        1   -1    0    0  501    0  0.00000000000E+00  0.00000000000E+00 -0.10797117717E+04  0.10797117717E+04  0.50400001928E-02 0.  1.
    10030    2    1    2    0    0  0.00000000000E+00  0.00000000000E+00  0.11943844528E+03  0.22788619886E+04  0.22757298656E+04 0.  0.
        4    1    3    3  502    0 -0.48903625855E+03 -0.10243505910E+04  0.13910251767E+03  0.11435915874E+04  0.12699999809E+01 0. -1.
       -4    1    3    3    0  502  0.48903625855E+03  0.10243505910E+04 -0.19664072388E+02  0.11352704013E+04  0.12699999809E+01 0.  1.
</event>
<event>
 5   0  0.6702421E-05  0.2302350E+04  0.7818609E-02  0.8476995E-01
        2   -1    0    0  501    0  0.00000000000E+00  0.00000000000E+00  0.94395406343E+03  0.94395406343E+03  0.25500000920E-02 0. -1.
       -2   -1    0    0    0  501  0.00000000000E+00  0.00000000000E+00 -0.14038856559E+04  0.14038856559E+04  0.25500000920E-02 0.  1.
    10030    2    1    2    0    0  0.00000000000E+00  0.00000000000E+00 -0.45993159245E+03  0.23478397193E+04  0.23023497297E+04 0.  0.
        4    1    3    3  502    0  0.51376633593E+03  0.21481786561E+03  0.79746229423E+03  0.97265116406E+03  0.12699999809E+01 0. -1.
       -4    1    3    3    0  502 -0.51376633593E+03 -0.21481786561E+03 -0.12573938867E+04  0.13751885552E+04  0.12699999809E+01 0.  1.
</event>
<event>
 5   0  0.6676612E-05  0.2186593E+04  0.7818609E-02  0.8524029E-01
        2   -1    0    0  501    0  0.00000000000E+00  0.00000000000E+00  0.20575536546E+04  0.20575536546E+04  0.25500000920E-02 0.  1.
       -2   -1    0    0    0  501  0.00000000000E+00  0.00000000000E+00 -0.58093126362E+03  0.58093126362E+03  0.25500000920E-02 0. -1.
    10030    2    1    2    0    0  0.00000000000E+00  0.00000000000E+00  0.14766223910E+04  0.26384849182E+04  0.21865930070E+04 0.  0.
        2    1    3    3  502    0 -0.39665811376E+03 -0.35524662996E+03 -0.41388593703E+03  0.67441782019E+03  0.25500000920E-02 0. -1.
       -2    1    3    3    0  502  0.39665811376E+03  0.35524662996E+03  0.18905083280E+04  0.19640670981E+04  0.25500000920E-02 0.  1.
</event>
<event>
 5   0  0.2962279E-05  0.2343846E+04  0.7818609E-02  0.8460831E-01
       -1   -1    0    0    0  501  0.00000000000E+00  0.00000000000E+00  0.77195894743E+03  0.77195894744E+03  0.50400001928E-02 0.  1.
        1   -1    0    0  501    0  0.00000000000E+00  0.00000000000E+00 -0.17791145399E+04  0.17791145399E+04  0.50400001928E-02 0. -1.
    10030    2    1    2    0    0  0.00000000000E+00  0.00000000000E+00 -0.10071555925E+04  0.25510734874E+04  0.23438458888E+04 0.  0.
        1    1    3    3  502    0  0.48201663123E+03  0.29184240399E+03 -0.16219942196E+04  0.17170839437E+04  0.50400001928E-02 0. -1.
       -1    1    3    3    0  502 -0.48201663123E+03 -0.29184240399E+03  0.61483862706E+03  0.83398954364E+03  0.50400001928E-02 0.  1.
</event>
<event>
 5   0  0.6676612E-05  0.2298530E+04  0.7818609E-02  0.8478501E-01
        2   -1    0    0  501    0  0.00000000000E+00  0.00000000000E+00  0.11805235475E+04  0.11805235475E+04  0.25500000920E-02 0. -1.
       -2   -1    0    0    0  501  0.00000000000E+00  0.00000000000E+00 -0.11188340705E+04  0.11188340705E+04  0.25500000920E-02 0.  1.
    10030    2    1    2    0    0  0.00000000000E+00  0.00000000000E+00  0.61689477058E+02  0.22993576180E+04  0.22985299354E+04 0.  0.
        2    1    3    3  502    0  0.16782538310E+03  0.77644484387E+03 -0.79998308233E+03  0.11273885252E+04  0.25500000920E-02 0.  1.
       -2    1    3    3    0  502 -0.16782538310E+03 -0.77644484387E+03  0.86167255939E+03  0.11719690928E+04  0.25500000920E-02 0. -1.
</event>
<event>
 5   0  0.3006265E-05  0.2301544E+04  0.7818609E-02  0.8477313E-01
        1   -1    0    0  501    0  0.00000000000E+00  0.00000000000E+00  0.12582444209E+04  0.12582444209E+04  0.50400001928E-02 0. -1.
       -1   -1    0    0    0  501  0.00000000000E+00  0.00000000000E+00 -0.10524791316E+04  0.10524791316E+04  0.50400001928E-02 0.  1.
    10030    2    1    2    0    0  0.00000000000E+00  0.00000000000E+00  0.20576528930E+03  0.23107235525E+04  0.23015438258E+04 0.  0.
        2    1    3    3  502    0 -0.13347546966E+03  0.11258511539E+04 -0.95184399706E+02  0.11377243040E+04  0.25500000920E-02 0. -1.
       -2    1    3    3    0  502  0.13347546966E+03 -0.11258511539E+04  0.30094968901E+03  0.11729992486E+04  0.25500000920E-02 0.  1.
</event>
<event>
 5   0  0.2982385E-05  0.2249820E+04  0.7818609E-02  0.8497973E-01
       -1   -1    0    0    0  501  0.00000000000E+00  0.00000000000E+00  0.82721484500E+03  0.82721484501E+03  0.50400001928E-02 0. -1.
        1   -1    0    0  501    0  0.00000000000E+00  0.00000000000E+00 -0.15297388625E+04  0.15297388625E+04  0.50400001928E-02 0.  1.
    10030    2    1    2    0    0  0.00000000000E+00  0.00000000000E+00 -0.70252401751E+03  0.23569537075E+04  0.22498201671E+04 0.  0.
        4    1    3    3  502    0 -0.37201905311E+03  0.10444833487E+04 -0.55024736339E+03  0.12377873062E+04  0.12699999809E+01 0.  1.
       -4    1    3    3    0  502  0.37201905311E+03 -0.10444833487E+04 -0.15227665412E+03  0.11191664013E+04  0.12699999809E+01 0. -1.
</event>
<event>
 5   0  0.6814789E-05  0.2323741E+04  0.7818609E-02  0.8468619E-01
       -2   -1    0    0    0  501  0.00000000000E+00  0.00000000000E+00  0.77545832038E+03  0.77545832038E+03  0.25500000920E-02 0.  1.
        2   -1    0    0  501    0  0.00000000000E+00  0.00000000000E+00 -0.17408332330E+04  0.17408332330E+04  0.25500000920E-02 0. -1.
    10030    2    1    2    0    0  0.00000000000E+00  0.00000000000E+00 -0.96537491265E+03  0.25162915534E+04  0.23237414787E+04 0.  0.
        1    1    3    3  502    0 -0.33524402105E+03  0.13423123736E+03  0.71314585374E+03  0.79936448975E+03  0.50400001928E-02 0.  1.
       -1    1    3    3    0  502  0.33524402105E+03 -0.13423123736E+03 -0.16785207664E+04  0.17169270637E+04  0.50400001928E-02 0. -1.
</event>
<event>
 5   0  0.6676612E-05  0.2317869E+04  0.7818609E-02  0.8470909E-01
        2   -1    0    0  501    0  0.00000000000E+00  0.00000000000E+00  0.14591200246E+04  0.14591200246E+04  0.25500000920E-02 0.  1.
       -2   -1    0    0    0  501  0.00000000000E+00  0.00000000000E+00 -0.92050649630E+03  0.92050649630E+03  0.25500000920E-02 0. -1.
    10030    2    1    2    0    0  0.00000000000E+00  0.00000000000E+00  0.53861352833E+03  0.23796265209E+04  0.23178692470E+04 0.  0.
        2    1    3    3  502    0  0.76820916128E+03 -0.27948467140E+03  0.11127011806E+04  0.13807102934E+04  0.25500000920E-02 0.  1.
       -2    1    3    3    0  502 -0.76820916128E+03  0.27948467140E+03 -0.57408765230E+03  0.99891622749E+03  0.25500000920E-02 0. -1.
</event>
<event>
 5   0  0.2962279E-05  0.2156796E+04  0.7818609E-02  0.8536629E-01
       -1   -1    0    0    0  501  0.00000000000E+00  0.00000000000E+00  0.43246841262E+03  0.43246841265E+03  0.50400001928E-02 0.  1.
        1   -1    0    0  501    0  0.00000000000E+00  0.00000000000E+00 -0.26890800627E+04  0.26890800627E+04  0.50400001928E-02 0. -1.
    10030    2    1    2    0    0  0.00000000000E+00  0.00000000000E+00 -0.22566116501E+04  0.31215484753E+04  0.21567959441E+04 0.  0.
        1    1    3    3  502    0 -0.13518427897E+03 -0.59462927156E+03 -0.24155832953E+04  0.24913653719E+04  0.50400001928E-02 0. -1.
       -1    1    3    3    0  502  0.13518427897E+03  0.59462927156E+03  0.15897164520E+03  0.63018310345E+03  0.50400001928E-02 0.  1.
</event>
<event>
 5   0  0.3006265E-05  0.2287305E+04  0.7818609E-02  0.8482943E-01
       -1   -1    0    0    0  501  0.00000000000E+00  0.00000000000E+00  0.99312957843E+03  0.99312957844E+03  0.50400001928E-02 0.  1.
        1   -1    0    0  501    0  0.00000000000E+00  0.00000000000E+00 -0.13169891919E+04  0.13169891919E+04  0.50400001928E-02 0. -1.
    10030    2    1    2    0    0  0.00000000000E+00  0.00000000000E+00 -0.32385961346E+03  0.23101187703E+04  0.22873048953E+04 0.  0.
        2    1    3    3  502    0  0.10900718731E+04 -0.27540279715E+03 -0.37339227451E+03  0.11847046804E+04  0.25500000920E-02 0.  1.
       -2    1    3    3    0  502 -0.10900718731E+04  0.27540279715E+03  0.49532661050E+02  0.11254140899E+04  0.25500000920E-02 0. -1.
</event>
<event>
 5   0  0.6814789E-05  0.2303987E+04  0.7818609E-02  0.8476351E-01
       -2   -1    0    0    0  501  0.00000000000E+00  0.00000000000E+00  0.80669290865E+03  0.80669290866E+03  0.25500000920E-02 0.  1.
        2   -1    0    0  501    0  0.00000000000E+00  0.00000000000E+00 -0.16450974704E+04  0.16450974704E+04  0.25500000920E-02 0. -1.
    10030    2    1    2    0    0  0.00000000000E+00  0.00000000000E+00 -0.83840456179E+03  0.24517903791E+04  0.23039865134E+04 0.  0.
        1    1    3    3  502    0 -0.98205259383E+03 -0.59776218374E+03 -0.34142789911E+03  0.11992997689E+04  0.50400001928E-02 0. -1.
       -1    1    3    3    0  502  0.98205259383E+03  0.59776218374E+03 -0.49697666268E+03  0.12524906102E+04  0.50400001928E-02 0.  1.
</event>
<event>
 5   0  0.3006265E-05  0.2301757E+04  0.7818609E-02  0.8477229E-01
        1   -1    0    0  501    0  0.00000000000E+00  0.00000000000E+00  0.12057067654E+04  0.12057067654E+04  0.50400001928E-02 0. -1.
       -1   -1    0    0    0  501  0.00000000000E+00  0.00000000000E+00 -0.10985434294E+04  0.10985434294E+04  0.50400001928E-02 0.  1.
    10030    2    1    2    0    0  0.00000000000E+00  0.00000000000E+00  0.10716333605E+03  0.23042501948E+04  0.23017569332E+04 0.  0.
        2    1    3    3  502    0  0.70557669084E+03 -0.55987780586E+03  0.77075114676E+03  0.11854783652E+04  0.25500000920E-02 0. -1.
       -2    1    3    3    0  502 -0.70557669084E+03  0.55987780586E+03 -0.66358781071E+03  0.11187718296E+04  0.25500000920E-02 0.  1.
</event>
<event>
 5   0  0.3118614E-05  0.2284738E+04  0.7818609E-02  0.8483963E-01
        1   -1    0    0  501    0  0.00000000000E+00  0.00000000000E+00  0.16614056139E+04  0.16614056139E+04  0.50400001928E-02 0.  1.
       -1   -1    0    0    0  501  0.00000000000E+00  0.00000000000E+00 -0.78548381361E+03  0.78548381363E+03  0.50400001928E-02 0. -1.
    10030    2    1    2    0    0  0.00000000000E+00  0.00000000000E+00  0.87592180026E+03  0.24468894275E+04  0.22847382498E+04 0.  0.
        3    1    3    3  502    0  0.18795036756E+03  0.38964588868E+03 -0.69436437504E+03  0.81810216645E+03  0.10100000352E+00 0. -1.
       -3    1    3    3    0  502 -0.18795036756E+03 -0.38964588868E+03  0.15702861753E+04  0.16287872611E+04  0.10100000352E+00 0.  1.
</event>
<event>
 5   0  0.6702421E-05  0.2089894E+04  0.7818609E-02  0.8565708E-01
        2   -1    0    0  501    0  0.00000000000E+00  0.00000000000E+00  0.22923335674E+04  0.22923335674E+04  0.25500000920E-02 0.  1.
       -2   -1    0    0    0  501  0.00000000000E+00  0.00000000000E+00 -0.47633321171E+03  0.47633321172E+03  0.25500000920E-02 0. -1.
    10030    2    1    2    0    0  0.00000000000E+00  0.00000000000E+00  0.18160003557E+04  0.27686667791E+04  0.20898943614E+04 0.  0.
        4    1    3    3  502    0  0.67085690137E+03  0.39847296581E+03  0.18287833476E+04  0.19882856515E+04  0.12699999809E+01 0.  1.
       -4    1    3    3    0  502 -0.67085690137E+03 -0.39847296581E+03 -0.12782991892E+02  0.78038112764E+03  0.12699999809E+01 0. -1.
</event>
<event>
 5   0  0.6702421E-05  0.2347812E+04  0.7818609E-02  0.8459305E-01
        2   -1    0    0  501    0  0.00000000000E+00  0.00000000000E+00  0.11582369455E+04  0.11582369455E+04  0.25500000920E-02 0. -1.
       -2   -1    0    0    0  501  0.00000000000E+00  0.00000000000E+00 -0.11897869152E+04  0.11897869152E+04  0.25500000920E-02 0.  1.
    10030    2    1    2    0    0  0.00000000000E+00  0.00000000000E+00 -0.31549969691E+02  0.23480238607E+04  0.23478118856E+04 0.  0.
        4    1    3    3  502    0 -0.31092704562E+03 -0.88731090228E+03  0.68718056267E+03  0.11645664445E+04  0.12699999809E+01 0. -1.
       -4    1    3    3    0  502  0.31092704562E+03  0.88731090228E+03 -0.71873053236E+03  0.11834574162E+04  0.12699999809E+01 0.  1.
</event>
<event>
 5   0  0.6702421E-05  0.2309294E+04  0.7818609E-02  0.8474266E-01
        2   -1    0    0  501    0  0.00000000000E+00  0.00000000000E+00  0.27135476875E+04  0.27135476875E+04  0.25500000920E-02 0. -1.
       -2   -1    0    0    0  501  0.00000000000E+00  0.00000000000E+00 -0.49131602292E+03  0.49131602293E+03  0.25500000920E-02 0.  1.
    10030    2    1    2    0    0  0.00000000000E+00  0.00000000000E+00  0.22222316646E+04  0.32048637105E+04  0.23092937950E+04 0.  0.
        4    1    3    3  502    0  0.16342207308E+03  0.46456903034E+03 -0.33825124512E+03  0.59745014491E+03  0.12699999809E+01 0.  1.
       -4    1    3    3    0  502 -0.16342207308E+03 -0.46456903034E+03  0.25604829097E+04  0.26074135656E+04  0.12699999809E+01 0. -1.
</event>
<event>
 5   0  0.6468758E-05  0.2248249E+04  0.7818609E-02  0.8498610E-01
        2   -1    0    0  501    0  0.00000000000E+00  0.00000000000E+00  0.17481872284E+04  0.17481872284E+04  0.25500000920E-02 0. -1.
       -2   -1    0    0    0  501  0.00000000000E+00  0.00000000000E+00 -0.72283792431E+03  0.72283792431E+03  0.25500000920E-02 0.  1.
    10030    2    1    2    0    0  0.00000000000E+00  0.00000000000E+00  0.10253493041E+04  0.24710251527E+04  0.22482491210E+04 0.  0.
        3    1    3    3  502    0  0.23923073707E+02  0.60362509295E+03  0.15546202545E+04  0.16678668149E+04  0.10100000352E+00 0. -1.
       -3    1    3    3    0  502 -0.23923073707E+02 -0.60362509295E+03 -0.52927095048E+03  0.80315833776E+03  0.10100000352E+00 0.  1.
</event>
<event>
 5   0  0.2962279E-05  0.2208283E+04  0.7818609E-02  0.8514989E-01
        1   -1    0    0  501    0  0.00000000000E+00  0.00000000000E+00  0.22644082440E+04  0.22644082440E+04  0.50400001928E-02 0. -1.
       -1   -1    0    0    0  501  0.00000000000E+00  0.00000000000E+00 -0.53838702011E+03  0.53838702013E+03  0.50400001928E-02 0.  1.
    10030    2    1    2    0    0  0.00000000000E+00  0.00000000000E+00  0.17260212239E+04  0.28027952641E+04  0.22082825968E+04 0.  0.
        1    1    3    3  502    0  0.62246577840E+02  0.25653041900E+03  0.22237686866E+04  0.22393815360E+04  0.50400001928E-02 0. -1.
       -1    1    3    3    0  502 -0.62246577840E+02 -0.25653041900E+03 -0.49774746274E+03  0.56341372810E+03  0.50400001928E-02 0.  1.
</event>
<event>
 5   0  0.6676612E-05  0.2303014E+04  0.7818609E-02  0.8476734E-01
        2   -1    0    0  501    0  0.00000000000E+00  0.00000000000E+00  0.11422127139E+04  0.11422127139E+04  0.25500000920E-02 0.  1.
       -2   -1    0    0    0  501  0.00000000000E+00  0.00000000000E+00 -0.11608767395E+04  0.11608767396E+04  0.25500000920E-02 0. -1.
    10030    2    1    2    0    0  0.00000000000E+00  0.00000000000E+00 -0.18664025681E+02  0.23030894534E+04  0.23030138264E+04 0.  0.
        2    1    3    3  502    0  0.69510374735E+03 -0.76537055472E+03  0.49764308037E+03  0.11474362471E+04  0.25500000920E-02 0.  1.
       -2    1    3    3    0  502 -0.69510374735E+03  0.76537055472E+03 -0.51630710605E+03  0.11556532064E+04  0.25500000920E-02 0. -1.
</event>
<event>
 5   0  0.6814789E-05  0.2280960E+04  0.7818609E-02  0.8485466E-01
        2   -1    0    0  501    0  0.00000000000E+00  0.00000000000E+00  0.10734760002E+04  0.10734760002E+04  0.25500000920E-02 0. -1.
       -2   -1    0    0    0  501  0.00000000000E+00  0.00000000000E+00 -0.12116660073E+04  0.12116660073E+04  0.25500000920E-02 0.  1.
    10030    2    1    2    0    0  0.00000000000E+00  0.00000000000E+00 -0.13819000714E+03  0.22851420076E+04  0.22809597797E+04 0.  0.
        1    1    3    3  502    0 -0.49991840711E+03 -0.10194369851E+04  0.38452649114E+02  0.11360672457E+04  0.50400001928E-02 0. -1.
       -1    1    3    3    0  502  0.49991840711E+03  0.10194369851E+04 -0.17664265625E+03  0.11490747619E+04  0.50400001928E-02 0.  1.
</event>
<event>
 5   0  0.3006265E-05  0.1680886E+04  0.7818609E-02  0.8772341E-01
       -1   -1    0    0    0  501  0.00000000000E+00  0.00000000000E+00  0.33720616765E+03  0.33720616768E+03  0.50400001928E-02 0. -1.
        1   -1    0    0  501    0  0.00000000000E+00  0.00000000000E+00 -0.20946968334E+04  0.20946968334E+04  0.50400001928E-02 0.  1.
    10030    2    1    2    0    0  0.00000000000E+00  0.00000000000E+00 -0.17574906657E+04  0.24319030011E+04  0.16808863039E+04 0.  0.
        2    1    3    3  502    0  0.74401139416E+03  0.31208418486E+03 -0.12192663891E+04  0.14620396782E+04  0.25500000920E-02 0.  1.
       -2    1    3    3    0  502 -0.74401139416E+03 -0.31208418486E+03 -0.53822427666E+03  0.96986332288E+03  0.25500000920E-02 0. -1.
</event>
<event>
 5   0  0.3006265E-05  0.2264761E+04  0.7818609E-02  0.8491946E-01
        1   -1    0    0  501    0  0.00000000000E+00  0.00000000000E+00  0.10737362785E+04  0.10737362785E+04  0.50400001928E-02 0.  1.
       -1   -1    0    0    0  501  0.00000000000E+00  0.00000000000E+00 -0.11942274412E+04  0.11942274412E+04  0.50400001928E-02 0. -1.
    10030    2    1    2    0    0  0.00000000000E+00  0.00000000000E+00 -0.12049116277E+03  0.22679637197E+04  0.22647607630E+04 0.  0.
        2    1    3    3  502    0  0.39973871911E+02 -0.81997942020E+03 -0.84129809670E+03  0.11754771999E+04  0.25500000920E-02 0. -1.
       -2    1    3    3    0  502 -0.39973871911E+02  0.81997942020E+03  0.72080693393E+03  0.10924865198E+04  0.25500000920E-02 0.  1.
</event>
<event>
 5   0  0.6702421E-05  0.2283283E+04  0.7818609E-02  0.8484541E-01
       -2   -1    0    0    0  501  0.00000000000E+00  0.00000000000E+00  0.10614655347E+04  0.10614655347E+04  0.25500000920E-02 0.  1.
        2   -1    0    0  501    0  0.00000000000E+00  0.00000000000E+00 -0.12278739457E+04  0.12278739457E+04  0.25500000920E-02 0. -1.
    10030    2    1    2    0    0  0.00000000000E+00  0.00000000000E+00 -0.16640841102E+03  0.22893394805E+04  0.22832834904E+04 0.  0.
        4    1    3    3  502    0 -0.12696081630E+02  0.10868083665E+04  0.26705117515E+03  0.11192102390E+04  0.12699999809E+01 0.  1.
       -4    1    3    3    0  502  0.12696081630E+02 -0.10868083665E+04 -0.43345958616E+03  0.11701292415E+04  0.12699999809E+01 0. -1.
</event>
<event>
 5   0  0.6702421E-05  0.2277459E+04  0.7818609E-02  0.8486862E-01
       -2   -1    0    0    0  501  0.00000000000E+00  0.00000000000E+00  0.17954584480E+04  0.17954584480E+04  0.25500000920E-02 0. -1.
        2   -1    0    0  501    0  0.00000000000E+00  0.00000000000E+00 -0.72221406086E+03  0.72221406086E+03  0.25500000920E-02 0.  1.
    10030    2    1    2    0    0  0.00000000000E+00  0.00000000000E+00  0.10732443871E+04  0.25176725089E+04  0.22774594063E+04 0.  0.
        4    1    3    3  502    0 -0.37630990350E+03  0.13423604713E+03  0.17154305313E+04  0.17613437996E+04  0.12699999809E+01 0. -1.
       -4    1    3    3    0  502  0.37630990350E+03 -0.13423604713E+03 -0.64218614415E+03  0.75632870926E+03  0.12699999809E+01 0.  1.
</event>
<event>
 5   0  0.6702421E-05  0.2240084E+04  0.7818609E-02  0.8501927E-01
        2   -1    0    0  501    0  0.00000000000E+00  0.00000000000E+00  0.17099239847E+04  0.17099239847E+04  0.25500000920E-02 0. -1.
       -2   -1    0    0    0  501  0.00000000000E+00  0.00000000000E+00 -0.73365519659E+03  0.73365519659E+03  0.25500000920E-02 0.  1.
    10030    2    1    2    0    0  0.00000000000E+00  0.00000000000E+00  0.97626878808E+03  0.24435791813E+04  0.22400844780E+04 0.  0.
        4    1    3    3  502    0  0.35605764378E+02  0.17820853630E+03  0.16937333970E+04  0.17034554546E+04  0.12699999809E+01 0. -1.
       -4    1    3    3    0  502 -0.35605764378E+02 -0.17820853630E+03 -0.71746460889E+03  0.74012372667E+03  0.12699999809E+01 0.  1.
</event>
<event>
 5   0  0.3118614E-05  0.2295667E+04  0.7818609E-02  0.8479631E-01
       -1   -1    0    0    0  501  0.00000000000E+00  0.00000000000E+00  0.44903574759E+03  0.44903574762E+03  0.50400001928E-02 0.  1.
        1   -1    0    0  501    0  0.00000000000E+00  0.00000000000E+00 -0.29341142408E+04  0.29341142408E+04  0.50400001928E-02 0. -1.
    10030    2    1    2    0    0  0.00000000000E+00  0.00000000000E+00 -0.24850784932E+04  0.33831499884E+04  0.22956673816E+04 0.  0.
        3    1    3    3  502    0  0.17244790863E+03 -0.16381703159E+03  0.41231921516E+03  0.47600572100E+03  0.10100000352E+00 0.  1.
       -3    1    3    3    0  502 -0.17244790863E+03  0.16381703159E+03 -0.28973977084E+04  0.29071442674E+04  0.10100000352E+00 0. -1.
</event>
<event>
 5   0  0.2944089E-05  0.2315676E+04  0.7818609E-02  0.8471766E-01
       -1   -1    0    0    0  501  0.00000000000E+00  0.00000000000E+00  0.10332537952E+04  0.10332537953E+04  0.50400001928E-02 0. -1.
        1   -1    0    0  501    0  0.00000000000E+00  0.00000000000E+00 -0.12974434994E+04  0.12974434994E+04  0.50400001928E-02 0.  1.
    10030    2    1    2    0    0  0.00000000000E+00  0.00000000000E+00 -0.26418970411E+03  0.23306972946E+04  0.23156756421E+04 0.  0.
        5    1    3    3  502    0 -0.85679948588E+03 -0.47818417305E+02  0.65023390325E+03  0.10766699489E+04  0.46999998093E+01 0. -1.
       -5    1    3    3    0  502  0.85679948588E+03  0.47818417305E+02 -0.91442360736E+03  0.12540273457E+04  0.46999998093E+01 0.  1.
</event>
<event>
 5   0  0.6676612E-05  0.2223556E+04  0.7818609E-02  0.8508687E-01
       -2   -1    0    0    0  501  0.00000000000E+00  0.00000000000E+00  0.10564605581E+04  0.10564605581E+04  0.25500000920E-02 0. -1.
        2   -1    0    0  501    0  0.00000000000E+00  0.00000000000E+00 -0.11699914361E+04  0.11699914361E+04  0.25500000920E-02 0.  1.
    10030    2    1    2    0    0  0.00000000000E+00  0.00000000000E+00 -0.11353087796E+03  0.22264519942E+04  0.22235555361E+04 0.  0.
        2    1    3    3  502    0  0.74628526230E+03  0.37577622034E+03 -0.79113770298E+03  0.11506729881E+04  0.25500000920E-02 0.  1.
       -2    1    3    3    0  502 -0.74628526230E+03 -0.37577622034E+03  0.67760682502E+03  0.10757790060E+04  0.25500000920E-02 0. -1.
</event>
<event>
 5   0  0.3006265E-05  0.2297033E+04  0.7818609E-02  0.8479092E-01
        1   -1    0    0  501    0  0.00000000000E+00  0.00000000000E+00  0.22388174899E+04  0.22388174899E+04  0.50400001928E-02 0.  1.
       -1   -1    0    0    0  501  0.00000000000E+00  0.00000000000E+00 -0.58919066713E+03  0.58919066716E+03  0.50400001928E-02 0. -1.
    10030    2    1    2    0    0  0.00000000000E+00  0.00000000000E+00  0.16496268228E+04  0.28280081571E+04  0.22970331913E+04 0.  0.
        2    1    3    3  502    0  0.38548728787E+03  0.83132640356E+03 -0.27611652831E+02  0.91676956851E+03  0.25500000920E-02 0. -1.
       -2    1    3    3    0  502 -0.38548728787E+03 -0.83132640356E+03  0.16772384756E+04  0.19112385886E+04  0.25500000920E-02 0.  1.
</event>
<event>
 5   0  0.3006265E-05  0.2174217E+04  0.7818609E-02  0.8529237E-01
        1   -1    0    0  501    0  0.00000000000E+00  0.00000000000E+00  0.18175395531E+04  0.18175395531E+04  0.50400001928E-02 0.  1.
       -1   -1    0    0    0  501  0.00000000000E+00  0.00000000000E+00 -0.65022216142E+03  0.65022216144E+03  0.50400001928E-02 0. -1.
    10030    2    1    2    0    0  0.00000000000E+00  0.00000000000E+00  0.11673173917E+04  0.24677617146E+04  0.21742166375E+04 0.  0.
        2    1    3    3  502    0  0.82184026137E+03  0.34764913408E+03  0.12883933774E+04  0.15672392385E+04  0.25500000920E-02 0.  1.
       -2    1    3    3    0  502 -0.82184026137E+03 -0.34764913408E+03 -0.12107598571E+03  0.90052247610E+03  0.25500000920E-02 0. -1.
</event>
<event>
 5   0  0.2962279E-05  0.2196373E+04  0.7818609E-02  0.8519939E-01
       -1   -1    0    0    0  501  0.00000000000E+00  0.00000000000E+00  0.65890248476E+03  0.65890248478E+03  0.50400001928E-02 0.  1.
        1   -1    0    0  501    0  0.00000000000E+00  0.00000000000E+00 -0.18303364474E+04  0.18303364474E+04  0.50400001928E-02 0. -1.
    10030    2    1    2    0    0  0.00000000000E+00  0.00000000000E+00 -0.11714339627E+04  0.24892389322E+04  0.21963726762E+04 0.  0.
        1    1    3    3  502    0  0.24136657602E+03  0.80982764419E+03  0.20918620071E+03  0.87053862862E+03  0.50400001928E-02 0.  1.
       -1    1    3    3    0  502 -0.24136657602E+03 -0.80982764419E+03 -0.13806201634E+04  0.16187003036E+04  0.50400001928E-02 0. -1.
</event>
<event>
 5   0  0.6676612E-05  0.2283977E+04  0.7818609E-02  0.8484266E-01
        2   -1    0    0  501    0  0.00000000000E+00  0.00000000000E+00  0.12476881733E+04  0.12476881733E+04  0.25500000920E-02 0. -1.
       -2   -1    0    0    0  501  0.00000000000E+00  0.00000000000E+00 -0.10452435369E+04  0.10452435369E+04  0.25500000920E-02 0.  1.
    10030    2    1    2    0    0  0.00000000000E+00  0.00000000000E+00  0.20244463642E+03  0.22929317102E+04  0.22839772322E+04 0.  0.
        2    1    3    3  502    0 -0.20776210228E+03 -0.10898955643E+04 -0.17020885431E+03  0.11225009962E+04  0.25500000920E-02 0.  1.
       -2    1    3    3    0  502  0.20776210228E+03  0.10898955643E+04  0.37265349073E+03  0.11704307141E+04  0.25500000920E-02 0. -1.
</event>
<event>
 5   0  0.6702421E-05  0.2386928E+04  0.7818609E-02  0.8444414E-01
       -2   -1    0    0    0  501  0.00000000000E+00  0.00000000000E+00  0.64234079771E+03  0.64234079772E+03  0.25500000920E-02 0. -1.
        2   -1    0    0  501    0  0.00000000000E+00  0.00000000000E+00 -0.22174472587E+04  0.22174472587E+04  0.25500000920E-02 0.  1.
    10030    2    1    2    0    0  0.00000000000E+00  0.00000000000E+00 -0.15751064610E+04  0.28597880564E+04  0.23869284372E+04 0.  0.
        4    1    3    3  502    0  0.10202356475E+04  0.59520050833E+03 -0.99232318010E+03  0.15426766765E+04  0.12699999809E+01 0.  1.
       -4    1    3    3    0  502 -0.10202356475E+04 -0.59520050833E+03 -0.58278328088E+03  0.13171113799E+04  0.12699999809E+01 0. -1.
</event>
<event>
 5   0  0.2962279E-05  0.2346848E+04  0.7818609E-02  0.8459675E-01
        1   -1    0    0  501    0  0.00000000000E+00  0.00000000000E+00  0.13100427082E+04  0.13100427082E+04  0.50400001928E-02 0. -1.
       -1   -1    0    0    0  501  0.00000000000E+00  0.00000000000E+00 -0.10510522247E+04  0.10510522247E+04  0.50400001928E-02 0.  1.
    10030    2    1    2    0    0  0.00000000000E+00  0.00000000000E+00  0.25899048352E+03  0.23610949329E+04  0.23468475049E+04 0.  0.
        1    1    3    3  502    0  0.10957364738E+04  0.41263845610E+03  0.20751853503E+03  0.11891059069E+04  0.50400001928E-02 0. -1.
       -1    1    3    3    0  502 -0.10957364738E+04 -0.41263845610E+03  0.51471948491E+02  0.11719890259E+04  0.50400001928E-02 0.  1.
</event>
<event>
 5   0  0.6814789E-05  0.2285908E+04  0.7818609E-02  0.8483498E-01
        2   -1    0    0  501    0  0.00000000000E+00  0.00000000000E+00  0.45403121228E+03  0.45403121229E+03  0.25500000920E-02 0. -1.
       -2   -1    0    0    0  501  0.00000000000E+00  0.00000000000E+00 -0.28772106160E+04  0.28772106160E+04  0.25500000920E-02 0.  1.
    10030    2    1    2    0    0  0.00000000000E+00  0.00000000000E+00 -0.24231794037E+04  0.33312418283E+04  0.22859076307E+04 0.  0.
        1    1    3    3  502    0  0.96341554399E+03 -0.38260953916E+03 -0.19131888833E+04  0.21759713401E+04  0.50400001928E-02 0.  1.
       -1    1    3    3    0  502 -0.96341554399E+03  0.38260953916E+03 -0.50999052041E+03  0.11552704882E+04  0.50400001928E-02 0. -1.
</event>
<event>
 5   0  0.3006265E-05  0.2365583E+04  0.7818609E-02  0.8452502E-01
        1   -1    0    0  501    0  0.00000000000E+00  0.00000000000E+00  0.13926894121E+04  0.13926894121E+04  0.50400001928E-02 0. -1.
       -1   -1    0    0    0  501  0.00000000000E+00  0.00000000000E+00 -0.10045280968E+04  0.10045280968E+04  0.50400001928E-02 0.  1.
    10030    2    1    2    0    0  0.00000000000E+00  0.00000000000E+00  0.38816131535E+03  0.23972175089E+04  0.23655829257E+04 0.  0.
        2    1    3    3  502    0 -0.52839657849E+03 -0.93551985324E+03  0.69526018486E+03  0.12797605497E+04  0.25500000920E-02 0. -1.
       -2    1    3    3    0  502  0.52839657849E+03  0.93551985324E+03 -0.30709886952E+03  0.11174569592E+04  0.25500000920E-02 0.  1.
</event>
<event>
 5   0  0.2962279E-05  0.2284413E+04  0.7818609E-02  0.8484092E-01
       -1   -1    0    0    0  501  0.00000000000E+00  0.00000000000E+00  0.11215331230E+04  0.11215331230E+04  0.50400001928E-02 0. -1.
        1   -1    0    0  501    0  0.00000000000E+00  0.00000000000E+00 -0.11632607581E+04  0.11632607581E+04  0.50400001928E-02 0.  1.
    10030    2    1    2    0    0  0.00000000000E+00  0.00000000000E+00 -0.41727635099E+02  0.22847938812E+04  0.22844128094E+04 0.  0.
        1    1    3    3  502    0  0.94240355678E+03  0.37524497726E+03 -0.54602493924E+03  0.11519880603E+04  0.50400001928E-02 0.  1.
       -1    1    3    3    0  502 -0.94240355678E+03 -0.37524497726E+03  0.50429730414E+03  0.11328058209E+04  0.50400001928E-02 0. -1.
</event>
<event>
 5   0  0.2962279E-05  0.2217335E+04  0.7818609E-02  0.8511247E-01
       -1   -1    0    0    0  501  0.00000000000E+00  0.00000000000E+00  0.11545482029E+04  0.11545482029E+04  0.50400001928E-02 0. -1.
        1   -1    0    0  501    0  0.00000000000E+00  0.00000000000E+00 -0.10646100430E+04  0.10646100430E+04  0.50400001928E-02 0.  1.
    10030    2    1    2    0    0  0.00000000000E+00  0.00000000000E+00  0.89938159848E+02  0.22191582459E+04  0.22173349878E+04 0.  0.
        1    1    3    3  502    0  0.83655932792E+03  0.22401225272E+03  0.73773086528E+03  0.11376554083E+04  0.50400001928E-02 0.  1.
       -1    1    3    3    0  502 -0.83655932792E+03 -0.22401225272E+03 -0.64779270544E+03  0.10815028376E+04  0.50400001928E-02 0. -1.
</event>
<event>
 5   0  0.2962279E-05  0.2138198E+04  0.7818609E-02  0.8544601E-01
        1   -1    0    0  501    0  0.00000000000E+00  0.00000000000E+00  0.26188260325E+04  0.26188260325E+04  0.50400001928E-02 0. -1.
       -1   -1    0    0    0  501  0.00000000000E+00  0.00000000000E+00 -0.43644485653E+03  0.43644485656E+03  0.50400001928E-02 0.  1.
    10030    2    1    2    0    0  0.00000000000E+00  0.00000000000E+00  0.21823811759E+04  0.30552708890E+04  0.21381984492E+04 0.  0.
        1    1    3    3  502    0  0.44279397423E+03  0.50292947813E+03 -0.99151030819E+02  0.67737396652E+03  0.50400001928E-02 0.  1.
       -1    1    3    3    0  502 -0.44279397423E+03 -0.50292947813E+03  0.22815322068E+04  0.23778969225E+04  0.50400001928E-02 0. -1.
</event>
<event>
 5   0  0.2962279E-05  0.2337136E+04  0.7818609E-02  0.8463421E-01
       -1   -1    0    0    0  501  0.00000000000E+00  0.00000000000E+00  0.78870417444E+03  0.78870417445E+03  0.50400001928E-02 0. -1.
        1   -1    0    0  501    0  0.00000000000E+00  0.00000000000E+00 -0.17313857854E+04  0.17313857854E+04  0.50400001928E-02 0.  1.
    10030    2    1    2    0    0  0.00000000000E+00  0.00000000000E+00 -0.94268161098E+03  0.25200899599E+04  0.23371360222E+04 0.  0.
        1    1    3    3  502    0 -0.47319213117E+01 -0.26067755133E+03 -0.16996238599E+04  0.17195047083E+04  0.50400001928E-02 0.  1.
       -1    1    3    3    0  502  0.47319213117E+01  0.26067755133E+03  0.75694224889E+03  0.80058525156E+03  0.50400001928E-02 0. -1.
</event>
<event>
 5   0  0.3006265E-05  0.2386828E+04  0.7818609E-02  0.8444451E-01
       -1   -1    0    0    0  501  0.00000000000E+00  0.00000000000E+00  0.16401021513E+04  0.16401021513E+04  0.50400001928E-02 0. -1.
        1   -1    0    0  501    0  0.00000000000E+00  0.00000000000E+00 -0.86838340661E+03  0.86838340662E+03  0.50400001928E-02 0.  1.
    10030    2    1    2    0    0  0.00000000000E+00  0.00000000000E+00  0.77171874465E+03  0.25084855579E+04  0.23868284340E+04 0.  0.
        2    1    3    3  502    0  0.10947698636E+04  0.30602644427E+03  0.76778873158E+03  0.13717407828E+04  0.25500000920E-02 0. -1.
       -2    1    3    3    0  502 -0.10947698636E+04 -0.30602644427E+03  0.39300130771E+01  0.11367447751E+04  0.25500000920E-02 0.  1.
</event>
<event>
 5   0  0.2982385E-05  0.2304401E+04  0.7818609E-02  0.8476188E-01
       -1   -1    0    0    0  501  0.00000000000E+00  0.00000000000E+00  0.77491503493E+03  0.77491503494E+03  0.50400001928E-02 0. -1.
        1   -1    0    0  501    0  0.00000000000E+00  0.00000000000E+00 -0.17131759799E+04  0.17131759799E+04  0.50400001928E-02 0.  1.
    10030    2    1    2    0    0  0.00000000000E+00  0.00000000000E+00 -0.93826094494E+03  0.24880910148E+04  0.23044008543E+04 0.  0.
        4    1    3    3  502    0  0.94667861300E+03  0.33825848422E+03 -0.10769857570E+04  0.14732681806E+04  0.12699999809E+01 0.  1.
       -4    1    3    3    0  502 -0.94667861300E+03 -0.33825848422E+03  0.13872481201E+03  0.10148228342E+04  0.12699999809E+01 0. -1.
</event>
<event>
 5   0  0.6676612E-05  0.2349065E+04  0.7818609E-02  0.8458823E-01
        2   -1    0    0  501    0  0.00000000000E+00  0.00000000000E+00  0.24355186066E+04  0.24355186066E+04  0.25500000920E-02 0.  1.
       -2   -1    0    0    0  501  0.00000000000E+00  0.00000000000E+00 -0.56642006470E+03  0.56642006470E+03  0.25500000920E-02 0. -1.
    10030    2    1    2    0    0  0.00000000000E+00  0.00000000000E+00  0.18690985419E+04  0.30019386713E+04  0.23490650112E+04 0.  0.
        2    1    3    3  502    0  0.82867192093E+03 -0.30514026262E+03 -0.55098470499E+02  0.88478447877E+03  0.25500000920E-02 0. -1.
       -2    1    3    3    0  502 -0.82867192093E+03  0.30514026262E+03  0.19241970124E+04  0.21171541925E+04  0.25500000920E-02 0.  1.
</event>
<event>
 5   0  0.3006265E-05  0.2296359E+04  0.7818609E-02  0.8479358E-01
       -1   -1    0    0    0  501  0.00000000000E+00  0.00000000000E+00  0.12568415913E+04  0.12568415913E+04  0.50400001928E-02 0. -1.
        1   -1    0    0  501    0  0.00000000000E+00  0.00000000000E+00 -0.10489120894E+04  0.10489120894E+04  0.50400001928E-02 0.  1.
    10030    2    1    2    0    0  0.00000000000E+00  0.00000000000E+00  0.20792950193E+03  0.23057536808E+04  0.22963591528E+04 0.  0.
        2    1    3    3  502    0  0.10420920762E+04  0.47616138178E+03  0.28619221469E+02  0.11460822905E+04  0.25500000920E-02 0. -1.
       -2    1    3    3    0  502 -0.10420920762E+04 -0.47616138178E+03  0.17931028046E+03  0.11596713903E+04  0.25500000920E-02 0.  1.
</event>
<event>
 5   0  0.2944089E-05  0.2340546E+04  0.7818609E-02  0.8462104E-01
       -1   -1    0    0    0  501  0.00000000000E+00  0.00000000000E+00  0.11218560082E+04  0.11218560082E+04  0.50400001928E-02 0.  1.
        1   -1    0    0  501    0  0.00000000000E+00  0.00000000000E+00 -0.12207797391E+04  0.12207797391E+04  0.50400001928E-02 0. -1.
    10030    2    1    2    0    0  0.00000000000E+00  0.00000000000E+00 -0.98923730830E+02  0.23426357473E+04  0.23405461628E+04 0.  0.
        5    1    3    3  502    0  0.10109559553E+04  0.45520018303E+02 -0.63770501911E+03  0.11961579315E+04  0.46999998093E+01 0. -1.
       -5    1    3    3    0  502 -0.10109559553E+04 -0.45520018303E+02  0.53878128828E+03  0.11464778158E+04  0.46999998093E+01 0.  1.
</event>
<event>
 5   0  0.6814789E-05  0.2309336E+04  0.7818609E-02  0.8474249E-01
        2   -1    0    0  501    0  0.00000000000E+00  0.00000000000E+00  0.13811378782E+04  0.13811378782E+04  0.25500000920E-02 0.  1.
       -2   -1    0    0    0  501  0.00000000000E+00  0.00000000000E+00 -0.96533340792E+03  0.96533340792E+03  0.25500000920E-02 0. -1.
    10030    2    1    2    0    0  0.00000000000E+00  0.00000000000E+00  0.41580447026E+03  0.23464712861E+04  0.23093362984E+04 0.  0.
        1    1    3    3  502    0 -0.23659324257E+03  0.11298443988E+04  0.23542670329E+03  0.11781130933E+04  0.50400001928E-02 0. -1.
       -1    1    3    3    0  502  0.23659324257E+03 -0.11298443988E+04  0.18037776697E+03  0.11683581928E+04  0.50400001928E-02 0.  1.
</event>
<event>
 5   0  0.6814789E-05  0.2295310E+04  0.7818609E-02  0.8479772E-01
        2   -1    0    0  501    0  0.00000000000E+00  0.00000000000E+00  0.16085926633E+04  0.16085926633E+04  0.25500000920E-02 0.  1.
       -2   -1    0    0    0  501  0.00000000000E+00  0.00000000000E+00 -0.81879795319E+03  0.81879795319E+03  0.25500000920E-02 0. -1.
    10030    2    1    2    0    0  0.00000000000E+00  0.00000000000E+00  0.78979471011E+03  0.24273906165E+04  0.22953103322E+04 0.  0.
        1    1    3    3  502    0 -0.16940732937E+03  0.55163241454E+03 -0.65421313739E+03  0.87234855028E+03  0.50400001928E-02 0. -1.
       -1    1    3    3    0  502  0.16940732937E+03 -0.55163241454E+03  0.14440078475E+04  0.15550420662E+04  0.50400001928E-02 0.  1.
</event>
<event>
 5   0  0.6676612E-05  0.2311431E+04  0.7818609E-02  0.8473428E-01
        2   -1    0    0  501    0  0.00000000000E+00  0.00000000000E+00  0.17762819042E+04  0.17762819042E+04  0.25500000920E-02 0.  1.
       -2   -1    0    0    0  501  0.00000000000E+00  0.00000000000E+00 -0.75195183188E+03  0.75195183188E+03  0.25500000920E-02 0. -1.
    10030    2    1    2    0    0  0.00000000000E+00  0.00000000000E+00  0.10243300723E+04  0.25282337361E+04  0.23114310994E+04 0.  0.
        2    1    3    3  502    0 -0.30820159908E+03  0.38287259555E+03 -0.63193641675E+03  0.80057684511E+03  0.25500000920E-02 0. -1.
       -2    1    3    3    0  502  0.30820159908E+03 -0.38287259555E+03  0.16562664891E+04  0.17276568910E+04  0.25500000920E-02 0.  1.
</event>
<event>
 5   0  0.6495405E-05  0.2319515E+04  0.7818609E-02  0.8470266E-01
        2   -1    0    0  501    0  0.00000000000E+00  0.00000000000E+00  0.14436530189E+04  0.14436530189E+04  0.25500000920E-02 0.  1.
       -2   -1    0    0    0  501  0.00000000000E+00  0.00000000000E+00 -0.93168993500E+03  0.93168993501E+03  0.25500000920E-02 0. -1.
    10030    2    1    2    0    0  0.00000000000E+00  0.00000000000E+00  0.51196308388E+03  0.23753429539E+04  0.23195145935E+04 0.  0.
        5    1    3    3  502    0  0.23977443688E+03  0.29299666165E+03  0.13785760673E+04  0.14296268351E+04  0.46999998093E+01 0.  1.
       -5    1    3    3    0  502 -0.23977443688E+03 -0.29299666165E+03 -0.86661298342E+03  0.94571611879E+03  0.46999998093E+01 0. -1.
</event>
<event>
 5   0  0.2982385E-05  0.2293137E+04  0.7818609E-02  0.8480632E-01
       -1   -1    0    0    0  501  0.00000000000E+00  0.00000000000E+00  0.83472849875E+03  0.83472849876E+03  0.50400001928E-02 0.  1.
        1   -1    0    0  501    0  0.00000000000E+00  0.00000000000E+00 -0.15749063570E+04  0.15749063571E+04  0.50400001928E-02 0. -1.
    10030    2    1    2    0    0  0.00000000000E+00  0.00000000000E+00 -0.74017785830E+03  0.24096348558E+04  0.22931369075E+04 0.  0.
        4    1    3    3  502    0 -0.43077070704E+03  0.50656362627E+03  0.61141242451E+03  0.90332545367E+03  0.12699999809E+01 0.  1.
       -4    1    3    3    0  502  0.43077070704E+03 -0.50656362627E+03 -0.13515902828E+04  0.15063094021E+04  0.12699999809E+01 0. -1.
</event>
<event>
 5   0  0.6814789E-05  0.2373566E+04  0.7818609E-02  0.8449467E-01
        2   -1    0    0  501    0  0.00000000000E+00  0.00000000000E+00  0.24657717163E+04  0.24657717163E+04  0.25500000920E-02 0.  1.
       -2   -1    0    0    0  501  0.00000000000E+00  0.00000000000E+00 -0.57120223463E+03  0.57120223464E+03  0.25500000920E-02 0. -1.
    10030    2    1    2    0    0  0.00000000000E+00  0.00000000000E+00  0.18945694816E+04  0.30369739509E+04  0.23735663584E+04 0.  0.
        1    1    3    3  502    0 -0.83427555475E+03  0.66652067881E+03  0.28467165909E+03  0.11051259974E+04  0.50400001928E-02 0.  1.
       -1    1    3    3    0  502  0.83427555475E+03 -0.66652067881E+03  0.16098978225E+04  0.19318479535E+04  0.50400001928E-02 0. -1.
</event>
<event>
 5   0  0.2962279E-05  0.2297428E+04  0.7818609E-02  0.8478936E-01
        1   -1    0    0  501    0  0.00000000000E+00  0.00000000000E+00  0.13515899857E+04  0.13515899857E+04  0.50400001928E-02 0.  1.
       -1   -1    0    0    0  501  0.00000000000E+00  0.00000000000E+00 -0.97629031062E+03  0.97629031063E+03  0.50400001928E-02 0. -1.
    10030    2    1    2    0    0  0.00000000000E+00  0.00000000000E+00  0.37529967506E+03  0.23278802963E+04  0.22974283074E+04 0.  0.
        1    1    3    3  502    0  0.96729656742E+03  0.59376631413E+03  0.83205611149E+01  0.11350287736E+04  0.50400001928E-02 0.  1.
       -1    1    3    3    0  502 -0.96729656742E+03 -0.59376631413E+03  0.36697911394E+03  0.11928515227E+04  0.50400001928E-02 0. -1.
</event>
<event>
 5   0  0.3006265E-05  0.2304927E+04  0.7818609E-02  0.8475981E-01
       -1   -1    0    0    0  501  0.00000000000E+00  0.00000000000E+00  0.92354411246E+03  0.92354411247E+03  0.50400001928E-02 0. -1.
        1   -1    0    0  501    0  0.00000000000E+00  0.00000000000E+00 -0.14381247459E+04  0.14381247459E+04  0.50400001928E-02 0.  1.
    10030    2    1    2    0    0  0.00000000000E+00  0.00000000000E+00 -0.51458063348E+03  0.23616688584E+04  0.23049265864E+04 0.  0.
        2    1    3    3  502    0 -0.85072051332E+03 -0.75339338093E+03 -0.45396533773E+03  0.12236876669E+04  0.25500000920E-02 0.  1.
       -2    1    3    3    0  502  0.85072051332E+03  0.75339338093E+03 -0.60615295751E+02  0.11379811915E+04  0.25500000920E-02 0. -1.
</event>
<event>
 5   0  0.2962279E-05  0.1913080E+04  0.7818609E-02  0.8648373E-01
       -1   -1    0    0    0  501  0.00000000000E+00  0.00000000000E+00  0.70903582268E+03  0.70903582270E+03  0.50400001928E-02 0. -1.
        1   -1    0    0  501    0  0.00000000000E+00  0.00000000000E+00 -0.12904414739E+04  0.12904414739E+04  0.50400001928E-02 0.  1.
    10030    2    1    2    0    0  0.00000000000E+00  0.00000000000E+00 -0.58140565120E+03  0.19994772966E+04  0.19130804814E+04 0.  0.
        1    1    3    3  502    0  0.47286608177E+03  0.60850760483E+03  0.30153141464E+03  0.82752947408E+03  0.50400001928E-02 0. -1.
       -1    1    3    3    0  502 -0.47286608177E+03 -0.60850760483E+03 -0.88293706584E+03  0.11719478225E+04  0.50400001928E-02 0.  1.
</event>
<event>
 5   0  0.2944089E-05  0.2306447E+04  0.7818609E-02  0.8475384E-01
        1   -1    0    0  501    0  0.00000000000E+00  0.00000000000E+00  0.14033091188E+04  0.14033091188E+04  0.50400001928E-02 0. -1.
       -1   -1    0    0    0  501  0.00000000000E+00  0.00000000000E+00 -0.94770587675E+03  0.94770587676E+03  0.50400001928E-02 0.  1.
    10030    2    1    2    0    0  0.00000000000E+00  0.00000000000E+00  0.45560324208E+03  0.23510149956E+04  0.23064468768E+04 0.  0.
        5    1    3    3  502    0  0.10903918287E+04 -0.18390381524E+02 -0.15442376341E+03  0.11014360331E+04  0.46999998093E+01 0.  1.
       -5    1    3    3    0  502 -0.10903918287E+04  0.18390381524E+02  0.61002700549E+03  0.12495789625E+04  0.46999998093E+01 0. -1.
</event>
<event>
 5   0  0.3006265E-05  0.2317075E+04  0.7818609E-02  0.8471219E-01
       -1   -1    0    0    0  501  0.00000000000E+00  0.00000000000E+00  0.54832999864E+03  0.54832999867E+03  0.50400001928E-02 0. -1.
        1   -1    0    0  501    0  0.00000000000E+00  0.00000000000E+00 -0.24478119821E+04  0.24478119821E+04  0.50400001928E-02 0.  1.
    10030    2    1    2    0    0  0.00000000000E+00  0.00000000000E+00 -0.18994819835E+04  0.29961419808E+04  0.23170746565E+04 0.  0.
        2    1    3    3  502    0  0.41672180546E+03 -0.95378075703E+03 -0.29185633624E+03  0.10809879355E+04  0.25500000920E-02 0. -1.
       -2    1    3    3    0  502 -0.41672180546E+03  0.95378075703E+03 -0.16076256473E+04  0.19151540453E+04  0.25500000920E-02 0.  1.
</event>
<event>
 5   0  0.6814789E-05  0.2291783E+04  0.7818609E-02  0.8481168E-01
       -2   -1    0    0    0  501  0.00000000000E+00  0.00000000000E+00  0.12577376623E+04  0.12577376624E+04  0.25500000920E-02 0.  1.
        2   -1    0    0  501    0  0.00000000000E+00  0.00000000000E+00 -0.10439909677E+04  0.10439909677E+04  0.25500000920E-02 0. -1.
    10030    2    1    2    0    0  0.00000000000E+00  0.00000000000E+00  0.21374669462E+03  0.23017286301E+04  0.22917825021E+04 0.  0.
        1    1    3    3  502    0 -0.74606560419E+03  0.52879004826E+03  0.80040184102E+03  0.12152678339E+04  0.50400001928E-02 0.  1.
       -1    1    3    3    0  502  0.74606560419E+03 -0.52879004826E+03 -0.58665514640E+03  0.10864607962E+04  0.50400001928E-02 0. -1.
</event>
<event>
 5   0  0.6468758E-05  0.2313410E+04  0.7818609E-02  0.8472652E-01
        2   -1    0    0  501    0  0.00000000000E+00  0.00000000000E+00  0.21256010781E+04  0.21256010781E+04  0.25500000920E-02 0. -1.
       -2   -1    0    0    0  501  0.00000000000E+00  0.00000000000E+00 -0.62945320130E+03  0.62945320130E+03  0.25500000920E-02 0.  1.
    10030    2    1    2    0    0  0.00000000000E+00  0.00000000000E+00  0.14961478768E+04  0.27550542794E+04  0.23134099535E+04 0.  0.
        3    1    3    3  502    0  0.14328288087E+03 -0.35316392867E+03 -0.55253067516E+03  0.67122641609E+03  0.10100000352E+00 0.  1.
       -3    1    3    3    0  502 -0.14328288087E+03  0.35316392867E+03  0.20486785519E+04  0.20838278633E+04  0.10100000352E+00 0. -1.
</event>
<event>
 5   0  0.2962279E-05  0.2330160E+04  0.7818609E-02  0.8466123E-01
        1   -1    0    0  501    0  0.00000000000E+00  0.00000000000E+00  0.20926612801E+04  0.20926612801E+04  0.50400001928E-02 0. -1.
       -1   -1    0    0    0  501  0.00000000000E+00  0.00000000000E+00 -0.64865334206E+03  0.64865334208E+03  0.50400001928E-02 0.  1.
    10030    2    1    2    0    0  0.00000000000E+00  0.00000000000E+00  0.14440079380E+04  0.27413146221E+04  0.23301602804E+04 0.  0.
        1    1    3    3  502    0  0.89277047561E+03  0.44274572352E+03  0.11883910254E+02  0.99659626989E+03  0.50400001928E-02 0.  1.
       -1    1    3    3    0  502 -0.89277047561E+03 -0.44274572352E+03  0.14321240278E+04  0.17447183523E+04  0.50400001928E-02 0. -1.
</event>
<event>
 5   0  0.3006265E-05  0.2310508E+04  0.7818609E-02  0.8473790E-01
       -1   -1    0    0    0  501  0.00000000000E+00  0.00000000000E+00  0.98664926646E+03  0.98664926647E+03  0.50400001928E-02 0.  1.
        1   -1    0    0  501    0  0.00000000000E+00  0.00000000000E+00 -0.13526706484E+04  0.13526706484E+04  0.50400001928E-02 0. -1.
    10030    2    1    2    0    0  0.00000000000E+00  0.00000000000E+00 -0.36602138192E+03  0.23393199149E+04  0.23105077390E+04 0.  0.
        2    1    3    3  502    0  0.85477078921E+03  0.38092491928E+03  0.50283940413E+03  0.10623485128E+04  0.25500000920E-02 0.  1.
       -2    1    3    3    0  502 -0.85477078921E+03 -0.38092491928E+03 -0.86886078606E+03  0.12769714021E+04  0.25500000920E-02 0. -1.
</event>
<event>
 5   0  0.2962279E-05  0.2312781E+04  0.7818609E-02  0.8472899E-01
       -1   -1    0    0    0  501  0.00000000000E+00  0.00000000000E+00  0.10642816884E+04  0.10642816884E+04  0.50400001928E-02 0.  1.
        1   -1    0    0  501    0  0.00000000000E+00  0.00000000000E+00 -0.12564712915E+04  0.12564712915E+04  0.50400001928E-02 0. -1.
    10030    2    1    2    0    0  0.00000000000E+00  0.00000000000E+00 -0.19218960311E+03  0.23207529799E+04  0.23127813451E+04 0.  0.
        1    1    3    3  502    0 -0.70030284982E+02  0.60669702614E+03 -0.10814436998E+04  0.12419766496E+04  0.50400001928E-02 0. -1.
       -1    1    3    3    0  502  0.70030284982E+02 -0.60669702614E+03  0.88925409666E+03  0.10787763303E+04  0.50400001928E-02 0.  1.
</event>
<event>
 5   0  0.3006265E-05  0.2338235E+04  0.7818609E-02  0.8462996E-01
       -1   -1    0    0    0  501  0.00000000000E+00  0.00000000000E+00  0.95700691511E+03  0.95700691513E+03  0.50400001928E-02 0. -1.
        1   -1    0    0  501    0  0.00000000000E+00  0.00000000000E+00 -0.14282400596E+04  0.14282400596E+04  0.50400001928E-02 0.  1.
    10030    2    1    2    0    0  0.00000000000E+00  0.00000000000E+00 -0.47123314449E+03  0.23852469747E+04  0.23382349014E+04 0.  0.
        2    1    3    3  502    0  0.22840336689E+03 -0.10290656527E+04  0.28020948114E+03  0.10907160808E+04  0.25500000920E-02 0. -1.
       -2    1    3    3    0  502 -0.22840336689E+03  0.10290656527E+04 -0.75144262564E+03  0.12945308939E+04  0.25500000920E-02 0.  1.
</event>
<event>
 5   0  0.3118614E-05  0.2351278E+04  0.7818609E-02  0.8457973E-01
        1   -1    0    0  501    0  0.00000000000E+00  0.00000000000E+00  0.14887515817E+04  0.14887515817E+04  0.50400001928E-02 0. -1.
       -1   -1    0    0    0  501  0.00000000000E+00  0.00000000000E+00 -0.92837972741E+03  0.92837972743E+03  0.50400001928E-02 0.  1.
    10030    2    1    2    0    0  0.00000000000E+00  0.00000000000E+00  0.56037185425E+03  0.24171313091E+04  0.23512777697E+04 0.  0.
        3    1    3    3  502    0 -0.36783045361E+03 -0.72810542224E+03 -0.59010005268E+03  0.10068042664E+04  0.10100000352E+00 0.  1.
       -3    1    3    3    0  502  0.36783045361E+03  0.72810542224E+03  0.11504719069E+04  0.14103270427E+04  0.10100000352E+00 0. -1.
</event>
<event>
 5   0  0.6814789E-05  0.2373922E+04  0.7818609E-02  0.8449332E-01
       -2   -1    0    0    0  501  0.00000000000E+00  0.00000000000E+00  0.13350315555E+04  0.13350315555E+04  0.25500000920E-02 0.  1.
        2   -1    0    0  501    0  0.00000000000E+00  0.00000000000E+00 -0.10553132303E+04  0.10553132303E+04  0.25500000920E-02 0. -1.
    10030    2    1    2    0    0  0.00000000000E+00  0.00000000000E+00  0.27971832515E+03  0.23903447858E+04  0.23739220404E+04 0.  0.
        1    1    3    3  502    0  0.19316658754E+03  0.11711061122E+04  0.14849795125E+03  0.11961833046E+04  0.50400001928E-02 0.  1.
       -1    1    3    3    0  502 -0.19316658754E+03 -0.11711061122E+04  0.13122037390E+03  0.11941614812E+04  0.50400001928E-02 0. -1.
</event>
<event>
 5   0  0.2944089E-05  0.2278205E+04  0.7818609E-02  0.8486564E-01
       -1   -1    0    0    0  501  0.00000000000E+00  0.00000000000E+00  0.67888861697E+03  0.67888861699E+03  0.50400001928E-02 0. -1.
        1   -1    0    0  501    0  0.00000000000E+00  0.00000000000E+00 -0.19112922768E+04  0.19112922769E+04  0.50400001928E-02 0.  1.
    10030    2    1    2    0    0  0.00000000000E+00  0.00000000000E+00 -0.12324036599E+04  0.25901808938E+04  0.22782050570E+04 0.  0.
        5    1    3    3  502    0  0.32613911466E+03  0.10553107853E+04 -0.93268151356E+03  0.14456709416E+04  0.46999998093E+01 0.  1.
       -5    1    3    3    0  502 -0.32613911466E+03 -0.10553107853E+04 -0.29972214632E+03  0.11445099522E+04  0.46999998093E+01 0. -1.
</event>
<event>
 5   0  0.6676612E-05  0.2302701E+04  0.7818609E-02  0.8476857E-01
       -2   -1    0    0    0  501  0.00000000000E+00  0.00000000000E+00  0.96551956841E+03  0.96551956841E+03  0.25500000920E-02 0.  1.
        2   -1    0    0  501    0  0.00000000000E+00  0.00000000000E+00 -0.13729475047E+04  0.13729475047E+04  0.25500000920E-02 0. -1.
    10030    2    1    2    0    0  0.00000000000E+00  0.00000000000E+00 -0.40742793632E+03  0.23384670732E+04  0.23027007467E+04 0.  0.
        2    1    3    3  502    0 -0.31641614635E+03  0.11053144518E+04 -0.26605530784E+03  0.11800951834E+04  0.25500000920E-02 0. -1.
       -2    1    3    3    0  502  0.31641614635E+03 -0.11053144518E+04 -0.14137262848E+03  0.11583718898E+04  0.25500000920E-02 0.  1.
</event>
<event>
 5   0  0.3006265E-05  0.2314882E+04  0.7818609E-02  0.8472076E-01
       -1   -1    0    0    0  501  0.00000000000E+00  0.00000000000E+00  0.18999422521E+04  0.18999422521E+04  0.50400001928E-02 0.  1.
        1   -1    0    0  501    0  0.00000000000E+00  0.00000000000E+00 -0.70511065794E+03  0.70511065796E+03  0.50400001928E-02 0. -1.
    10030    2    1    2    0    0  0.00000000000E+00  0.00000000000E+00  0.11948315942E+04  0.26050529101E+04  0.23148818816E+04 0.  0.
        2    1    3    3  502    0  0.31799021710E+03 -0.23986784691E+03  0.18203848029E+04  0.18634524927E+04  0.25500000920E-02 0.  1.
       -2    1    3    3    0  502 -0.31799021710E+03  0.23986784691E+03 -0.62555320868E+03  0.74160041737E+03  0.25500000920E-02 0. -1.
</event>
<event>
 5   0  0.6468758E-05  0.2318446E+04  0.7818609E-02  0.8470684E-01
        2   -1    0    0  501    0  0.00000000000E+00  0.00000000000E+00  0.15253403934E+04  0.15253403934E+04  0.25500000920E-02 0. -1.
       -2   -1    0    0    0  501  0.00000000000E+00  0.00000000000E+00 -0.88098206157E+03  0.88098206157E+03  0.25500000920E-02 0.  1.
    10030    2    1    2    0    0  0.00000000000E+00  0.00000000000E+00  0.64435833178E+03  0.24063224549E+04  0.23184456210E+04 0.  0.
        3    1    3    3  502    0 -0.96471078159E+03 -0.63236606473E+03  0.44162277700E+03  0.12351455053E+04  0.10100000352E+00 0.  1.
       -3    1    3    3    0  502  0.96471078159E+03  0.63236606473E+03  0.20273555478E+03  0.11711769496E+04  0.10100000352E+00 0. -1.
</event>
<event>
 5   0  0.2962279E-05  0.2319554E+04  0.7818609E-02  0.8470251E-01
       -1   -1    0    0    0  501  0.00000000000E+00  0.00000000000E+00  0.28417299335E+04  0.28417299335E+04  0.50400001928E-02 0.  1.
        1   -1    0    0  501    0  0.00000000000E+00  0.00000000000E+00 -0.47333252959E+03  0.47333252962E+03  0.50400001928E-02 0. -1.
    10030    2    1    2    0    0  0.00000000000E+00  0.00000000000E+00  0.23683974039E+04  0.33150624631E+04  0.23195544554E+04 0.  0.
        1    1    3    3  502    0 -0.69440354770E+03  0.81441119631E+03  0.18227423954E+04  0.21137293403E+04  0.50400001928E-02 0.  1.
       -1    1    3    3    0  502  0.69440354770E+03 -0.81441119631E+03  0.54565500844E+03  0.12013331228E+04  0.50400001928E-02 0. -1.
</event>
<event>
 5   0  0.6468758E-05  0.2330136E+04  0.7818609E-02  0.8466133E-01
        2   -1    0    0  501    0  0.00000000000E+00  0.00000000000E+00  0.25615164982E+04  0.25615164982E+04  0.25500000920E-02 0. -1.
       -2   -1    0    0    0  501  0.00000000000E+00  0.00000000000E+00 -0.52991410709E+03  0.52991410709E+03  0.25500000920E-02 0.  1.
    10030    2    1    2    0    0  0.00000000000E+00  0.00000000000E+00  0.20316023912E+04  0.30914306053E+04  0.23301362432E+04 0.  0.
        3    1    3    3  502    0  0.52660931411E+03  0.21665957970E+03 -0.33271018904E+03  0.65951104864E+03  0.10100000352E+00 0.  1.
       -3    1    3    3    0  502 -0.52660931411E+03 -0.21665957970E+03  0.23643125802E+04  0.24319195567E+04  0.10100000352E+00 0. -1.
</event>
<event>
 5   0  0.3118614E-05  0.2292722E+04  0.7818609E-02  0.8480796E-01
        1   -1    0    0  501    0  0.00000000000E+00  0.00000000000E+00  0.22835642476E+04  0.22835642476E+04  0.50400001928E-02 0. -1.
       -1   -1    0    0    0  501  0.00000000000E+00  0.00000000000E+00 -0.57547931022E+03  0.57547931024E+03  0.50400001928E-02 0.  1.
    10030    2    1    2    0    0  0.00000000000E+00  0.00000000000E+00  0.17080849374E+04  0.28590435578E+04  0.22927223801E+04 0.  0.
        3    1    3    3  502    0 -0.37956426239E+03  0.12634753077E+01  0.22029303226E+04  0.22353909372E+04  0.10100000352E+00 0. -1.
       -3    1    3    3    0  502  0.37956426239E+03 -0.12634753077E+01 -0.49484538527E+03  0.62365262060E+03  0.10100000352E+00 0.  1.
</event>
<event>
 5   0  0.2944089E-05  0.2303179E+04  0.7818609E-02  0.8476669E-01
       -1   -1    0    0    0  501  0.00000000000E+00  0.00000000000E+00  0.11495208540E+04  0.11495208540E+04  0.50400001928E-02 0.  1.
        1   -1    0    0  501    0  0.00000000000E+00  0.00000000000E+00 -0.11536621846E+04  0.11536621846E+04  0.50400001928E-02 0. -1.
    10030    2    1    2    0    0  0.00000000000E+00  0.00000000000E+00 -0.41413306131E+01  0.23031830386E+04  0.23031793153E+04 0.  0.
        5    1    3    3  502    0  0.48940859666E+03 -0.73389700546E+03  0.73820822290E+03  0.11502604312E+04  0.46999998093E+01 0.  1.
       -5    1    3    3    0  502 -0.48940859666E+03  0.73389700546E+03 -0.74234955351E+03  0.11529226074E+04  0.46999998093E+01 0. -1.
</event>
<event>
 5   0  0.3118614E-05  0.2323378E+04  0.7818609E-02  0.8468760E-01
        1   -1    0    0  501    0  0.00000000000E+00  0.00000000000E+00  0.14098704130E+04  0.14098704130E+04  0.50400001928E-02 0. -1.
       -1   -1    0    0    0  501  0.00000000000E+00  0.00000000000E+00 -0.95719495142E+03  0.95719495144E+03  0.50400001928E-02 0.  1.
    10030    2    1    2    0    0  0.00000000000E+00  0.00000000000E+00  0.45267546158E+03  0.23670653645E+04  0.23233775772E+04 0.  0.
        3    1    3    3  502    0 -0.86269565719E+03 -0.70398579870E+03  0.56374638404E+03  0.12480584111E+04  0.10100000352E+00 0. -1.
       -3    1    3    3    0  502  0.86269565719E+03  0.70398579870E+03 -0.11107092246E+03  0.11190069534E+04  0.10100000352E+00 0.  1.
</event>
<event>
 5   0  0.6495405E-05  0.2177154E+04  0.7818609E-02  0.8527998E-01
        2   -1    0    0  501    0  0.00000000000E+00  0.00000000000E+00  0.11809351609E+04  0.11809351609E+04  0.25500000920E-02 0.  1.
       -2   -1    0    0    0  501  0.00000000000E+00  0.00000000000E+00 -0.10034418973E+04  0.10034418973E+04  0.25500000920E-02 0. -1.
    10030    2    1    2    0    0  0.00000000000E+00  0.00000000000E+00  0.17749326365E+03  0.21843770582E+04  0.21771539390E+04 0.  0.
        5    1    3    3  502    0  0.29403267132E+03 -0.44955356979E+03  0.10386845688E+04  0.11693764780E+04  0.46999998093E+01 0.  1.
       -5    1    3    3    0  502 -0.29403267132E+03  0.44955356979E+03 -0.86119130511E+03  0.10150005802E+04  0.46999998093E+01 0. -1.
</event>
<event>
 5   0  0.6814789E-05  0.2260695E+04  0.7818609E-02  0.8493582E-01
        2   -1    0    0  501    0  0.00000000000E+00  0.00000000000E+00  0.12210621921E+04  0.12210621921E+04  0.25500000920E-02 0. -1.
       -2   -1    0    0    0  501  0.00000000000E+00  0.00000000000E+00 -0.10463717355E+04  0.10463717355E+04  0.25500000920E-02 0.  1.
    10030    2    1    2    0    0  0.00000000000E+00  0.00000000000E+00  0.17469045656E+03  0.22674339276E+04  0.22606945527E+04 0.  0.
        1    1    3    3  502    0  0.44332316212E+03  0.25730758198E+03 -0.92310154065E+03  0.10558688707E+04  0.50400001928E-02 0.  1.
       -1    1    3    3    0  502 -0.44332316212E+03 -0.25730758198E+03  0.10977919972E+04  0.12115650569E+04  0.50400001928E-02 0. -1.
</event>
<event>
 5   0  0.6814789E-05  0.2313472E+04  0.7818609E-02  0.8472628E-01
        2   -1    0    0  501    0  0.00000000000E+00  0.00000000000E+00  0.14209784829E+04  0.14209784829E+04  0.25500000920E-02 0. -1.
       -2   -1    0    0    0  501  0.00000000000E+00  0.00000000000E+00 -0.94163194205E+03  0.94163194206E+03  0.25500000920E-02 0.  1.
    10030    2    1    2    0    0  0.00000000000E+00  0.00000000000E+00  0.47934654086E+03  0.23626104250E+04  0.23134724796E+04 0.  0.
        1    1    3    3  502    0  0.88934215172E+03 -0.72030631601E+03  0.67971050872E+02  0.11464688027E+04  0.50400001928E-02 0.  1.
       -1    1    3    3    0  502 -0.88934215172E+03  0.72030631601E+03  0.41137548999E+03  0.12161416223E+04  0.50400001928E-02 0. -1.
</event>
<event>
 5   0  0.3006265E-05  0.2312097E+04  0.7818609E-02  0.8473166E-01
        1   -1    0    0  501    0  0.00000000000E+00  0.00000000000E+00  0.95845988397E+03  0.95845988398E+03  0.50400001928E-02 0. -1.
       -1   -1    0    0    0  501  0.00000000000E+00  0.00000000000E+00 -0.13943709708E+04  0.13943709708E+04  0.50400001928E-02 0.  1.
    10030    2    1    2    0    0  0.00000000000E+00  0.00000000000E+00 -0.43591108681E+03  0.23528308548E+04  0.23120974364E+04 0.  0.
        2    1    3    3  502    0 -0.55308792084E+03 -0.82304143424E+03 -0.82268513570E+03  0.12884542224E+04  0.25500000920E-02 0. -1.
       -2    1    3    3    0  502  0.55308792084E+03  0.82304143424E+03  0.38677404890E+03  0.10643766324E+04  0.25500000920E-02 0.  1.
</event>
<event>
 5   0  0.6495405E-05  0.2286687E+04  0.7818609E-02  0.8483189E-01
        2   -1    0    0  501    0  0.00000000000E+00  0.00000000000E+00  0.62403932144E+03  0.62403932144E+03  0.25500000920E-02 0. -1.
       -2   -1    0    0    0  501  0.00000000000E+00  0.00000000000E+00 -0.20947949880E+04  0.20947949880E+04  0.25500000920E-02 0.  1.
    10030    2    1    2    0    0  0.00000000000E+00  0.00000000000E+00 -0.14707556665E+04  0.27188343094E+04  0.22866870733E+04 0.  0.
        5    1    3    3  502    0  0.73737993572E+03  0.59583174940E+03 -0.14952750785E+04  0.17704841975E+04  0.46999998093E+01 0.  1.
       -5    1    3    3    0  502 -0.73737993572E+03 -0.59583174940E+03  0.24519411980E+02  0.94835011191E+03  0.46999998093E+01 0. -1.
</event>
<event>
 5   0  0.6676612E-05  0.1939174E+04  0.7818609E-02  0.8635599E-01
        2   -1    0    0  501    0  0.00000000000E+00  0.00000000000E+00  0.11276882815E+04  0.11276882815E+04  0.25500000920E-02 0.  1.
       -2   -1    0    0    0  501  0.00000000000E+00  0.00000000000E+00 -0.83365133912E+03  0.83365133912E+03  0.25500000920E-02 0. -1.
    10030    2    1    2    0    0  0.00000000000E+00  0.00000000000E+00  0.29403694237E+03  0.19613396206E+04  0.19391738921E+04 0.  0.
        2    1    3    3  502    0  0.85844832877E+03  0.43953489320E+03  0.24803192690E+03  0.99581338225E+03  0.25500000920E-02 0. -1.
       -2    1    3    3    0  502 -0.85844832877E+03 -0.43953489320E+03  0.46005015476E+02  0.96552623836E+03  0.25500000920E-02 0.  1.
</event>
<event>
 5   0  0.2944089E-05  0.2285270E+04  0.7818609E-02  0.8483752E-01
        1   -1    0    0  501    0  0.00000000000E+00  0.00000000000E+00  0.79867452531E+03  0.79867452532E+03  0.50400001928E-02 0.  1.
       -1   -1    0    0    0  501  0.00000000000E+00  0.00000000000E+00 -0.16347263462E+04  0.16347263462E+04  0.50400001928E-02 0. -1.
    10030    2    1    2    0    0  0.00000000000E+00  0.00000000000E+00 -0.83605182086E+03  0.24334008715E+04  0.22852696021E+04 0.  0.
        5    1    3    3  502    0 -0.57405655222E+03  0.61332738644E+03  0.40669820534E+03  0.93334716389E+03  0.46999998093E+01 0.  1.
       -5    1    3    3    0  502  0.57405655222E+03 -0.61332738644E+03 -0.12427500262E+04  0.15000537076E+04  0.46999998093E+01 0. -1.
</event>
<event>
 5   0  0.2982385E-05  0.2308973E+04  0.7818609E-02  0.8474391E-01
        1   -1    0    0  501    0  0.00000000000E+00  0.00000000000E+00  0.11020450923E+04  0.11020450923E+04  0.50400001928E-02 0. -1.
       -1   -1    0    0    0  501  0.00000000000E+00  0.00000000000E+00 -0.12094238733E+04  0.12094238733E+04  0.50400001928E-02 0.  1.
    10030    2    1    2    0    0  0.00000000000E+00  0.00000000000E+00 -0.10737878103E+03  0.23114689656E+04  0.23089734897E+04 0.  0.
        4    1    3    3  502    0  0.78783372990E+03 -0.83245049249E+03  0.84960198053E+02  0.11492935467E+04  0.12699999809E+01 0. -1.
       -4    1    3    3    0  502 -0.78783372990E+03  0.83245049249E+03 -0.19233897908E+03  0.11621754189E+04  0.12699999809E+01 0.  1.
</event>
<event>
 5   0  0.3118614E-05  0.2258767E+04  0.7818609E-02  0.8494358E-01
        1   -1    0    0  501    0  0.00000000000E+00  0.00000000000E+00  0.10996072585E+04  0.10996072585E+04  0.50400001928E-02 0.  1.
       -1   -1    0    0    0  501  0.00000000000E+00  0.00000000000E+00 -0.11599662698E+04  0.11599662699E+04  0.50400001928E-02 0. -1.
    10030    2    1    2    0    0  0.00000000000E+00  0.00000000000E+00 -0.60359011317E+02  0.22595735284E+04  0.22587672124E+04 0.  0.
        3    1    3    3  502    0 -0.60010006061E+03  0.40693243205E+03 -0.89639462805E+03  0.11529255945E+04  0.10100000352E+00 0. -1.
       -3    1    3    3    0  502  0.60010006061E+03 -0.40693243205E+03  0.83603561673E+03  0.11066479339E+04  0.10100000352E+00 0.  1.
</event>
<event>
 5   0  0.2944089E-05  0.2331058E+04  0.7818609E-02  0.8465775E-01
        1   -1    0    0  501    0  0.00000000000E+00  0.00000000000E+00  0.19574825993E+04  0.19574825993E+04  0.50400001928E-02 0. -1.
       -1   -1    0    0    0  501  0.00000000000E+00  0.00000000000E+00 -0.69398195024E+03  0.69398195026E+03  0.50400001928E-02 0.  1.
    10030    2    1    2    0    0  0.00000000000E+00  0.00000000000E+00  0.12635006490E+04  0.26514645495E+04  0.23310577786E+04 0.  0.
        5    1    3    3  502    0 -0.32764572215E+03  0.70590017974E+03 -0.35514101482E+03  0.85544959723E+03  0.46999998093E+01 0.  1.
       -5    1    3    3    0  502  0.32764572215E+03 -0.70590017974E+03  0.16186416639E+04  0.17960149523E+04  0.46999998093E+01 0. -1.
</event>
<event>
 5   0  0.6676612E-05  0.2293933E+04  0.7818609E-02  0.8480317E-01
       -2   -1    0    0    0  501  0.00000000000E+00  0.00000000000E+00  0.72228540809E+03  0.72228540809E+03  0.25500000920E-02 0. -1.
        2   -1    0    0  501    0  0.00000000000E+00  0.00000000000E+00 -0.18213466734E+04  0.18213466734E+04  0.25500000920E-02 0.  1.
    10030    2    1    2    0    0  0.00000000000E+00  0.00000000000E+00 -0.10990612653E+04  0.25436320815E+04  0.22939329766E+04 0.  0.
        2    1    3    3  502    0 -0.56063623170E+03 -0.39519628127E+03 -0.15688539430E+04  0.17122487493E+04  0.25500000920E-02 0.  1.
       -2    1    3    3    0  502  0.56063623170E+03  0.39519628127E+03  0.46979267769E+03  0.83138333219E+03  0.25500000920E-02 0. -1.
</event>
<event>
 5   0  0.6676612E-05  0.2302452E+04  0.7818609E-02  0.8476955E-01
        2   -1    0    0  501    0  0.00000000000E+00  0.00000000000E+00  0.17016564754E+04  0.17016564754E+04  0.25500000920E-02 0.  1.
       -2   -1    0    0    0  501  0.00000000000E+00  0.00000000000E+00 -0.77884216090E+03  0.77884216091E+03  0.25500000920E-02 0. -1.
    10030    2    1    2    0    0  0.00000000000E+00  0.00000000000E+00  0.92281431447E+03  0.24804986363E+04  0.23024524372E+04 0.  0.
        2    1    3    3  502    0 -0.11099372897E+04  0.26990233677E+03  0.30710541408E+03  0.11828447886E+04  0.25500000920E-02 0. -1.
       -2    1    3    3    0  502  0.11099372897E+04 -0.26990233677E+03  0.61570890040E+03  0.12976538477E+04  0.25500000920E-02 0.  1.
</event>
<event>
 5   0  0.2982385E-05  0.2284015E+04  0.7818609E-02  0.8484250E-01
        1   -1    0    0  501    0  0.00000000000E+00  0.00000000000E+00  0.21357270362E+04  0.21357270362E+04  0.50400001928E-02 0. -1.
       -1   -1    0    0    0  501  0.00000000000E+00  0.00000000000E+00 -0.61064989607E+03  0.61064989609E+03  0.50400001928E-02 0.  1.
    10030    2    1    2    0    0  0.00000000000E+00  0.00000000000E+00  0.15250771401E+04  0.27463769323E+04  0.22840153176E+04 0.  0.
        4    1    3    3  502    0 -0.23271912351E+03  0.88860398471E+03  0.15784273863E+04  0.18262556937E+04  0.12699999809E+01 0. -1.
       -4    1    3    3    0  502  0.23271912351E+03 -0.88860398471E+03 -0.53350246136E+02  0.92012123861E+03  0.12699999809E+01 0.  1.
</event>
<event>
 5   0  0.2962279E-05  0.2292579E+04  0.7818609E-02  0.8480853E-01
        1   -1    0    0  501    0  0.00000000000E+00  0.00000000000E+00  0.11359132951E+04  0.11359132951E+04  0.50400001928E-02 0. -1.
       -1   -1    0    0    0  501  0.00000000000E+00  0.00000000000E+00 -0.11567603662E+04  0.11567603662E+04  0.50400001928E-02 0.  1.
    10030    2    1    2    0    0  0.00000000000E+00  0.00000000000E+00 -0.20847071114E+02  0.22926736613E+04  0.22925788791E+04 0.  0.
        1    1    3    3  502    0  0.25108279787E+03 -0.88959266958E+02  0.11045320418E+04  0.11361986420E+04  0.50400001928E-02 0. -1.
       -1    1    3    3    0  502 -0.25108279787E+03  0.88959266958E+02 -0.11253791129E+04  0.11564750194E+04  0.50400001928E-02 0.  1.
</event>
<event>
 5   0  0.2962279E-05  0.2265726E+04  0.7818609E-02  0.8491559E-01
        1   -1    0    0  501    0  0.00000000000E+00  0.00000000000E+00  0.10347579341E+04  0.10347579341E+04  0.50400001928E-02 0. -1.
       -1   -1    0    0    0  501  0.00000000000E+00  0.00000000000E+00 -0.12402689577E+04  0.12402689577E+04  0.50400001928E-02 0.  1.
    10030    2    1    2    0    0  0.00000000000E+00  0.00000000000E+00 -0.20551102361E+03  0.22750268919E+04  0.22657256184E+04 0.  0.
        1    1    3    3  502    0 -0.18095173718E+03  0.54573233232E+03 -0.10828829853E+04  0.12260517402E+04  0.50400001928E-02 0.  1.
       -1    1    3    3    0  502  0.18095173718E+03 -0.54573233232E+03  0.87737196166E+03  0.10489751517E+04  0.50400001928E-02 0. -1.
</event>
<event>
 5   0  0.2944089E-05  0.2339900E+04  0.7818609E-02  0.8462353E-01
       -1   -1    0    0    0  501  0.00000000000E+00  0.00000000000E+00  0.14487179191E+04  0.14487179191E+04  0.50400001928E-02 0. -1.
        1   -1    0    0  501    0  0.00000000000E+00  0.00000000000E+00 -0.94482370558E+03  0.94482370559E+03  0.50400001928E-02 0.  1.
    10030    2    1    2    0    0  0.00000000000E+00  0.00000000000E+00  0.50389421356E+03  0.23935416247E+04  0.23399000258E+04 0.  0.
        5    1    3    3  502    0  0.32144211967E+03 -0.10492200399E+04 -0.16302915874E+03  0.11094089981E+04  0.46999998093E+01 0. -1.
       -5    1    3    3    0  502 -0.32144211967E+03  0.10492200399E+04  0.66692337230E+03  0.12841326267E+04  0.46999998093E+01 0.  1.
</event>
<event>
 5   0  0.6702421E-05  0.2292248E+04  0.7818609E-02  0.8480984E-01
       -2   -1    0    0    0  501  0.00000000000E+00  0.00000000000E+00  0.62719373218E+03  0.62719373218E+03  0.25500000920E-02 0. -1.
        2   -1    0    0  501    0  0.00000000000E+00  0.00000000000E+00 -0.20944092357E+04  0.20944092357E+04  0.25500000920E-02 0.  1.
    10030    2    1    2    0    0  0.00000000000E+00  0.00000000000E+00 -0.14672155036E+04  0.27216029679E+04  0.22922481064E+04 0.  0.
        4    1    3    3  502    0 -0.84390311292E+03 -0.44119491442E+03  0.23642410514E+02  0.95256810412E+03  0.12699999809E+01 0. -1.
       -4    1    3    3    0  502  0.84390311292E+03  0.44119491442E+03 -0.14908579141E+04  0.17690348638E+04  0.12699999809E+01 0.  1.
</event>
<event>
 5   0  0.6468758E-05  0.2294773E+04  0.7818609E-02  0.8479985E-01
        2   -1    0    0  501    0  0.00000000000E+00  0.00000000000E+00  0.15519620697E+04  0.15519620697E+04  0.25500000920E-02 0.  1.
       -2   -1    0    0    0  501  0.00000000000E+00  0.00000000000E+00 -0.84827827220E+03  0.84827827221E+03  0.25500000920E-02 0. -1.
    10030    2    1    2    0    0  0.00000000000E+00  0.00000000000E+00  0.70368379752E+03  0.24002403419E+04  0.22947729326E+04 0.  0.
        3    1    3    3  502    0 -0.10172444929E+03 -0.95175836107E+03  0.10136161975E+04  0.13941340135E+04  0.10100000352E+00 0.  1.
       -3    1    3    3    0  502  0.10172444929E+03  0.95175836107E+03 -0.30993239997E+03  0.10061063285E+04  0.10100000352E+00 0. -1.
</event>
<event>
 5   0  0.6814789E-05  0.2329799E+04  0.7818609E-02  0.8466264E-01
        2   -1    0    0  501    0  0.00000000000E+00  0.00000000000E+00  0.16735241657E+04  0.16735241657E+04  0.25500000920E-02 0.  1.
       -2   -1    0    0    0  501  0.00000000000E+00  0.00000000000E+00 -0.81085810944E+03  0.81085810945E+03  0.25500000920E-02 0. -1.
    10030    2    1    2    0    0  0.00000000000E+00  0.00000000000E+00  0.86266605624E+03  0.24843822751E+04  0.23297988249E+04 0.  0.
        1    1    3    3  502    0  0.94890283110E+03  0.92109339625E+02  0.11451429679E+04  0.14900513851E+04  0.50400001928E-02 0.  1.
       -1    1    3    3    0  502 -0.94890283110E+03 -0.92109339625E+02 -0.28247691161E+03  0.99433089006E+03  0.50400001928E-02 0. -1.
</event>
<event>
 5   0  0.6468758E-05  0.2196788E+04  0.7818609E-02  0.8519766E-01
       -2   -1    0    0    0  501  0.00000000000E+00  0.00000000000E+00  0.87667859381E+03  0.87667859381E+03  0.25500000920E-02 0. -1.
        2   -1    0    0  501    0  0.00000000000E+00  0.00000000000E+00 -0.13761821552E+04  0.13761821552E+04  0.25500000920E-02 0.  1.
    10030    2    1    2    0    0  0.00000000000E+00  0.00000000000E+00 -0.49950356142E+03  0.22528607490E+04  0.21967880523E+04 0.  0.
        3    1    3    3  502    0 -0.28246521628E+03  0.44831974196E+03 -0.12364389970E+04  0.13451983471E+04  0.10100000352E+00 0.  1.
       -3    1    3    3    0  502  0.28246521628E+03 -0.44831974196E+03  0.73693543561E+03  0.90766240194E+03  0.10100000352E+00 0. -1.
</event>
<event>
 5   0  0.6495405E-05  0.2254188E+04  0.7818609E-02  0.8496206E-01
       -2   -1    0    0    0  501  0.00000000000E+00  0.00000000000E+00  0.62394239238E+03  0.62394239239E+03  0.25500000920E-02 0.  1.
        2   -1    0    0  501    0  0.00000000000E+00  0.00000000000E+00 -0.20359908016E+04  0.20359908016E+04  0.25500000920E-02 0. -1.
    10030    2    1    2    0    0  0.00000000000E+00  0.00000000000E+00 -0.14120484092E+04  0.26599331940E+04  0.22541880770E+04 0.  0.
        5    1    3    3  502    0  0.72711841253E+03  0.58985487264E+03  0.34360059217E+02  0.93692724386E+03  0.46999998093E+01 0.  1.
       -5    1    3    3    0  502 -0.72711841253E+03 -0.58985487264E+03 -0.14464084684E+04  0.17230059501E+04  0.46999998093E+01 0. -1.
</event>
<event>
 5   0  0.6495405E-05  0.2456403E+04  0.7818609E-02  0.8418684E-01
       -2   -1    0    0    0  501  0.00000000000E+00  0.00000000000E+00  0.14129951667E+04  0.14129951667E+04  0.25500000920E-02 0.  1.
        2   -1    0    0  501    0  0.00000000000E+00  0.00000000000E+00 -0.10675755559E+04  0.10675755559E+04  0.25500000920E-02 0. -1.
    10030    2    1    2    0    0  0.00000000000E+00  0.00000000000E+00  0.34541961082E+03  0.24805707227E+04  0.24564031433E+04 0.  0.
        5    1    3    3  502    0  0.10684916127E+04  0.49922543123E+03 -0.17352886834E+03  0.11920716068E+04  0.46999998093E+01 0. -1.
       -5    1    3    3    0  502 -0.10684916127E+04 -0.49922543123E+03  0.51894847916E+03  0.12884991159E+04  0.46999998093E+01 0.  1.
</event>
<event>
 5   0  0.2962279E-05  0.2253877E+04  0.7818609E-02  0.8496332E-01
        1   -1    0    0  501    0  0.00000000000E+00  0.00000000000E+00  0.16176980040E+04  0.16176980040E+04  0.50400001928E-02 0.  1.
       -1   -1    0    0    0  501  0.00000000000E+00  0.00000000000E+00 -0.78505994014E+03  0.78505994015E+03  0.50400001928E-02 0. -1.
    10030    2    1    2    0    0  0.00000000000E+00  0.00000000000E+00  0.83263806389E+03  0.24027579442E+04  0.22538765700E+04 0.  0.
        1    1    3    3  502    0  0.12460693399E+02 -0.33707599233E+03 -0.72998304893E+03  0.80414597259E+03  0.50400001928E-02 0. -1.
       -1    1    3    3    0  502 -0.12460693399E+02  0.33707599233E+03  0.15626211128E+04  0.15986119716E+04  0.50400001928E-02 0.  1.
</event>
<event>
 5   0  0.6814789E-05  0.2377546E+04  0.7818609E-02  0.8447958E-01
        2   -1    0    0  501    0  0.00000000000E+00  0.00000000000E+00  0.20310954855E+04  0.20310954855E+04  0.25500000920E-02 0.  1.
       -2   -1    0    0    0  501  0.00000000000E+00  0.00000000000E+00 -0.69577305184E+03  0.69577305184E+03  0.25500000920E-02 0. -1.
    10030    2    1    2    0    0  0.00000000000E+00  0.00000000000E+00  0.13353224337E+04  0.27268685373E+04  0.23775462179E+04 0.  0.
        1    1    3    3  502    0 -0.98346180303E+03 -0.63438614225E+03  0.90697764259E+03  0.14806253205E+04  0.50400001928E-02 0.  1.
       -1    1    3    3    0  502  0.98346180303E+03  0.63438614225E+03  0.42834479107E+03  0.12462432169E+04  0.50400001928E-02 0. -1.
</event>
<event>
 5   0  0.3118614E-05  0.2235097E+04  0.7818609E-02  0.8503960E-01
       -1   -1    0    0    0  501  0.00000000000E+00  0.00000000000E+00  0.11143912928E+04  0.11143912928E+04  0.50400001928E-02 0. -1.
        1   -1    0    0  501    0  0.00000000000E+00  0.00000000000E+00 -0.11207143696E+04  0.11207143696E+04  0.50400001928E-02 0.  1.
    10030    2    1    2    0    0  0.00000000000E+00  0.00000000000E+00 -0.63230767393E+01  0.22351056624E+04  0.22350967184E+04 0.  0.
        3    1    3    3  502    0  0.10734734513E+04  0.16720257045E+03  0.25877914935E+03  0.11168118054E+04  0.10100000352E+00 0. -1.
       -3    1    3    3    0  502 -0.10734734513E+04 -0.16720257045E+03 -0.26510222609E+03  0.11182938571E+04  0.10100000352E+00 0.  1.
</event>
<event>
 5   0  0.3006265E-05  0.2285795E+04  0.7818609E-02  0.8483543E-01
        1   -1    0    0  501    0  0.00000000000E+00  0.00000000000E+00  0.89230635128E+03  0.89230635129E+03  0.50400001928E-02 0.  1.
       -1   -1    0    0    0  501  0.00000000000E+00  0.00000000000E+00 -0.14638640477E+04  0.14638640477E+04  0.50400001928E-02 0. -1.
    10030    2    1    2    0    0  0.00000000000E+00  0.00000000000E+00 -0.57155769641E+03  0.23561703990E+04  0.22857954302E+04 0.  0.
        2    1    3    3  502    0 -0.22129545490E+03 -0.25396132229E+03 -0.14115329297E+04  0.14511696122E+04  0.25500000920E-02 0. -1.
       -2    1    3    3    0  502  0.22129545490E+03  0.25396132229E+03  0.83997523331E+03  0.90500078683E+03  0.25500000920E-02 0.  1.
</event>
<event>
 5   0  0.2982385E-05  0.2348799E+04  0.7818609E-02  0.8458925E-01
        1   -1    0    0  501    0  0.00000000000E+00  0.00000000000E+00  0.21152644927E+04  0.21152644927E+04  0.50400001928E-02 0. -1.
       -1   -1    0    0    0  501  0.00000000000E+00  0.00000000000E+00 -0.65202903000E+03  0.65202903002E+03  0.50400001928E-02 0.  1.
    10030    2    1    2    0    0  0.00000000000E+00  0.00000000000E+00  0.14632354627E+04  0.27672935227E+04  0.23487987188E+04 0.  0.
        4    1    3    3  502    0 -0.10599777774E+04  0.15135504754E+03  0.13000192194E+04  0.16841950073E+04  0.12699999809E+01 0. -1.
       -4    1    3    3    0  502  0.10599777774E+04 -0.15135504754E+03  0.16321624332E+03  0.10830985154E+04  0.12699999809E+01 0.  1.
</event>
<event>
 5   0  0.6702421E-05  0.2284309E+04  0.7818609E-02  0.8484134E-01
       -2   -1    0    0    0  501  0.00000000000E+00  0.00000000000E+00  0.13376646816E+04  0.13376646816E+04  0.25500000920E-02 0.  1.
        2   -1    0    0  501    0  0.00000000000E+00  0.00000000000E+00 -0.97521926984E+03  0.97521926984E+03  0.25500000920E-02 0. -1.
    10030    2    1    2    0    0  0.00000000000E+00  0.00000000000E+00  0.36244541175E+03  0.23128839514E+04  0.22843085379E+04 0.  0.
        4    1    3    3  502    0  0.88843847652E+03 -0.71419818379E+03  0.25362094609E+03  0.11677872963E+04  0.12699999809E+01 0.  1.
       -4    1    3    3    0  502 -0.88843847652E+03  0.71419818379E+03  0.10882446566E+03  0.11450966551E+04  0.12699999809E+01 0. -1.
</event>
<event>
 5   0  0.2944089E-05  0.2459660E+04  0.7818609E-02  0.8417499E-01
        1   -1    0    0  501    0  0.00000000000E+00  0.00000000000E+00  0.14447216740E+04  0.14447216741E+04  0.50400001928E-02 0. -1.
       -1   -1    0    0    0  501  0.00000000000E+00  0.00000000000E+00 -0.10469022918E+04  0.10469022919E+04  0.50400001928E-02 0.  1.
    10030    2    1    2    0    0  0.00000000000E+00  0.00000000000E+00  0.39781938220E+03  0.24916239659E+04  0.24596604901E+04 0.  0.
        5    1    3    3  502    0 -0.99894442875E+03  0.21538451003E+03  0.89203811490E+03  0.13564787309E+04  0.46999998093E+01 0.  1.
       -5    1    3    3    0  502  0.99894442875E+03 -0.21538451003E+03 -0.49421873269E+03  0.11351452350E+04  0.46999998093E+01 0. -1.
</event>
<event>
 5   0  0.2944089E-05  0.2317569E+04  0.7818609E-02  0.8471026E-01
        1   -1    0    0  501    0  0.00000000000E+00  0.00000000000E+00  0.97039025151E+03  0.97039025152E+03  0.50400001928E-02 0. -1.
       -1   -1    0    0    0  501  0.00000000000E+00  0.00000000000E+00 -0.13837535726E+04  0.13837535726E+04  0.50400001928E-02 0.  1.
    10030    2    1    2    0    0  0.00000000000E+00  0.00000000000E+00 -0.41336332106E+03  0.23541438241E+04  0.23175685339E+04 0.  0.
        5    1    3    3  502    0  0.73958371136E+03 -0.88946813313E+03 -0.27573436175E+03  0.11891968526E+04  0.46999998093E+01 0. -1.
       -5    1    3    3    0  502 -0.73958371136E+03  0.88946813313E+03 -0.13762895931E+03  0.11649469715E+04  0.46999998093E+01 0.  1.
</event>
<event>
 5   0  0.2944089E-05  0.2233823E+04  0.7818609E-02  0.8504481E-01
        1   -1    0    0  501    0  0.00000000000E+00  0.00000000000E+00  0.90844910104E+03  0.90844910105E+03  0.50400001928E-02 0.  1.
       -1   -1    0    0    0  501  0.00000000000E+00  0.00000000000E+00 -0.13732103549E+04  0.13732103549E+04  0.50400001928E-02 0. -1.
    10030    2    1    2    0    0  0.00000000000E+00  0.00000000000E+00 -0.46476125386E+03  0.22816594560E+04  0.22338233703E+04 0.  0.
        5    1    3    3  502    0 -0.90393863342E+03 -0.52367030428E+03 -0.63598021368E+03  0.12230407036E+04  0.46999998093E+01 0. -1.
       -5    1    3    3    0  502  0.90393863342E+03  0.52367030428E+03  0.17121895982E+03  0.10586187523E+04  0.46999998093E+01 0.  1.
</event>
<event>
 5   0  0.6495405E-05  0.2309718E+04  0.7818609E-02  0.8474099E-01
        2   -1    0    0  501    0  0.00000000000E+00  0.00000000000E+00  0.15158694121E+04  0.15158694121E+04  0.25500000920E-02 0. -1.
       -2   -1    0    0    0  501  0.00000000000E+00  0.00000000000E+00 -0.87982432019E+03  0.87982432019E+03  0.25500000920E-02 0.  1.
    10030    2    1    2    0    0  0.00000000000E+00  0.00000000000E+00  0.63604509193E+03  0.23956937323E+04  0.23097175369E+04 0.  0.
        5    1    3    3  502    0 -0.80905554667E+03 -0.59234055505E+03  0.91226977798E+03  0.13556166304E+04  0.46999998093E+01 0. -1.
       -5    1    3    3    0  502  0.80905554667E+03  0.59234055505E+03 -0.27622468606E+03  0.10400771019E+04  0.46999998093E+01 0.  1.
</event>
<event>
 5   0  0.6814789E-05  0.2243389E+04  0.7818609E-02  0.8500583E-01
       -2   -1    0    0    0  501  0.00000000000E+00  0.00000000000E+00  0.60584196315E+03  0.60584196315E+03  0.25500000920E-02 0.  1.
        2   -1    0    0  501    0  0.00000000000E+00  0.00000000000E+00 -0.20767759664E+04  0.20767759664E+04  0.25500000920E-02 0. -1.
    10030    2    1    2    0    0  0.00000000000E+00  0.00000000000E+00 -0.14709340032E+04  0.26826179295E+04  0.22433885339E+04 0.  0.
        1    1    3    3  502    0 -0.10028299550E+04 -0.40768323383E+03 -0.10868019391E+04  0.15339530608E+04  0.50400001928E-02 0. -1.
       -1    1    3    3    0  502  0.10028299550E+04  0.40768323383E+03 -0.38413206407E+03  0.11486648687E+04  0.50400001928E-02 0.  1.
</event>
<event>
 5   0  0.3006265E-05  0.2304530E+04  0.7818609E-02  0.8476137E-01
        1   -1    0    0  501    0  0.00000000000E+00  0.00000000000E+00  0.16077284513E+04  0.16077284513E+04  0.50400001928E-02 0.  1.
       -1   -1    0    0    0  501  0.00000000000E+00  0.00000000000E+00 -0.82583284262E+03  0.82583284264E+03  0.50400001928E-02 0. -1.
    10030    2    1    2    0    0  0.00000000000E+00  0.00000000000E+00  0.78189560863E+03  0.24335612939E+04  0.23045302837E+04 0.  0.
        2    1    3    3  502    0  0.49700538681E+03  0.50445317368E+03 -0.56891622842E+03  0.90837934473E+03  0.25500000920E-02 0. -1.
       -2    1    3    3    0  502 -0.49700538681E+03 -0.50445317368E+03  0.13508118371E+04  0.15251819492E+04  0.25500000920E-02 0.  1.
</event>
<event>
 5   0  0.6495405E-05  0.1767558E+04  0.7818609E-02  0.8723745E-01
        2   -1    0    0  501    0  0.00000000000E+00  0.00000000000E+00  0.14022175435E+04  0.14022175435E+04  0.25500000920E-02 0. -1.
       -2   -1    0    0    0  501  0.00000000000E+00  0.00000000000E+00 -0.55702153351E+03  0.55702153352E+03  0.25500000920E-02 0.  1.
    10030    2    1    2    0    0  0.00000000000E+00  0.00000000000E+00  0.84519600995E+03  0.19592390770E+04  0.17675580515E+04 0.  0.
        5    1    3    3  502    0 -0.67710633400E+03 -0.38178675675E+03  0.88868408215E+03  0.11806843791E+04  0.46999998093E+01 0. -1.
       -5    1    3    3    0  502  0.67710633400E+03  0.38178675675E+03 -0.43488072209E+02  0.77855469788E+03  0.46999998093E+01 0.  1.
</event>
<event>
 5   0  0.6814789E-05  0.2272557E+04  0.7818609E-02  0.8488821E-01
       -2   -1    0    0    0  501  0.00000000000E+00  0.00000000000E+00  0.77361589863E+03  0.77361589864E+03  0.25500000920E-02 0.  1.
        2   -1    0    0  501    0  0.00000000000E+00  0.00000000000E+00 -0.16689526465E+04  0.16689526465E+04  0.25500000920E-02 0. -1.
    10030    2    1    2    0    0  0.00000000000E+00  0.00000000000E+00 -0.89533674787E+03  0.24425685451E+04  0.22725565352E+04 0.  0.
        1    1    3    3  502    0  0.10182698316E+04  0.22500978073E+03  0.37338721910E+02  0.10435022911E+04  0.50400001928E-02 0.  1.
       -1    1    3    3    0  502 -0.10182698316E+04 -0.22500978073E+03 -0.93267546978E+03  0.13990662541E+04  0.50400001928E-02 0. -1.
</event>
<event>
 5   0  0.6814789E-05  0.2314936E+04  0.7818609E-02  0.8472055E-01
        2   -1    0    0  501    0  0.00000000000E+00  0.00000000000E+00  0.16424903347E+04  0.16424903347E+04  0.25500000920E-02 0.  1.
       -2   -1    0    0    0  501  0.00000000000E+00  0.00000000000E+00 -0.81567146164E+03  0.81567146164E+03  0.25500000920E-02 0. -1.
    10030    2    1    2    0    0  0.00000000000E+00  0.00000000000E+00  0.82681887310E+03  0.24581617964E+04  0.23149362774E+04 0.  0.
        1    1    3    3  502    0 -0.22708899656E+03 -0.71808130749E+03 -0.51990275895E+03  0.91515520832E+03  0.50400001928E-02 0. -1.
       -1    1    3    3    0  502  0.22708899656E+03  0.71808130749E+03  0.13467216320E+04  0.15430065881E+04  0.50400001928E-02 0.  1.
</event>
<event>
 5   0  0.6468758E-05  0.2168134E+04  0.7818609E-02  0.8531810E-01
        2   -1    0    0  501    0  0.00000000000E+00  0.00000000000E+00  0.12355873489E+04  0.12355873489E+04  0.25500000920E-02 0.  1.
       -2   -1    0    0    0  501  0.00000000000E+00  0.00000000000E+00 -0.95112774320E+03  0.95112774321E+03  0.25500000920E-02 0. -1.
    10030    2    1    2    0    0  0.00000000000E+00  0.00000000000E+00  0.28445960570E+03  0.21867150921E+04  0.21681341349E+04 0.  0.
        3    1    3    3  502    0  0.24469268220E+03 -0.10555696400E+04  0.17567455073E+03  0.10977082179E+04  0.10100000352E+00 0. -1.
       -3    1    3    3    0  502 -0.24469268220E+03  0.10555696400E+04  0.10878505496E+03  0.10890068742E+04  0.10100000352E+00 0.  1.
</event>
<event>
 5   0  0.2982385E-05  0.2314915E+04  0.7818609E-02  0.8472063E-01
        1   -1    0    0  501    0  0.00000000000E+00  0.00000000000E+00  0.13417951706E+04  0.13417951706E+04  0.50400001928E-02 0. -1.
       -1   -1    0    0    0  501  0.00000000000E+00  0.00000000000E+00 -0.99844434944E+03  0.99844434946E+03  0.50400001928E-02 0.  1.
    10030    2    1    2    0    0  0.00000000000E+00  0.00000000000E+00  0.34335082118E+03  0.23402395201E+04  0.23149149498E+04 0.  0.
        4    1    3    3  502    0 -0.20482722713E+03  0.11391891583E+04  0.17192711539E+03  0.11701566892E+04  0.12699999809E+01 0. -1.
       -4    1    3    3    0  502  0.20482722713E+03 -0.11391891583E+04  0.17142370579E+03  0.11700828309E+04  0.12699999809E+01 0.  1.
</event>
<event>
 5   0  0.2982385E-05  0.2321521E+04  0.7818609E-02  0.8469484E-01
        1   -1    0    0  501    0  0.00000000000E+00  0.00000000000E+00  0.82417889756E+03  0.82417889758E+03  0.50400001928E-02 0.  1.
       -1   -1    0    0    0  501  0.00000000000E+00  0.00000000000E+00 -0.16347960821E+04  0.16347960821E+04  0.50400001928E-02 0. -1.
    10030    2    1    2    0    0  0.00000000000E+00  0.00000000000E+00 -0.81061718456E+03  0.24589749797E+04  0.23215205644E+04 0.  0.
        4    1    3    3  502    0 -0.38685753185E+03 -0.83290117325E+03 -0.11572570950E+04  0.14773722318E+04  0.12699999809E+01 0. -1.
       -4    1    3    3    0  502  0.38685753185E+03  0.83290117325E+03  0.34663991045E+03  0.98160274794E+03  0.12699999809E+01 0.  1.
</event>
<event>
 5   0  0.2962279E-05  0.2309136E+04  0.7818609E-02  0.8474328E-01
        1   -1    0    0  501    0  0.00000000000E+00  0.00000000000E+00  0.20905661849E+04  0.20905661849E+04  0.50400001928E-02 0.  1.
       -1   -1    0    0    0  501  0.00000000000E+00  0.00000000000E+00 -0.63763923747E+03  0.63763923749E+03  0.50400001928E-02 0. -1.
    10030    2    1    2    0    0  0.00000000000E+00  0.00000000000E+00  0.14529269474E+04  0.27282054223E+04  0.23091357933E+04 0.  0.
        1    1    3    3  502    0  0.11046139011E+04 -0.13082047968E+03  0.36088809720E+03  0.11694127104E+04  0.50400001928E-02 0. -1.
       -1    1    3    3    0  502 -0.11046139011E+04  0.13082047968E+03  0.10920388502E+04  0.15587927120E+04  0.50400001928E-02 0.  1.
</event>
<event>
 5   0  0.6495405E-05  0.2281238E+04  0.7818609E-02  0.8485355E-01
       -2   -1    0    0    0  501  0.00000000000E+00  0.00000000000E+00  0.70763447420E+03  0.70763447421E+03  0.25500000920E-02 0. -1.
        2   -1    0    0  501    0  0.00000000000E+00  0.00000000000E+00 -0.18385371424E+04  0.18385371424E+04  0.25500000920E-02 0.  1.
    10030    2    1    2    0    0  0.00000000000E+00  0.00000000000E+00 -0.11309026682E+04  0.25461716166E+04  0.22812384918E+04 0.  0.
        5    1    3    3  502    0  0.40816089718E+02 -0.47005995695E+03 -0.17244967375E+04  0.17878851764E+04  0.46999998093E+01 0.  1.
       -5    1    3    3    0  502 -0.40816089718E+02  0.47005995695E+03  0.59359406930E+03  0.75828644022E+03  0.46999998093E+01 0. -1.
</event>
<event>
 5   0  0.2962279E-05  0.2269312E+04  0.7818609E-02  0.8490120E-01
       -1   -1    0    0    0  501  0.00000000000E+00  0.00000000000E+00  0.89027483312E+03  0.89027483313E+03  0.50400001928E-02 0.  1.
        1   -1    0    0  501    0  0.00000000000E+00  0.00000000000E+00 -0.14461200500E+04  0.14461200500E+04  0.50400001928E-02 0. -1.
    10030    2    1    2    0    0  0.00000000000E+00  0.00000000000E+00 -0.55584521691E+03  0.23363948832E+04  0.22693120422E+04 0.  0.
        1    1    3    3  502    0 -0.75905106979E+03 -0.47713107059E+03  0.43807143424E+03  0.99785728768E+03  0.50400001928E-02 0.  1.
       -1    1    3    3    0  502  0.75905106979E+03  0.47713107059E+03 -0.99391665114E+03  0.13385375955E+04  0.50400001928E-02 0. -1.
</event>
<event>
 5   0  0.6495405E-05  0.2288618E+04  0.7818609E-02  0.8482423E-01
        2   -1    0    0  501    0  0.00000000000E+00  0.00000000000E+00  0.13639246940E+04  0.13639246940E+04  0.25500000920E-02 0. -1.
       -2   -1    0    0    0  501  0.00000000000E+00  0.00000000000E+00 -0.96005502260E+03  0.96005502260E+03  0.25500000920E-02 0.  1.
    10030    2    1    2    0    0  0.00000000000E+00  0.00000000000E+00  0.40386967137E+03  0.23239797166E+04  0.22886177076E+04 0.  0.
        5    1    3    3  502    0 -0.10437536755E+04 -0.82349867129E+02  0.67082425057E+03  0.12434751710E+04  0.46999998093E+01 0. -1.
       -5    1    3    3    0  502  0.10437536755E+04  0.82349867129E+02 -0.26695457920E+03  0.10805045456E+04  0.46999998093E+01 0.  1.
</event>
<event>
 5   0  0.6814789E-05  0.2300250E+04  0.7818609E-02  0.8477823E-01
        2   -1    0    0  501    0  0.00000000000E+00  0.00000000000E+00  0.15523769806E+04  0.15523769806E+04  0.25500000920E-02 0.  1.
       -2   -1    0    0    0  501  0.00000000000E+00  0.00000000000E+00 -0.85210420828E+03  0.85210420828E+03  0.25500000920E-02 0. -1.
    10030    2    1    2    0    0  0.00000000000E+00  0.00000000000E+00  0.70027277235E+03  0.24044811889E+04  0.23002495152E+04 0.  0.
        1    1    3    3  502    0 -0.85997631024E+03 -0.70126104837E+03  0.34007946411E+02  0.11101724427E+04  0.50400001928E-02 0. -1.
       -1    1    3    3    0  502  0.85997631024E+03  0.70126104837E+03  0.66626482593E+03  0.12943087462E+04  0.50400001928E-02 0.  1.
</event>
<event>
 5   0  0.6702421E-05  0.2338344E+04  0.7818609E-02  0.8462954E-01
        2   -1    0    0  501    0  0.00000000000E+00  0.00000000000E+00  0.92459750444E+03  0.92459750444E+03  0.25500000920E-02 0. -1.
       -2   -1    0    0    0  501  0.00000000000E+00  0.00000000000E+00 -0.14784411581E+04  0.14784411581E+04  0.25500000920E-02 0.  1.
    10030    2    1    2    0    0  0.00000000000E+00  0.00000000000E+00 -0.55384365362E+03  0.24030386625E+04  0.23383438628E+04 0.  0.
        4    1    3    3  502    0  0.73269581376E+03 -0.13336690378E+03  0.64930857256E+03  0.98804510111E+03  0.12699999809E+01 0. -1.
       -4    1    3    3    0  502 -0.73269581376E+03  0.13336690378E+03 -0.12031522262E+04  0.14149935614E+04  0.12699999809E+01 0.  1.
</event>
<event>
 5   0  0.6495405E-05  0.2334033E+04  0.7818609E-02  0.8464622E-01
       -2   -1    0    0    0  501  0.00000000000E+00  0.00000000000E+00  0.81720990025E+03  0.81720990026E+03  0.25500000920E-02 0. -1.
        2   -1    0    0  501    0  0.00000000000E+00  0.00000000000E+00 -0.16665576487E+04  0.16665576487E+04  0.25500000920E-02 0.  1.
    10030    2    1    2    0    0  0.00000000000E+00  0.00000000000E+00 -0.84934774842E+03  0.24837675489E+04  0.23340329131E+04 0.  0.
        5    1    3    3  502    0  0.88907186849E+03  0.74892527085E+03 -0.31528088019E+03  0.12044758080E+04  0.46999998093E+01 0. -1.
       -5    1    3    3    0  502 -0.88907186849E+03 -0.74892527085E+03 -0.53406686822E+03  0.12792917409E+04  0.46999998093E+01 0.  1.
</event>
<event>
 5   0  0.2982385E-05  0.2075009E+04  0.7818609E-02  0.8572333E-01
        1   -1    0    0  501    0  0.00000000000E+00  0.00000000000E+00  0.72704552353E+03  0.72704552355E+03  0.50400001928E-02 0. -1.
       -1   -1    0    0    0  501  0.00000000000E+00  0.00000000000E+00 -0.14805339996E+04  0.14805339996E+04  0.50400001928E-02 0.  1.
    10030    2    1    2    0    0  0.00000000000E+00  0.00000000000E+00 -0.75348847611E+03  0.22075795232E+04  0.20750090283E+04 0.  0.
        4    1    3    3  502    0  0.26876667966E+03 -0.81691787718E+03  0.24069988363E+03  0.89304445188E+03  0.12699999809E+01 0. -1.
       -4    1    3    3    0  502 -0.26876667966E+03  0.81691787718E+03 -0.99418835974E+03  0.13145350713E+04  0.12699999809E+01 0.  1.
</event>
<event>
 5   0  0.6814789E-05  0.2275956E+04  0.7818609E-02  0.8487462E-01
        2   -1    0    0  501    0  0.00000000000E+00  0.00000000000E+00  0.66224201619E+03  0.66224201620E+03  0.25500000920E-02 0.  1.
       -2   -1    0    0    0  501  0.00000000000E+00  0.00000000000E+00 -0.19554701467E+04  0.19554701467E+04  0.25500000920E-02 0. -1.
    10030    2    1    2    0    0  0.00000000000E+00  0.00000000000E+00 -0.12932281305E+04  0.26177121629E+04  0.22759564957E+04 0.  0.
        1    1    3    3  502    0  0.10069959209E+04 -0.52745121924E+03 -0.70691706513E+03  0.13386475677E+04  0.50400001928E-02 0.  1.
       -1    1    3    3    0  502 -0.10069959209E+04  0.52745121924E+03 -0.58631106538E+03  0.12790645952E+04  0.50400001928E-02 0. -1.
</event>
<event>
 5   0  0.2982385E-05  0.2361551E+04  0.7818609E-02  0.8454040E-01
       -1   -1    0    0    0  501  0.00000000000E+00  0.00000000000E+00  0.11123868168E+04  0.11123868168E+04  0.50400001928E-02 0. -1.
        1   -1    0    0  501    0  0.00000000000E+00  0.00000000000E+00 -0.12533683602E+04  0.12533683602E+04  0.50400001928E-02 0.  1.
    10030    2    1    2    0    0  0.00000000000E+00  0.00000000000E+00 -0.14098154339E+03  0.23657551770E+04  0.23615507113E+04 0.  0.
        4    1    3    3  502    0 -0.49046020929E+03 -0.77086321487E+03  0.67880312936E+03  0.11382252037E+04  0.12699999809E+01 0. -1.
       -4    1    3    3    0  502  0.49046020929E+03  0.77086321487E+03 -0.81978467275E+03  0.12275299734E+04  0.12699999809E+01 0.  1.
</event>
<event>
 5   0  0.3006265E-05  0.2185915E+04  0.7818609E-02  0.8524314E-01
        1   -1    0    0  501    0  0.00000000000E+00  0.00000000000E+00  0.15854145521E+04  0.15854145521E+04  0.50400001928E-02 0.  1.
       -1   -1    0    0    0  501  0.00000000000E+00  0.00000000000E+00 -0.75346603749E+03  0.75346603751E+03  0.50400001928E-02 0. -1.
    10030    2    1    2    0    0  0.00000000000E+00  0.00000000000E+00  0.83194851462E+03  0.23388805896E+04  0.21859149301E+04 0.  0.
        2    1    3    3  502    0  0.10103966217E+03 -0.20757476845E+03  0.15590290225E+04  0.15760291212E+04  0.25500000920E-02 0.  1.
       -2    1    3    3    0  502 -0.10103966217E+03  0.20757476845E+03 -0.72708050792E+03  0.76285146840E+03  0.25500000920E-02 0. -1.
</event>
<event>
 5   0  0.2342500E-05  0.2284610E+04  0.7818609E-02  0.8484014E-01
        4   -1    0    0  501    0  0.00000000000E+00  0.00000000000E+00  0.11584475953E+04  0.11584482914E+04  0.12699999809E+01 0. -1.
       -4   -1    0    0    0  501  0.00000000000E+00  0.00000000000E+00 -0.11263860417E+04  0.11263867576E+04  0.12699999809E+01 0.  1.
    10030    2    1    2    0    0  0.00000000000E+00  0.00000000000E+00  0.32061553626E+02  0.22848350491E+04  0.22846100889E+04 0.  0.
        5    1    3    3  502    0 -0.14233062864E+03  0.85415708096E+03 -0.72902338331E+03  0.11319626806E+04  0.46999998093E+01 0.  1.
       -5    1    3    3    0  502  0.14233062864E+03 -0.85415708096E+03  0.76108493693E+03  0.11528723685E+04  0.46999998093E+01 0. -1.
</event>
<event>
 5   0  0.2962279E-05  0.2306924E+04  0.7818609E-02  0.8475196E-01
       -1   -1    0    0    0  501  0.00000000000E+00  0.00000000000E+00  0.88663031786E+03  0.88663031788E+03  0.50400001928E-02 0. -1.
        1   -1    0    0  501    0  0.00000000000E+00  0.00000000000E+00 -0.15005973528E+04  0.15005973528E+04  0.50400001928E-02 0.  1.
    10030    2    1    2    0    0  0.00000000000E+00  0.00000000000E+00 -0.61396703493E+03  0.23872276707E+04  0.23069244530E+04 0.  0.
        1    1    3    3  502    0  0.88934865475E+03  0.27977690844E+03 -0.10097853332E+04  0.13743662421E+04  0.50400001928E-02 0.  1.
       -1    1    3    3    0  502 -0.88934865475E+03 -0.27977690844E+03  0.39581829830E+03  0.10128614286E+04  0.50400001928E-02 0. -1.
</event>
<event>
 5   0  0.2982385E-05  0.2272257E+04  0.7818609E-02  0.8488941E-01
       -1   -1    0    0    0  501  0.00000000000E+00  0.00000000000E+00  0.86042769712E+03  0.86042769713E+03  0.50400001928E-02 0.  1.
        1   -1    0    0  501    0  0.00000000000E+00  0.00000000000E+00 -0.15001696056E+04  0.15001696056E+04  0.50400001928E-02 0. -1.
    10030    2    1    2    0    0  0.00000000000E+00  0.00000000000E+00 -0.63974190849E+03  0.23605973027E+04  0.22722565692E+04 0.  0.
        4    1    3    3  502    0 -0.10209930824E+04  0.77940824793E+02 -0.83123136627E+03  0.13188816640E+04  0.12699999809E+01 0. -1.
       -4    1    3    3    0  502  0.10209930824E+04 -0.77940824793E+02  0.19148945779E+03  0.10417156387E+04  0.12699999809E+01 0.  1.
</event>
<event>
 5   0  0.6702421E-05  0.2342097E+04  0.7818609E-02  0.8461505E-01
       -2   -1    0    0    0  501  0.00000000000E+00  0.00000000000E+00  0.86233821824E+03  0.86233821825E+03  0.25500000920E-02 0.  1.
        2   -1    0    0  501    0  0.00000000000E+00  0.00000000000E+00 -0.15902748487E+04  0.15902748487E+04  0.25500000920E-02 0. -1.
    10030    2    1    2    0    0  0.00000000000E+00  0.00000000000E+00 -0.72793663046E+03  0.24526130670E+04  0.23420971624E+04 0.  0.
        4    1    3    3  502    0 -0.25663430316E+03  0.68981840880E+03 -0.13177953822E+04  0.15094028239E+04  0.12699999809E+01 0. -1.
       -4    1    3    3    0  502  0.25663430316E+03 -0.68981840880E+03  0.58985875172E+03  0.94321024303E+03  0.12699999809E+01 0.  1.
</event>
<event>
 5   0  0.6702421E-05  0.2376651E+04  0.7818609E-02  0.8448297E-01
       -2   -1    0    0    0  501  0.00000000000E+00  0.00000000000E+00  0.99753358195E+03  0.99753358195E+03  0.25500000920E-02 0.  1.
        2   -1    0    0  501    0  0.00000000000E+00  0.00000000000E+00 -0.14156093115E+04  0.14156093115E+04  0.25500000920E-02 0. -1.
    10030    2    1    2    0    0  0.00000000000E+00  0.00000000000E+00 -0.41807572952E+03  0.24131428934E+04  0.23766512804E+04 0.  0.
        4    1    3    3  502    0 -0.77916958072E+02 -0.11819778072E+04 -0.30522157736E+03  0.12232352240E+04  0.12699999809E+01 0. -1.
       -4    1    3    3    0  502  0.77916958072E+02  0.11819778072E+04 -0.11285415217E+03  0.11899076694E+04  0.12699999809E+01 0.  1.
</event>
<event>
 5   0  0.2944089E-05  0.2172178E+04  0.7818609E-02  0.8530098E-01
        1   -1    0    0  501    0  0.00000000000E+00  0.00000000000E+00  0.12127405021E+04  0.12127405021E+04  0.50400001928E-02 0.  1.
       -1   -1    0    0    0  501  0.00000000000E+00  0.00000000000E+00 -0.97266455624E+03  0.97266455625E+03  0.50400001928E-02 0. -1.
    10030    2    1    2    0    0  0.00000000000E+00  0.00000000000E+00  0.24007594585E+03  0.21854050584E+04  0.21721783558E+04 0.  0.
        5    1    3    3  502    0 -0.51985663254E+03 -0.92022737800E+03  0.37155677071E+03  0.11203329280E+04  0.46999998093E+01 0. -1.
       -5    1    3    3    0  502  0.51985663254E+03  0.92022737800E+03 -0.13148082485E+03  0.10650721304E+04  0.46999998093E+01 0.  1.
</event>
<event>
 5   0  0.6676612E-05  0.2164270E+04  0.7818609E-02  0.8533449E-01
       -2   -1    0    0    0  501  0.00000000000E+00  0.00000000000E+00  0.82957310681E+03  0.82957310681E+03  0.25500000920E-02 0.  1.
        2   -1    0    0  501    0  0.00000000000E+00  0.00000000000E+00 -0.14115886079E+04  0.14115886079E+04  0.25500000920E-02 0. -1.
    10030    2    1    2    0    0  0.00000000000E+00  0.00000000000E+00 -0.58201550107E+03  0.22411617147E+04  0.21642698048E+04 0.  0.
        2    1    3    3  502    0 -0.65842890398E+03 -0.80835634873E+03  0.92012980182E+01  0.10426184691E+04  0.25500000920E-02 0. -1.
       -2    1    3    3    0  502  0.65842890398E+03  0.80835634873E+03 -0.59121679908E+03  0.11985432456E+04  0.25500000920E-02 0.  1.
</event>
<event>
 5   0  0.2944089E-05  0.2064732E+04  0.7818609E-02  0.8576940E-01
        1   -1    0    0  501    0  0.00000000000E+00  0.00000000000E+00  0.81846324896E+03  0.81846324898E+03  0.50400001928E-02 0.  1.
       -1   -1    0    0    0  501  0.00000000000E+00  0.00000000000E+00 -0.13021721004E+04  0.13021721004E+04  0.50400001928E-02 0. -1.
    10030    2    1    2    0    0  0.00000000000E+00  0.00000000000E+00 -0.48370885142E+03  0.21206353494E+04  0.20647324359E+04 0.  0.
        5    1    3    3  502    0 -0.34551497468E+03 -0.54504021533E+02  0.75573463594E+03  0.83277140684E+03  0.46999998093E+01 0.  1.
       -5    1    3    3    0  502  0.34551497468E+03  0.54504021533E+02 -0.12394434874E+04  0.12878639425E+04  0.46999998093E+01 0. -1.
</event>
<event>
 5   0  0.6814789E-05  0.2332955E+04  0.7818609E-02  0.8465040E-01
        2   -1    0    0  501    0  0.00000000000E+00  0.00000000000E+00  0.23293639736E+04  0.23293639736E+04  0.25500000920E-02 0. -1.
       -2   -1    0    0    0  501  0.00000000000E+00  0.00000000000E+00 -0.58413803791E+03  0.58413803792E+03  0.25500000920E-02 0.  1.
    10030    2    1    2    0    0  0.00000000000E+00  0.00000000000E+00  0.17452259357E+04  0.29135020115E+04  0.23329552941E+04 0.  0.
        1    1    3    3  502    0 -0.91282246349E+03  0.28796283772E+03  0.17052315239E+04  0.19555004464E+04  0.50400001928E-02 0. -1.
       -1    1    3    3    0  502  0.91282246349E+03 -0.28796283772E+03  0.39994411784E+02  0.95800156511E+03  0.50400001928E-02 0.  1.
</event>
<event>
 5   0  0.6702421E-05  0.2234752E+04  0.7818609E-02  0.8504101E-01
       -2   -1    0    0    0  501  0.00000000000E+00  0.00000000000E+00  0.52762442138E+03  0.52762442138E+03  0.25500000920E-02 0.  1.
        2   -1    0    0  501    0  0.00000000000E+00  0.00000000000E+00 -0.23663225487E+04  0.23663225487E+04  0.25500000920E-02 0. -1.
    10030    2    1    2    0    0  0.00000000000E+00  0.00000000000E+00 -0.18386981273E+04  0.28939469700E+04  0.22347523939E+04 0.  0.
        4    1    3    3  502    0 -0.55699090491E+03 -0.52352049768E+03  0.13604736188E+03  0.77641681925E+03  0.12699999809E+01 0.  1.
       -4    1    3    3    0  502  0.55699090491E+03  0.52352049768E+03 -0.19747454892E+04  0.21175301508E+04  0.12699999809E+01 0. -1.
</event>
<event>
 5   0  0.2944089E-05  0.2308727E+04  0.7818609E-02  0.8474488E-01
       -1   -1    0    0    0  501  0.00000000000E+00  0.00000000000E+00  0.63058109102E+03  0.63058109104E+03  0.50400001928E-02 0.  1.
        1   -1    0    0  501    0  0.00000000000E+00  0.00000000000E+00 -0.21132184748E+04  0.21132184748E+04  0.50400001928E-02 0. -1.
    10030    2    1    2    0    0  0.00000000000E+00  0.00000000000E+00 -0.14826373838E+04  0.27437995659E+04  0.23087274516E+04 0.  0.
        5    1    3    3  502    0  0.77552587894E+03  0.83621420140E+03 -0.52925855887E+03  0.12573111356E+04  0.46999998093E+01 0.  1.
       -5    1    3    3    0  502 -0.77552587894E+03 -0.83621420140E+03 -0.95337882494E+03  0.14864884303E+04  0.46999998093E+01 0. -1.
</event>
<event>
 5   0  0.6702421E-05  0.2300927E+04  0.7818609E-02  0.8477556E-01
       -2   -1    0    0    0  501  0.00000000000E+00  0.00000000000E+00  0.13530242065E+04  0.13530242065E+04  0.25500000920E-02 0. -1.
        2   -1    0    0  501    0  0.00000000000E+00  0.00000000000E+00 -0.97822821872E+03  0.97822821873E+03  0.25500000920E-02 0.  1.
    10030    2    1    2    0    0  0.00000000000E+00  0.00000000000E+00  0.37479598780E+03  0.23312524253E+04  0.23009271692E+04 0.  0.
        4    1    3    3  502    0 -0.63077156779E+03  0.65412688936E+03  0.90225351463E+03  0.12805536989E+04  0.12699999809E+01 0. -1.
       -4    1    3    3    0  502  0.63077156779E+03 -0.65412688936E+03 -0.52745752683E+03  0.10506987264E+04  0.12699999809E+01 0.  1.
</event>
<event>
 5   0  0.6495405E-05  0.2306486E+04  0.7818609E-02  0.8475368E-01
       -2   -1    0    0    0  501  0.00000000000E+00  0.00000000000E+00  0.11211533287E+04  0.11211533287E+04  0.25500000920E-02 0. -1.
        2   -1    0    0  501    0  0.00000000000E+00  0.00000000000E+00 -0.11862512589E+04  0.11862512589E+04  0.25500000920E-02 0.  1.
    10030    2    1    2    0    0  0.00000000000E+00  0.00000000000E+00 -0.65097930263E+02  0.23074045876E+04  0.23064861132E+04 0.  0.
        5    1    3    3  502    0 -0.24544602604E+03 -0.63097976416E+03  0.90140099188E+03  0.11273531180E+04  0.46999998093E+01 0. -1.
       -5    1    3    3    0  502  0.24544602604E+03  0.63097976416E+03 -0.96649892214E+03  0.11800514696E+04  0.46999998093E+01 0.  1.
</event>
<event>
 5   0  0.6814789E-05  0.2273552E+04  0.7818609E-02  0.8488423E-01
       -2   -1    0    0    0  501  0.00000000000E+00  0.00000000000E+00  0.93444360048E+03  0.93444360048E+03  0.25500000920E-02 0. -1.
        2   -1    0    0  501    0  0.00000000000E+00  0.00000000000E+00 -0.13829190006E+04  0.13829190006E+04  0.25500000920E-02 0.  1.
    10030    2    1    2    0    0  0.00000000000E+00  0.00000000000E+00 -0.44847540014E+03  0.23173626011E+04  0.22735521196E+04 0.  0.
        1    1    3    3  502    0 -0.49229446046E+03  0.77934271291E+03  0.45381099534E+03  0.10274596437E+04  0.50400001928E-02 0. -1.
       -1    1    3    3    0  502  0.49229446046E+03 -0.77934271291E+03 -0.90228639547E+03  0.12899029574E+04  0.50400001928E-02 0.  1.
</event>
<event>
 5   0  0.2982385E-05  0.2323535E+04  0.7818609E-02  0.8468699E-01
        1   -1    0    0  501    0  0.00000000000E+00  0.00000000000E+00  0.11230839101E+04  0.11230839102E+04  0.50400001928E-02 0.  1.
       -1   -1    0    0    0  501  0.00000000000E+00  0.00000000000E+00 -0.12017830694E+04  0.12017830694E+04  0.50400001928E-02 0. -1.
    10030    2    1    2    0    0  0.00000000000E+00  0.00000000000E+00 -0.78699159284E+02  0.23248669796E+04  0.23235345737E+04 0.  0.
        4    1    3    3  502    0 -0.52148752382E+03 -0.69686380405E+03  0.73059361083E+03  0.11363701140E+04  0.12699999809E+01 0.  1.
       -4    1    3    3    0  502  0.52148752382E+03  0.69686380405E+03 -0.80929277012E+03  0.11884968656E+04  0.12699999809E+01 0. -1.
</event>
<event>
 5   0  0.6814789E-05  0.2322985E+04  0.7818609E-02  0.8468913E-01
       -2   -1    0    0    0  501  0.00000000000E+00  0.00000000000E+00  0.58000857164E+03  0.58000857164E+03  0.25500000920E-02 0.  1.
        2   -1    0    0  501    0  0.00000000000E+00  0.00000000000E+00 -0.23259399788E+04  0.23259399788E+04  0.25500000920E-02 0. -1.
    10030    2    1    2    0    0  0.00000000000E+00  0.00000000000E+00 -0.17459314071E+04  0.29059485504E+04  0.23229852559E+04 0.  0.
        1    1    3    3  502    0  0.75397658153E+03 -0.58529442747E+03 -0.17008809797E+04  0.19503964621E+04  0.50400001928E-02 0. -1.
       -1    1    3    3    0  502 -0.75397658153E+03  0.58529442747E+03 -0.45050427393E+02  0.95555208825E+03  0.50400001928E-02 0.  1.
</event>
<event>
 5   0  0.3006265E-05  0.2288996E+04  0.7818609E-02  0.8482273E-01
       -1   -1    0    0    0  501  0.00000000000E+00  0.00000000000E+00  0.11595653094E+04  0.11595653094E+04  0.50400001928E-02 0. -1.
        1   -1    0    0  501    0  0.00000000000E+00  0.00000000000E+00 -0.11296261738E+04  0.11296261738E+04  0.50400001928E-02 0.  1.
    10030    2    1    2    0    0  0.00000000000E+00  0.00000000000E+00  0.29939135556E+02  0.22891914832E+04  0.22889956957E+04 0.  0.
        2    1    3    3  502    0  0.93464519447E+03  0.48393435247E+03 -0.43464783040E+03  0.11387154313E+04  0.25500000920E-02 0.  1.
       -2    1    3    3    0  502 -0.93464519447E+03 -0.48393435247E+03  0.46458696595E+03  0.11504760519E+04  0.25500000920E-02 0. -1.
</event>
<event>
 5   0  0.6468758E-05  0.2300876E+04  0.7818609E-02  0.8477576E-01
       -2   -1    0    0    0  501  0.00000000000E+00  0.00000000000E+00  0.12658228388E+04  0.12658228388E+04  0.25500000920E-02 0. -1.
        2   -1    0    0  501    0  0.00000000000E+00  0.00000000000E+00 -0.10455710639E+04  0.10455710639E+04  0.25500000920E-02 0.  1.
    10030    2    1    2    0    0  0.00000000000E+00  0.00000000000E+00  0.22025177491E+03  0.23113939027E+04  0.23008761221E+04 0.  0.
        3    1    3    3  502    0  0.54101822158E+02 -0.91865198219E+03  0.80368700720E+03  0.12217861054E+04  0.10100000352E+00 0. -1.
       -3    1    3    3    0  502 -0.54101822158E+02  0.91865198219E+03 -0.58343523229E+03  0.10896077973E+04  0.10100000352E+00 0.  1.
</event>
<event>
 5   0  0.2982385E-05  0.2311523E+04  0.7818609E-02  0.8473392E-01
        1   -1    0    0  501    0  0.00000000000E+00  0.00000000000E+00  0.85673588846E+03  0.85673588848E+03  0.50400001928E-02 0. -1.
       -1   -1    0    0    0  501  0.00000000000E+00  0.00000000000E+00 -0.15591557240E+04  0.15591557240E+04  0.50400001928E-02 0.  1.
    10030    2    1    2    0    0  0.00000000000E+00  0.00000000000E+00 -0.70241983552E+03  0.24158916125E+04  0.23115230169E+04 0.  0.
        4    1    3    3  502    0  0.49072501413E+03  0.11271569073E+03 -0.14385026099E+04  0.15240758636E+04  0.12699999809E+01 0.  1.
       -4    1    3    3    0  502 -0.49072501413E+03 -0.11271569073E+03  0.73608277434E+03  0.89181574891E+03  0.12699999809E+01 0. -1.
</event>
<event>
 5   0  0.2982385E-05  0.2349829E+04  0.7818609E-02  0.8458529E-01
        1   -1    0    0  501    0  0.00000000000E+00  0.00000000000E+00  0.10173808227E+04  0.10173808227E+04  0.50400001928E-02 0. -1.
       -1   -1    0    0    0  501  0.00000000000E+00  0.00000000000E+00 -0.13568407983E+04  0.13568407984E+04  0.50400001928E-02 0.  1.
    10030    2    1    2    0    0  0.00000000000E+00  0.00000000000E+00 -0.33945997563E+03  0.23742216211E+04  0.23498287663E+04 0.  0.
        4    1    3    3  502    0 -0.96182537415E+02  0.47444039590E+03  0.91193312262E+03  0.10324574581E+04  0.12699999809E+01 0. -1.
       -4    1    3    3    0  502  0.96182537415E+02 -0.47444039590E+03 -0.12513930983E+04  0.13417641630E+04  0.12699999809E+01 0.  1.
</event>
<event>
 5   0  0.6814789E-05  0.2361909E+04  0.7818609E-02  0.8453903E-01
       -2   -1    0    0    0  501  0.00000000000E+00  0.00000000000E+00  0.81149618644E+03  0.81149618645E+03  0.25500000920E-02 0.  1.
        2   -1    0    0  501    0  0.00000000000E+00  0.00000000000E+00 -0.17186204168E+04  0.17186204168E+04  0.25500000920E-02 0. -1.
    10030    2    1    2    0    0  0.00000000000E+00  0.00000000000E+00 -0.90712423034E+03  0.25301166032E+04  0.23619093244E+04 0.  0.
        1    1    3    3  502    0 -0.50688689655E+03 -0.63423319345E+03 -0.13722313249E+04  0.15944293269E+04  0.50400001928E-02 0. -1.
       -1    1    3    3    0  502  0.50688689655E+03  0.63423319345E+03  0.46510709456E+03  0.93568727628E+03  0.50400001928E-02 0.  1.
</event>
<event>
 5   0  0.6702421E-05  0.2313648E+04  0.7818609E-02  0.8472559E-01
        2   -1    0    0  501    0  0.00000000000E+00  0.00000000000E+00  0.10705194617E+04  0.10705194617E+04  0.25500000920E-02 0.  1.
       -2   -1    0    0    0  501  0.00000000000E+00  0.00000000000E+00 -0.12500861021E+04  0.12500861021E+04  0.25500000920E-02 0. -1.
    10030    2    1    2    0    0  0.00000000000E+00  0.00000000000E+00 -0.17956664032E+03  0.23206055638E+04  0.23136477702E+04 0.  0.
        4    1    3    3  502    0 -0.59801798458E+03 -0.47361510133E+03 -0.96205551905E+03  0.12277985212E+04  0.12699999809E+01 0. -1.
       -4    1    3    3    0  502  0.59801798458E+03  0.47361510133E+03  0.78248887873E+03  0.10928070426E+04  0.12699999809E+01 0.  1.
</event>
<event>
 5   0  0.2944089E-05  0.2159835E+04  0.7818609E-02  0.8535334E-01
        1   -1    0    0  501    0  0.00000000000E+00  0.00000000000E+00  0.79167479776E+03  0.79167479778E+03  0.50400001928E-02 0. -1.
       -1   -1    0    0    0  501  0.00000000000E+00  0.00000000000E+00 -0.14731075622E+04  0.14731075622E+04  0.50400001928E-02 0.  1.
    10030    2    1    2    0    0  0.00000000000E+00  0.00000000000E+00 -0.68143276444E+03  0.22647823600E+04  0.21598353006E+04 0.  0.
        5    1    3    3  502    0  0.66288491726E+03 -0.41207199864E+03 -0.11232909940E+04  0.13678539735E+04  0.46999998093E+01 0.  1.
       -5    1    3    3    0  502 -0.66288491726E+03  0.41207199864E+03  0.44185822951E+03  0.89692838654E+03  0.46999998093E+01 0. -1.
</event>
<event>
 5   0  0.6814789E-05  0.2302100E+04  0.7818609E-02  0.8477094E-01
       -2   -1    0    0    0  501  0.00000000000E+00  0.00000000000E+00  0.71434533378E+03  0.71434533379E+03  0.25500000920E-02 0. -1.
        2   -1    0    0  501    0  0.00000000000E+00  0.00000000000E+00 -0.18547271458E+04  0.18547271458E+04  0.25500000920E-02 0.  1.
    10030    2    1    2    0    0  0.00000000000E+00  0.00000000000E+00 -0.11403818120E+04  0.25690724796E+04  0.23020996347E+04 0.  0.
        1    1    3    3  502    0  0.11314270344E+04  0.82372846034E+02 -0.78774270545E+03  0.13811049887E+04  0.50400001928E-02 0. -1.
       -1    1    3    3    0  502 -0.11314270344E+04 -0.82372846034E+02 -0.35263910654E+03  0.11879674909E+04  0.50400001928E-02 0.  1.
</event>
<event>
 5   0  0.6468758E-05  0.2279458E+04  0.7818609E-02  0.8486065E-01
       -2   -1    0    0    0  501  0.00000000000E+00  0.00000000000E+00  0.15842390257E+04  0.15842390257E+04  0.25500000920E-02 0. -1.
        2   -1    0    0  501    0  0.00000000000E+00  0.00000000000E+00 -0.81994105602E+03  0.81994105602E+03  0.25500000920E-02 0.  1.
    10030    2    1    2    0    0  0.00000000000E+00  0.00000000000E+00  0.76429796970E+03  0.24041800817E+04  0.22794583740E+04 0.  0.
        3    1    3    3  502    0 -0.14982008018E+03  0.10950295157E+04  0.67566877243E+03  0.12954010950E+04  0.10100000352E+00 0. -1.
       -3    1    3    3    0  502  0.14982008018E+03 -0.10950295157E+04  0.88629197275E+02  0.11087789868E+04  0.10100000352E+00 0.  1.
</event>
<event>
 5   0  0.2962279E-05  0.2292482E+04  0.7818609E-02  0.8480891E-01
        1   -1    0    0  501    0  0.00000000000E+00  0.00000000000E+00  0.13500769529E+04  0.13500769529E+04  0.50400001928E-02 0. -1.
       -1   -1    0    0    0  501  0.00000000000E+00  0.00000000000E+00 -0.97318040942E+03  0.97318040943E+03  0.50400001928E-02 0.  1.
    10030    2    1    2    0    0  0.00000000000E+00  0.00000000000E+00  0.37689654352E+03  0.23232573624E+04  0.22924820102E+04 0.  0.
        1    1    3    3  502    0 -0.72628571661E+03 -0.86986725306E+03  0.36312355982E+03  0.11899658398E+04  0.50400001928E-02 0.  1.
       -1    1    3    3    0  502  0.72628571661E+03  0.86986725306E+03  0.13772983700E+02  0.11332915226E+04  0.50400001928E-02 0. -1.
</event>
<event>
 5   0  0.2982385E-05  0.2300019E+04  0.7818609E-02  0.8477913E-01
        1   -1    0    0  501    0  0.00000000000E+00  0.00000000000E+00  0.14907346076E+04  0.14907346076E+04  0.50400001928E-02 0.  1.
       -1   -1    0    0    0  501  0.00000000000E+00  0.00000000000E+00 -0.88716141330E+03  0.88716141332E+03  0.50400001928E-02 0. -1.
    10030    2    1    2    0    0  0.00000000000E+00  0.00000000000E+00  0.60357319432E+03  0.23778960210E+04  0.23000193229E+04 0.  0.
        4    1    3    3  502    0  0.32541383719E+03  0.97022042781E+03 -0.24066814070E+03  0.10512585842E+04  0.12699999809E+01 0. -1.
       -4    1    3    3    0  502 -0.32541383719E+03 -0.97022042781E+03  0.84424133502E+03  0.13266374368E+04  0.12699999809E+01 0.  1.
</event>
<event>
 5   0  0.3118614E-05  0.2268533E+04  0.7818609E-02  0.8490432E-01
       -1   -1    0    0    0  501  0.00000000000E+00  0.00000000000E+00  0.95598743699E+03  0.95598743701E+03  0.50400001928E-02 0.  1.
        1   -1    0    0  501    0  0.00000000000E+00  0.00000000000E+00 -0.13457922177E+04  0.13457922178E+04  0.50400001928E-02 0. -1.
    10030    2    1    2    0    0  0.00000000000E+00  0.00000000000E+00 -0.38980478075E+03  0.23017796548E+04  0.22685329647E+04 0.  0.
        3    1    3    3  502    0 -0.34494432374E+03 -0.50631351206E+03  0.77366621843E+03  0.98686340834E+03  0.10100000352E+00 0.  1.
       -3    1    3    3    0  502  0.34494432374E+03  0.50631351206E+03 -0.11634709992E+04  0.13149162464E+04  0.10100000352E+00 0. -1.
</event>
<event>
 5   0  0.2944089E-05  0.2300505E+04  0.7818609E-02  0.8477722E-01
       -1   -1    0    0    0  501  0.00000000000E+00  0.00000000000E+00  0.59351242165E+03  0.59351242167E+03  0.50400001928E-02 0.  1.
        1   -1    0    0  501    0  0.00000000000E+00  0.00000000000E+00 -0.22292391851E+04  0.22292391851E+04  0.50400001928E-02 0. -1.
    10030    2    1    2    0    0  0.00000000000E+00  0.00000000000E+00 -0.16357267635E+04  0.28227516068E+04  0.23005052899E+04 0.  0.
        5    1    3    3  502    0 -0.84245340661E+02  0.66282179767E+03 -0.19666975793E+04  0.20771016998E+04  0.46999998093E+01 0. -1.
       -5    1    3    3    0  502  0.84245340661E+02 -0.66282179767E+03  0.33097081582E+03  0.74564990700E+03  0.46999998093E+01 0.  1.
</event>
<event>
 5   0  0.3118614E-05  0.2299959E+04  0.7818609E-02  0.8477937E-01
       -1   -1    0    0    0  501  0.00000000000E+00  0.00000000000E+00  0.79106719506E+03  0.79106719508E+03  0.50400001928E-02 0.  1.
        1   -1    0    0  501    0  0.00000000000E+00  0.00000000000E+00 -0.16717323777E+04  0.16717323777E+04  0.50400001928E-02 0. -1.
    10030    2    1    2    0    0  0.00000000000E+00  0.00000000000E+00 -0.88066518262E+03  0.24627995728E+04  0.22999588196E+04 0.  0.
        3    1    3    3  502    0  0.73637730406E+02 -0.11232835166E+04 -0.18860478894E+03  0.11413851894E+04  0.10100000352E+00 0.  1.
       -3    1    3    3    0  502 -0.73637730406E+02  0.11232835166E+04 -0.69206039368E+03  0.13214143834E+04  0.10100000352E+00 0. -1.
</event>
<event>
 5   0  0.6702421E-05  0.2288453E+04  0.7818609E-02  0.8482488E-01
        2   -1    0    0  501    0  0.00000000000E+00  0.00000000000E+00  0.23155774210E+04  0.23155774210E+04  0.25500000920E-02 0.  1.
       -2   -1    0    0    0  501  0.00000000000E+00  0.00000000000E+00 -0.56541170140E+03  0.56541170141E+03  0.25500000920E-02 0. -1.
    10030    2    1    2    0    0  0.00000000000E+00  0.00000000000E+00  0.17501657196E+04  0.28809891224E+04  0.22884532500E+04 0.  0.
        4    1    3    3  502    0  0.23214047478E+03 -0.72959864394E+03  0.19455753166E+04  0.20908056597E+04  0.12699999809E+01 0.  1.
       -4    1    3    3    0  502 -0.23214047478E+03  0.72959864394E+03 -0.19540959697E+03  0.79018346272E+03  0.12699999809E+01 0. -1.
</event>
<event>
 5   0  0.6814789E-05  0.2559023E+04  0.7818609E-02  0.8382255E-01
       -2   -1    0    0    0  501  0.00000000000E+00  0.00000000000E+00  0.76748313736E+03  0.76748313736E+03  0.25500000920E-02 0. -1.
        2   -1    0    0  501    0  0.00000000000E+00  0.00000000000E+00 -0.21331415731E+04  0.21331415731E+04  0.25500000920E-02 0.  1.
    10030    2    1    2    0    0  0.00000000000E+00  0.00000000000E+00 -0.13656584357E+04  0.29006247104E+04  0.25590233973E+04 0.  0.
        1    1    3    3  502    0  0.47343270301E+03 -0.48479988521E+03  0.54740096944E+03  0.87110118491E+03  0.50400001928E-02 0. -1.
       -1    1    3    3    0  502 -0.47343270301E+03  0.48479988521E+03 -0.19130594051E+04  0.20295235255E+04  0.50400001928E-02 0.  1.
</event>
<event>
 5   0  0.3006265E-05  0.2315685E+04  0.7818609E-02  0.8471762E-01
        1   -1    0    0  501    0  0.00000000000E+00  0.00000000000E+00  0.15138709331E+04  0.15138709331E+04  0.50400001928E-02 0. -1.
       -1   -1    0    0    0  501  0.00000000000E+00  0.00000000000E+00 -0.88554402415E+03  0.88554402417E+03  0.50400001928E-02 0.  1.
    10030    2    1    2    0    0  0.00000000000E+00  0.00000000000E+00  0.62832690893E+03  0.23994149573E+04  0.23156850893E+04 0.  0.
        2    1    3    3  502    0 -0.29565406964E+03  0.78503817174E+03 -0.51275473162E+03  0.98316513099E+03  0.25500000920E-02 0.  1.
       -2    1    3    3    0  502  0.29565406964E+03 -0.78503817174E+03  0.11410816406E+04  0.14162498263E+04  0.25500000920E-02 0. -1.
</event>
<event>
 5   0  0.6495405E-05  0.2283071E+04  0.7818609E-02  0.8484626E-01
       -2   -1    0    0    0  501  0.00000000000E+00  0.00000000000E+00  0.12216149251E+04  0.12216149251E+04  0.25500000920E-02 0.  1.
        2   -1    0    0  501    0  0.00000000000E+00  0.00000000000E+00 -0.10667056401E+04  0.10667056401E+04  0.25500000920E-02 0. -1.
    10030    2    1    2    0    0  0.00000000000E+00  0.00000000000E+00  0.15490928505E+03  0.22883205652E+04  0.22830712040E+04 0.  0.
        5    1    3    3  502    0 -0.10063979949E+04  0.53092565041E+03  0.16911144471E+03  0.11503650469E+04  0.46999998093E+01 0.  1.
       -5    1    3    3    0  502  0.10063979949E+04 -0.53092565041E+03 -0.14202159663E+02  0.11379555183E+04  0.46999998093E+01 0. -1.
</event>
<event>
 5   0  0.3006265E-05  0.2335656E+04  0.7818609E-02  0.8463994E-01
        1   -1    0    0  501    0  0.00000000000E+00  0.00000000000E+00  0.17815900070E+04  0.17815900070E+04  0.50400001928E-02 0.  1.
       -1   -1    0    0    0  501  0.00000000000E+00  0.00000000000E+00 -0.76550836045E+03  0.76550836047E+03  0.50400001928E-02 0. -1.
    10030    2    1    2    0    0  0.00000000000E+00  0.00000000000E+00  0.10160816465E+04  0.25470983675E+04  0.23356558353E+04 0.  0.
        2    1    3    3  502    0  0.30958213632E+03 -0.11184010560E+04  0.65089594441E+03  0.13305365654E+04  0.25500000920E-02 0. -1.
       -2    1    3    3    0  502 -0.30958213632E+03  0.11184010560E+04  0.36518570213E+03  0.12165618021E+04  0.25500000920E-02 0.  1.
</event>
<event>
 5   0  0.6676612E-05  0.2300966E+04  0.7818609E-02  0.8477540E-01
       -2   -1    0    0    0  501  0.00000000000E+00  0.00000000000E+00  0.48139769214E+03  0.48139769215E+03  0.25500000920E-02 0.  1.
        2   -1    0    0  501    0  0.00000000000E+00  0.00000000000E+00 -0.27495165823E+04  0.27495165823E+04  0.25500000920E-02 0. -1.
    10030    2    1    2    0    0  0.00000000000E+00  0.00000000000E+00 -0.22681188902E+04  0.32309142745E+04  0.23009658296E+04 0.  0.
        2    1    3    3  502    0  0.30376665238E+03  0.57573308574E+03  0.19794204751E+03  0.68038505222E+03  0.25500000920E-02 0.  1.
       -2    1    3    3    0  502 -0.30376665238E+03 -0.57573308574E+03 -0.24660609377E+04  0.25505292222E+04  0.25500000920E-02 0. -1.
</event>
<event>
 5   0  0.6468758E-05  0.2269202E+04  0.7818609E-02  0.8490164E-01
        2   -1    0    0  501    0  0.00000000000E+00  0.00000000000E+00  0.94817867094E+03  0.94817867094E+03  0.25500000920E-02 0.  1.
       -2   -1    0    0    0  501  0.00000000000E+00  0.00000000000E+00 -0.13576765376E+04  0.13576765376E+04  0.25500000920E-02 0. -1.
    10030    2    1    2    0    0  0.00000000000E+00  0.00000000000E+00 -0.40949786661E+03  0.23058552085E+04  0.22692024457E+04 0.  0.
        3    1    3    3  502    0  0.40585671909E+03  0.93360578384E+03  0.30432255080E+03  0.10625213698E+04  0.10100000352E+00 0.  1.
       -3    1    3    3    0  502 -0.40585671909E+03 -0.93360578384E+03 -0.71382041741E+03  0.12433338387E+04  0.10100000352E+00 0. -1.
</event>
<event>
 5   0  0.6814789E-05  0.2267875E+04  0.7818609E-02  0.8490696E-01
        2   -1    0    0  501    0  0.00000000000E+00  0.00000000000E+00  0.17262486229E+04  0.17262486229E+04  0.25500000920E-02 0.  1.
       -2   -1    0    0    0  501  0.00000000000E+00  0.00000000000E+00 -0.74486028551E+03  0.74486028552E+03  0.25500000920E-02 0. -1.
    10030    2    1    2    0    0  0.00000000000E+00  0.00000000000E+00  0.98138833736E+03  0.24711089084E+04  0.22678748132E+04 0.  0.
        1    1    3    3  502    0  0.86529846739E+03 -0.71105801526E+03  0.29740167322E+03  0.11587893225E+04  0.50400001928E-02 0.  1.
       -1    1    3    3    0  502 -0.86529846739E+03  0.71105801526E+03  0.68398666413E+03  0.13123195859E+04  0.50400001928E-02 0. -1.
</event>
<event>
 5   0  0.6702421E-05  0.2298498E+04  0.7818609E-02  0.8478513E-01
        2   -1    0    0  501    0  0.00000000000E+00  0.00000000000E+00  0.12518308345E+04  0.12518308345E+04  0.25500000920E-02 0.  1.
       -2   -1    0    0    0  501  0.00000000000E+00  0.00000000000E+00 -0.10550735687E+04  0.10550735687E+04  0.25500000920E-02 0. -1.
    10030    2    1    2    0    0  0.00000000000E+00  0.00000000000E+00  0.19675726585E+03  0.23069044032E+04  0.22984983150E+04 0.  0.
        4    1    3    3  502    0  0.22399466458E+03  0.97512514135E+03  0.66589274952E+03  0.12018558224E+04  0.12699999809E+01 0.  1.
       -4    1    3    3    0  502 -0.22399466458E+03 -0.97512514135E+03 -0.46913548367E+03  0.11050485808E+04  0.12699999809E+01 0. -1.
</event>
<event>
 5   0  0.2944089E-05  0.2314485E+04  0.7818609E-02  0.8472232E-01
       -1   -1    0    0    0  501  0.00000000000E+00  0.00000000000E+00  0.11701193641E+04  0.11701193641E+04  0.50400001928E-02 0. -1.
        1   -1    0    0  501    0  0.00000000000E+00  0.00000000000E+00 -0.11445076153E+04  0.11445076153E+04  0.50400001928E-02 0.  1.
    10030    2    1    2    0    0  0.00000000000E+00  0.00000000000E+00  0.25611748779E+02  0.23146269794E+04  0.23144852758E+04 0.  0.
        5    1    3    3  502    0 -0.11019753780E+03 -0.10408775505E+04 -0.48080195824E+03  0.11518516335E+04  0.46999998093E+01 0.  1.
       -5    1    3    3    0  502  0.11019753780E+03  0.10408775505E+04  0.50641370701E+03  0.11627753459E+04  0.46999998093E+01 0. -1.
</event>
<event>
 5   0  0.2982385E-05  0.2316667E+04  0.7818609E-02  0.8471379E-01
       -1   -1    0    0    0  501  0.00000000000E+00  0.00000000000E+00  0.11398548197E+04  0.11398548198E+04  0.50400001928E-02 0. -1.
        1   -1    0    0  501    0  0.00000000000E+00  0.00000000000E+00 -0.11771114591E+04  0.11771114591E+04  0.50400001928E-02 0.  1.
    10030    2    1    2    0    0  0.00000000000E+00  0.00000000000E+00 -0.37256639393E+02  0.23169662789E+04  0.23166667176E+04 0.  0.
        4    1    3    3  502    0  0.60119185397E+03  0.98217462263E+02 -0.10039745957E+04  0.11743274317E+04  0.12699999809E+01 0.  1.
       -4    1    3    3    0  502 -0.60119185397E+03 -0.98217462263E+02  0.96671795630E+03  0.11426388472E+04  0.12699999809E+01 0. -1.
</event>
<event>
 5   0  0.2944089E-05  0.2256012E+04  0.7818609E-02  0.8495470E-01
        1   -1    0    0  501    0  0.00000000000E+00  0.00000000000E+00  0.10886209472E+04  0.10886209472E+04  0.50400001928E-02 0.  1.
       -1   -1    0    0    0  501  0.00000000000E+00  0.00000000000E+00 -0.11688156789E+04  0.11688156789E+04  0.50400001928E-02 0. -1.
    10030    2    1    2    0    0  0.00000000000E+00  0.00000000000E+00 -0.80194731698E+02  0.22574366261E+04  0.22560117300E+04 0.  0.
        5    1    3    3  502    0 -0.36734703061E+03 -0.28784261517E+02 -0.11068864621E+04  0.11666156628E+04  0.46999998093E+01 0. -1.
       -5    1    3    3    0  502  0.36734703061E+03  0.28784261517E+02  0.10266917304E+04  0.10908209633E+04  0.46999998093E+01 0.  1.
</event>
<event>
 5   0  0.6468758E-05  0.2104785E+04  0.7818609E-02  0.8559139E-01
       -2   -1    0    0    0  501  0.00000000000E+00  0.00000000000E+00  0.75860169743E+03  0.75860169743E+03  0.25500000920E-02 0.  1.
        2   -1    0    0  501    0  0.00000000000E+00  0.00000000000E+00 -0.14599617972E+04  0.14599617972E+04  0.25500000920E-02 0. -1.
    10030    2    1    2    0    0  0.00000000000E+00  0.00000000000E+00 -0.70136009975E+03  0.22185634946E+04  0.21047845472E+04 0.  0.
        3    1    3    3  502    0 -0.32329205274E+03  0.24854038170E+03  0.67193991787E+03  0.78599830542E+03  0.10100000352E+00 0.  1.
       -3    1    3    3    0  502  0.32329205274E+03 -0.24854038170E+03 -0.13733000176E+04  0.14325651892E+04  0.10100000352E+00 0. -1.
</event>
<event>
 5   0  0.6676612E-05  0.2240396E+04  0.7818609E-02  0.8501800E-01
        2   -1    0    0  501    0  0.00000000000E+00  0.00000000000E+00  0.12151843536E+04  0.12151843536E+04  0.25500000920E-02 0. -1.
       -2   -1    0    0    0  501  0.00000000000E+00  0.00000000000E+00 -0.10326367649E+04  0.10326367649E+04  0.25500000920E-02 0.  1.
    10030    2    1    2    0    0  0.00000000000E+00  0.00000000000E+00  0.18254758868E+03  0.22478211185E+04  0.22403964289E+04 0.  0.
        2    1    3    3  502    0 -0.62386526772E+03 -0.71826351791E+03  0.68461650054E+03  0.11720964577E+04  0.25500000920E-02 0. -1.
       -2    1    3    3    0  502  0.62386526772E+03  0.71826351791E+03 -0.50206891186E+03  0.10757246607E+04  0.25500000920E-02 0.  1.
</event>
<event>
 5   0  0.6495405E-05  0.2299658E+04  0.7818609E-02  0.8478056E-01
        2   -1    0    0  501    0  0.00000000000E+00  0.00000000000E+00  0.72962021770E+03  0.72962021770E+03  0.25500000920E-02 0. -1.
       -2   -1    0    0    0  501  0.00000000000E+00  0.00000000000E+00 -0.18120473216E+04  0.18120473216E+04  0.25500000920E-02 0.  1.
    10030    2    1    2    0    0  0.00000000000E+00  0.00000000000E+00 -0.10824271039E+04  0.25416675393E+04  0.22996576800E+04 0.  0.
        5    1    3    3  502    0  0.59693309508E+03 -0.62211513584E+03  0.29958656348E+03  0.91275985958E+03  0.46999998093E+01 0. -1.
       -5    1    3    3    0  502 -0.59693309508E+03  0.62211513584E+03 -0.13820136674E+04  0.16289076798E+04  0.46999998093E+01 0.  1.
</event>
<event>
 5   0  0.2982385E-05  0.2301749E+04  0.7818609E-02  0.8477232E-01
       -1   -1    0    0    0  501  0.00000000000E+00  0.00000000000E+00  0.11640279319E+04  0.11640279320E+04  0.50400001928E-02 0. -1.
        1   -1    0    0  501    0  0.00000000000E+00  0.00000000000E+00 -0.11378697908E+04  0.11378697908E+04  0.50400001928E-02 0.  1.
    10030    2    1    2    0    0  0.00000000000E+00  0.00000000000E+00  0.26158141118E+02  0.23018977228E+04  0.23017490910E+04 0.  0.
        4    1    3    3  502    0  0.96861834940E+02  0.97869577537E+03 -0.58469104766E+03  0.11441559640E+04  0.12699999809E+01 0.  1.
       -4    1    3    3    0  502 -0.96861834940E+02 -0.97869577537E+03  0.61084918878E+03  0.11577417588E+04  0.12699999809E+01 0. -1.
</event>
<event>
 5   0  0.2962279E-05  0.2284347E+04  0.7818609E-02  0.8484119E-01
       -1   -1    0    0    0  501  0.00000000000E+00  0.00000000000E+00  0.12092110681E+04  0.12092110681E+04  0.50400001928E-02 0. -1.
        1   -1    0    0  501    0  0.00000000000E+00  0.00000000000E+00 -0.10788523581E+04  0.10788523582E+04  0.50400001928E-02 0.  1.
    10030    2    1    2    0    0  0.00000000000E+00  0.00000000000E+00  0.13035870999E+03  0.22880634263E+04  0.22843469197E+04 0.  0.
        1    1    3    3  502    0  0.21759596669E+03  0.27323868026E+03 -0.10240423203E+04  0.10819750713E+04  0.50400001928E-02 0.  1.
       -1    1    3    3    0  502 -0.21759596669E+03 -0.27323868026E+03  0.11544010303E+04  0.12060883550E+04  0.50400001928E-02 0. -1.
</event>
<event>
 5   0  0.6676612E-05  0.2294585E+04  0.7818609E-02  0.8480059E-01
        2   -1    0    0  501    0  0.00000000000E+00  0.00000000000E+00  0.26067908597E+04  0.26067908597E+04  0.25500000920E-02 0.  1.
       -2   -1    0    0    0  501  0.00000000000E+00  0.00000000000E+00 -0.50494281447E+03  0.50494281447E+03  0.25500000920E-02 0. -1.
    10030    2    1    2    0    0  0.00000000000E+00  0.00000000000E+00  0.21018480452E+04  0.31117336742E+04  0.22945852030E+04 0.  0.
        2    1    3    3  502    0  0.53180426107E+03 -0.99750003673E+03  0.13168696229E+04  0.17355021461E+04  0.25500000920E-02 0.  1.
       -2    1    3    3    0  502 -0.53180426107E+03  0.99750003673E+03  0.78497842237E+03  0.13762315281E+04  0.25500000920E-02 0. -1.
</event>
<event>
 5   0  0.2342500E-05  0.2241903E+04  0.7818609E-02  0.8501187E-01
        3   -1    0    0  501    0  0.00000000000E+00  0.00000000000E+00  0.61987296752E+03  0.61987297575E+03  0.10100000352E+00 0. -1.
       -3   -1    0    0    0  501  0.00000000000E+00  0.00000000000E+00 -0.20270796947E+04  0.20270796972E+04  0.10100000352E+00 0.  1.
    10030    2    1    2    0    0  0.00000000000E+00  0.00000000000E+00 -0.14072067272E+04  0.26469526729E+04  0.22419026919E+04 0.  0.
        3    1    3    3  502    0 -0.18331636142E+03  0.10944427889E+04 -0.51646770401E+03  0.12239888913E+04  0.10100000352E+00 0. -1.
       -3    1    3    3    0  502  0.18331636142E+03 -0.10944427889E+04 -0.89073902315E+03  0.14229637817E+04  0.10100000352E+00 0.  1.
</event>
<event>
 5   0  0.2982385E-05  0.2060303E+04  0.7818609E-02  0.8578934E-01
       -1   -1    0    0    0  501  0.00000000000E+00  0.00000000000E+00  0.52090142084E+03  0.52090142087E+03  0.50400001928E-02 0. -1.
        1   -1    0    0  501    0  0.00000000000E+00  0.00000000000E+00 -0.20372618246E+04  0.20372618246E+04  0.50400001928E-02 0.  1.
    10030    2    1    2    0    0  0.00000000000E+00  0.00000000000E+00 -0.15163604037E+04  0.25581632455E+04  0.20603034525E+04 0.  0.
        4    1    3    3  502    0  0.85167385945E+03 -0.17677986220E+03 -0.14434635841E+04  0.16852857960E+04  0.12699999809E+01 0.  1.
       -4    1    3    3    0  502 -0.85167385945E+03  0.17677986220E+03 -0.72896819596E+02  0.87287744945E+03  0.12699999809E+01 0. -1.
</event>
<event>
 5   0  0.6702421E-05  0.2309805E+04  0.7818609E-02  0.8474065E-01
        2   -1    0    0  501    0  0.00000000000E+00  0.00000000000E+00  0.20075579919E+04  0.20075579919E+04  0.25500000920E-02 0.  1.
       -2   -1    0    0    0  501  0.00000000000E+00  0.00000000000E+00 -0.66438890895E+03  0.66438890895E+03  0.25500000920E-02 0. -1.
    10030    2    1    2    0    0  0.00000000000E+00  0.00000000000E+00  0.13431690829E+04  0.26719469008E+04  0.23098045492E+04 0.  0.
        4    1    3    3  502    0  0.44191114761E+02 -0.16735777464E+03 -0.64929770648E+03  0.67197515125E+03  0.12699999809E+01 0. -1.
       -4    1    3    3    0  502 -0.44191114761E+02  0.16735777464E+03  0.19924667894E+04  0.19999717496E+04  0.12699999809E+01 0.  1.
</event>
<event>
 5   0  0.2944089E-05  0.2325410E+04  0.7818609E-02  0.8467969E-01
       -1   -1    0    0    0  501  0.00000000000E+00  0.00000000000E+00  0.12603658225E+04  0.12603658226E+04  0.50400001928E-02 0.  1.
        1   -1    0    0  501    0  0.00000000000E+00  0.00000000000E+00 -0.10726118680E+04  0.10726118680E+04  0.50400001928E-02 0. -1.
    10030    2    1    2    0    0  0.00000000000E+00  0.00000000000E+00  0.18775395453E+03  0.23329776906E+04  0.23254103632E+04 0.  0.
        5    1    3    3  502    0  0.53353076029E+03  0.42817581650E+03 -0.84932691375E+03  0.10905814497E+04  0.46999998093E+01 0. -1.
       -5    1    3    3    0  502 -0.53353076029E+03 -0.42817581650E+03  0.10370808683E+04  0.12423962409E+04  0.46999998093E+01 0.  1.
</event>
<event>
 5   0  0.6468758E-05  0.2274654E+04  0.7818609E-02  0.8487982E-01
        2   -1    0    0  501    0  0.00000000000E+00  0.00000000000E+00  0.23116053883E+04  0.23116053883E+04  0.25500000920E-02 0.  1.
       -2   -1    0    0    0  501  0.00000000000E+00  0.00000000000E+00 -0.55957334191E+03  0.55957334192E+03  0.25500000920E-02 0. -1.
    10030    2    1    2    0    0  0.00000000000E+00  0.00000000000E+00  0.17520320464E+04  0.28711787302E+04  0.22746540417E+04 0.  0.
        3    1    3    3  502    0 -0.10181527391E+04 -0.18256149360E+03  0.27921263136E+03  0.10714118735E+04  0.10100000352E+00 0. -1.
       -3    1    3    3    0  502  0.10181527391E+04  0.18256149360E+03  0.14728194150E+04  0.17997668567E+04  0.10100000352E+00 0.  1.
</event>
<event>
 5   0  0.6814789E-05  0.2288622E+04  0.7818609E-02  0.8482421E-01
        2   -1    0    0  501    0  0.00000000000E+00  0.00000000000E+00  0.96330729066E+03  0.96330729066E+03  0.25500000920E-02 0.  1.
       -2   -1    0    0    0  501  0.00000000000E+00  0.00000000000E+00 -0.13593253908E+04  0.13593253908E+04  0.25500000920E-02 0. -1.
    10030    2    1    2    0    0  0.00000000000E+00  0.00000000000E+00 -0.39601810017E+03  0.23226326815E+04  0.22886223449E+04 0.  0.
        1    1    3    3  502    0 -0.34828102664E+02  0.11370918349E+04 -0.32336476145E+03  0.11826899876E+04  0.50400001928E-02 0. -1.
       -1    1    3    3    0  502  0.34828102664E+02 -0.11370918349E+04 -0.72653338713E+02  0.11399426939E+04  0.50400001928E-02 0.  1.
</event>
<event>
 5   0  0.3118614E-05  0.2288539E+04  0.7818609E-02  0.8482454E-01
       -1   -1    0    0    0  501  0.00000000000E+00  0.00000000000E+00  0.95923117380E+03  0.95923117381E+03  0.50400001928E-02 0. -1.
        1   -1    0    0  501    0  0.00000000000E+00  0.00000000000E+00 -0.13650025952E+04  0.13650025952E+04  0.50400001928E-02 0.  1.
    10030    2    1    2    0    0  0.00000000000E+00  0.00000000000E+00 -0.40577142137E+03  0.23242337690E+04  0.22885393085E+04 0.  0.
        3    1    3    3  502    0  0.98515136885E+03 -0.32494934534E+03  0.28759376393E+03  0.10764875660E+04  0.10100000352E+00 0. -1.
       -3    1    3    3    0  502 -0.98515136885E+03  0.32494934534E+03 -0.69336518530E+03  0.12477462029E+04  0.10100000352E+00 0.  1.
</event>
<event>
 5   0  0.3006265E-05  0.2251724E+04  0.7818609E-02  0.8497203E-01
        1   -1    0    0  501    0  0.00000000000E+00  0.00000000000E+00  0.14354288299E+04  0.14354288299E+04  0.50400001928E-02 0. -1.
       -1   -1    0    0    0  501  0.00000000000E+00  0.00000000000E+00 -0.88305647327E+03  0.88305647328E+03  0.50400001928E-02 0.  1.
    10030    2    1    2    0    0  0.00000000000E+00  0.00000000000E+00  0.55237235665E+03  0.23184853032E+04  0.22517235356E+04 0.  0.
        2    1    3    3  502    0  0.43439176592E+03 -0.61100872055E+03  0.11410527935E+04  0.13652945984E+04  0.25500000920E-02 0. -1.
       -2    1    3    3    0  502 -0.43439176592E+03  0.61100872055E+03 -0.58868043688E+03  0.95319070477E+03  0.25500000920E-02 0.  1.
</event>
<event>
 5   0  0.2982385E-05  0.2264285E+04  0.7818609E-02  0.8492138E-01
        1   -1    0    0  501    0  0.00000000000E+00  0.00000000000E+00  0.78274234711E+03  0.78274234712E+03  0.50400001928E-02 0. -1.
       -1   -1    0    0    0  501  0.00000000000E+00  0.00000000000E+00 -0.16375080810E+04  0.16375080810E+04  0.50400001928E-02 0.  1.
    10030    2    1    2    0    0  0.00000000000E+00  0.00000000000E+00 -0.85476573389E+03  0.24202504281E+04  0.22642852459E+04 0.  0.
        4    1    3    3  502    0  0.76985326134E+02 -0.76982346346E+03  0.45610389534E+03  0.89810204408E+03  0.12699999809E+01 0. -1.
       -4    1    3    3    0  502 -0.76985326134E+02  0.76982346346E+03 -0.13108696292E+04  0.15221483840E+04  0.12699999809E+01 0.  1.
</event>
<event>
 5   0  0.2982385E-05  0.2327488E+04  0.7818609E-02  0.8467161E-01
        1   -1    0    0  501    0  0.00000000000E+00  0.00000000000E+00  0.20244752297E+04  0.20244752297E+04  0.50400001928E-02 0. -1.
       -1   -1    0    0    0  501  0.00000000000E+00  0.00000000000E+00 -0.66896332827E+03  0.66896332829E+03  0.50400001928E-02 0.  1.
    10030    2    1    2    0    0  0.00000000000E+00  0.00000000000E+00  0.13555119014E+04  0.26934385580E+04  0.23274876478E+04 0.  0.
        4    1    3    3  502    0  0.20239448018E+03 -0.11049804400E+04  0.10294335177E+04  0.15237060999E+04  0.12699999809E+01 0.  1.
       -4    1    3    3    0  502 -0.20239448018E+03  0.11049804400E+04  0.32607838368E+03  0.11697324581E+04  0.12699999809E+01 0. -1.
</event>
<event>
 5   0  0.2962279E-05  0.2248284E+04  0.7818609E-02  0.8498596E-01
        1   -1    0    0  501    0  0.00000000000E+00  0.00000000000E+00  0.20011498765E+04  0.20011498765E+04  0.50400001928E-02 0.  1.
       -1   -1    0    0    0  501  0.00000000000E+00  0.00000000000E+00 -0.63148462587E+03  0.63148462589E+03  0.50400001928E-02 0. -1.
    10030    2    1    2    0    0  0.00000000000E+00  0.00000000000E+00  0.13696652507E+04  0.26326345024E+04  0.22482841290E+04 0.  0.
        1    1    3    3  502    0  0.92909832466E+03  0.58858084435E+03  0.41261626866E+03  0.11746928502E+04  0.50400001928E-02 0.  1.
       -1    1    3    3    0  502 -0.92909832466E+03 -0.58858084435E+03  0.95704898200E+03  0.14579416522E+04  0.50400001928E-02 0. -1.
</event>
<event>
 5   0  0.6495405E-05  0.2312369E+04  0.7818609E-02  0.8473060E-01
        2   -1    0    0  501    0  0.00000000000E+00  0.00000000000E+00  0.16143375084E+04  0.16143375084E+04  0.25500000920E-02 0. -1.
       -2   -1    0    0    0  501  0.00000000000E+00  0.00000000000E+00 -0.82805678159E+03  0.82805678159E+03  0.25500000920E-02 0.  1.
    10030    2    1    2    0    0  0.00000000000E+00  0.00000000000E+00  0.78628072681E+03  0.24423942900E+04  0.23123694528E+04 0.  0.
        5    1    3    3  502    0  0.11190589233E+04 -0.23782204273E+03  0.56953026996E+03  0.12779824006E+04  0.46999998093E+01 0.  1.
       -5    1    3    3    0  502 -0.11190589233E+04  0.23782204273E+03  0.21675045685E+03  0.11644118894E+04  0.46999998093E+01 0. -1.
</event>
<event>
 5   0  0.6676612E-05  0.2340772E+04  0.7818609E-02  0.8462017E-01
        2   -1    0    0  501    0  0.00000000000E+00  0.00000000000E+00  0.11211897976E+04  0.11211897976E+04  0.25500000920E-02 0.  1.
       -2   -1    0    0    0  501  0.00000000000E+00  0.00000000000E+00 -0.12217406895E+04  0.12217406895E+04  0.25500000920E-02 0. -1.
    10030    2    1    2    0    0  0.00000000000E+00  0.00000000000E+00 -0.10055089188E+03  0.23429304871E+04  0.23407718354E+04 0.  0.
        2    1    3    3  502    0 -0.25816502409E+03  0.10853228996E+04  0.30392689295E+03  0.11562640409E+04  0.25500000920E-02 0.  1.
       -2    1    3    3    0  502  0.25816502409E+03 -0.10853228996E+04 -0.40447778483E+03  0.11866664462E+04  0.25500000920E-02 0. -1.
</event>
<event>
 5   0  0.3006265E-05  0.2284850E+04  0.7818609E-02  0.8483919E-01
        1   -1    0    0  501    0  0.00000000000E+00  0.00000000000E+00  0.76419744958E+03  0.76419744959E+03  0.50400001928E-02 0. -1.
       -1   -1    0    0    0  501  0.00000000000E+00  0.00000000000E+00 -0.17078501373E+04  0.17078501373E+04  0.50400001928E-02 0.  1.
    10030    2    1    2    0    0  0.00000000000E+00  0.00000000000E+00 -0.94365268773E+03  0.24720475869E+04  0.22848498587E+04 0.  0.
        2    1    3    3  502    0  0.10423019490E+04  0.20845699299E+03 -0.18851510758E+02  0.10631100838E+04  0.25500000920E-02 0.  1.
       -2    1    3    3    0  502 -0.10423019490E+04 -0.20845699299E+03 -0.92480117698E+03  0.14089375031E+04  0.25500000920E-02 0. -1.
</event>
<event>
 5   0  0.2962279E-05  0.2312296E+04  0.7818609E-02  0.8473089E-01
       -1   -1    0    0    0  501  0.00000000000E+00  0.00000000000E+00  0.57076289255E+03  0.57076289257E+03  0.50400001928E-02 0. -1.
        1   -1    0    0  501    0  0.00000000000E+00  0.00000000000E+00 -0.23419160336E+04  0.23419160336E+04  0.50400001928E-02 0.  1.
    10030    2    1    2    0    0  0.00000000000E+00  0.00000000000E+00 -0.17711531411E+04  0.29126789262E+04  0.23122964944E+04 0.  0.
        1    1    3    3  502    0 -0.25502333768E+03  0.93198147887E+03 -0.16852816290E+04  0.19426272284E+04  0.50400001928E-02 0.  1.
       -1    1    3    3    0  502  0.25502333768E+03 -0.93198147887E+03 -0.85871512117E+02  0.97005169777E+03  0.50400001928E-02 0. -1.
</event>
<event>
 5   0  0.3118614E-05  0.2162928E+04  0.7818609E-02  0.8534019E-01
        1   -1    0    0  501    0  0.00000000000E+00  0.00000000000E+00  0.87061758395E+03  0.87061758396E+03  0.50400001928E-02 0.  1.
       -1   -1    0    0    0  501  0.00000000000E+00  0.00000000000E+00 -0.13433733182E+04  0.13433733182E+04  0.50400001928E-02 0. -1.
    10030    2    1    2    0    0  0.00000000000E+00  0.00000000000E+00 -0.47275573426E+03  0.22139909022E+04  0.21629280456E+04 0.  0.
        3    1    3    3  502    0  0.44835520749E+03  0.98412659362E+03 -0.23016176640E+03  0.11056681208E+04  0.10100000352E+00 0.  1.
       -3    1    3    3    0  502 -0.44835520749E+03 -0.98412659362E+03 -0.24259396785E+03  0.11083227814E+04  0.10100000352E+00 0. -1.
</event>
<event>
 5   0  0.2962279E-05  0.2293365E+04  0.7818609E-02  0.8480542E-01
       -1   -1    0    0    0  501  0.00000000000E+00  0.00000000000E+00  0.10315813166E+04  0.10315813166E+04  0.50400001928E-02 0.  1.
        1   -1    0    0  501    0  0.00000000000E+00  0.00000000000E+00 -0.12746266800E+04  0.12746266800E+04  0.50400001928E-02 0. -1.
    10030    2    1    2    0    0  0.00000000000E+00  0.00000000000E+00 -0.24304536343E+03  0.23062079966E+04  0.22933652729E+04 0.  0.
        1    1    3    3  502    0  0.10658629230E+04  0.29343364553E+03 -0.42771753478E+03  0.11853730909E+04  0.50400001928E-02 0. -1.
       -1    1    3    3    0  502 -0.10658629230E+04 -0.29343364553E+03  0.18467217135E+03  0.11208349057E+04  0.50400001928E-02 0.  1.
</event>
<event>
 5   0  0.2982385E-05  0.2306077E+04  0.7818609E-02  0.8475529E-01
        1   -1    0    0  501    0  0.00000000000E+00  0.00000000000E+00  0.13417823489E+04  0.13417823489E+04  0.50400001928E-02 0. -1.
       -1   -1    0    0    0  501  0.00000000000E+00  0.00000000000E+00 -0.99084440971E+03  0.99084440973E+03  0.50400001928E-02 0.  1.
    10030    2    1    2    0    0  0.00000000000E+00  0.00000000000E+00  0.35093793916E+03  0.23326267586E+04  0.23060767892E+04 0.  0.
        4    1    3    3  502    0  0.22132482616E+03 -0.31802532216E+03  0.12739605617E+04  0.13315787284E+04  0.12699999809E+01 0. -1.
       -4    1    3    3    0  502 -0.22132482616E+03  0.31802532216E+03 -0.92302262254E+03  0.10010480302E+04  0.12699999809E+01 0.  1.
</event>
<event>
 5   0  0.2982385E-05  0.2020754E+04  0.7818609E-02  0.8596978E-01
       -1   -1    0    0    0  501  0.00000000000E+00  0.00000000000E+00  0.10552528239E+04  0.10552528239E+04  0.50400001928E-02 0. -1.
        1   -1    0    0  501    0  0.00000000000E+00  0.00000000000E+00 -0.96740971658E+03  0.96740971659E+03  0.50400001928E-02 0.  1.
    10030    2    1    2    0    0  0.00000000000E+00  0.00000000000E+00  0.87843107355E+02  0.20226625405E+04  0.20207541516E+04 0.  0.
        4    1    3    3  502    0 -0.26135267620E+03  0.71505376615E+03 -0.62097463376E+03  0.98245519925E+03  0.12699999809E+01 0.  1.
       -4    1    3    3    0  502  0.26135267620E+03 -0.71505376615E+03  0.70881774112E+03  0.10402073413E+04  0.12699999809E+01 0. -1.
</event>
<event>
 5   0  0.3118614E-05  0.2336304E+04  0.7818609E-02  0.8463743E-01
        1   -1    0    0  501    0  0.00000000000E+00  0.00000000000E+00  0.19880386452E+04  0.19880386452E+04  0.50400001928E-02 0. -1.
       -1   -1    0    0    0  501  0.00000000000E+00  0.00000000000E+00 -0.68639455231E+03  0.68639455232E+03  0.50400001928E-02 0.  1.
    10030    2    1    2    0    0  0.00000000000E+00  0.00000000000E+00  0.13016440929E+04  0.26744331975E+04  0.23363038294E+04 0.  0.
        3    1    3    3  502    0 -0.91689304911E+03  0.30571111296E+03  0.14018430005E+04  0.17027377826E+04  0.10100000352E+00 0. -1.
       -3    1    3    3    0  502  0.91689304911E+03 -0.30571111296E+03 -0.10019890760E+03  0.97169541492E+03  0.10100000352E+00 0.  1.
</event>
<event>
 5   0  0.6676612E-05  0.2190346E+04  0.7818609E-02  0.8522457E-01
       -2   -1    0    0    0  501  0.00000000000E+00  0.00000000000E+00  0.58923410710E+03  0.58923410710E+03  0.25500000920E-02 0.  1.
        2   -1    0    0  501    0  0.00000000000E+00  0.00000000000E+00 -0.20355297992E+04  0.20355297992E+04  0.25500000920E-02 0. -1.
    10030    2    1    2    0    0  0.00000000000E+00  0.00000000000E+00 -0.14462956921E+04  0.26247639063E+04  0.21903457113E+04 0.  0.
        2    1    3    3  502    0  0.98949723395E+02  0.10846807707E+04 -0.86019945385E+03  0.13879000405E+04  0.25500000920E-02 0. -1.
       -2    1    3    3    0  502 -0.98949723395E+02 -0.10846807707E+04 -0.58609623824E+03  0.12368638658E+04  0.25500000920E-02 0.  1.
</event>
<event>
 5   0  0.2944089E-05  0.2270400E+04  0.7818609E-02  0.8489684E-01
        1   -1    0    0  501    0  0.00000000000E+00  0.00000000000E+00  0.18415679964E+04  0.18415679964E+04  0.50400001928E-02 0. -1.
       -1   -1    0    0    0  501  0.00000000000E+00  0.00000000000E+00 -0.69977252116E+03  0.69977252118E+03  0.50400001928E-02 0.  1.
    10030    2    1    2    0    0  0.00000000000E+00  0.00000000000E+00  0.11417954752E+04  0.25413405175E+04  0.22703996826E+04 0.  0.
        5    1    3    3  502    0 -0.97135284880E+03  0.27761191031E+03 -0.86351101541E+01  0.10102927223E+04  0.46999998093E+01 0.  1.
       -5    1    3    3    0  502  0.97135284880E+03 -0.27761191031E+03  0.11504305853E+04  0.15310477952E+04  0.46999998093E+01 0. -1.
</event>
<event>
 5   0  0.6814789E-05  0.2279071E+04  0.7818609E-02  0.8486219E-01
       -2   -1    0    0    0  501  0.00000000000E+00  0.00000000000E+00  0.69374904904E+03  0.69374904904E+03  0.25500000920E-02 0.  1.
        2   -1    0    0  501    0  0.00000000000E+00  0.00000000000E+00 -0.18717737285E+04  0.18717737285E+04  0.25500000920E-02 0. -1.
    10030    2    1    2    0    0  0.00000000000E+00  0.00000000000E+00 -0.11780246795E+04  0.25655227776E+04  0.22790710776E+04 0.  0.
        1    1    3    3  502    0 -0.10435140774E+04  0.38624127798E+03 -0.31227325860E+03  0.11556896394E+04  0.50400001928E-02 0. -1.
       -1    1    3    3    0  502  0.10435140774E+04 -0.38624127798E+03 -0.86575142088E+03  0.14098331381E+04  0.50400001928E-02 0.  1.
</event>
<event>
 5   0  0.3118614E-05  0.2294668E+04  0.7818609E-02  0.8480026E-01
        1   -1    0    0  501    0  0.00000000000E+00  0.00000000000E+00  0.19252730272E+04  0.19252730272E+04  0.50400001928E-02 0.  1.
       -1   -1    0    0    0  501  0.00000000000E+00  0.00000000000E+00 -0.68373440044E+03  0.68373440046E+03  0.50400001928E-02 0. -1.
    10030    2    1    2    0    0  0.00000000000E+00  0.00000000000E+00  0.12415386267E+04  0.26090074276E+04  0.22946680797E+04 0.  0.
        3    1    3    3  502    0 -0.45783690857E+03  0.43086102192E+03  0.17119921277E+04  0.18237798416E+04  0.10100000352E+00 0.  1.
       -3    1    3    3    0  502  0.45783690857E+03 -0.43086102192E+03 -0.47045350100E+03  0.78522758603E+03  0.10100000352E+00 0. -1.
</event>
<event>
 5   0  0.6814789E-05  0.2279966E+04  0.7818609E-02  0.8485862E-01
       -2   -1    0    0    0  501  0.00000000000E+00  0.00000000000E+00  0.87256759690E+03  0.87256759690E+03  0.25500000920E-02 0. -1.
        2   -1    0    0  501    0  0.00000000000E+00  0.00000000000E+00 -0.14893537284E+04  0.14893537285E+04  0.25500000920E-02 0.  1.
    10030    2    1    2    0    0  0.00000000000E+00  0.00000000000E+00 -0.61678613155E+03  0.23619213254E+04  0.22799664943E+04 0.  0.
        1    1    3    3  502    0  0.92502129777E+03 -0.19301747279E+03  0.35221351559E+03  0.10084515391E+04  0.50400001928E-02 0. -1.
       -1    1    3    3    0  502 -0.92502129777E+03  0.19301747279E+03 -0.96899964714E+03  0.13534697863E+04  0.50400001928E-02 0.  1.
</event>
<event>
 5   0  0.2962279E-05  0.2258724E+04  0.7818609E-02  0.8494376E-01
        1   -1    0    0  501    0  0.00000000000E+00  0.00000000000E+00  0.97685139385E+03  0.97685139386E+03  0.50400001928E-02 0. -1.
       -1   -1    0    0    0  501  0.00000000000E+00  0.00000000000E+00 -0.13056830314E+04  0.13056830314E+04  0.50400001928E-02 0.  1.
    10030    2    1    2    0    0  0.00000000000E+00  0.00000000000E+00 -0.32883163754E+03  0.22825344253E+04  0.22587237894E+04 0.  0.
        1    1    3    3  502    0  0.14671351807E+02 -0.84812269814E+03 -0.91788350013E+03  0.12498149781E+04  0.50400001928E-02 0.  1.
       -1    1    3    3    0  502 -0.14671351807E+02  0.84812269814E+03  0.58905186259E+03  0.10327194471E+04  0.50400001928E-02 0. -1.
</event>
<event>
 5   0  0.6495405E-05  0.2216968E+04  0.7818609E-02  0.8511399E-01
        2   -1    0    0  501    0  0.00000000000E+00  0.00000000000E+00  0.23185557386E+04  0.23185557386E+04  0.25500000920E-02 0.  1.
       -2   -1    0    0    0  501  0.00000000000E+00  0.00000000000E+00 -0.52995803257E+03  0.52995803257E+03  0.25500000920E-02 0. -1.
    10030    2    1    2    0    0  0.00000000000E+00  0.00000000000E+00  0.17885977060E+04  0.28485137712E+04  0.22169684144E+04 0.  0.
        5    1    3    3  502    0 -0.67271865597E+03 -0.48468297774E+03  0.18395705105E+04  0.20177982387E+04  0.46999998093E+01 0.  1.
       -5    1    3    3    0  502  0.67271865597E+03  0.48468297774E+03 -0.50972804531E+02  0.83071553242E+03  0.46999998093E+01 0. -1.
</event>
<event>
 5   0  0.3006265E-05  0.2309941E+04  0.7818609E-02  0.8474012E-01
       -1   -1    0    0    0  501  0.00000000000E+00  0.00000000000E+00  0.94474932780E+03  0.94474932781E+03  0.50400001928E-02 0. -1.
        1   -1    0    0  501    0  0.00000000000E+00  0.00000000000E+00 -0.14119689141E+04  0.14119689142E+04  0.50400001928E-02 0.  1.
    10030    2    1    2    0    0  0.00000000000E+00  0.00000000000E+00 -0.46721958635E+03  0.23567182420E+04  0.23099408499E+04 0.  0.
        2    1    3    3  502    0 -0.27894207036E+03  0.10279683302E+04  0.22200843033E+03  0.10880327705E+04  0.25500000920E-02 0. -1.
       -2    1    3    3    0  502  0.27894207036E+03 -0.10279683302E+04 -0.68922801668E+03  0.12686854715E+04  0.25500000920E-02 0.  1.
</event>
<event>
 5   0  0.6468758E-05  0.2260228E+04  0.7818609E-02  0.8493770E-01
       -2   -1    0    0    0  501  0.00000000000E+00  0.00000000000E+00  0.72144755404E+03  0.72144755405E+03  0.25500000920E-02 0. -1.
        2   -1    0    0  501    0  0.00000000000E+00  0.00000000000E+00 -0.17702705306E+04  0.17702705306E+04  0.25500000920E-02 0.  1.
    10030    2    1    2    0    0  0.00000000000E+00  0.00000000000E+00 -0.10488229765E+04  0.24917180846E+04  0.22602277268E+04 0.  0.
        3    1    3    3  502    0  0.22916924002E+03  0.80840170610E+03  0.30871793439E+03  0.89517519638E+03  0.10100000352E+00 0. -1.
       -3    1    3    3    0  502 -0.22916924002E+03 -0.80840170610E+03 -0.13575409109E+04  0.15965428883E+04  0.10100000352E+00 0.  1.
</event>
<event>
 5   0  0.6676612E-05  0.2354261E+04  0.7818609E-02  0.8456829E-01
       -2   -1    0    0    0  501  0.00000000000E+00  0.00000000000E+00  0.16179803970E+04  0.16179803970E+04  0.25500000920E-02 0.  1.
        2   -1    0    0  501    0  0.00000000000E+00  0.00000000000E+00 -0.85639889148E+03  0.85639889148E+03  0.25500000920E-02 0. -1.
    10030    2    1    2    0    0  0.00000000000E+00  0.00000000000E+00  0.76158150557E+03  0.24743792885E+04  0.23542613436E+04 0.  0.
        2    1    3    3  502    0  0.30247578903E+03 -0.75432439778E+02 -0.81222511869E+03  0.86999499962E+03  0.25500000920E-02 0. -1.
       -2    1    3    3    0  502 -0.30247578903E+03  0.75432439778E+02  0.15738066243E+04  0.16043842889E+04  0.25500000920E-02 0.  1.
</event>
<event>
 5   0  0.3006265E-05  0.2212012E+04  0.7818609E-02  0.8513445E-01
        1   -1    0    0  501    0  0.00000000000E+00  0.00000000000E+00  0.89852227718E+03  0.89852227719E+03  0.50400001928E-02 0.  1.
       -1   -1    0    0    0  501  0.00000000000E+00  0.00000000000E+00 -0.13614008365E+04  0.13614008365E+04  0.50400001928E-02 0. -1.
    10030    2    1    2    0    0  0.00000000000E+00  0.00000000000E+00 -0.46287855931E+03  0.22599231137E+04  0.22120117358E+04 0.  0.
        2    1    3    3  502    0  0.12460566142E+03  0.87823937716E+03 -0.90636746862E+03  0.12682006792E+04  0.25500000920E-02 0. -1.
       -2    1    3    3    0  502 -0.12460566142E+03 -0.87823937716E+03  0.44348890931E+03  0.99172243452E+03  0.25500000920E-02 0.  1.
</event>
<event>
 5   0  0.6495405E-05  0.2295275E+04  0.7818609E-02  0.8479787E-01
       -2   -1    0    0    0  501  0.00000000000E+00  0.00000000000E+00  0.11541993502E+04  0.11541993502E+04  0.25500000920E-02 0. -1.
        2   -1    0    0  501    0  0.00000000000E+00  0.00000000000E+00 -0.11411127167E+04  0.11411127167E+04  0.25500000920E-02 0.  1.
    10030    2    1    2    0    0  0.00000000000E+00  0.00000000000E+00  0.13086633553E+02  0.22953120669E+04  0.22952747601E+04 0.  0.
        5    1    3    3  502    0 -0.18063604718E+03  0.10689419553E+04 -0.37000387779E+03  0.11455091641E+04  0.46999998093E+01 0.  1.
       -5    1    3    3    0  502  0.18063604718E+03 -0.10689419553E+04  0.38309051134E+03  0.11498029028E+04  0.46999998093E+01 0. -1.
</event>
<event>
 5   0  0.6495405E-05  0.2284955E+04  0.7818609E-02  0.8483877E-01
       -2   -1    0    0    0  501  0.00000000000E+00  0.00000000000E+00  0.16416358229E+04  0.16416358229E+04  0.25500000920E-02 0.  1.
        2   -1    0    0  501    0  0.00000000000E+00  0.00000000000E+00 -0.79509432481E+03  0.79509432482E+03  0.25500000920E-02 0. -1.
    10030    2    1    2    0    0  0.00000000000E+00  0.00000000000E+00  0.84654149810E+03  0.24367301477E+04  0.22849554273E+04 0.  0.
        5    1    3    3  502    0  0.58853807582E+03  0.13192807542E+03 -0.61146296468E+03  0.85888947540E+03  0.46999998093E+01 0. -1.
       -5    1    3    3    0  502 -0.58853807582E+03 -0.13192807542E+03  0.14580044628E+04  0.15778406723E+04  0.46999998093E+01 0.  1.
</event>
<event>
 5   0  0.6468758E-05  0.2303652E+04  0.7818609E-02  0.8476482E-01
        2   -1    0    0  501    0  0.00000000000E+00  0.00000000000E+00  0.17561846899E+04  0.17561846899E+04  0.25500000920E-02 0.  1.
       -2   -1    0    0    0  501  0.00000000000E+00  0.00000000000E+00 -0.75544649979E+03  0.75544649980E+03  0.25500000920E-02 0. -1.
    10030    2    1    2    0    0  0.00000000000E+00  0.00000000000E+00  0.10007381901E+04  0.25116311897E+04  0.23036523843E+04 0.  0.
        3    1    3    3  502    0 -0.58733256782E+03  0.83234744304E+03 -0.85693596720E+02  0.10223038755E+04  0.10100000352E+00 0. -1.
       -3    1    3    3    0  502  0.58733256782E+03 -0.83234744304E+03  0.10864317868E+04  0.14893273142E+04  0.10100000352E+00 0.  1.
</event>
<event>
 5   0  0.6814789E-05  0.2306703E+04  0.7818609E-02  0.8475283E-01
       -2   -1    0    0    0  501  0.00000000000E+00  0.00000000000E+00  0.10857189763E+04  0.10857189763E+04  0.25500000920E-02 0. -1.
        2   -1    0    0  501    0  0.00000000000E+00  0.00000000000E+00 -0.12251967756E+04  0.12251967756E+04  0.25500000920E-02 0.  1.
    10030    2    1    2    0    0  0.00000000000E+00  0.00000000000E+00 -0.13947779929E+03  0.23109157519E+04  0.23067027455E+04 0.  0.
        1    1    3    3  502    0 -0.58394040315E+02 -0.87002018585E+03  0.68654012390E+03  0.11098118442E+04  0.50400001928E-02 0. -1.
       -1    1    3    3    0  502  0.58394040315E+02  0.87002018585E+03 -0.82601792319E+03  0.12011039077E+04  0.50400001928E-02 0.  1.
</event>
<event>
 5   0  0.2944089E-05  0.2289047E+04  0.7818609E-02  0.8482252E-01
        1   -1    0    0  501    0  0.00000000000E+00  0.00000000000E+00  0.15538504786E+04  0.15538504786E+04  0.50400001928E-02 0.  1.
       -1   -1    0    0    0  501  0.00000000000E+00  0.00000000000E+00 -0.84302431170E+03  0.84302431171E+03  0.50400001928E-02 0. -1.
    10030    2    1    2    0    0  0.00000000000E+00  0.00000000000E+00  0.71082616687E+03  0.23968747903E+04  0.22890467275E+04 0.  0.
        5    1    3    3  502    0 -0.74600630156E+02 -0.11040215918E+04  0.66155995993E+03  0.12892294597E+04  0.46999998093E+01 0.  1.
       -5    1    3    3    0  502  0.74600630156E+02  0.11040215918E+04  0.49266206939E+02  0.11076453306E+04  0.46999998093E+01 0. -1.
</event>
<event>
 5   0  0.2962279E-05  0.2330861E+04  0.7818609E-02  0.8465851E-01
       -1   -1    0    0    0  501  0.00000000000E+00  0.00000000000E+00  0.84945121216E+03  0.84945121217E+03  0.50400001928E-02 0. -1.
        1   -1    0    0  501    0  0.00000000000E+00  0.00000000000E+00 -0.15989485037E+04  0.15989485037E+04  0.50400001928E-02 0.  1.
    10030    2    1    2    0    0  0.00000000000E+00  0.00000000000E+00 -0.74949729158E+03  0.24483997159E+04  0.23308614242E+04 0.  0.
        1    1    3    3  502    0 -0.32874095004E+03  0.81333293756E+03 -0.11806716992E+04  0.14709067751E+04  0.50400001928E-02 0.  1.
       -1    1    3    3    0  502  0.32874095004E+03 -0.81333293756E+03  0.43117440766E+03  0.97749294084E+03  0.50400001928E-02 0. -1.
</event>
<event>
 5   0  0.6676612E-05  0.2287443E+04  0.7818609E-02  0.8482889E-01
       -2   -1    0    0    0  501  0.00000000000E+00  0.00000000000E+00  0.26273536153E+04  0.26273536153E+04  0.25500000920E-02 0.  1.
        2   -1    0    0  501    0  0.00000000000E+00  0.00000000000E+00 -0.49787684117E+03  0.49787684117E+03  0.25500000920E-02 0. -1.
    10030    2    1    2    0    0  0.00000000000E+00  0.00000000000E+00  0.21294767741E+04  0.31252304564E+04  0.22874426931E+04 0.  0.
        2    1    3    3  502    0  0.21282599110E+03  0.32118150154E+03 -0.40653897822E+03  0.56011284599E+03  0.25500000920E-02 0. -1.
       -2    1    3    3    0  502 -0.21282599110E+03 -0.32118150154E+03  0.25360157523E+04  0.25651176104E+04  0.25500000920E-02 0.  1.
</event>
<event>
 5   0  0.3006265E-05  0.2328924E+04  0.7818609E-02  0.8466603E-01
       -1   -1    0    0    0  501  0.00000000000E+00  0.00000000000E+00  0.89795167262E+03  0.89795167264E+03  0.50400001928E-02 0. -1.
        1   -1    0    0  501    0  0.00000000000E+00  0.00000000000E+00 -0.15100723365E+04  0.15100723365E+04  0.50400001928E-02 0.  1.
    10030    2    1    2    0    0  0.00000000000E+00  0.00000000000E+00 -0.61212066388E+03  0.24080240091E+04  0.23289241983E+04 0.  0.
        2    1    3    3  502    0 -0.15177896231E+03 -0.10741477778E+03  0.88250251123E+03  0.90187885563E+03  0.25500000920E-02 0. -1.
       -2    1    3    3    0  502  0.15177896231E+03  0.10741477778E+03 -0.14946231751E+04  0.15061451535E+04  0.25500000920E-02 0.  1.
</event>
<event>
 5   0  0.6814789E-05  0.2256733E+04  0.7818609E-02  0.8495179E-01
        2   -1    0    0  501    0  0.00000000000E+00  0.00000000000E+00  0.10160491816E+04  0.10160491816E+04  0.25500000920E-02 0. -1.
       -2   -1    0    0    0  501  0.00000000000E+00  0.00000000000E+00 -0.12531001560E+04  0.12531001560E+04  0.25500000920E-02 0.  1.
    10030    2    1    2    0    0  0.00000000000E+00  0.00000000000E+00 -0.23705097441E+03  0.22691493376E+04  0.22567333808E+04 0.  0.
        1    1    3    3  502    0  0.10428377039E+04  0.42519694234E+03 -0.48079548028E+02  0.11272154006E+04  0.50400001928E-02 0. -1.
       -1    1    3    3    0  502 -0.10428377039E+04 -0.42519694234E+03 -0.18897142638E+03  0.11419339370E+04  0.50400001928E-02 0.  1.
</event>
<event>
 5   0  0.6495405E-05  0.2367813E+04  0.7818609E-02  0.8451653E-01
        2   -1    0    0  501    0  0.00000000000E+00  0.00000000000E+00  0.11375933489E+04  0.11375933489E+04  0.25500000920E-02 0.  1.
       -2   -1    0    0    0  501  0.00000000000E+00  0.00000000000E+00 -0.12321054468E+04  0.12321054468E+04  0.25500000920E-02 0. -1.
    10030    2    1    2    0    0  0.00000000000E+00  0.00000000000E+00 -0.94512097910E+02  0.23696987956E+04  0.23678133046E+04 0.  0.
        5    1    3    3  502    0 -0.10746663923E+04  0.45110566087E+03 -0.25528859688E+03  0.11931464829E+04  0.46999998093E+01 0. -1.
       -5    1    3    3    0  502  0.10746663923E+04 -0.45110566087E+03  0.16077649897E+03  0.11765523127E+04  0.46999998093E+01 0.  1.
</event>
<event>
 5   0  0.3118614E-05  0.2296444E+04  0.7818609E-02  0.8479325E-01
       -1   -1    0    0    0  501  0.00000000000E+00  0.00000000000E+00  0.10146022450E+04  0.10146022450E+04  0.50400001928E-02 0.  1.
        1   -1    0    0  501    0  0.00000000000E+00  0.00000000000E+00 -0.12994389667E+04  0.12994389667E+04  0.50400001928E-02 0. -1.
    10030    2    1    2    0    0  0.00000000000E+00  0.00000000000E+00 -0.28483672174E+03  0.23140412117E+04  0.22964439404E+04 0.  0.
        3    1    3    3  502    0  0.43754474375E+03  0.49337334216E+03 -0.10895951755E+04  0.12736091685E+04  0.10100000352E+00 0. -1.
       -3    1    3    3    0  502 -0.43754474375E+03 -0.49337334216E+03  0.80475845371E+03  0.10404320432E+04  0.10100000352E+00 0.  1.
</event>
<event>
 5   0  0.2944089E-05  0.2295238E+04  0.7818609E-02  0.8479801E-01
        1   -1    0    0  501    0  0.00000000000E+00  0.00000000000E+00  0.16575486542E+04  0.16575486542E+04  0.50400001928E-02 0. -1.
       -1   -1    0    0    0  501  0.00000000000E+00  0.00000000000E+00 -0.79456478583E+03  0.79456478584E+03  0.50400001928E-02 0.  1.
    10030    2    1    2    0    0  0.00000000000E+00  0.00000000000E+00  0.86298386841E+03  0.24521134401E+04  0.22952383680E+04 0.  0.
        5    1    3    3  502    0 -0.55588085106E+03 -0.78418612451E+03 -0.23830035740E+03  0.99033355431E+03  0.46999998093E+01 0.  1.
       -5    1    3    3    0  502  0.55588085106E+03  0.78418612451E+03  0.11012842258E+04  0.14617798858E+04  0.46999998093E+01 0. -1.
</event>
<event>
 5   0  0.6814789E-05  0.2281672E+04  0.7818609E-02  0.8485183E-01
       -2   -1    0    0    0  501  0.00000000000E+00  0.00000000000E+00  0.89819269538E+03  0.89819269538E+03  0.25500000920E-02 0. -1.
        2   -1    0    0  501    0  0.00000000000E+00  0.00000000000E+00 -0.14490289886E+04  0.14490289886E+04  0.25500000920E-02 0.  1.
    10030    2    1    2    0    0  0.00000000000E+00  0.00000000000E+00 -0.55083629318E+03  0.23472216839E+04  0.22816724155E+04 0.  0.
        1    1    3    3  502    0 -0.71069912793E+03 -0.69392338111E+03 -0.85268464018E+03  0.13090813592E+04  0.50400001928E-02 0.  1.
       -1    1    3    3    0  502  0.71069912793E+03  0.69392338111E+03  0.30184834701E+03  0.10381403248E+04  0.50400001928E-02 0. -1.
</event>
<event>
 5   0  0.6702421E-05  0.2289245E+04  0.7818609E-02  0.8482174E-01
       -2   -1    0    0    0  501  0.00000000000E+00  0.00000000000E+00  0.87712533727E+03  0.87712533728E+03  0.25500000920E-02 0. -1.
        2   -1    0    0  501    0  0.00000000000E+00  0.00000000000E+00 -0.14936981681E+04  0.14936981681E+04  0.25500000920E-02 0.  1.
    10030    2    1    2    0    0  0.00000000000E+00  0.00000000000E+00 -0.61657283084E+03  0.23708235054E+04  0.22892448620E+04 0.  0.
        4    1    3    3  502    0 -0.55178728422E+03 -0.95325505862E+03 -0.63082412086E+03  0.12692931490E+04  0.12699999809E+01 0.  1.
       -4    1    3    3    0  502  0.55178728422E+03  0.95325505862E+03  0.14251290022E+02  0.11015303564E+04  0.12699999809E+01 0. -1.
</event>
<event>
 5   0  0.2342500E-05  0.2216827E+04  0.7818609E-02  0.8511457E-01
       -4   -1    0    0    0  501  0.00000000000E+00  0.00000000000E+00  0.10757044391E+04  0.10757051888E+04  0.12699999809E+01 0.  1.
        4   -1    0    0  501    0  0.00000000000E+00  0.00000000000E+00 -0.11421153926E+04  0.11421160987E+04  0.12699999809E+01 0. -1.
    10030    2    1    2    0    0  0.00000000000E+00  0.00000000000E+00 -0.66410953518E+02  0.22178212875E+04  0.22168267520E+04 0.  0.
        1    1    3    3  502    0  0.10614290274E+04  0.61090803433E+02  0.28033031244E+03  0.10995220556E+04  0.50400001928E-02 0. -1.
       -1    1    3    3    0  502 -0.10614290274E+04 -0.61090803433E+02 -0.34674126596E+03  0.11182992319E+04  0.50400001928E-02 0.  1.
</event>
<event>
 5   0  0.2982385E-05  0.1986003E+04  0.7818609E-02  0.8613193E-01
        1   -1    0    0  501    0  0.00000000000E+00  0.00000000000E+00  0.15971828367E+04  0.15971828367E+04  0.50400001928E-02 0.  1.
       -1   -1    0    0    0  501  0.00000000000E+00  0.00000000000E+00 -0.61736965480E+03  0.61736965482E+03  0.50400001928E-02 0. -1.
    10030    2    1    2    0    0  0.00000000000E+00  0.00000000000E+00  0.97981318189E+03  0.22145524915E+04  0.19860032392E+04 0.  0.
        4    1    3    3  502    0 -0.37308982903E+03 -0.70722372320E+03 -0.16665606238E+03  0.81678471533E+03  0.12699999809E+01 0. -1.
       -4    1    3    3    0  502  0.37308982903E+03  0.70722372320E+03  0.11464692443E+04  0.13977677762E+04  0.12699999809E+01 0.  1.
</event>
<event>
 5   0  0.6468758E-05  0.2297832E+04  0.7818609E-02  0.8478776E-01
        2   -1    0    0  501    0  0.00000000000E+00  0.00000000000E+00  0.13399508114E+04  0.13399508114E+04  0.25500000920E-02 0.  1.
       -2   -1    0    0    0  501  0.00000000000E+00  0.00000000000E+00 -0.98511711711E+03  0.98511711711E+03  0.25500000920E-02 0. -1.
    10030    2    1    2    0    0  0.00000000000E+00  0.00000000000E+00  0.35483369427E+03  0.23250679285E+04  0.22978324398E+04 0.  0.
        3    1    3    3  502    0  0.10542682431E+03  0.10532837352E+04  0.62935043507E+03  0.12315045361E+04  0.10100000352E+00 0.  1.
       -3    1    3    3    0  502 -0.10542682431E+03 -0.10532837352E+04 -0.27451674080E+03  0.10935633924E+04  0.10100000352E+00 0. -1.
</event>
<event>
 5   0  0.2962279E-05  0.1672996E+04  0.7818609E-02  0.8776917E-01
        1   -1    0    0  501    0  0.00000000000E+00  0.00000000000E+00  0.20202124908E+04  0.20202124908E+04  0.50400001928E-02 0.  1.
       -1   -1    0    0    0  501  0.00000000000E+00  0.00000000000E+00 -0.34636403627E+03  0.34636403631E+03  0.50400001928E-02 0. -1.
    10030    2    1    2    0    0  0.00000000000E+00  0.00000000000E+00  0.16738484545E+04  0.23665765271E+04  0.16729960579E+04 0.  0.
        1    1    3    3  502    0  0.30412821314E+03 -0.48757661416E+03 -0.22950576572E+02  0.57511012311E+03  0.50400001928E-02 0. -1.
       -1    1    3    3    0  502 -0.30412821314E+03  0.48757661416E+03  0.16967990311E+04  0.17914664040E+04  0.50400001928E-02 0.  1.
</event>
<event>
 5   0  0.6468758E-05  0.2287347E+04  0.7818609E-02  0.8482927E-01
       -2   -1    0    0    0  501  0.00000000000E+00  0.00000000000E+00  0.57174172284E+03  0.57174172285E+03  0.25500000920E-02 0. -1.
        2   -1    0    0  501    0  0.00000000000E+00  0.00000000000E+00 -0.22877279617E+04  0.22877279617E+04  0.25500000920E-02 0.  1.
    10030    2    1    2    0    0  0.00000000000E+00  0.00000000000E+00 -0.17159862389E+04  0.28594696846E+04  0.22873473949E+04 0.  0.
        3    1    3    3  502    0 -0.58284091832E+01 -0.60824076901E+03  0.35275691179E+03  0.70315592329E+03  0.10100000352E+00 0. -1.
       -3    1    3    3    0  502  0.58284091832E+01  0.60824076901E+03 -0.20687431507E+04  0.21563137613E+04  0.10100000352E+00 0.  1.
</event>
<event>
 5   0  0.3006265E-05  0.2304083E+04  0.7818609E-02  0.8476313E-01
        1   -1    0    0  501    0  0.00000000000E+00  0.00000000000E+00  0.73380054431E+03  0.73380054432E+03  0.50400001928E-02 0.  1.
       -1   -1    0    0    0  501  0.00000000000E+00  0.00000000000E+00 -0.18086653686E+04  0.18086653686E+04  0.50400001928E-02 0. -1.
    10030    2    1    2    0    0  0.00000000000E+00  0.00000000000E+00 -0.10748648243E+04  0.25424659129E+04  0.23040830124E+04 0.  0.
        2    1    3    3  502    0  0.75446265324E+03 -0.24097594228E+03 -0.14605990067E+04  0.16615151995E+04  0.25500000920E-02 0. -1.
       -2    1    3    3    0  502 -0.75446265324E+03  0.24097594228E+03  0.38573418243E+03  0.88095071338E+03  0.25500000920E-02 0.  1.
</event>
<event>
 5   0  0.6814789E-05  0.2171843E+04  0.7818609E-02  0.8530240E-01
        2   -1    0    0  501    0  0.00000000000E+00  0.00000000000E+00  0.28774106220E+04  0.28774106220E+04  0.25500000920E-02 0. -1.
       -2   -1    0    0    0  501  0.00000000000E+00  0.00000000000E+00 -0.40982168862E+03  0.40982168863E+03  0.25500000920E-02 0.  1.
    10030    2    1    2    0    0  0.00000000000E+00  0.00000000000E+00  0.24675889334E+04  0.32872323107E+04  0.21718427936E+04 0.  0.
        1    1    3    3  502    0 -0.32568955908E+03  0.10287736183E+04  0.10498076012E+04  0.15055048476E+04  0.50400001928E-02 0.  1.
       -1    1    3    3    0  502  0.32568955908E+03 -0.10287736183E+04  0.14177813322E+04  0.17817274630E+04  0.50400001928E-02 0. -1.
</event>
<event>
 5   0  0.6676612E-05  0.2304141E+04  0.7818609E-02  0.8476290E-01
       -2   -1    0    0    0  501  0.00000000000E+00  0.00000000000E+00  0.84541811739E+03  0.84541811740E+03  0.25500000920E-02 0. -1.
        2   -1    0    0  501    0  0.00000000000E+00  0.00000000000E+00 -0.15699530240E+04  0.15699530240E+04  0.25500000920E-02 0.  1.
    10030    2    1    2    0    0  0.00000000000E+00  0.00000000000E+00 -0.72453490665E+03  0.24153711414E+04  0.23041412543E+04 0.  0.
        2    1    3    3  502    0 -0.96640228707E+03  0.48000637778E+03 -0.78539529824E+03  0.13346105341E+04  0.25500000920E-02 0. -1.
       -2    1    3    3    0  502  0.96640228707E+03 -0.48000637778E+03  0.60860391594E+02  0.10807606074E+04  0.25500000920E-02 0.  1.
</event>
<event>
 5   0  0.2342500E-05  0.2078887E+04  0.7818609E-02  0.8570601E-01
       -3   -1    0    0    0  501  0.00000000000E+00  0.00000000000E+00  0.71290417466E+03  0.71290418181E+03  0.10100000352E+00 0. -1.
        3   -1    0    0  501    0  0.00000000000E+00  0.00000000000E+00 -0.15155512454E+04  0.15155512488E+04  0.10100000352E+00 0.  1.
    10030    2    1    2    0    0  0.00000000000E+00  0.00000000000E+00 -0.80264707073E+03  0.22284554306E+04  0.20788870306E+04 0.  0.
        1    1    3    3  502    0 -0.83069695510E+03 -0.13298518752E+03 -0.10557380925E+04  0.13499353360E+04  0.50400001928E-02 0.  1.
       -1    1    3    3    0  502  0.83069695510E+03  0.13298518752E+03  0.25309102176E+03  0.87852009461E+03  0.50400001928E-02 0. -1.
</event>
<event>
 5   0  0.2982385E-05  0.2306386E+04  0.7818609E-02  0.8475407E-01
       -1   -1    0    0    0  501  0.00000000000E+00  0.00000000000E+00  0.60969459257E+03  0.60969459259E+03  0.50400001928E-02 0.  1.
        1   -1    0    0  501    0  0.00000000000E+00  0.00000000000E+00 -0.21811807738E+04  0.21811807738E+04  0.50400001928E-02 0. -1.
    10030    2    1    2    0    0  0.00000000000E+00  0.00000000000E+00 -0.15714861812E+04  0.27908753664E+04  0.23063860243E+04 0.  0.
        4    1    3    3  502    0  0.65927728063E+03  0.92541597341E+03 -0.54735350391E+03  0.12612052679E+04  0.12699999809E+01 0.  1.
       -4    1    3    3    0  502 -0.65927728063E+03 -0.92541597341E+03 -0.10241326773E+04  0.15296700985E+04  0.12699999809E+01 0. -1.
</event>
<event>
 5   0  0.6702421E-05  0.2227298E+04  0.7818609E-02  0.8507151E-01
       -2   -1    0    0    0  501  0.00000000000E+00  0.00000000000E+00  0.60044358358E+03  0.60044358359E+03  0.25500000920E-02 0.  1.
        2   -1    0    0  501    0  0.00000000000E+00  0.00000000000E+00 -0.20654970131E+04  0.20654970131E+04  0.25500000920E-02 0. -1.
    10030    2    1    2    0    0  0.00000000000E+00  0.00000000000E+00 -0.14650534295E+04  0.26659405967E+04  0.22272982992E+04 0.  0.
        4    1    3    3  502    0 -0.12388704089E+03 -0.54310456040E+03 -0.18867523950E+04  0.19672688620E+04  0.12699999809E+01 0. -1.
       -4    1    3    3    0  502  0.12388704089E+03  0.54310456040E+03  0.42169896551E+03  0.69867173468E+03  0.12699999809E+01 0.  1.
</event>
<event>
 5   0  0.6495405E-05  0.2300719E+04  0.7818609E-02  0.8477638E-01
        2   -1    0    0  501    0  0.00000000000E+00  0.00000000000E+00  0.17505460774E+04  0.17505460774E+04  0.25500000920E-02 0.  1.
       -2   -1    0    0    0  501  0.00000000000E+00  0.00000000000E+00 -0.75595098795E+03  0.75595098795E+03  0.25500000920E-02 0. -1.
    10030    2    1    2    0    0  0.00000000000E+00  0.00000000000E+00  0.99459508943E+03  0.25064970653E+04  0.23007190499E+04 0.  0.
        5    1    3    3  502    0  0.92874639044E+03 -0.65230352892E+03  0.70179690416E+03  0.13343952699E+04  0.46999998093E+01 0.  1.
       -5    1    3    3    0  502 -0.92874639044E+03  0.65230352892E+03  0.29279818527E+03  0.11721017954E+04  0.46999998093E+01 0. -1.
</event>
<event>
 5   0  0.2962279E-05  0.2248230E+04  0.7818609E-02  0.8498618E-01
        1   -1    0    0  501    0  0.00000000000E+00  0.00000000000E+00  0.76471886262E+03  0.76471886264E+03  0.50400001928E-02 0.  1.
       -1   -1    0    0    0  501  0.00000000000E+00  0.00000000000E+00 -0.16524174539E+04  0.16524174539E+04  0.50400001928E-02 0. -1.
    10030    2    1    2    0    0  0.00000000000E+00  0.00000000000E+00 -0.88769859126E+03  0.24171363165E+04  0.22482302337E+04 0.  0.
        1    1    3    3  502    0  0.46374232993E+03 -0.55655272438E+03 -0.13679764103E+04  0.15479558594E+04  0.50400001928E-02 0. -1.
       -1    1    3    3    0  502 -0.46374232993E+03  0.55655272438E+03  0.48027781901E+03  0.86918045712E+03  0.50400001928E-02 0.  1.
</event>
<event>
 5   0  0.6702421E-05  0.2368231E+04  0.7818609E-02  0.8451494E-01
       -2   -1    0    0    0  501  0.00000000000E+00  0.00000000000E+00  0.13483273148E+04  0.13483273148E+04  0.25500000920E-02 0. -1.
        2   -1    0    0  501    0  0.00000000000E+00  0.00000000000E+00 -0.10399026194E+04  0.10399026194E+04  0.25500000920E-02 0.  1.
    10030    2    1    2    0    0  0.00000000000E+00  0.00000000000E+00  0.30842469544E+03  0.23882299342E+04  0.23682306530E+04 0.  0.
        4    1    3    3  502    0  0.62205276753E+03 -0.88689592774E+03  0.63636442399E+03  0.12563818390E+04  0.12699999809E+01 0. -1.
       -4    1    3    3    0  502 -0.62205276753E+03  0.88689592774E+03 -0.32793972854E+03  0.11318480952E+04  0.12699999809E+01 0.  1.
</event>
<event>
 5   0  0.3118614E-05  0.1984211E+04  0.7818609E-02  0.8614038E-01
       -1   -1    0    0    0  501  0.00000000000E+00  0.00000000000E+00  0.80156235254E+03  0.80156235256E+03  0.50400001928E-02 0. -1.
        1   -1    0    0  501    0  0.00000000000E+00  0.00000000000E+00 -0.12279432402E+04  0.12279432402E+04  0.50400001928E-02 0.  1.
    10030    2    1    2    0    0  0.00000000000E+00  0.00000000000E+00 -0.42638088764E+03  0.20295055927E+04  0.19842107473E+04 0.  0.
        3    1    3    3  502    0  0.46802858230E+03  0.50549540143E+03 -0.94341825435E+03  0.11681670974E+04  0.10100000352E+00 0.  1.
       -3    1    3    3    0  502 -0.46802858230E+03 -0.50549540143E+03  0.51703736671E+03  0.86133849530E+03  0.10100000352E+00 0. -1.
</event>
<event>
 5   0  0.3006265E-05  0.2307141E+04  0.7818609E-02  0.8475111E-01
        1   -1    0    0  501    0  0.00000000000E+00  0.00000000000E+00  0.61165016049E+03  0.61165016051E+03  0.50400001928E-02 0.  1.
       -1   -1    0    0    0  501  0.00000000000E+00  0.00000000000E+00 -0.21756303184E+04  0.21756303184E+04  0.50400001928E-02 0. -1.
    10030    2    1    2    0    0  0.00000000000E+00  0.00000000000E+00 -0.15639801579E+04  0.27872804789E+04  0.23071407702E+04 0.  0.
        2    1    3    3  502    0  0.90710566969E+03 -0.36951001276E+03 -0.45789553952E+02  0.98054833067E+03  0.25500000920E-02 0.  1.
       -2    1    3    3    0  502 -0.90710566969E+03  0.36951001276E+03 -0.15181906040E+04  0.18067321482E+04  0.25500000920E-02 0. -1.
</event>
<event>
 5   0  0.3006265E-05  0.2165368E+04  0.7818609E-02  0.8532982E-01
       -1   -1    0    0    0  501  0.00000000000E+00  0.00000000000E+00  0.69370401227E+03  0.69370401229E+03  0.50400001928E-02 0. -1.
        1   -1    0    0  501    0  0.00000000000E+00  0.00000000000E+00 -0.16897767202E+04  0.16897767202E+04  0.50400001928E-02 0.  1.
    10030    2    1    2    0    0  0.00000000000E+00  0.00000000000E+00 -0.99607270795E+03  0.23834807325E+04  0.21653682280E+04 0.  0.
        2    1    3    3  502    0  0.53998333369E+03  0.16869350872E+03  0.51807623321E+03  0.76710004822E+03  0.25500000920E-02 0. -1.
       -2    1    3    3    0  502 -0.53998333369E+03 -0.16869350872E+03 -0.15141489412E+04  0.16163806843E+04  0.25500000920E-02 0.  1.
</event>
<event>
 5   0  0.2962279E-05  0.2300319E+04  0.7818609E-02  0.8477795E-01
       -1   -1    0    0    0  501  0.00000000000E+00  0.00000000000E+00  0.10941083695E+04  0.10941083695E+04  0.50400001928E-02 0.  1.
        1   -1    0    0  501    0  0.00000000000E+00  0.00000000000E+00 -0.12090819873E+04  0.12090819873E+04  0.50400001928E-02 0. -1.
    10030    2    1    2    0    0  0.00000000000E+00  0.00000000000E+00 -0.11497361781E+03  0.23031903568E+04  0.23003188664E+04 0.  0.
        1    1    3    3  502    0 -0.70553806551E+03  0.74263785377E+02  0.84894303472E+03  0.11063468479E+04  0.50400001928E-02 0.  1.
       -1    1    3    3    0  502  0.70553806551E+03 -0.74263785377E+02 -0.96391665253E+03  0.11968435089E+04  0.50400001928E-02 0. -1.
</event>
<event>
 5   0  0.2944089E-05  0.2305953E+04  0.7818609E-02  0.8475578E-01
       -1   -1    0    0    0  501  0.00000000000E+00  0.00000000000E+00  0.10274136774E+04  0.10274136774E+04  0.50400001928E-02 0.  1.
        1   -1    0    0  501    0  0.00000000000E+00  0.00000000000E+00 -0.12938844597E+04  0.12938844597E+04  0.50400001928E-02 0. -1.
    10030    2    1    2    0    0  0.00000000000E+00  0.00000000000E+00 -0.26647078226E+03  0.23212981371E+04  0.23059528103E+04 0.  0.
        5    1    3    3  502    0 -0.11030694580E+04 -0.31961194957E+03 -0.23598556106E+03  0.11724441576E+04  0.46999998093E+01 0.  1.
       -5    1    3    3    0  502  0.11030694580E+04  0.31961194957E+03 -0.30485221196E+02  0.11488539795E+04  0.46999998093E+01 0. -1.
</event>
<event>
 5   0  0.3006265E-05  0.2307078E+04  0.7818609E-02  0.8475136E-01
        1   -1    0    0  501    0  0.00000000000E+00  0.00000000000E+00  0.11487600923E+04  0.11487600924E+04  0.50400001928E-02 0. -1.
       -1   -1    0    0    0  501  0.00000000000E+00  0.00000000000E+00 -0.11583380056E+04  0.11583380056E+04  0.50400001928E-02 0.  1.
    10030    2    1    2    0    0  0.00000000000E+00  0.00000000000E+00 -0.95779132715E+01  0.23070980980E+04  0.23070782166E+04 0.  0.
        2    1    3    3  502    0  0.44618784641E+03 -0.10348923027E+04 -0.25089431150E+03  0.11545707549E+04  0.25500000920E-02 0.  1.
       -2    1    3    3    0  502 -0.44618784641E+03  0.10348923027E+04  0.24131639823E+03  0.11525273431E+04  0.25500000920E-02 0. -1.
</event>
<event>
 5   0  0.6702421E-05  0.2290949E+04  0.7818609E-02  0.8481498E-01
        2   -1    0    0  501    0  0.00000000000E+00  0.00000000000E+00  0.12088785705E+04  0.12088785705E+04  0.25500000920E-02 0. -1.
       -2   -1    0    0    0  501  0.00000000000E+00  0.00000000000E+00 -0.10853963394E+04  0.10853963394E+04  0.25500000920E-02 0.  1.
    10030    2    1    2    0    0  0.00000000000E+00  0.00000000000E+00  0.12348223108E+03  0.22942749099E+04  0.22909494758E+04 0.  0.
        4    1    3    3  502    0  0.60946781190E+03 -0.42722505009E+03 -0.81023426176E+03  0.11002060848E+04  0.12699999809E+01 0.  1.
       -4    1    3    3    0  502 -0.60946781190E+03  0.42722505009E+03  0.93371649284E+03  0.11940688251E+04  0.12699999809E+01 0. -1.
</event>
<event>
 5   0  0.6702421E-05  0.2289609E+04  0.7818609E-02  0.8482029E-01
        2   -1    0    0  501    0  0.00000000000E+00  0.00000000000E+00  0.15291789497E+04  0.15291789497E+04  0.25500000920E-02 0. -1.
       -2   -1    0    0    0  501  0.00000000000E+00  0.00000000000E+00 -0.85704642996E+03  0.85704642996E+03  0.25500000920E-02 0.  1.
    10030    2    1    2    0    0  0.00000000000E+00  0.00000000000E+00  0.67213251970E+03  0.23862253796E+04  0.22896090143E+04 0.  0.
        4    1    3    3  502    0 -0.30909673390E+03 -0.36015338285E+03 -0.74968398752E+03  0.88728740785E+03  0.12699999809E+01 0.  1.
       -4    1    3    3    0  502  0.30909673390E+03  0.36015338285E+03  0.14218165072E+04  0.14989379718E+04  0.12699999809E+01 0. -1.
</event>
<event>
 5   0  0.6814789E-05  0.2187297E+04  0.7818609E-02  0.8523734E-01
        2   -1    0    0  501    0  0.00000000000E+00  0.00000000000E+00  0.91636352058E+03  0.91636352059E+03  0.25500000920E-02 0. -1.
       -2   -1    0    0    0  501  0.00000000000E+00  0.00000000000E+00 -0.13052320870E+04  0.13052320870E+04  0.25500000920E-02 0.  1.
    10030    2    1    2    0    0  0.00000000000E+00  0.00000000000E+00 -0.38886856646E+03  0.22215956076E+04  0.21872970264E+04 0.  0.
        1    1    3    3  502    0 -0.49715266741E+03  0.78079866719E+03 -0.78602780023E+03  0.12143504585E+04  0.50400001928E-02 0.  1.
       -1    1    3    3    0  502  0.49715266741E+03 -0.78079866719E+03  0.39715923377E+03  0.10072451491E+04  0.50400001928E-02 0. -1.
</event>
<event>
 5   0  0.2982385E-05  0.2125802E+04  0.7818609E-02  0.8549962E-01
       -1   -1    0    0    0  501  0.00000000000E+00  0.00000000000E+00  0.13751821904E+04  0.13751821904E+04  0.50400001928E-02 0.  1.
        1   -1    0    0  501    0  0.00000000000E+00  0.00000000000E+00 -0.82153343550E+03  0.82153343551E+03  0.50400001928E-02 0. -1.
    10030    2    1    2    0    0  0.00000000000E+00  0.00000000000E+00  0.55364875486E+03  0.21967156259E+04  0.21258016364E+04 0.  0.
        4    1    3    3  502    0  0.49336347367E+02 -0.19422375124E+03 -0.80183560995E+03  0.82649797278E+03  0.12699999809E+01 0. -1.
       -4    1    3    3    0  502 -0.49336347367E+02  0.19422375124E+03  0.13554843648E+04  0.13702176531E+04  0.12699999809E+01 0.  1.
</event>
<event>
 5   0  0.2982385E-05  0.1880750E+04  0.7818609E-02  0.8664498E-01
        1   -1    0    0  501    0  0.00000000000E+00  0.00000000000E+00  0.14818077430E+04  0.14818077430E+04  0.50400001928E-02 0.  1.
       -1   -1    0    0    0  501  0.00000000000E+00  0.00000000000E+00 -0.59677459741E+03  0.59677459743E+03  0.50400001928E-02 0. -1.
    10030    2    1    2    0    0  0.00000000000E+00  0.00000000000E+00  0.88503314559E+03  0.20785823404E+04  0.18807500837E+04 0.  0.
        4    1    3    3  502    0 -0.16832571964E+03  0.54186427640E+03 -0.38626619979E+03  0.68640631694E+03  0.12699999809E+01 0. -1.
       -4    1    3    3    0  502  0.16832571964E+03 -0.54186427640E+03  0.12712993454E+04  0.13921760235E+04  0.12699999809E+01 0.  1.
</event>
<event>
 5   0  0.6495405E-05  0.2326956E+04  0.7818609E-02  0.8467368E-01
        2   -1    0    0  501    0  0.00000000000E+00  0.00000000000E+00  0.13071053133E+04  0.13071053133E+04  0.25500000920E-02 0. -1.
       -2   -1    0    0    0  501  0.00000000000E+00  0.00000000000E+00 -0.10356324626E+04  0.10356324626E+04  0.25500000920E-02 0.  1.
    10030    2    1    2    0    0  0.00000000000E+00  0.00000000000E+00  0.27147285068E+03  0.23427377759E+04  0.23269556889E+04 0.  0.
        5    1    3    3  502    0 -0.92646476068E+03  0.64898547876E+03  0.40986884142E+03  0.12031349308E+04  0.46999998093E+01 0. -1.
       -5    1    3    3    0  502  0.92646476068E+03 -0.64898547876E+03 -0.13839599074E+03  0.11396028452E+04  0.46999998093E+01 0.  1.
</event>
<event>
 5   0  0.2944089E-05  0.2298631E+04  0.7818609E-02  0.8478461E-01
       -1   -1    0    0    0  501  0.00000000000E+00  0.00000000000E+00  0.51725225845E+03  0.51725225847E+03  0.50400001928E-02 0.  1.
        1   -1    0    0  501    0  0.00000000000E+00  0.00000000000E+00 -0.25537377854E+04  0.25537377854E+04  0.50400001928E-02 0. -1.
    10030    2    1    2    0    0  0.00000000000E+00  0.00000000000E+00 -0.20364855269E+04  0.30709900439E+04  0.22986314511E+04 0.  0.
        5    1    3    3  502    0 -0.22093217167E+03  0.39661035767E+03  0.39236518208E+03  0.60006943465E+03  0.46999998093E+01 0.  1.
       -5    1    3    3    0  502  0.22093217167E+03 -0.39661035767E+03 -0.24288507090E+04  0.24709206092E+04  0.46999998093E+01 0. -1.
</event>
<event>
 5   0  0.2944089E-05  0.2308043E+04  0.7818609E-02  0.8474756E-01
       -1   -1    0    0    0  501  0.00000000000E+00  0.00000000000E+00  0.71356018865E+03  0.71356018867E+03  0.50400001928E-02 0.  1.
        1   -1    0    0  501    0  0.00000000000E+00  0.00000000000E+00 -0.18663682351E+04  0.18663682352E+04  0.50400001928E-02 0. -1.
    10030    2    1    2    0    0  0.00000000000E+00  0.00000000000E+00 -0.11528080465E+04  0.25799284238E+04  0.23080433878E+04 0.  0.
        5    1    3    3  502    0  0.10943636026E+04 -0.36558752032E+03 -0.60032727686E+03  0.13006540121E+04  0.46999998093E+01 0.  1.
       -5    1    3    3    0  502 -0.10943636026E+04  0.36558752032E+03 -0.55248076964E+03  0.12792744118E+04  0.46999998093E+01 0. -1.
</event>
<event>
 5   0  0.6676612E-05  0.2106397E+04  0.7818609E-02  0.8558431E-01
        2   -1    0    0  501    0  0.00000000000E+00  0.00000000000E+00  0.27058488753E+04  0.27058488753E+04  0.25500000920E-02 0. -1.
       -2   -1    0    0    0  501  0.00000000000E+00  0.00000000000E+00 -0.40993674925E+03  0.40993674926E+03  0.25500000920E-02 0.  1.
    10030    2    1    2    0    0  0.00000000000E+00  0.00000000000E+00  0.22959121260E+04  0.31157856245E+04  0.21063968210E+04 0.  0.
        2    1    3    3  502    0  0.10154339622E+04  0.27771965455E+03  0.11945580456E+04  0.15922321635E+04  0.25500000920E-02 0.  1.
       -2    1    3    3    0  502 -0.10154339622E+04 -0.27771965455E+03  0.11013540805E+04  0.15235534611E+04  0.25500000920E-02 0. -1.
</event>
<event>
 5   0  0.3118614E-05  0.2336584E+04  0.7818609E-02  0.8463635E-01
       -1   -1    0    0    0  501  0.00000000000E+00  0.00000000000E+00  0.19992224945E+04  0.19992224945E+04  0.50400001928E-02 0. -1.
        1   -1    0    0  501    0  0.00000000000E+00  0.00000000000E+00 -0.68271874291E+03  0.68271874293E+03  0.50400001928E-02 0.  1.
    10030    2    1    2    0    0  0.00000000000E+00  0.00000000000E+00  0.13165037516E+04  0.26819412374E+04  0.23365844032E+04 0.  0.
        3    1    3    3  502    0  0.17051009362E+03 -0.15044816815E+02  0.19847513007E+04  0.19921189157E+04  0.10100000352E+00 0. -1.
       -3    1    3    3    0  502 -0.17051009362E+03  0.15044816815E+02 -0.66824754908E+03  0.68982232175E+03  0.10100000352E+00 0.  1.
</event>
<event>
 5   0  0.6468758E-05  0.2304462E+04  0.7818609E-02  0.8476164E-01
        2   -1    0    0  501    0  0.00000000000E+00  0.00000000000E+00  0.17792066017E+04  0.17792066017E+04  0.25500000920E-02 0. -1.
       -2   -1    0    0    0  501  0.00000000000E+00  0.00000000000E+00 -0.74619542049E+03  0.74619542049E+03  0.25500000920E-02 0.  1.
    10030    2    1    2    0    0  0.00000000000E+00  0.00000000000E+00  0.10330111813E+04  0.25254020222E+04  0.23044616016E+04 0.  0.
        3    1    3    3  502    0  0.58944303507E+03  0.19425604516E+03 -0.54737256196E+03  0.82752355523E+03  0.10100000352E+00 0.  1.
       -3    1    3    3    0  502 -0.58944303507E+03 -0.19425604516E+03  0.15803837432E+04  0.16978784670E+04  0.10100000352E+00 0. -1.
</event>
<event>
 5   0  0.6702421E-05  0.2178528E+04  0.7818609E-02  0.8527419E-01
        2   -1    0    0  501    0  0.00000000000E+00  0.00000000000E+00  0.82507403329E+03  0.82507403329E+03  0.25500000920E-02 0.  1.
       -2   -1    0    0    0  501  0.00000000000E+00  0.00000000000E+00 -0.14380476053E+04  0.14380476053E+04  0.25500000920E-02 0. -1.
    10030    2    1    2    0    0  0.00000000000E+00  0.00000000000E+00 -0.61297357201E+03  0.22631216386E+04  0.21785277026E+04 0.  0.
        4    1    3    3  502    0  0.67699687785E+03 -0.54913922816E+03  0.37203391990E+03  0.94778136454E+03  0.12699999809E+01 0.  1.
       -4    1    3    3    0  502 -0.67699687785E+03  0.54913922816E+03 -0.98500749190E+03  0.13153402740E+04  0.12699999809E+01 0. -1.
</event>
<event>
 5   0  0.6702421E-05  0.2274481E+04  0.7818609E-02  0.8488051E-01
       -2   -1    0    0    0  501  0.00000000000E+00  0.00000000000E+00  0.13283871629E+04  0.13283871629E+04  0.25500000920E-02 0. -1.
        2   -1    0    0  501    0  0.00000000000E+00  0.00000000000E+00 -0.97359875312E+03  0.97359875312E+03  0.25500000920E-02 0.  1.
    10030    2    1    2    0    0  0.00000000000E+00  0.00000000000E+00  0.35478840981E+03  0.23019859161E+04  0.22744811149E+04 0.  0.
        4    1    3    3  502    0  0.24919560587E+03  0.57374654806E+03  0.11386324449E+04  0.12991416431E+04  0.12699999809E+01 0. -1.
       -4    1    3    3    0  502 -0.24919560587E+03 -0.57374654806E+03 -0.78384403513E+03  0.10028442729E+04  0.12699999809E+01 0.  1.
</event>
<event>
 5   0  0.3006265E-05  0.2322678E+04  0.7818609E-02  0.8469033E-01
       -1   -1    0    0    0  501  0.00000000000E+00  0.00000000000E+00  0.13515135794E+04  0.13515135794E+04  0.50400001928E-02 0. -1.
        1   -1    0    0  501    0  0.00000000000E+00  0.00000000000E+00 -0.99792464659E+03  0.99792464661E+03  0.50400001928E-02 0.  1.
    10030    2    1    2    0    0  0.00000000000E+00  0.00000000000E+00  0.35358893278E+03  0.23494382260E+04  0.23226783773E+04 0.  0.
        2    1    3    3  502    0 -0.70046687617E+03  0.78842435061E+03 -0.31506063820E+03  0.11006952380E+04  0.25500000920E-02 0.  1.
       -2    1    3    3    0  502  0.70046687617E+03 -0.78842435061E+03  0.66864957098E+03  0.12487429880E+04  0.25500000920E-02 0. -1.
</event>
<event>
 5   0  0.6814789E-05  0.2285900E+04  0.7818609E-02  0.8483501E-01
       -2   -1    0    0    0  501  0.00000000000E+00  0.00000000000E+00  0.13367928243E+04  0.13367928243E+04  0.25500000920E-02 0.  1.
        2   -1    0    0  501    0  0.00000000000E+00  0.00000000000E+00 -0.97721578279E+03  0.97721578279E+03  0.25500000920E-02 0. -1.
    10030    2    1    2    0    0  0.00000000000E+00  0.00000000000E+00  0.35957704148E+03  0.23140086071E+04  0.22859003007E+04 0.  0.
        1    1    3    3  502    0 -0.24417700778E+03  0.10830287716E+04 -0.95141402242E+02  0.11142825574E+04  0.50400001928E-02 0.  1.
       -1    1    3    3    0  502  0.24417700778E+03 -0.10830287716E+04  0.45471844372E+03  0.11997260497E+04  0.50400001928E-02 0. -1.
</event>
<event>
 5   0  0.2962279E-05  0.2265601E+04  0.7818609E-02  0.8491609E-01
       -1   -1    0    0    0  501  0.00000000000E+00  0.00000000000E+00  0.13604715313E+04  0.13604715313E+04  0.50400001928E-02 0.  1.
        1   -1    0    0  501    0  0.00000000000E+00  0.00000000000E+00 -0.94322915071E+03  0.94322915072E+03  0.50400001928E-02 0. -1.
    10030    2    1    2    0    0  0.00000000000E+00  0.00000000000E+00  0.41724238062E+03  0.23037006821E+04  0.22656005006E+04 0.  0.
        1    1    3    3  502    0  0.26534452325E+03 -0.10323265231E+04 -0.18140545911E+03  0.10812093724E+04  0.50400001928E-02 0. -1.
       -1    1    3    3    0  502 -0.26534452325E+03  0.10323265231E+04  0.59864783973E+03  0.12224913097E+04  0.50400001928E-02 0.  1.
</event>
<event>
 5   0  0.2944089E-05  0.2193250E+04  0.7818609E-02  0.8521243E-01
        1   -1    0    0  501    0  0.00000000000E+00  0.00000000000E+00  0.20573443961E+04  0.20573443961E+04  0.50400001928E-02 0.  1.
       -1   -1    0    0    0  501  0.00000000000E+00  0.00000000000E+00 -0.58453320606E+03  0.58453320608E+03  0.50400001928E-02 0. -1.
    10030    2    1    2    0    0  0.00000000000E+00  0.00000000000E+00  0.14728111900E+04  0.26418776021E+04  0.21932497494E+04 0.  0.
        5    1    3    3  502    0 -0.41234806947E+03  0.10120277558E+04  0.62644853218E+03  0.12596392191E+04  0.46999998093E+01 0. -1.
       -5    1    3    3    0  502  0.41234806947E+03 -0.10120277558E+04  0.84636265782E+03  0.13822383830E+04  0.46999998093E+01 0.  1.
</event>
<event>
 5   0  0.6814789E-05  0.2293891E+04  0.7818609E-02  0.8480334E-01
        2   -1    0    0  501    0  0.00000000000E+00  0.00000000000E+00  0.14552235333E+04  0.14552235333E+04  0.25500000920E-02 0.  1.
       -2   -1    0    0    0  501  0.00000000000E+00  0.00000000000E+00 -0.90397356602E+03  0.90397356602E+03  0.25500000920E-02 0. -1.
    10030    2    1    2    0    0  0.00000000000E+00  0.00000000000E+00  0.55124996728E+03  0.23591970993E+04  0.22938906746E+04 0.  0.
        1    1    3    3  502    0 -0.47479201246E+03  0.52657806724E+03  0.12028300457E+04  0.13962492739E+04  0.50400001928E-02 0.  1.
       -1    1    3    3    0  502  0.47479201246E+03 -0.52657806724E+03 -0.65158007838E+03  0.96294782546E+03  0.50400001928E-02 0. -1.
</event>
<event>
 5   0  0.2944089E-05  0.2314611E+04  0.7818609E-02  0.8472182E-01
        1   -1    0    0  501    0  0.00000000000E+00  0.00000000000E+00  0.96017385605E+03  0.96017385606E+03  0.50400001928E-02 0.  1.
       -1   -1    0    0    0  501  0.00000000000E+00  0.00000000000E+00 -0.13949099986E+04  0.13949099986E+04  0.50400001928E-02 0. -1.
    10030    2    1    2    0    0  0.00000000000E+00  0.00000000000E+00 -0.43473614252E+03  0.23550838546E+04  0.23146110794E+04 0.  0.
        5    1    3    3  502    0 -0.56664853946E+03 -0.23078203150E+02  0.80908843092E+03  0.98806343408E+03  0.46999998093E+01 0.  1.
       -5    1    3    3    0  502  0.56664853946E+03  0.23078203150E+02 -0.12438245734E+04  0.13670204206E+04  0.46999998093E+01 0. -1.
</event>
<event>
 5   0  0.3118614E-05  0.2292502E+04  0.7818609E-02  0.8480884E-01
        1   -1    0    0  501    0  0.00000000000E+00  0.00000000000E+00  0.12368782636E+04  0.12368782636E+04  0.50400001928E-02 0. -1.
       -1   -1    0    0    0  501  0.00000000000E+00  0.00000000000E+00 -0.10622636357E+04  0.10622636358E+04  0.50400001928E-02 0.  1.
    10030    2    1    2    0    0  0.00000000000E+00  0.00000000000E+00  0.17461462783E+03  0.22991418993E+04  0.22925015169E+04 0.  0.
        3    1    3    3  502    0  0.37737857663E+03  0.62970575650E+03 -0.79555322595E+03  0.10825196882E+04  0.10100000352E+00 0.  1.
       -3    1    3    3    0  502 -0.37737857663E+03 -0.62970575650E+03  0.97016785378E+03  0.12166222111E+04  0.10100000352E+00 0. -1.
</event>
<event>
 5   0  0.2982385E-05  0.2259109E+04  0.7818609E-02  0.8494220E-01
       -1   -1    0    0    0  501  0.00000000000E+00  0.00000000000E+00  0.11329300967E+04  0.11329300967E+04  0.50400001928E-02 0.  1.
        1   -1    0    0  501    0  0.00000000000E+00  0.00000000000E+00 -0.11261892718E+04  0.11261892718E+04  0.50400001928E-02 0. -1.
    10030    2    1    2    0    0  0.00000000000E+00  0.00000000000E+00  0.67408248526E+01  0.22591193686E+04  0.22591093118E+04 0.  0.
        4    1    3    3  502    0 -0.89168063776E+03 -0.59377215912E+01  0.69674388455E+03  0.11316285918E+04  0.12699999809E+01 0.  1.
       -4    1    3    3    0  502  0.89168063776E+03  0.59377215912E+01 -0.69000305970E+03  0.11274907767E+04  0.12699999809E+01 0. -1.
</event>
<event>
 5   0  0.6495405E-05  0.2543788E+04  0.7818609E-02  0.8387550E-01
       -2   -1    0    0    0  501  0.00000000000E+00  0.00000000000E+00  0.11780294738E+04  0.11780294738E+04  0.25500000920E-02 0. -1.
        2   -1    0    0  501    0  0.00000000000E+00  0.00000000000E+00 -0.13732380339E+04  0.13732380339E+04  0.25500000920E-02 0.  1.
    10030    2    1    2    0    0  0.00000000000E+00  0.00000000000E+00 -0.19520856015E+03  0.25512675077E+04  0.25437884177E+04 0.  0.
        5    1    3    3  502    0  0.87011576198E+02  0.84901626794E+03 -0.10434003089E+04  0.13480007167E+04  0.46999998093E+01 0.  1.
       -5    1    3    3    0  502 -0.87011576198E+02 -0.84901626794E+03  0.84819174877E+03  0.12032667910E+04  0.46999998093E+01 0. -1.
</event>
<event>
 5   0  0.6814789E-05  0.2264696E+04  0.7818609E-02  0.8491972E-01
       -2   -1    0    0    0  501  0.00000000000E+00  0.00000000000E+00  0.87911176536E+03  0.87911176537E+03  0.25500000920E-02 0. -1.
        2   -1    0    0  501    0  0.00000000000E+00  0.00000000000E+00 -0.14585312588E+04  0.14585312588E+04  0.25500000920E-02 0.  1.
    10030    2    1    2    0    0  0.00000000000E+00  0.00000000000E+00 -0.57941949348E+03  0.23376430242E+04  0.22646959971E+04 0.  0.
        1    1    3    3  502    0  0.59944452905E+03  0.94126243036E+03 -0.91419759647E+02  0.11196723979E+04  0.50400001928E-02 0.  1.
       -1    1    3    3    0  502 -0.59944452905E+03 -0.94126243036E+03 -0.48799973384E+03  0.12179706263E+04  0.50400001928E-02 0. -1.
</event>
<event>
 5   0  0.3006265E-05  0.2023449E+04  0.7818609E-02  0.8595735E-01
        1   -1    0    0  501    0  0.00000000000E+00  0.00000000000E+00  0.87314745310E+03  0.87314745311E+03  0.50400001928E-02 0. -1.
       -1   -1    0    0    0  501  0.00000000000E+00  0.00000000000E+00 -0.11722952681E+04  0.11722952681E+04  0.50400001928E-02 0.  1.
    10030    2    1    2    0    0  0.00000000000E+00  0.00000000000E+00 -0.29914781497E+03  0.20454427212E+04  0.20234491618E+04 0.  0.
        2    1    3    3  502    0  0.49638283766E+03 -0.59476968997E+03 -0.80736929352E+03  0.11189245201E+04  0.25500000920E-02 0.  1.
       -2    1    3    3    0  502 -0.49638283766E+03  0.59476968997E+03  0.50822147855E+03  0.92651820106E+03  0.25500000920E-02 0. -1.
</event>
<event>
 5   0  0.2944089E-05  0.2298498E+04  0.7818609E-02  0.8478514E-01
       -1   -1    0    0    0  501  0.00000000000E+00  0.00000000000E+00  0.64567576761E+03  0.64567576763E+03  0.50400001928E-02 0. -1.
        1   -1    0    0  501    0  0.00000000000E+00  0.00000000000E+00 -0.20455670270E+04  0.20455670270E+04  0.50400001928E-02 0.  1.
    10030    2    1    2    0    0  0.00000000000E+00  0.00000000000E+00 -0.13998912594E+04  0.26912427946E+04  0.22984978228E+04 0.  0.
        5    1    3    3  502    0 -0.84216620669E+03  0.67756983289E+03 -0.24284685068E+03  0.11078544494E+04  0.46999998093E+01 0. -1.
       -5    1    3    3    0  502  0.84216620669E+03 -0.67756983289E+03 -0.11570444087E+04  0.15833883452E+04  0.46999998093E+01 0.  1.
</event>
<event>
 5   0  0.6468758E-05  0.2352454E+04  0.7818609E-02  0.8457522E-01
        2   -1    0    0  501    0  0.00000000000E+00  0.00000000000E+00  0.10991045082E+04  0.10991045082E+04  0.25500000920E-02 0. -1.
       -2   -1    0    0    0  501  0.00000000000E+00  0.00000000000E+00 -0.12587614900E+04  0.12587614900E+04  0.25500000920E-02 0.  1.
    10030    2    1    2    0    0  0.00000000000E+00  0.00000000000E+00 -0.15965698177E+03  0.23578659983E+04  0.23524544021E+04 0.  0.
        3    1    3    3  502    0  0.38034184973E+03  0.10878220634E+04  0.15628432801E+03  0.11629452118E+04  0.10100000352E+00 0.  1.
       -3    1    3    3    0  502 -0.38034184973E+03 -0.10878220634E+04 -0.31594130979E+03  0.11949207864E+04  0.10100000352E+00 0. -1.
</event>
<event>
 5   0  0.6814789E-05  0.2198370E+04  0.7818609E-02  0.8519107E-01
        2   -1    0    0  501    0  0.00000000000E+00  0.00000000000E+00  0.17451654833E+04  0.17451654833E+04  0.25500000920E-02 0.  1.
       -2   -1    0    0    0  501  0.00000000000E+00  0.00000000000E+00 -0.69231713666E+03  0.69231713666E+03  0.25500000920E-02 0. -1.
    10030    2    1    2    0    0  0.00000000000E+00  0.00000000000E+00  0.10528483467E+04  0.24374826200E+04  0.21983702786E+04 0.  0.
        1    1    3    3  502    0 -0.24916829682E+03 -0.93112844253E+03 -0.59361114451E+02  0.96571670720E+03  0.50400001928E-02 0.  1.
       -1    1    3    3    0  502  0.24916829682E+03  0.93112844253E+03  0.11122094611E+04  0.14717659128E+04  0.50400001928E-02 0. -1.
</event>
<event>
 5   0  0.2342500E-05  0.2295687E+04  0.7818609E-02  0.8479624E-01
        3   -1    0    0  501    0  0.00000000000E+00  0.00000000000E+00  0.91329061869E+03  0.91329062427E+03  0.10100000352E+00 0.  1.
       -3   -1    0    0    0  501  0.00000000000E+00  0.00000000000E+00 -0.14426341755E+04  0.14426341790E+04  0.10100000352E+00 0. -1.
    10030    2    1    2    0    0  0.00000000000E+00  0.00000000000E+00 -0.52934355683E+03  0.23559248033E+04  0.22956866245E+04 0.  0.
        2    1    3    3  502    0  0.10988866895E+04 -0.17446955722E+03 -0.55412357282E+03  0.12429981966E+04  0.25500000920E-02 0. -1.
       -2    1    3    3    0  502 -0.10988866895E+04  0.17446955722E+03  0.24780015995E+02  0.11129266067E+04  0.25500000920E-02 0.  1.
</event>
<event>
 5   0  0.3006265E-05  0.2319690E+04  0.7818609E-02  0.8470198E-01
        1   -1    0    0  501    0  0.00000000000E+00  0.00000000000E+00  0.12298780106E+04  0.12298780106E+04  0.50400001928E-02 0. -1.
       -1   -1    0    0    0  501  0.00000000000E+00  0.00000000000E+00 -0.10938000929E+04  0.10938000929E+04  0.50400001928E-02 0.  1.
    10030    2    1    2    0    0  0.00000000000E+00  0.00000000000E+00  0.13607791772E+03  0.23236781035E+04  0.23196902227E+04 0.  0.
        2    1    3    3  502    0 -0.94339969802E+03  0.66825399127E+03  0.16133496927E+03  0.11673025998E+04  0.25500000920E-02 0. -1.
       -2    1    3    3    0  502  0.94339969802E+03 -0.66825399127E+03 -0.25257051546E+02  0.11563755038E+04  0.25500000920E-02 0.  1.
</event>
<event>
 5   0  0.2944089E-05  0.2406972E+04  0.7818609E-02  0.8436898E-01
       -1   -1    0    0    0  501  0.00000000000E+00  0.00000000000E+00  0.84194929155E+03  0.84194929157E+03  0.50400001928E-02 0.  1.
        1   -1    0    0  501    0  0.00000000000E+00  0.00000000000E+00 -0.17202678903E+04  0.17202678903E+04  0.50400001928E-02 0. -1.
    10030    2    1    2    0    0  0.00000000000E+00  0.00000000000E+00 -0.87831859878E+03  0.25622171819E+04  0.24069718167E+04 0.  0.
        5    1    3    3  502    0 -0.89447672636E+03 -0.37358493288E+03 -0.11983950063E+04  0.15413717907E+04  0.46999998093E+01 0. -1.
       -5    1    3    3    0  502  0.89447672636E+03  0.37358493288E+03  0.32007640753E+03  0.10208453912E+04  0.46999998093E+01 0.  1.
</event>
<event>
 5   0  0.3006265E-05  0.2443684E+04  0.7818609E-02  0.8423328E-01
       -1   -1    0    0    0  501  0.00000000000E+00  0.00000000000E+00  0.89696110125E+03  0.89696110127E+03  0.50400001928E-02 0. -1.
        1   -1    0    0  501    0  0.00000000000E+00  0.00000000000E+00 -0.16643956754E+04  0.16643956754E+04  0.50400001928E-02 0.  1.
    10030    2    1    2    0    0  0.00000000000E+00  0.00000000000E+00 -0.76743457416E+03  0.25613567767E+04  0.24436842496E+04 0.  0.
        2    1    3    3  502    0 -0.54826947949E+03 -0.71611087748E+03 -0.12477189804E+04  0.15395508647E+04  0.25500000920E-02 0.  1.
       -2    1    3    3    0  502  0.54826947949E+03  0.71611087748E+03  0.48028440620E+03  0.10218059120E+04  0.25500000920E-02 0. -1.
</event>
<event>
 5   0  0.2944089E-05  0.2298347E+04  0.7818609E-02  0.8478573E-01
       -1   -1    0    0    0  501  0.00000000000E+00  0.00000000000E+00  0.12513893433E+04  0.12513893433E+04  0.50400001928E-02 0.  1.
        1   -1    0    0  501    0  0.00000000000E+00  0.00000000000E+00 -0.10553066991E+04  0.10553066991E+04  0.50400001928E-02 0. -1.
    10030    2    1    2    0    0  0.00000000000E+00  0.00000000000E+00  0.19608264416E+03  0.23066960424E+04  0.22983468469E+04 0.  0.
        5    1    3    3  502    0 -0.21621782776E+03 -0.63464645793E+03 -0.83865031064E+03  0.10737237583E+04  0.46999998093E+01 0. -1.
       -5    1    3    3    0  502  0.21621782776E+03  0.63464645793E+03  0.10347329548E+04  0.12329722841E+04  0.46999998093E+01 0.  1.
</event>
<event>
 5   0  0.3006265E-05  0.2039944E+04  0.7818609E-02  0.8588170E-01
        1   -1    0    0  501    0  0.00000000000E+00  0.00000000000E+00  0.17928730594E+04  0.17928730594E+04  0.50400001928E-02 0. -1.
       -1   -1    0    0    0  501  0.00000000000E+00  0.00000000000E+00 -0.58026593278E+03  0.58026593280E+03  0.50400001928E-02 0.  1.
    10030    2    1    2    0    0  0.00000000000E+00  0.00000000000E+00  0.12126071266E+04  0.23731389922E+04  0.20399442720E+04 0.  0.
        2    1    3    3  502    0 -0.15633876861E+03  0.21958075320E+03 -0.53808107672E+03  0.60182120507E+03  0.25500000920E-02 0.  1.
       -2    1    3    3    0  502  0.15633876861E+03 -0.21958075320E+03  0.17506882034E+04  0.17713177872E+04  0.25500000920E-02 0. -1.
</event>
<event>
 5   0  0.6468758E-05  0.2284279E+04  0.7818609E-02  0.8484145E-01
        2   -1    0    0  501    0  0.00000000000E+00  0.00000000000E+00  0.14155392905E+04  0.14155392905E+04  0.25500000920E-02 0. -1.
       -2   -1    0    0    0  501  0.00000000000E+00  0.00000000000E+00 -0.92154484049E+03  0.92154484049E+03  0.25500000920E-02 0.  1.
    10030    2    1    2    0    0  0.00000000000E+00  0.00000000000E+00  0.49399444997E+03  0.23370841310E+04  0.22842792558E+04 0.  0.
        3    1    3    3  502    0 -0.71068077750E+03  0.28473186826E+03  0.11141412549E+04  0.13518321458E+04  0.10100000352E+00 0. -1.
       -3    1    3    3    0  502  0.71068077750E+03 -0.28473186826E+03 -0.62014680497E+03  0.98525198514E+03  0.10100000352E+00 0.  1.
</event>
<event>
 5   0  0.6676612E-05  0.2289082E+04  0.7818609E-02  0.8482238E-01
        2   -1    0    0  501    0  0.00000000000E+00  0.00000000000E+00  0.18790884878E+04  0.18790884878E+04  0.25500000920E-02 0. -1.
       -2   -1    0    0    0  501  0.00000000000E+00  0.00000000000E+00 -0.69713288413E+03  0.69713288413E+03  0.25500000920E-02 0.  1.
    10030    2    1    2    0    0  0.00000000000E+00  0.00000000000E+00  0.11819556037E+04  0.25762213719E+04  0.22890822414E+04 0.  0.
        2    1    3    3  502    0 -0.90696873753E+03  0.63513160171E+03  0.91714133601E+03  0.14377526465E+04  0.25500000920E-02 0. -1.
       -2    1    3    3    0  502  0.90696873753E+03 -0.63513160171E+03  0.26481426764E+03  0.11384687254E+04  0.25500000920E-02 0.  1.
</event>
<event>
 5   0  0.6814789E-05  0.2275059E+04  0.7818609E-02  0.8487820E-01
        2   -1    0    0  501    0  0.00000000000E+00  0.00000000000E+00  0.21436802948E+04  0.21436802948E+04  0.25500000920E-02 0.  1.
       -2   -1    0    0    0  501  0.00000000000E+00  0.00000000000E+00 -0.60362238129E+03  0.60362238130E+03  0.25500000920E-02 0. -1.
    10030    2    1    2    0    0  0.00000000000E+00  0.00000000000E+00  0.15400579135E+04  0.27473026761E+04  0.22750590360E+04 0.  0.
        1    1    3    3  502    0  0.95656124961E+03 -0.27241566052E+03  0.10339363147E+03  0.99995497869E+03  0.50400001928E-02 0. -1.
       -1    1    3    3    0  502 -0.95656124961E+03  0.27241566052E+03  0.14366642821E+04  0.17473476974E+04  0.50400001928E-02 0.  1.
</event>
<event>
 5   0  0.3006265E-05  0.2179614E+04  0.7818609E-02  0.8526961E-01
       -1   -1    0    0    0  501  0.00000000000E+00  0.00000000000E+00  0.57148727267E+03  0.57148727269E+03  0.50400001928E-02 0.  1.
        1   -1    0    0  501    0  0.00000000000E+00  0.00000000000E+00 -0.20782260026E+04  0.20782260026E+04  0.50400001928E-02 0. -1.
    10030    2    1    2    0    0  0.00000000000E+00  0.00000000000E+00 -0.15067387299E+04  0.26497132753E+04  0.21796143790E+04 0.  0.
        2    1    3    3  502    0 -0.95065321676E+03 -0.22045404646E+03 -0.13431159263E+04  0.16602114072E+04  0.25500000920E-02 0. -1.
       -2    1    3    3    0  502  0.95065321676E+03  0.22045404646E+03 -0.16362280367E+03  0.98950186812E+03  0.25500000920E-02 0.  1.
</event>
<event>
 5   0  0.6702421E-05  0.2298085E+04  0.7818609E-02  0.8478677E-01
        2   -1    0    0  501    0  0.00000000000E+00  0.00000000000E+00  0.19152467330E+04  0.19152467330E+04  0.25500000920E-02 0. -1.
       -2   -1    0    0    0  501  0.00000000000E+00  0.00000000000E+00 -0.68936204245E+03  0.68936204246E+03  0.25500000920E-02 0.  1.
    10030    2    1    2    0    0  0.00000000000E+00  0.00000000000E+00  0.12258846906E+04  0.26046087755E+04  0.22980847675E+04 0.  0.
        4    1    3    3  502    0  0.69480095963E+03 -0.42505147904E+03  0.15315273686E+04  0.17346454470E+04  0.12699999809E+01 0. -1.
       -4    1    3    3    0  502 -0.69480095963E+03  0.42505147904E+03 -0.30564267799E+03  0.86996332845E+03  0.12699999809E+01 0.  1.
</event>
<event>
 5   0  0.2962279E-05  0.2293677E+04  0.7818609E-02  0.8480418E-01
       -1   -1    0    0    0  501  0.00000000000E+00  0.00000000000E+00  0.65197224144E+03  0.65197224146E+03  0.50400001928E-02 0.  1.
        1   -1    0    0  501    0  0.00000000000E+00  0.00000000000E+00 -0.20173237412E+04  0.20173237412E+04  0.50400001928E-02 0. -1.
    10030    2    1    2    0    0  0.00000000000E+00  0.00000000000E+00 -0.13653514998E+04  0.26692959827E+04  0.22936774676E+04 0.  0.
        1    1    3    3  502    0 -0.29758108881E+03  0.63395181403E+03 -0.17395808468E+04  0.18752575635E+04  0.50400001928E-02 0. -1.
       -1    1    3    3    0  502  0.29758108881E+03 -0.63395181403E+03  0.37422934701E+03  0.79403841918E+03  0.50400001928E-02 0.  1.
</event>
<event>
 5   0  0.2982385E-05  0.2304406E+04  0.7818609E-02  0.8476186E-01
       -1   -1    0    0    0  501  0.00000000000E+00  0.00000000000E+00  0.13064363176E+04  0.13064363176E+04  0.50400001928E-02 0.  1.
        1   -1    0    0  501    0  0.00000000000E+00  0.00000000000E+00 -0.10161782981E+04  0.10161782981E+04  0.50400001928E-02 0. -1.
    10030    2    1    2    0    0  0.00000000000E+00  0.00000000000E+00  0.29025801955E+03  0.23226146157E+04  0.23044064171E+04 0.  0.
        4    1    3    3  502    0 -0.97990048756E+03  0.59514837711E+03  0.26077034063E+03  0.11757590483E+04  0.12699999809E+01 0.  1.
       -4    1    3    3    0  502  0.97990048756E+03 -0.59514837711E+03  0.29487678919E+02  0.11468555674E+04  0.12699999809E+01 0. -1.
</event>
<event>
 5   0  0.6468758E-05  0.2310001E+04  0.7818609E-02  0.8473988E-01
        2   -1    0    0  501    0  0.00000000000E+00  0.00000000000E+00  0.13357033561E+04  0.13357033561E+04  0.25500000920E-02 0.  1.
       -2   -1    0    0    0  501  0.00000000000E+00  0.00000000000E+00 -0.99874436066E+03  0.99874436066E+03  0.25500000920E-02 0. -1.
    10030    2    1    2    0    0  0.00000000000E+00  0.00000000000E+00  0.33695899543E+03  0.23344477168E+04  0.23100010341E+04 0.  0.
        3    1    3    3  502    0  0.39770063786E+03  0.31251672383E+03  0.12178295033E+04  0.13186892012E+04  0.10100000352E+00 0.  1.
       -3    1    3    3    0  502 -0.39770063786E+03 -0.31251672383E+03 -0.88087050789E+03  0.10157585155E+04  0.10100000352E+00 0. -1.
</event>
<event>
 5   0  0.2944089E-05  0.2273738E+04  0.7818609E-02  0.8488349E-01
       -1   -1    0    0    0  501  0.00000000000E+00  0.00000000000E+00  0.77301801815E+03  0.77301801816E+03  0.50400001928E-02 0.  1.
        1   -1    0    0  501    0  0.00000000000E+00  0.00000000000E+00 -0.16719799751E+04  0.16719799751E+04  0.50400001928E-02 0. -1.
    10030    2    1    2    0    0  0.00000000000E+00  0.00000000000E+00 -0.89896195692E+03  0.24449979932E+04  0.22737375809E+04 0.  0.
        5    1    3    3  502    0 -0.78801431929E+03  0.43028132285E+03  0.30042730356E+03  0.94677729109E+03  0.46999998093E+01 0.  1.
       -5    1    3    3    0  502  0.78801431929E+03 -0.43028132285E+03 -0.11993892605E+04  0.14982207022E+04  0.46999998093E+01 0. -1.
</event>
<event>
 5   0  0.6468758E-05  0.2317562E+04  0.7818609E-02  0.8471029E-01
        2   -1    0    0  501    0  0.00000000000E+00  0.00000000000E+00  0.10965772135E+04  0.10965772135E+04  0.25500000920E-02 0.  1.
       -2   -1    0    0    0  501  0.00000000000E+00  0.00000000000E+00 -0.12245135781E+04  0.12245135781E+04  0.25500000920E-02 0. -1.
    10030    2    1    2    0    0  0.00000000000E+00  0.00000000000E+00 -0.12793636460E+03  0.23210907916E+04  0.23175622428E+04 0.  0.
        3    1    3    3  502    0 -0.56691921621E+03  0.76738980439E+03 -0.72260854101E+03  0.11968490395E+04  0.10100000352E+00 0. -1.
       -3    1    3    3    0  502  0.56691921621E+03 -0.76738980439E+03  0.59467217641E+03  0.11242417521E+04  0.10100000352E+00 0.  1.
</event>
<event>
 5   0  0.2982385E-05  0.2293660E+04  0.7818609E-02  0.8480425E-01
       -1   -1    0    0    0  501  0.00000000000E+00  0.00000000000E+00  0.66596349134E+03  0.66596349136E+03  0.50400001928E-02 0.  1.
        1   -1    0    0  501    0  0.00000000000E+00  0.00000000000E+00 -0.19749114397E+04  0.19749114397E+04  0.50400001928E-02 0. -1.
    10030    2    1    2    0    0  0.00000000000E+00  0.00000000000E+00 -0.13089479484E+04  0.26408749311E+04  0.22936598854E+04 0.  0.
        4    1    3    3  502    0  0.68297166755E+03  0.90743573036E+03 -0.83771137794E+03  0.14112589660E+04  0.12699999809E+01 0. -1.
       -4    1    3    3    0  502 -0.68297166755E+03 -0.90743573036E+03 -0.47123657043E+03  0.12296159651E+04  0.12699999809E+01 0.  1.
</event>
<event>
 5   0  0.2944089E-05  0.2285277E+04  0.7818609E-02  0.8483749E-01
       -1   -1    0    0    0  501  0.00000000000E+00  0.00000000000E+00  0.63555292615E+03  0.63555292617E+03  0.50400001928E-02 0.  1.
        1   -1    0    0  501    0  0.00000000000E+00  0.00000000000E+00 -0.20543093849E+04  0.20543093849E+04  0.50400001928E-02 0. -1.
    10030    2    1    2    0    0  0.00000000000E+00  0.00000000000E+00 -0.14187564587E+04  0.26898623111E+04  0.22852766492E+04 0.  0.
        5    1    3    3  502    0 -0.21622895247E+03 -0.81643303541E+03  0.19647049641E+03  0.86714509003E+03  0.46999998093E+01 0.  1.
       -5    1    3    3    0  502  0.21622895247E+03  0.81643303541E+03 -0.16152269552E+04  0.18227172210E+04  0.46999998093E+01 0. -1.
</event>
<event>
 5   0  0.6495405E-05  0.2352051E+04  0.7818609E-02  0.8457676E-01
       -2   -1    0    0    0  501  0.00000000000E+00  0.00000000000E+00  0.86253628877E+03  0.86253628877E+03  0.25500000920E-02 0.  1.
        2   -1    0    0  501    0  0.00000000000E+00  0.00000000000E+00 -0.16034528553E+04  0.16034528553E+04  0.25500000920E-02 0. -1.
    10030    2    1    2    0    0  0.00000000000E+00  0.00000000000E+00 -0.74091656649E+03  0.24659891440E+04  0.23520512537E+04 0.  0.
        5    1    3    3  502    0  0.61755305788E+03  0.98246768139E+03 -0.17042924494E+03  0.11728950259E+04  0.46999998093E+01 0.  1.
       -5    1    3    3    0  502 -0.61755305788E+03 -0.98246768139E+03 -0.57048732155E+03  0.12930941181E+04  0.46999998093E+01 0. -1.
</event>
<event>
 5   0  0.2962279E-05  0.2249857E+04  0.7818609E-02  0.8497958E-01
       -1   -1    0    0    0  501  0.00000000000E+00  0.00000000000E+00  0.74391655945E+03  0.74391655947E+03  0.50400001928E-02 0. -1.
        1   -1    0    0  501    0  0.00000000000E+00  0.00000000000E+00 -0.17010838242E+04  0.17010838242E+04  0.50400001928E-02 0.  1.
    10030    2    1    2    0    0  0.00000000000E+00  0.00000000000E+00 -0.95716726475E+03  0.24450003837E+04  0.22498572629E+04 0.  0.
        1    1    3    3  502    0  0.75216009547E+01 -0.79010399047E+03  0.39158134428E+03  0.88184853544E+03  0.50400001928E-02 0. -1.
       -1    1    3    3    0  502 -0.75216009547E+01  0.79010399047E+03 -0.13487486090E+04  0.15631518482E+04  0.50400001928E-02 0.  1.
</event>
<event>
 5   0  0.6495405E-05  0.2301708E+04  0.7818609E-02  0.8477248E-01
       -2   -1    0    0    0  501  0.00000000000E+00  0.00000000000E+00  0.10777042484E+04  0.10777042484E+04  0.25500000920E-02 0.  1.
        2   -1    0    0  501    0  0.00000000000E+00  0.00000000000E+00 -0.12289683491E+04  0.12289683491E+04  0.25500000920E-02 0. -1.
    10030    2    1    2    0    0  0.00000000000E+00  0.00000000000E+00 -0.15126410076E+03  0.23066725975E+04  0.23017075496E+04 0.  0.
        5    1    3    3  502    0  0.49056662215E+03 -0.65939092885E+03  0.73170507035E+03  0.11003937513E+04  0.46999998093E+01 0.  1.
       -5    1    3    3    0  502 -0.49056662215E+03  0.65939092885E+03 -0.88296917111E+03  0.12062788463E+04  0.46999998093E+01 0. -1.
</event>
<event>
 5   0  0.3006265E-05  0.2316207E+04  0.7818609E-02  0.8471558E-01
       -1   -1    0    0    0  501  0.00000000000E+00  0.00000000000E+00  0.77147900697E+03  0.77147900699E+03  0.50400001928E-02 0. -1.
        1   -1    0    0  501    0  0.00000000000E+00  0.00000000000E+00 -0.17384831347E+04  0.17384831347E+04  0.50400001928E-02 0.  1.
    10030    2    1    2    0    0  0.00000000000E+00  0.00000000000E+00 -0.96700412769E+03  0.25099621417E+04  0.23162065904E+04 0.  0.
        2    1    3    3  502    0  0.78064418859E+03  0.85469452289E+03 -0.44450314633E+03  0.12399560975E+04  0.25500000920E-02 0.  1.
       -2    1    3    3    0  502 -0.78064418859E+03 -0.85469452289E+03 -0.52250098136E+03  0.12700060441E+04  0.25500000920E-02 0. -1.
</event>
<event>
 5   0  0.3118614E-05  0.2283970E+04  0.7818609E-02  0.8484269E-01
        1   -1    0    0  501    0  0.00000000000E+00  0.00000000000E+00  0.95743730412E+03  0.95743730413E+03  0.50400001928E-02 0. -1.
       -1   -1    0    0    0  501  0.00000000000E+00  0.00000000000E+00 -0.13621043041E+04  0.13621043041E+04  0.50400001928E-02 0.  1.
    10030    2    1    2    0    0  0.00000000000E+00  0.00000000000E+00 -0.40466699999E+03  0.23195416083E+04  0.22839697659E+04 0.  0.
        3    1    3    3  502    0 -0.43800685533E+03 -0.96251084108E+03 -0.64015373662E+03  0.12361528794E+04  0.10100000352E+00 0.  1.
       -3    1    3    3    0  502  0.43800685533E+03  0.96251084108E+03  0.23548673662E+03  0.10833887289E+04  0.10100000352E+00 0. -1.
</event>
<event>
 5   0  0.2944089E-05  0.1897657E+04  0.7818609E-02  0.8656023E-01
       -1   -1    0    0    0  501  0.00000000000E+00  0.00000000000E+00  0.49045982279E+03  0.49045982282E+03  0.50400001928E-02 0.  1.
        1   -1    0    0  501    0  0.00000000000E+00  0.00000000000E+00 -0.18355752388E+04  0.18355752388E+04  0.50400001928E-02 0. -1.
    10030    2    1    2    0    0  0.00000000000E+00  0.00000000000E+00 -0.13451154160E+04  0.23260350616E+04  0.18976574047E+04 0.  0.
        5    1    3    3  502    0 -0.81705637262E+03  0.15938708633E+03 -0.12305973540E+04  0.14857245024E+04  0.46999998093E+01 0. -1.
       -5    1    3    3    0  502  0.81705637262E+03 -0.15938708633E+03 -0.11451806193E+03  0.84031055916E+03  0.46999998093E+01 0.  1.
</event>
<event>
 5   0  0.6676612E-05  0.2306845E+04  0.7818609E-02  0.8475227E-01
       -2   -1    0    0    0  501  0.00000000000E+00  0.00000000000E+00  0.18372611542E+04  0.18372611542E+04  0.25500000920E-02 0. -1.
        2   -1    0    0  501    0  0.00000000000E+00  0.00000000000E+00 -0.72411214896E+03  0.72411214897E+03  0.25500000920E-02 0.  1.
    10030    2    1    2    0    0  0.00000000000E+00  0.00000000000E+00  0.11131490053E+04  0.25613733032E+04  0.23068447044E+04 0.  0.
        2    1    3    3  502    0 -0.49615844128E+03 -0.10099139173E+04  0.83809194086E+03  0.14030315109E+04  0.25500000920E-02 0. -1.
       -2    1    3    3    0  502  0.49615844128E+03  0.10099139173E+04  0.27505706440E+03  0.11583417923E+04  0.25500000920E-02 0.  1.
</event>
<event>
 5   0  0.6814789E-05  0.2271615E+04  0.7818609E-02  0.8489198E-01
       -2   -1    0    0    0  501  0.00000000000E+00  0.00000000000E+00  0.93013980752E+03  0.93013980753E+03  0.25500000920E-02 0.  1.
        2   -1    0    0  501    0  0.00000000000E+00  0.00000000000E+00 -0.13869517695E+04  0.13869517695E+04  0.25500000920E-02 0. -1.
    10030    2    1    2    0    0  0.00000000000E+00  0.00000000000E+00 -0.45681196200E+03  0.23170915771E+04  0.22716153301E+04 0.  0.
        1    1    3    3  502    0  0.12079111672E+03  0.10836416372E+04 -0.55287694026E+03  0.12225148681E+04  0.50400001928E-02 0. -1.
       -1    1    3    3    0  502 -0.12079111672E+03 -0.10836416372E+04  0.96064978262E+02  0.10945767089E+04  0.50400001928E-02 0.  1.
</event>
<event>
 5   0  0.2962279E-05  0.2280657E+04  0.7818609E-02  0.8485587E-01
       -1   -1    0    0    0  501  0.00000000000E+00  0.00000000000E+00  0.45621057053E+03  0.45621057056E+03  0.50400001928E-02 0. -1.
        1   -1    0    0  501    0  0.00000000000E+00  0.00000000000E+00 -0.28503270471E+04  0.28503270471E+04  0.50400001928E-02 0.  1.
    10030    2    1    2    0    0  0.00000000000E+00  0.00000000000E+00 -0.23941164766E+04  0.33065376177E+04  0.22806572109E+04 0.  0.
        1    1    3    3  502    0 -0.59290761514E+03 -0.77338915959E+03 -0.33850270278E+03  0.10316270218E+04  0.50400001928E-02 0. -1.
       -1    1    3    3    0  502  0.59290761514E+03  0.77338915959E+03 -0.20556137738E+04  0.22749105959E+04  0.50400001928E-02 0.  1.
</event>
<event>
 5   0  0.3118614E-05  0.2283798E+04  0.7818609E-02  0.8484337E-01
       -1   -1    0    0    0  501  0.00000000000E+00  0.00000000000E+00  0.82190082866E+03  0.82190082868E+03  0.50400001928E-02 0. -1.
        1   -1    0    0  501    0  0.00000000000E+00  0.00000000000E+00 -0.15864847952E+04  0.15864847952E+04  0.50400001928E-02 0.  1.
    10030    2    1    2    0    0  0.00000000000E+00  0.00000000000E+00 -0.76458396654E+03  0.24083856239E+04  0.22837978613E+04 0.  0.
        3    1    3    3  502    0  0.62328024099E+03 -0.41886773583E+03 -0.12894555686E+04  0.14921876934E+04  0.10100000352E+00 0.  1.
       -3    1    3    3    0  502 -0.62328024099E+03  0.41886773583E+03  0.52487160204E+03  0.91619793045E+03  0.10100000352E+00 0. -1.
</event>
<event>
 5   0  0.3118614E-05  0.2311909E+04  0.7818609E-02  0.8473240E-01
        1   -1    0    0  501    0  0.00000000000E+00  0.00000000000E+00  0.12035115362E+04  0.12035115362E+04  0.50400001928E-02 0. -1.
       -1   -1    0    0    0  501  0.00000000000E+00  0.00000000000E+00 -0.11102763445E+04  0.11102763446E+04  0.50400001928E-02 0.  1.
    10030    2    1    2    0    0  0.00000000000E+00  0.00000000000E+00  0.93235191658E+02  0.23137878808E+04  0.23119086392E+04 0.  0.
        3    1    3    3  502    0 -0.53151720423E+02  0.64694356502E+02  0.12004727481E+04  0.12033890868E+04  0.10100000352E+00 0. -1.
       -3    1    3    3    0  502  0.53151720423E+02 -0.64694356502E+02 -0.11072375564E+04  0.11103987940E+04  0.10100000352E+00 0.  1.
</event>
<event>
 5   0  0.3006265E-05  0.2303107E+04  0.7818609E-02  0.8476697E-01
        1   -1    0    0  501    0  0.00000000000E+00  0.00000000000E+00  0.11304739246E+04  0.11304739246E+04  0.50400001928E-02 0. -1.
       -1   -1    0    0    0  501  0.00000000000E+00  0.00000000000E+00 -0.11730263599E+04  0.11730263599E+04  0.50400001928E-02 0.  1.
    10030    2    1    2    0    0  0.00000000000E+00  0.00000000000E+00 -0.42552435302E+02  0.23035002845E+04  0.23031072166E+04 0.  0.
        2    1    3    3  502    0 -0.10642023435E+04 -0.40006625638E+03 -0.20432678382E+03  0.11551316254E+04  0.25500000920E-02 0.  1.
       -2    1    3    3    0  502  0.10642023435E+04  0.40006625638E+03  0.16177434851E+03  0.11483686591E+04  0.25500000920E-02 0. -1.
</event>
<event>
 5   0  0.6814789E-05  0.2265166E+04  0.7818609E-02  0.8491784E-01
        2   -1    0    0  501    0  0.00000000000E+00  0.00000000000E+00  0.27901313241E+04  0.27901313241E+04  0.25500000920E-02 0.  1.
       -2   -1    0    0    0  501  0.00000000000E+00  0.00000000000E+00 -0.45974316986E+03  0.45974316987E+03  0.25500000920E-02 0. -1.
    10030    2    1    2    0    0  0.00000000000E+00  0.00000000000E+00  0.23303881542E+04  0.32498744940E+04  0.22651656180E+04 0.  0.
        1    1    3    3  502    0 -0.25669124592E+03  0.94450890766E+03  0.34758547496E+03  0.10386544829E+04  0.50400001928E-02 0. -1.
       -1    1    3    3    0  502  0.25669124592E+03 -0.94450890766E+03  0.19828026793E+04  0.22112200111E+04  0.50400001928E-02 0.  1.
</event>
<event>
 5   0  0.6468758E-05  0.2309078E+04  0.7818609E-02  0.8474350E-01
        2   -1    0    0  501    0  0.00000000000E+00  0.00000000000E+00  0.12833059117E+04  0.12833059117E+04  0.25500000920E-02 0. -1.
       -2   -1    0    0    0  501  0.00000000000E+00  0.00000000000E+00 -0.10386924197E+04  0.10386924197E+04  0.25500000920E-02 0.  1.
    10030    2    1    2    0    0  0.00000000000E+00  0.00000000000E+00  0.24461349199E+03  0.23219983313E+04  0.23090778441E+04 0.  0.
        3    1    3    3  502    0  0.96512787814E+03 -0.39419667249E+03  0.62116450472E+03  0.12135518901E+04  0.10100000352E+00 0. -1.
       -3    1    3    3    0  502 -0.96512787814E+03  0.39419667249E+03 -0.37655101274E+03  0.11084464413E+04  0.10100000352E+00 0.  1.
</event>
<event>
 5   0  0.3118614E-05  0.2164154E+04  0.7818609E-02  0.8533498E-01
       -1   -1    0    0    0  501  0.00000000000E+00  0.00000000000E+00  0.45422612329E+03  0.45422612332E+03  0.50400001928E-02 0. -1.
        1   -1    0    0  501    0  0.00000000000E+00  0.00000000000E+00 -0.25777703155E+04  0.25777703155E+04  0.50400001928E-02 0.  1.
    10030    2    1    2    0    0  0.00000000000E+00  0.00000000000E+00 -0.21235441922E+04  0.30319964388E+04  0.21641539845E+04 0.  0.
        3    1    3    3  502    0 -0.27349488086E+03  0.87882204921E+03 -0.18589479052E+04  0.20743227734E+04  0.10100000352E+00 0.  1.
       -3    1    3    3    0  502  0.27349488086E+03 -0.87882204921E+03 -0.26459628700E+03  0.95767366536E+03  0.10100000352E+00 0. -1.
</event>
<event>
 5   0  0.6702421E-05  0.2279533E+04  0.7818609E-02  0.8486035E-01
        2   -1    0    0  501    0  0.00000000000E+00  0.00000000000E+00  0.14285295881E+04  0.14285295881E+04  0.25500000920E-02 0.  1.
       -2   -1    0    0    0  501  0.00000000000E+00  0.00000000000E+00 -0.90937407531E+03  0.90937407531E+03  0.25500000920E-02 0. -1.
    10030    2    1    2    0    0  0.00000000000E+00  0.00000000000E+00  0.51915551282E+03  0.23379036634E+04  0.22795330866E+04 0.  0.
        4    1    3    3  502    0 -0.26933449285E+03 -0.43417288916E+03  0.13044985255E+04  0.14009872172E+04  0.12699999809E+01 0.  1.
       -4    1    3    3    0  502  0.26933449285E+03  0.43417288916E+03 -0.78534301272E+03  0.93691644624E+03  0.12699999809E+01 0. -1.
</event>
<event>
 5   0  0.3118614E-05  0.2277538E+04  0.7818609E-02  0.8486831E-01
        1   -1    0    0  501    0  0.00000000000E+00  0.00000000000E+00  0.12674607016E+04  0.12674607016E+04  0.50400001928E-02 0.  1.
       -1   -1    0    0    0  501  0.00000000000E+00  0.00000000000E+00 -0.10231437639E+04  0.10231437639E+04  0.50400001928E-02 0. -1.
    10030    2    1    2    0    0  0.00000000000E+00  0.00000000000E+00  0.24431693766E+03  0.22906044656E+04  0.22775377168E+04 0.  0.
        3    1    3    3  502    0 -0.48918800543E+03  0.90117087462E+03  0.62035957101E+03  0.11984405941E+04  0.10100000352E+00 0.  1.
       -3    1    3    3    0  502  0.48918800543E+03 -0.90117087462E+03 -0.37604263335E+03  0.10921638715E+04  0.10100000352E+00 0. -1.
</event>
<event>
 5   0  0.3118614E-05  0.2250198E+04  0.7818609E-02  0.8497820E-01
       -1   -1    0    0    0  501  0.00000000000E+00  0.00000000000E+00  0.81517217560E+03  0.81517217561E+03  0.50400001928E-02 0. -1.
        1   -1    0    0  501    0  0.00000000000E+00  0.00000000000E+00 -0.15528588044E+04  0.15528588044E+04  0.50400001928E-02 0.  1.
    10030    2    1    2    0    0  0.00000000000E+00  0.00000000000E+00 -0.73768662876E+03  0.23680309800E+04  0.22501975824E+04 0.  0.
        3    1    3    3  502    0 -0.20065222432E+03  0.10388300108E+04  0.33840541177E+02  0.10585718204E+04  0.10100000352E+00 0. -1.
       -3    1    3    3    0  502  0.20065222432E+03 -0.10388300108E+04 -0.77152716994E+03  0.13094591596E+04  0.10100000352E+00 0.  1.
</event>
<event>
 5   0  0.6468758E-05  0.2263806E+04  0.7818609E-02  0.8492330E-01
       -2   -1    0    0    0  501  0.00000000000E+00  0.00000000000E+00  0.53254156834E+03  0.53254156835E+03  0.25500000920E-02 0.  1.
        2   -1    0    0  501    0  0.00000000000E+00  0.00000000000E+00 -0.24058305618E+04  0.24058305618E+04  0.25500000920E-02 0. -1.
    10030    2    1    2    0    0  0.00000000000E+00  0.00000000000E+00 -0.18732889934E+04  0.29383721301E+04  0.22638063349E+04 0.  0.
        3    1    3    3  502    0  0.65675084315E+03  0.88592906673E+03 -0.12675979554E+04  0.16801775406E+04  0.10100000352E+00 0. -1.
       -3    1    3    3    0  502 -0.65675084315E+03 -0.88592906673E+03 -0.60569103797E+03  0.12581945895E+04  0.10100000352E+00 0.  1.
</event>
<event>
 5   0  0.2982385E-05  0.2285962E+04  0.7818609E-02  0.8483477E-01
       -1   -1    0    0    0  501  0.00000000000E+00  0.00000000000E+00  0.88357166342E+03  0.88357166343E+03  0.50400001928E-02 0. -1.
        1   -1    0    0  501    0  0.00000000000E+00  0.00000000000E+00 -0.14785504212E+04  0.14785504212E+04  0.50400001928E-02 0.  1.
    10030    2    1    2    0    0  0.00000000000E+00  0.00000000000E+00 -0.59497875777E+03  0.23621220846E+04  0.22859617277E+04 0.  0.
        4    1    3    3  502    0  0.74052397603E+03  0.31111647962E+03 -0.11377443895E+04  0.13927071235E+04  0.12699999809E+01 0.  1.
       -4    1    3    3    0  502 -0.74052397603E+03 -0.31111647962E+03  0.54276563176E+03  0.96941496115E+03  0.12699999809E+01 0. -1.
</event>
<event>
 5   0  0.3118614E-05  0.2289419E+04  0.7818609E-02  0.8482105E-01
       -1   -1    0    0    0  501  0.00000000000E+00  0.00000000000E+00  0.74013132140E+03  0.74013132142E+03  0.50400001928E-02 0.  1.
        1   -1    0    0  501    0  0.00000000000E+00  0.00000000000E+00 -0.17704421466E+04  0.17704421466E+04  0.50400001928E-02 0. -1.
    10030    2    1    2    0    0  0.00000000000E+00  0.00000000000E+00 -0.10303108252E+04  0.25105734680E+04  0.22894188655E+04 0.  0.
        3    1    3    3  502    0 -0.26517038640E+03 -0.25009135926E+03 -0.17051031490E+04  0.17436277644E+04  0.10100000352E+00 0. -1.
       -3    1    3    3    0  502  0.26517038640E+03  0.25009135926E+03  0.67479232382E+03  0.76694570361E+03  0.10100000352E+00 0.  1.
</event>
<event>
 5   0  0.6676612E-05  0.2398157E+04  0.7818609E-02  0.8440194E-01
        2   -1    0    0  501    0  0.00000000000E+00  0.00000000000E+00  0.12022283510E+04  0.12022283510E+04  0.25500000920E-02 0. -1.
       -2   -1    0    0    0  501  0.00000000000E+00  0.00000000000E+00 -0.11959371849E+04  0.11959371849E+04  0.25500000920E-02 0.  1.
    10030    2    1    2    0    0  0.00000000000E+00  0.00000000000E+00  0.62911660657E+01  0.23981655360E+04  0.23981572841E+04 0.  0.
        2    1    3    3  502    0 -0.93023345587E+03  0.99174659275E+02 -0.74693678990E+03  0.11971150586E+04  0.25500000920E-02 0.  1.
       -2    1    3    3    0  502  0.93023345587E+03 -0.99174659275E+02  0.75322795596E+03  0.12010504773E+04  0.25500000920E-02 0. -1.
</event>
<event>
 5   0  0.2982385E-05  0.2301169E+04  0.7818609E-02  0.8477460E-01
        1   -1    0    0  501    0  0.00000000000E+00  0.00000000000E+00  0.10962499291E+04  0.10962499292E+04  0.50400001928E-02 0. -1.
       -1   -1    0    0    0  501  0.00000000000E+00  0.00000000000E+00 -0.12076124888E+04  0.12076124888E+04  0.50400001928E-02 0.  1.
    10030    2    1    2    0    0  0.00000000000E+00  0.00000000000E+00 -0.11136255962E+03  0.23038624179E+04  0.23011693595E+04 0.  0.
        4    1    3    3  502    0 -0.25626568065E+03  0.33039716952E+03  0.10174916084E+04  0.11000568961E+04  0.12699999809E+01 0. -1.
       -4    1    3    3    0  502  0.25626568065E+03 -0.33039716952E+03 -0.11288541680E+04  0.12038055218E+04  0.12699999809E+01 0.  1.
</event>
<event>
 5   0  0.6814789E-05  0.2304308E+04  0.7818609E-02  0.8476224E-01
       -2   -1    0    0    0  501  0.00000000000E+00  0.00000000000E+00  0.58792094567E+03  0.58792094568E+03  0.25500000920E-02 0. -1.
        2   -1    0    0  501    0  0.00000000000E+00  0.00000000000E+00 -0.22578875278E+04  0.22578875278E+04  0.25500000920E-02 0.  1.
    10030    2    1    2    0    0  0.00000000000E+00  0.00000000000E+00 -0.16699665821E+04  0.28458084735E+04  0.23043084608E+04 0.  0.
        1    1    3    3  502    0  0.11012284708E+03  0.37531771582E+03  0.50341638217E+03  0.63750959453E+03  0.50400001928E-02 0. -1.
       -1    1    3    3    0  502 -0.11012284708E+03 -0.37531771582E+03 -0.21733829643E+04  0.22082988790E+04  0.50400001928E-02 0.  1.
</event>
<event>
 5   0  0.3006265E-05  0.2352850E+04  0.7818609E-02  0.8457370E-01
        1   -1    0    0  501    0  0.00000000000E+00  0.00000000000E+00  0.20324680364E+04  0.20324680364E+04  0.50400001928E-02 0.  1.
       -1   -1    0    0    0  501  0.00000000000E+00  0.00000000000E+00 -0.68093371374E+03  0.68093371376E+03  0.50400001928E-02 0. -1.
    10030    2    1    2    0    0  0.00000000000E+00  0.00000000000E+00  0.13515343226E+04  0.27134017501E+04  0.23528501933E+04 0.  0.
        2    1    3    3  502    0 -0.52116212837E+03  0.17834331116E+03 -0.52302586812E+03  0.75958696632E+03  0.25500000920E-02 0. -1.
       -2    1    3    3    0  502  0.52116212837E+03 -0.17834331116E+03  0.18745601907E+04  0.19538147838E+04  0.25500000920E-02 0.  1.
</event>
<event>
 5   0  0.2982385E-05  0.1791567E+04  0.7818609E-02  0.8710797E-01
       -1   -1    0    0    0  501  0.00000000000E+00  0.00000000000E+00  0.10136515470E+04  0.10136515470E+04  0.50400001928E-02 0.  1.
        1   -1    0    0  501    0  0.00000000000E+00  0.00000000000E+00 -0.79162163434E+03  0.79162163435E+03  0.50400001928E-02 0. -1.
    10030    2    1    2    0    0  0.00000000000E+00  0.00000000000E+00  0.22202991265E+03  0.18052731814E+04  0.17915674638E+04 0.  0.
        4    1    3    3  502    0  0.45006907975E+03 -0.76084523515E+03  0.25696511348E+03  0.92058694909E+03  0.12699999809E+01 0.  1.
       -4    1    3    3    0  502 -0.45006907975E+03  0.76084523515E+03 -0.34935200837E+02  0.88468623226E+03  0.12699999809E+01 0. -1.
</event>
<event>
 5   0  0.6468758E-05  0.2289937E+04  0.7818609E-02  0.8481899E-01
       -2   -1    0    0    0  501  0.00000000000E+00  0.00000000000E+00  0.96654349552E+03  0.96654349553E+03  0.25500000920E-02 0.  1.
        2   -1    0    0  501    0  0.00000000000E+00  0.00000000000E+00 -0.13563315038E+04  0.13563315038E+04  0.25500000920E-02 0. -1.
    10030    2    1    2    0    0  0.00000000000E+00  0.00000000000E+00 -0.38978800827E+03  0.23228749993E+04  0.22899374601E+04 0.  0.
        3    1    3    3  502    0  0.57879751389E+03 -0.84215294900E+03 -0.71877695867E+03  0.12493472208E+04  0.10100000352E+00 0. -1.
       -3    1    3    3    0  502 -0.57879751389E+03  0.84215294900E+03  0.32898895039E+03  0.10735277785E+04  0.10100000352E+00 0.  1.
</event>
<event>
 5   0  0.3118614E-05  0.2308841E+04  0.7818609E-02  0.8474443E-01
        1   -1    0    0  501    0  0.00000000000E+00  0.00000000000E+00  0.25863611292E+04  0.25863611292E+04  0.50400001928E-02 0. -1.
       -1   -1    0    0    0  501  0.00000000000E+00  0.00000000000E+00 -0.51527486613E+03  0.51527486616E+03  0.50400001928E-02 0.  1.
    10030    2    1    2    0    0  0.00000000000E+00  0.00000000000E+00  0.20710862630E+04  0.31016359953E+04  0.23088411679E+04 0.  0.
        3    1    3    3  502    0  0.54367907637E+03  0.50131982762E+03 -0.15527874560E+03  0.75565865752E+03  0.10100000352E+00 0.  1.
       -3    1    3    3    0  502 -0.54367907637E+03 -0.50131982762E+03  0.22263650086E+04  0.23459773378E+04  0.10100000352E+00 0. -1.
</event>
<event>
 5   0  0.6676612E-05  0.2310496E+04  0.7818609E-02  0.8473794E-01
       -2   -1    0    0    0  501  0.00000000000E+00  0.00000000000E+00  0.77517787637E+03  0.77517787637E+03  0.25500000920E-02 0.  1.
        2   -1    0    0  501    0  0.00000000000E+00  0.00000000000E+00 -0.17216671727E+04  0.17216671727E+04  0.25500000920E-02 0. -1.
    10030    2    1    2    0    0  0.00000000000E+00  0.00000000000E+00 -0.94648929632E+03  0.24968450491E+04  0.23104963127E+04 0.  0.
        2    1    3    3  502    0  0.79554105747E+03  0.82268197630E+03 -0.64379312524E+03  0.13130730354E+04  0.25500000920E-02 0.  1.
       -2    1    3    3    0  502 -0.79554105747E+03 -0.82268197630E+03 -0.30269617108E+03  0.11837720136E+04  0.25500000920E-02 0. -1.
</event>
<event>
 5   0  0.6468758E-05  0.2260047E+04  0.7818609E-02  0.8493843E-01
       -2   -1    0    0    0  501  0.00000000000E+00  0.00000000000E+00  0.13393343995E+04  0.13393343995E+04  0.25500000920E-02 0.  1.
        2   -1    0    0  501    0  0.00000000000E+00  0.00000000000E+00 -0.95342332581E+03  0.95342332581E+03  0.25500000920E-02 0. -1.
    10030    2    1    2    0    0  0.00000000000E+00  0.00000000000E+00  0.38591107367E+03  0.22927577253E+04  0.22600465991E+04 0.  0.
        3    1    3    3  502    0 -0.68629856934E+03  0.62826144831E+03 -0.45760172459E+03  0.10368787404E+04  0.10100000352E+00 0.  1.
       -3    1    3    3    0  502  0.68629856934E+03 -0.62826144831E+03  0.84351279826E+03  0.12558789849E+04  0.10100000352E+00 0. -1.
</event>
<event>
 5   0  0.6676612E-05  0.2650483E+04  0.7818609E-02  0.8351253E-01
       -2   -1    0    0    0  501  0.00000000000E+00  0.00000000000E+00  0.95736335509E+03  0.95736335509E+03  0.25500000920E-02 0. -1.
        2   -1    0    0  501    0  0.00000000000E+00  0.00000000000E+00 -0.18344816886E+04  0.18344816886E+04  0.25500000920E-02 0.  1.
    10030    2    1    2    0    0  0.00000000000E+00  0.00000000000E+00 -0.87711833350E+03  0.27918450437E+04  0.26504833855E+04 0.  0.
        2    1    3    3  502    0  0.31015558101E+03  0.10528208380E+04  0.34377636016E+03  0.11501349431E+04  0.25500000920E-02 0. -1.
       -2    1    3    3    0  502 -0.31015558101E+03 -0.10528208380E+04 -0.12208946937E+04  0.16417101006E+04  0.25500000920E-02 0.  1.
</event>
<event>
 5   0  0.6676612E-05  0.2249919E+04  0.7818609E-02  0.8497933E-01
       -2   -1    0    0    0  501  0.00000000000E+00  0.00000000000E+00  0.46465906511E+03  0.46465906512E+03  0.25500000920E-02 0.  1.
        2   -1    0    0  501    0  0.00000000000E+00  0.00000000000E+00 -0.27235761188E+04  0.27235761188E+04  0.25500000920E-02 0. -1.
    10030    2    1    2    0    0  0.00000000000E+00  0.00000000000E+00 -0.22589170537E+04  0.31882351839E+04  0.22499194058E+04 0.  0.
        2    1    3    3  502    0 -0.32865110499E+03 -0.43785443772E+03  0.26314791610E+03  0.60743302775E+03  0.25500000920E-02 0.  1.
       -2    1    3    3    0  502  0.32865110499E+03  0.43785443772E+03 -0.25220649698E+04  0.25808021562E+04  0.25500000920E-02 0. -1.
</event>
<event>
 5   0  0.2944089E-05  0.2310140E+04  0.7818609E-02  0.8473934E-01
       -1   -1    0    0    0  501  0.00000000000E+00  0.00000000000E+00  0.17229295101E+04  0.17229295101E+04  0.50400001928E-02 0. -1.
        1   -1    0    0  501    0  0.00000000000E+00  0.00000000000E+00 -0.77437104996E+03  0.77437104998E+03  0.50400001928E-02 0.  1.
    10030    2    1    2    0    0  0.00000000000E+00  0.00000000000E+00  0.94855846016E+03  0.24973005601E+04  0.23101400250E+04 0.  0.
        5    1    3    3  502    0 -0.10437289215E+04  0.25032671544E+03  0.12935538610E+02  0.10734164822E+04  0.46999998093E+01 0.  1.
       -5    1    3    3    0  502  0.10437289215E+04 -0.25032671544E+03  0.93562292155E+03  0.14238840779E+04  0.46999998093E+01 0. -1.
</event>
<event>
 5   0  0.2982385E-05  0.2294116E+04  0.7818609E-02  0.8480245E-01
        1   -1    0    0  501    0  0.00000000000E+00  0.00000000000E+00  0.13798933457E+04  0.13798933457E+04  0.50400001928E-02 0. -1.
       -1   -1    0    0    0  501  0.00000000000E+00  0.00000000000E+00 -0.95350962325E+03  0.95350962326E+03  0.50400001928E-02 0.  1.
    10030    2    1    2    0    0  0.00000000000E+00  0.00000000000E+00  0.42638372245E+03  0.23334029690E+04  0.22941155893E+04 0.  0.
        4    1    3    3  502    0  0.10452517674E+03 -0.36690493228E+03 -0.88708913415E+03  0.96564666764E+03  0.12699999809E+01 0.  1.
       -4    1    3    3    0  502 -0.10452517674E+03  0.36690493228E+03  0.13134728566E+04  0.13677563013E+04  0.12699999809E+01 0. -1.
</event>
<event>
 5   0  0.6676612E-05  0.2313947E+04  0.7818609E-02  0.8472442E-01
        2   -1    0    0  501    0  0.00000000000E+00  0.00000000000E+00  0.20910425620E+04  0.20910425620E+04  0.25500000920E-02 0.  1.
       -2   -1    0    0    0  501  0.00000000000E+00  0.00000000000E+00 -0.64015311288E+03  0.64015311288E+03  0.25500000920E-02 0. -1.
    10030    2    1    2    0    0  0.00000000000E+00  0.00000000000E+00  0.14508894491E+04  0.27311956749E+04  0.23139467628E+04 0.  0.
        2    1    3    3  502    0 -0.57384199243E+03  0.97914874376E+03  0.99084732786E+03  0.15065873097E+04  0.25500000920E-02 0.  1.
       -2    1    3    3    0  502  0.57384199243E+03 -0.97914874376E+03  0.46004212128E+03  0.12246083652E+04  0.25500000920E-02 0. -1.
</event>
<event>
 5   0  0.6676612E-05  0.2326822E+04  0.7818609E-02  0.8467420E-01
       -2   -1    0    0    0  501  0.00000000000E+00  0.00000000000E+00  0.74399959117E+03  0.74399959118E+03  0.25500000920E-02 0. -1.
        2   -1    0    0  501    0  0.00000000000E+00  0.00000000000E+00 -0.18192545728E+04  0.18192545728E+04  0.25500000920E-02 0.  1.
    10030    2    1    2    0    0  0.00000000000E+00  0.00000000000E+00 -0.10752549816E+04  0.25632541640E+04  0.23268215732E+04 0.  0.
        2    1    3    3  502    0  0.93554041641E+03 -0.83721182264E+02 -0.12938818446E+04  0.15988668910E+04  0.25500000920E-02 0.  1.
       -2    1    3    3    0  502 -0.93554041641E+03  0.83721182264E+02  0.21862686304E+03  0.96438727301E+03  0.25500000920E-02 0. -1.
</event>
<event>
 5   0  0.2342500E-05  0.2317955E+04  0.7818609E-02  0.8470875E-01
       -3   -1    0    0    0  501  0.00000000000E+00  0.00000000000E+00  0.17334806322E+04  0.17334806351E+04  0.10100000352E+00 0.  1.
        3   -1    0    0  501    0  0.00000000000E+00  0.00000000000E+00 -0.77487408802E+03  0.77487409460E+03  0.10100000352E+00 0. -1.
    10030    2    1    2    0    0  0.00000000000E+00  0.00000000000E+00  0.95860654419E+03  0.25083547297E+04  0.23179553369E+04 0.  0.
        5    1    3    3  502    0  0.47235335370E+03 -0.81030981270E+03  0.12160239948E+04  0.15357265803E+04  0.46999998093E+01 0.  1.
       -5    1    3    3    0  502 -0.47235335370E+03  0.81030981270E+03 -0.25741745063E+03  0.97262814950E+03  0.46999998093E+01 0. -1.
</event>
<event>
 5   0  0.6468758E-05  0.2316466E+04  0.7818609E-02  0.8471457E-01
       -2   -1    0    0    0  501  0.00000000000E+00  0.00000000000E+00  0.78344596750E+03  0.78344596750E+03  0.25500000920E-02 0.  1.
        2   -1    0    0  501    0  0.00000000000E+00  0.00000000000E+00 -0.17123112519E+04  0.17123112519E+04  0.25500000920E-02 0. -1.
    10030    2    1    2    0    0  0.00000000000E+00  0.00000000000E+00 -0.92886528435E+03  0.24957572194E+04  0.23164657091E+04 0.  0.
        3    1    3    3  502    0 -0.87564393857E+03 -0.70566414090E+03 -0.16587624202E+03  0.11367625631E+04  0.10100000352E+00 0. -1.
       -3    1    3    3    0  502  0.87564393857E+03  0.70566414090E+03 -0.76298904233E+03  0.13589946563E+04  0.10100000352E+00 0.  1.
</event>
<event>
 5   0  0.2342500E-05  0.2116000E+04  0.7818609E-02  0.8554228E-01
       -4   -1    0    0    0  501  0.00000000000E+00  0.00000000000E+00  0.10705271385E+04  0.10705278918E+04  0.12699999809E+01 0.  1.
        4   -1    0    0  501    0  0.00000000000E+00  0.00000000000E+00 -0.10456182791E+04  0.10456190504E+04  0.12699999809E+01 0. -1.
    10030    2    1    2    0    0  0.00000000000E+00  0.00000000000E+00  0.24908859403E+02  0.21161469422E+04  0.21160003378E+04 0.  0.
        3    1    3    3  502    0 -0.32852470619E+02 -0.57550763306E+03  0.89968894976E+03  0.10685169802E+04  0.10100000352E+00 0.  1.
       -3    1    3    3    0  502  0.32852470619E+02  0.57550763306E+03 -0.87478009036E+03  0.10476299620E+04  0.10100000352E+00 0. -1.
</event>
<event>
 5   0  0.2962279E-05  0.2300278E+04  0.7818609E-02  0.8477812E-01
       -1   -1    0    0    0  501  0.00000000000E+00  0.00000000000E+00  0.28664052655E+04  0.28664052655E+04  0.50400001928E-02 0.  1.
        1   -1    0    0  501    0  0.00000000000E+00  0.00000000000E+00 -0.46149077349E+03  0.46149077352E+03  0.50400001928E-02 0. -1.
    10030    2    1    2    0    0  0.00000000000E+00  0.00000000000E+00  0.24049144920E+04  0.33278960390E+04  0.23002778816E+04 0.  0.
        1    1    3    3  502    0  0.60120372388E+02 -0.56489983805E+02  0.28621194469E+04  0.28633081053E+04  0.50400001928E-02 0.  1.
       -1    1    3    3    0  502 -0.60120372388E+02  0.56489983805E+02 -0.45720495485E+03  0.46458793378E+03  0.50400001928E-02 0. -1.
</event>
<event>
 5   0  0.6676612E-05  0.2061829E+04  0.7818609E-02  0.8578247E-01
        2   -1    0    0  501    0  0.00000000000E+00  0.00000000000E+00  0.16021223564E+04  0.16021223564E+04  0.25500000920E-02 0.  1.
       -2   -1    0    0    0  501  0.00000000000E+00  0.00000000000E+00 -0.66336025603E+03  0.66336025603E+03  0.25500000920E-02 0. -1.
    10030    2    1    2    0    0  0.00000000000E+00  0.00000000000E+00  0.93876210038E+03  0.22654826124E+04  0.20618286025E+04 0.  0.
        2    1    3    3  502    0 -0.71715553307E+03  0.62143488040E+03  0.26736324058E+02  0.94931986192E+03  0.25500000920E-02 0. -1.
       -2    1    3    3    0  502  0.71715553307E+03 -0.62143488040E+03  0.91202577632E+03  0.13161627505E+04  0.25500000920E-02 0.  1.
</event>
<event>
 5   0  0.6495405E-05  0.2299828E+04  0.7818609E-02  0.8477989E-01
        2   -1    0    0  501    0  0.00000000000E+00  0.00000000000E+00  0.98204484861E+03  0.98204484862E+03  0.25500000920E-02 0. -1.
       -2   -1    0    0    0  501  0.00000000000E+00  0.00000000000E+00 -0.13464789555E+04  0.13464789555E+04  0.25500000920E-02 0.  1.
    10030    2    1    2    0    0  0.00000000000E+00  0.00000000000E+00 -0.36443410688E+03  0.23285238041E+04  0.22998284475E+04 0.  0.
        5    1    3    3  502    0 -0.50356766764E+03  0.10152309769E+03  0.85940167672E+03  0.10012395653E+04  0.46999998093E+01 0. -1.
       -5    1    3    3    0  502  0.50356766764E+03 -0.10152309769E+03 -0.12238357836E+04  0.13272842388E+04  0.46999998093E+01 0.  1.
</event>
<event>
 5   0  0.2342500E-05  0.2299862E+04  0.7818609E-02  0.8477975E-01
        4   -1    0    0  501    0  0.00000000000E+00  0.00000000000E+00  0.94717276099E+03  0.94717361242E+03  0.12699999809E+01 0.  1.
       -4   -1    0    0    0  501  0.00000000000E+00  0.00000000000E+00 -0.13960915627E+04  0.13960921404E+04  0.12699999809E+01 0. -1.
    10030    2    1    2    0    0  0.00000000000E+00  0.00000000000E+00 -0.44891880173E+03  0.23432657528E+04  0.22998622345E+04 0.  0.
        1    1    3    3  502    0  0.10793455706E+04 -0.37204062074E+03 -0.84237668154E+02  0.11447694393E+04  0.50400001928E-02 0.  1.
       -1    1    3    3    0  502 -0.10793455706E+04  0.37204062074E+03 -0.36468113358E+03  0.11984963135E+04  0.50400001928E-02 0. -1.
</event>
<event>
 5   0  0.2944089E-05  0.2296313E+04  0.7818609E-02  0.8479376E-01
       -1   -1    0    0    0  501  0.00000000000E+00  0.00000000000E+00  0.14048952545E+04  0.14048952545E+04  0.50400001928E-02 0.  1.
        1   -1    0    0  501    0  0.00000000000E+00  0.00000000000E+00 -0.93833568323E+03  0.93833568324E+03  0.50400001928E-02 0. -1.
    10030    2    1    2    0    0  0.00000000000E+00  0.00000000000E+00  0.46655957124E+03  0.23432309377E+04  0.22963130000E+04 0.  0.
        5    1    3    3  502    0 -0.78109071214E+03 -0.53850435454E+03  0.89313841264E+03  0.13029995988E+04  0.46999998093E+01 0.  1.
       -5    1    3    3    0  502  0.78109071214E+03  0.53850435454E+03 -0.42657884140E+03  0.10402313389E+04  0.46999998093E+01 0. -1.
</event>
<event>
 5   0  0.6702421E-05  0.2312196E+04  0.7818609E-02  0.8473128E-01
       -2   -1    0    0    0  501  0.00000000000E+00  0.00000000000E+00  0.12585280628E+04  0.12585280628E+04  0.25500000920E-02 0.  1.
        2   -1    0    0  501    0  0.00000000000E+00  0.00000000000E+00 -0.10620047740E+04  0.10620047740E+04  0.25500000920E-02 0. -1.
    10030    2    1    2    0    0  0.00000000000E+00  0.00000000000E+00  0.19652328884E+03  0.23205328368E+04  0.23121961949E+04 0.  0.
        4    1    3    3  502    0  0.39187970668E+03  0.99727095632E+02 -0.98871586346E+03  0.10682115285E+04  0.12699999809E+01 0. -1.
       -4    1    3    3    0  502 -0.39187970668E+03 -0.99727095632E+02  0.11852391523E+04  0.12523213083E+04  0.12699999809E+01 0.  1.
</event>
<event>
 5   0  0.3118614E-05  0.2313790E+04  0.7818609E-02  0.8472504E-01
       -1   -1    0    0    0  501  0.00000000000E+00  0.00000000000E+00  0.10374276503E+04  0.10374276504E+04  0.50400001928E-02 0. -1.
        1   -1    0    0  501    0  0.00000000000E+00  0.00000000000E+00 -0.12901203560E+04  0.12901203561E+04  0.50400001928E-02 0.  1.
    10030    2    1    2    0    0  0.00000000000E+00  0.00000000000E+00 -0.25269270570E+03  0.23275480064E+04  0.23137904224E+04 0.  0.
        3    1    3    3  502    0 -0.10350897516E+04 -0.17855153460E+03  0.36142340064E+03  0.11108187652E+04  0.10100000352E+00 0.  1.
       -3    1    3    3    0  502  0.10350897516E+04  0.17855153460E+03 -0.61411610635E+03  0.12167292413E+04  0.10100000352E+00 0. -1.
</event>
<event>
 5   0  0.3006265E-05  0.1952676E+04  0.7818609E-02  0.8629072E-01
        1   -1    0    0  501    0  0.00000000000E+00  0.00000000000E+00  0.88523492411E+03  0.88523492413E+03  0.50400001928E-02 0. -1.
       -1   -1    0    0    0  501  0.00000000000E+00  0.00000000000E+00 -0.10768167228E+04  0.10768167229E+04  0.50400001928E-02 0.  1.
    10030    2    1    2    0    0  0.00000000000E+00  0.00000000000E+00 -0.19158179873E+03  0.19620516470E+04  0.19526758768E+04 0.  0.
        2    1    3    3  502    0  0.32486924491E+03 -0.61714582721E+03  0.59073693697E+03  0.91399076967E+03  0.25500000920E-02 0. -1.
       -2    1    3    3    0  502 -0.32486924491E+03  0.61714582721E+03 -0.78231873570E+03  0.10480608773E+04  0.25500000920E-02 0.  1.
</event>
<event>
 5   0  0.6676612E-05  0.2350436E+04  0.7818609E-02  0.8458296E-01
       -2   -1    0    0    0  501  0.00000000000E+00  0.00000000000E+00  0.96446110670E+03  0.96446110671E+03  0.25500000920E-02 0.  1.
        2   -1    0    0  501    0  0.00000000000E+00  0.00000000000E+00 -0.14320304817E+04  0.14320304817E+04  0.25500000920E-02 0. -1.
    10030    2    1    2    0    0  0.00000000000E+00  0.00000000000E+00 -0.46756937499E+03  0.23964915884E+04  0.23504363027E+04 0.  0.
        2    1    3    3  502    0  0.60539014002E+03 -0.96453845056E+03 -0.52982906459E+03  0.12560057651E+04  0.25500000920E-02 0. -1.
       -2    1    3    3    0  502 -0.60539014002E+03  0.96453845056E+03  0.62259689595E+02  0.11404858233E+04  0.25500000920E-02 0.  1.
</event>
<event>
 5   0  0.6468758E-05  0.2290366E+04  0.7818609E-02  0.8481729E-01
       -2   -1    0    0    0  501  0.00000000000E+00  0.00000000000E+00  0.76143245989E+03  0.76143245990E+03  0.25500000920E-02 0. -1.
        2   -1    0    0  501    0  0.00000000000E+00  0.00000000000E+00 -0.17223383820E+04  0.17223383820E+04  0.25500000920E-02 0.  1.
    10030    2    1    2    0    0  0.00000000000E+00  0.00000000000E+00 -0.96090592206E+03  0.24837708419E+04  0.22903662161E+04 0.  0.
        3    1    3    3  502    0 -0.99747539037E+03  0.42595223673E+03 -0.87897919013E+03  0.13960647869E+04  0.10100000352E+00 0.  1.
       -3    1    3    3    0  502  0.99747539037E+03 -0.42595223673E+03 -0.81926731938E+02  0.10877060549E+04  0.10100000352E+00 0. -1.
</event>
<event>
 5   0  0.2982385E-05  0.1706155E+04  0.7818609E-02  0.8757861E-01
        1   -1    0    0  501    0  0.00000000000E+00  0.00000000000E+00  0.13365094866E+04  0.13365094866E+04  0.50400001928E-02 0.  1.
       -1   -1    0    0    0  501  0.00000000000E+00  0.00000000000E+00 -0.54450912957E+03  0.54450912959E+03  0.50400001928E-02 0. -1.
    10030    2    1    2    0    0  0.00000000000E+00  0.00000000000E+00  0.79200035703E+03  0.18810186162E+04  0.17061554645E+04 0.  0.
        4    1    3    3  502    0  0.20405722043E+03  0.16991056716E+03  0.12897861424E+04  0.13168366854E+04  0.12699999809E+01 0.  1.
       -4    1    3    3    0  502 -0.20405722043E+03 -0.16991056716E+03 -0.49778578535E+03  0.56418193080E+03  0.12699999809E+01 0. -1.
</event>
<event>
 5   0  0.6468758E-05  0.2288133E+04  0.7818609E-02  0.8482615E-01
        2   -1    0    0  501    0  0.00000000000E+00  0.00000000000E+00  0.13745620501E+04  0.13745620501E+04  0.25500000920E-02 0.  1.
       -2   -1    0    0    0  501  0.00000000000E+00  0.00000000000E+00 -0.95222188421E+03  0.95222188421E+03  0.25500000920E-02 0. -1.
    10030    2    1    2    0    0  0.00000000000E+00  0.00000000000E+00  0.42234016588E+03  0.23267839343E+04  0.22881329203E+04 0.  0.
        3    1    3    3  502    0  0.29299569166E+03  0.37859697773E+03 -0.84547113021E+03  0.97159847113E+03  0.10100000352E+00 0. -1.
       -3    1    3    3    0  502 -0.29299569166E+03 -0.37859697773E+03  0.12678112961E+04  0.13551854632E+04  0.10100000352E+00 0.  1.
</event>
<event>
 5   0  0.3118614E-05  0.2262148E+04  0.7818609E-02  0.8492997E-01
        1   -1    0    0  501    0  0.00000000000E+00  0.00000000000E+00  0.94761098106E+03  0.94761098107E+03  0.50400001928E-02 0.  1.
       -1   -1    0    0    0  501  0.00000000000E+00  0.00000000000E+00 -0.13500569299E+04  0.13500569299E+04  0.50400001928E-02 0. -1.
    10030    2    1    2    0    0  0.00000000000E+00  0.00000000000E+00 -0.40244594880E+03  0.22976679109E+04  0.22621483345E+04 0.  0.
        3    1    3    3  502    0 -0.89315280284E+03  0.69000467942E+03 -0.12589395388E+03  0.11356397689E+04  0.10100000352E+00 0.  1.
       -3    1    3    3    0  502  0.89315280284E+03 -0.69000467942E+03 -0.27655199491E+03  0.11620281421E+04  0.10100000352E+00 0. -1.
</event>
<event>
 5   0  0.6676612E-05  0.2297611E+04  0.7818609E-02  0.8478864E-01
       -2   -1    0    0    0  501  0.00000000000E+00  0.00000000000E+00  0.80412080545E+03  0.80412080545E+03  0.25500000920E-02 0.  1.
        2   -1    0    0  501    0  0.00000000000E+00  0.00000000000E+00 -0.16412379921E+04  0.16412379921E+04  0.25500000920E-02 0. -1.
    10030    2    1    2    0    0  0.00000000000E+00  0.00000000000E+00 -0.83711718669E+03  0.24453587976E+04  0.22976105990E+04 0.  0.
        2    1    3    3  502    0  0.10447224922E+03 -0.88374487025E+03  0.35468247989E+03  0.95797656971E+03  0.25500000920E-02 0.  1.
       -2    1    3    3    0  502 -0.10447224922E+03  0.88374487025E+03 -0.11917996666E+04  0.14873822279E+04  0.25500000920E-02 0. -1.
</event>
<event>
 5   0  0.6468758E-05  0.2313432E+04  0.7818609E-02  0.8472644E-01
       -2   -1    0    0    0  501  0.00000000000E+00  0.00000000000E+00  0.11081523360E+04  0.11081523360E+04  0.25500000920E-02 0.  1.
        2   -1    0    0  501    0  0.00000000000E+00  0.00000000000E+00 -0.12074075351E+04  0.12074075351E+04  0.25500000920E-02 0. -1.
    10030    2    1    2    0    0  0.00000000000E+00  0.00000000000E+00 -0.99255199115E+02  0.23155598710E+04  0.23134316333E+04 0.  0.
        3    1    3    3  502    0  0.33154807630E+03 -0.85434224191E+03 -0.75608614323E+03  0.11880618921E+04  0.10100000352E+00 0. -1.
       -3    1    3    3    0  502 -0.33154807630E+03  0.85434224191E+03  0.65683094412E+03  0.11274979790E+04  0.10100000352E+00 0.  1.
</event>
<event>
 5   0  0.6814789E-05  0.2303835E+04  0.7818609E-02  0.8476410E-01
        2   -1    0    0  501    0  0.00000000000E+00  0.00000000000E+00  0.14610739896E+04  0.14610739896E+04  0.25500000920E-02 0. -1.
       -2   -1    0    0    0  501  0.00000000000E+00  0.00000000000E+00 -0.90817744170E+03  0.90817744170E+03  0.25500000920E-02 0.  1.
    10030    2    1    2    0    0  0.00000000000E+00  0.00000000000E+00  0.55289654786E+03  0.23692514313E+04  0.23038354438E+04 0.  0.
        1    1    3    3  502    0 -0.26623816860E+02 -0.29433960413E+03  0.14214211300E+04  0.14518204638E+04  0.50400001928E-02 0. -1.
       -1    1    3    3    0  502  0.26623816860E+02  0.29433960413E+03 -0.86852458218E+03  0.91743096746E+03  0.50400001928E-02 0.  1.
</event>
<event>
 5   0  0.2962279E-05  0.2328287E+04  0.7818609E-02  0.8466851E-01
        1   -1    0    0  501    0  0.00000000000E+00  0.00000000000E+00  0.15049535317E+04  0.15049535317E+04  0.50400001928E-02 0.  1.
       -1   -1    0    0    0  501  0.00000000000E+00  0.00000000000E+00 -0.90051321011E+03  0.90051321012E+03  0.50400001928E-02 0. -1.
    10030    2    1    2    0    0  0.00000000000E+00  0.00000000000E+00  0.60444032160E+03  0.24054667418E+04  0.23282873843E+04 0.  0.
        1    1    3    3  502    0  0.49784567053E+02 -0.11466890074E+04  0.10120345195E+03  0.11522223403E+04  0.50400001928E-02 0.  1.
       -1    1    3    3    0  502 -0.49784567053E+02  0.11466890074E+04  0.50323686965E+03  0.12532444015E+04  0.50400001928E-02 0. -1.
</event>
<event>
 5   0  0.6468758E-05  0.2298777E+04  0.7818609E-02  0.8478403E-01
        2   -1    0    0  501    0  0.00000000000E+00  0.00000000000E+00  0.18071171601E+04  0.18071171601E+04  0.25500000920E-02 0.  1.
       -2   -1    0    0    0  501  0.00000000000E+00  0.00000000000E+00 -0.73105061376E+03  0.73105061377E+03  0.25500000920E-02 0. -1.
    10030    2    1    2    0    0  0.00000000000E+00  0.00000000000E+00  0.10760665463E+04  0.25381677739E+04  0.22987771611E+04 0.  0.
        3    1    3    3  502    0  0.38798050734E+03 -0.85569131135E+03 -0.19300097649E+03  0.95915894487E+03  0.10100000352E+00 0. -1.
       -3    1    3    3    0  502 -0.38798050734E+03  0.85569131135E+03  0.12690675228E+04  0.15790088290E+04  0.10100000352E+00 0.  1.
</event>
<event>
 5   0  0.2982385E-05  0.2310160E+04  0.7818609E-02  0.8473926E-01
       -1   -1    0    0    0  501  0.00000000000E+00  0.00000000000E+00  0.57820293741E+03  0.57820293743E+03  0.50400001928E-02 0. -1.
        1   -1    0    0  501    0  0.00000000000E+00  0.00000000000E+00 -0.23075122725E+04  0.23075122725E+04  0.50400001928E-02 0.  1.
    10030    2    1    2    0    0  0.00000000000E+00  0.00000000000E+00 -0.17293093351E+04  0.28857152099E+04  0.23101604915E+04 0.  0.
        4    1    3    3  502    0 -0.10669628948E+04  0.44202305379E+03 -0.83922116383E+03  0.14276161857E+04  0.12699999809E+01 0.  1.
       -4    1    3    3    0  502  0.10669628948E+04 -0.44202305379E+03 -0.89008817125E+03  0.14580990242E+04  0.12699999809E+01 0. -1.
</event>
<event>
 5   0  0.6495405E-05  0.2301941E+04  0.7818609E-02  0.8477156E-01
       -2   -1    0    0    0  501  0.00000000000E+00  0.00000000000E+00  0.77532334816E+03  0.77532334816E+03  0.25500000920E-02 0. -1.
        2   -1    0    0  501    0  0.00000000000E+00  0.00000000000E+00 -0.17086208129E+04  0.17086208129E+04  0.25500000920E-02 0.  1.
    10030    2    1    2    0    0  0.00000000000E+00  0.00000000000E+00 -0.93329746473E+03  0.24839441611E+04  0.23019414496E+04 0.  0.
        5    1    3    3  502    0  0.61311906011E+03  0.82758420660E+02 -0.15139241830E+04  0.16354670464E+04  0.46999998093E+01 0.  1.
       -5    1    3    3    0  502 -0.61311906011E+03 -0.82758420660E+02  0.58062671828E+03  0.84847711462E+03  0.46999998093E+01 0. -1.
</event>
<event>
 5   0  0.2982385E-05  0.2325519E+04  0.7818609E-02  0.8467927E-01
       -1   -1    0    0    0  501  0.00000000000E+00  0.00000000000E+00  0.45297492897E+03  0.45297492899E+03  0.50400001928E-02 0. -1.
        1   -1    0    0  501    0  0.00000000000E+00  0.00000000000E+00 -0.29847331689E+04  0.29847331689E+04  0.50400001928E-02 0.  1.
    10030    2    1    2    0    0  0.00000000000E+00  0.00000000000E+00 -0.25317582399E+04  0.34377080979E+04  0.23255186907E+04 0.  0.
        4    1    3    3  502    0 -0.57304112860E+03  0.59348970397E+03 -0.54610901154E+02  0.82679509385E+03  0.12699999809E+01 0. -1.
       -4    1    3    3    0  502  0.57304112860E+03 -0.59348970397E+03 -0.24771473388E+04  0.26109130040E+04  0.12699999809E+01 0.  1.
</event>
<event>
 5   0  0.3118614E-05  0.2350556E+04  0.7818609E-02  0.8458250E-01
        1   -1    0    0  501    0  0.00000000000E+00  0.00000000000E+00  0.24408180968E+04  0.24408180968E+04  0.50400001928E-02 0. -1.
       -1   -1    0    0    0  501  0.00000000000E+00  0.00000000000E+00 -0.56590818835E+03  0.56590818838E+03  0.50400001928E-02 0.  1.
    10030    2    1    2    0    0  0.00000000000E+00  0.00000000000E+00  0.18749099084E+04  0.30067262852E+04  0.23505564850E+04 0.  0.
        3    1    3    3  502    0  0.19805825989E+03  0.59460319522E+03 -0.33432301690E+03  0.71031818497E+03  0.10100000352E+00 0.  1.
       -3    1    3    3    0  502 -0.19805825989E+03 -0.59460319522E+03  0.22092329254E+04  0.22964081002E+04  0.10100000352E+00 0. -1.
</event>
<event>
 5   0  0.6814789E-05  0.2299735E+04  0.7818609E-02  0.8478026E-01
       -2   -1    0    0    0  501  0.00000000000E+00  0.00000000000E+00  0.62226044197E+03  0.62226044197E+03  0.25500000920E-02 0. -1.
        2   -1    0    0  501    0  0.00000000000E+00  0.00000000000E+00 -0.21248263970E+04  0.21248263970E+04  0.25500000920E-02 0.  1.
    10030    2    1    2    0    0  0.00000000000E+00  0.00000000000E+00 -0.15025659550E+04  0.27470868390E+04  0.22997351264E+04 0.  0.
        1    1    3    3  502    0 -0.58625467682E+03  0.66061646073E+03  0.12820310036E+03  0.89249352336E+03  0.50400001928E-02 0. -1.
       -1    1    3    3    0  502  0.58625467682E+03 -0.66061646073E+03 -0.16307690554E+04  0.18545933156E+04  0.50400001928E-02 0.  1.
</event>
<event>
 5   0  0.6702421E-05  0.2280608E+04  0.7818609E-02  0.8485606E-01
        2   -1    0    0  501    0  0.00000000000E+00  0.00000000000E+00  0.20397692254E+04  0.20397692254E+04  0.25500000920E-02 0.  1.
       -2   -1    0    0    0  501  0.00000000000E+00  0.00000000000E+00 -0.63747087031E+03  0.63747087031E+03  0.25500000920E-02 0. -1.
    10030    2    1    2    0    0  0.00000000000E+00  0.00000000000E+00  0.14022983551E+04  0.26772400957E+04  0.22806082201E+04 0.  0.
        4    1    3    3  502    0  0.15176467864E+03 -0.35639625612E+03 -0.55786628816E+03  0.67916656088E+03  0.12699999809E+01 0. -1.
       -4    1    3    3    0  502 -0.15176467864E+03  0.35639625612E+03  0.19601646432E+04  0.19980735348E+04  0.12699999809E+01 0.  1.
</event>
<event>
 5   0  0.6468758E-05  0.2327017E+04  0.7818609E-02  0.8467344E-01
       -2   -1    0    0    0  501  0.00000000000E+00  0.00000000000E+00  0.65584352085E+03  0.65584352085E+03  0.25500000920E-02 0.  1.
        2   -1    0    0  501    0  0.00000000000E+00  0.00000000000E+00 -0.20641391362E+04  0.20641391362E+04  0.25500000920E-02 0. -1.
    10030    2    1    2    0    0  0.00000000000E+00  0.00000000000E+00 -0.14082956154E+04  0.27199826571E+04  0.23270172141E+04 0.  0.
        3    1    3    3  502    0 -0.40468602134E+03  0.10787354753E+04 -0.89374740861E+03  0.14581582363E+04  0.10100000352E+00 0. -1.
       -3    1    3    3    0  502  0.40468602134E+03 -0.10787354753E+04 -0.51454820679E+03  0.12618244208E+04  0.10100000352E+00 0.  1.
</event>
<event>
 5   0  0.3006265E-05  0.2268823E+04  0.7818609E-02  0.8490316E-01
        1   -1    0    0  501    0  0.00000000000E+00  0.00000000000E+00  0.17956109758E+04  0.17956109758E+04  0.50400001928E-02 0. -1.
       -1   -1    0    0    0  501  0.00000000000E+00  0.00000000000E+00 -0.71668619608E+03  0.71668619609E+03  0.50400001928E-02 0.  1.
    10030    2    1    2    0    0  0.00000000000E+00  0.00000000000E+00  0.10789247797E+04  0.25122971719E+04  0.22688231310E+04 0.  0.
        2    1    3    3  502    0 -0.55151082481E+03  0.51045238008E+03  0.14804593466E+04  0.16602667554E+04  0.25500000920E-02 0. -1.
       -2    1    3    3    0  502  0.55151082481E+03 -0.51045238008E+03 -0.40153456687E+03  0.85203041648E+03  0.25500000920E-02 0.  1.
</event>
<event>
 5   0  0.3006265E-05  0.2108217E+04  0.7818609E-02  0.8557632E-01
       -1   -1    0    0    0  501  0.00000000000E+00  0.00000000000E+00  0.99645451061E+03  0.99645451062E+03  0.50400001928E-02 0.  1.
        1   -1    0    0  501    0  0.00000000000E+00  0.00000000000E+00 -0.11150985257E+04  0.11150985257E+04  0.50400001928E-02 0. -1.
    10030    2    1    2    0    0  0.00000000000E+00  0.00000000000E+00 -0.11864401512E+03  0.21115530364E+04  0.21082172144E+04 0.  0.
        2    1    3    3  502    0  0.31306448348E+03  0.18206931786E+03  0.93218697241E+03  0.10000655773E+04  0.25500000920E-02 0.  1.
       -2    1    3    3    0  502 -0.31306448348E+03 -0.18206931786E+03 -0.10508309875E+04  0.11114874591E+04  0.25500000920E-02 0. -1.
</event>
<event>
 5   0  0.6495405E-05  0.2300711E+04  0.7818609E-02  0.8477641E-01
        2   -1    0    0  501    0  0.00000000000E+00  0.00000000000E+00  0.15584051534E+04  0.15584051534E+04  0.25500000920E-02 0.  1.
       -2   -1    0    0    0  501  0.00000000000E+00  0.00000000000E+00 -0.84914883972E+03  0.84914883972E+03  0.25500000920E-02 0. -1.
    10030    2    1    2    0    0  0.00000000000E+00  0.00000000000E+00  0.70925631372E+03  0.24075539932E+04  0.23007111317E+04 0.  0.
        5    1    3    3  502    0  0.76254454654E+03 -0.58140075972E+03 -0.31032998452E+03  0.10078828395E+04  0.46999998093E+01 0. -1.
       -5    1    3    3    0  502 -0.76254454654E+03  0.58140075972E+03  0.10195862982E+04  0.13996711537E+04  0.46999998093E+01 0.  1.
</event>
<event>
 5   0  0.2962279E-05  0.2311445E+04  0.7818609E-02  0.8473422E-01
       -1   -1    0    0    0  501  0.00000000000E+00  0.00000000000E+00  0.83646924303E+03  0.83646924305E+03  0.50400001928E-02 0. -1.
        1   -1    0    0  501    0  0.00000000000E+00  0.00000000000E+00 -0.15968245228E+04  0.15968245228E+04  0.50400001928E-02 0.  1.
    10030    2    1    2    0    0  0.00000000000E+00  0.00000000000E+00 -0.76035527972E+03  0.24332937658E+04  0.23114450890E+04 0.  0.
        1    1    3    3  502    0  0.36926085033E+03 -0.49684848156E+02  0.77151050429E+03  0.85676754022E+03  0.50400001928E-02 0. -1.
       -1    1    3    3    0  502 -0.36926085033E+03  0.49684848156E+02 -0.15318657840E+04  0.15765262256E+04  0.50400001928E-02 0.  1.
</event>
<event>
 5   0  0.6468758E-05  0.2248082E+04  0.7818609E-02  0.8498678E-01
       -2   -1    0    0    0  501  0.00000000000E+00  0.00000000000E+00  0.17508547994E+04  0.17508547994E+04  0.25500000920E-02 0.  1.
        2   -1    0    0  501    0  0.00000000000E+00  0.00000000000E+00 -0.72162925367E+03  0.72162925367E+03  0.25500000920E-02 0. -1.
    10030    2    1    2    0    0  0.00000000000E+00  0.00000000000E+00  0.10292255457E+04  0.24724840530E+04  0.22480818865E+04 0.  0.
        3    1    3    3  502    0 -0.87646111680E+03 -0.69277582283E+03  0.37837004281E+03  0.11795280113E+04  0.10100000352E+00 0. -1.
       -3    1    3    3    0  502  0.87646111680E+03  0.69277582283E+03  0.65085550288E+03  0.12929560417E+04  0.10100000352E+00 0.  1.
</event>
<event>
 5   0  0.3006265E-05  0.2276965E+04  0.7818609E-02  0.8487059E-01
        1   -1    0    0  501    0  0.00000000000E+00  0.00000000000E+00  0.18401449482E+04  0.18401449482E+04  0.50400001928E-02 0.  1.
       -1   -1    0    0    0  501  0.00000000000E+00  0.00000000000E+00 -0.70436954053E+03  0.70436954055E+03  0.50400001928E-02 0. -1.
    10030    2    1    2    0    0  0.00000000000E+00  0.00000000000E+00  0.11357754077E+04  0.25445144888E+04  0.22769646916E+04 0.  0.
        2    1    3    3  502    0  0.90715008815E+03 -0.34177343411E+03  0.12350394107E+04  0.15700486326E+04  0.25500000920E-02 0.  1.
       -2    1    3    3    0  502 -0.90715008815E+03  0.34177343411E+03 -0.99264002960E+02  0.97446585624E+03  0.25500000920E-02 0. -1.
</event>
<event>
 5   0  0.2982385E-05  0.2332216E+04  0.7818609E-02  0.8465326E-01
        1   -1    0    0  501    0  0.00000000000E+00  0.00000000000E+00  0.78594480447E+03  0.78594480448E+03  0.50400001928E-02 0.  1.
       -1   -1    0    0    0  501  0.00000000000E+00  0.00000000000E+00 -0.17301575183E+04  0.17301575183E+04  0.50400001928E-02 0. -1.
    10030    2    1    2    0    0  0.00000000000E+00  0.00000000000E+00 -0.94421271385E+03  0.25161023228E+04  0.23322163814E+04 0.  0.
        4    1    3    3  502    0  0.47550035125E+03  0.93071690740E+03  0.85848091688E+02  0.10486687053E+04  0.12699999809E+01 0.  1.
       -4    1    3    3    0  502 -0.47550035125E+03 -0.93071690740E+03 -0.10300608055E+04  0.14674336175E+04  0.12699999809E+01 0. -1.
</event>
<event>
 5   0  0.2342500E-05  0.2275431E+04  0.7818609E-02  0.8487672E-01
       -3   -1    0    0    0  501  0.00000000000E+00  0.00000000000E+00  0.83369207566E+03  0.83369208178E+03  0.10100000352E+00 0.  1.
        3   -1    0    0  501    0  0.00000000000E+00  0.00000000000E+00 -0.15526074977E+04  0.15526075010E+04  0.10100000352E+00 0. -1.
    10030    2    1    2    0    0  0.00000000000E+00  0.00000000000E+00 -0.71891542207E+03  0.23862995828E+04  0.22754310174E+04 0.  0.
        2    1    3    3  502    0 -0.79671973496E+03  0.40540149684E+03  0.37859670524E+03  0.97079770032E+03  0.25500000920E-02 0.  1.
       -2    1    3    3    0  502  0.79671973496E+03 -0.40540149684E+03 -0.10975121273E+04  0.14155018825E+04  0.25500000920E-02 0. -1.
</event>
<event>
 5   0  0.6702421E-05  0.2217431E+04  0.7818609E-02  0.8511208E-01
       -2   -1    0    0    0  501  0.00000000000E+00  0.00000000000E+00  0.93638513268E+03  0.93638513269E+03  0.25500000920E-02 0.  1.
        2   -1    0    0  501    0  0.00000000000E+00  0.00000000000E+00 -0.13127610994E+04  0.13127610994E+04  0.25500000920E-02 0. -1.
    10030    2    1    2    0    0  0.00000000000E+00  0.00000000000E+00 -0.37637596675E+03  0.22491462321E+04  0.22174309245E+04 0.  0.
        4    1    3    3  502    0 -0.93993908825E+03 -0.16494271299E+03 -0.76066890222E+03  0.12203730495E+04  0.12699999809E+01 0. -1.
       -4    1    3    3    0  502  0.93993908825E+03  0.16494271299E+03  0.38429293546E+03  0.10287731826E+04  0.12699999809E+01 0.  1.
</event>
<event>
 5   0  0.2944089E-05  0.2308143E+04  0.7818609E-02  0.8474717E-01
       -1   -1    0    0    0  501  0.00000000000E+00  0.00000000000E+00  0.61301499224E+03  0.61301499226E+03  0.50400001928E-02 0. -1.
        1   -1    0    0  501    0  0.00000000000E+00  0.00000000000E+00 -0.21726726121E+04  0.21726726121E+04  0.50400001928E-02 0.  1.
    10030    2    1    2    0    0  0.00000000000E+00  0.00000000000E+00 -0.15596576199E+04  0.27856876044E+04  0.23081428764E+04 0.  0.
        5    1    3    3  502    0 -0.14537608514E+03 -0.15458893575E+03  0.58925419686E+03  0.62631824475E+03  0.46999998093E+01 0. -1.
       -5    1    3    3    0  502  0.14537608514E+03  0.15458893575E+03 -0.21489118168E+04  0.21593693596E+04  0.46999998093E+01 0.  1.
</event>
<event>
 5   0  0.6676612E-05  0.2291659E+04  0.7818609E-02  0.8481217E-01
       -2   -1    0    0    0  501  0.00000000000E+00  0.00000000000E+00  0.91616500134E+03  0.91616500134E+03  0.25500000920E-02 0.  1.
        2   -1    0    0  501    0  0.00000000000E+00  0.00000000000E+00 -0.14330659281E+04  0.14330659281E+04  0.25500000920E-02 0. -1.
    10030    2    1    2    0    0  0.00000000000E+00  0.00000000000E+00 -0.51690092672E+03  0.23492309294E+04  0.22916586551E+04 0.  0.
        2    1    3    3  502    0  0.23369035344E+02 -0.53981702197E+03  0.77736792122E+03  0.94670450192E+03  0.25500000920E-02 0.  1.
       -2    1    3    3    0  502 -0.23369035344E+02  0.53981702197E+03 -0.12942688479E+04  0.14025264275E+04  0.25500000920E-02 0. -1.
</event>
<event>
 5   0  0.3006265E-05  0.2282557E+04  0.7818609E-02  0.8484831E-01
       -1   -1    0    0    0  501  0.00000000000E+00  0.00000000000E+00  0.10448436978E+04  0.10448436978E+04  0.50400001928E-02 0.  1.
        1   -1    0    0  501    0  0.00000000000E+00  0.00000000000E+00 -0.12466138575E+04  0.12466138575E+04  0.50400001928E-02 0. -1.
    10030    2    1    2    0    0  0.00000000000E+00  0.00000000000E+00 -0.20177015969E+03  0.22914575553E+04  0.22825570158E+04 0.  0.
        2    1    3    3  502    0 -0.38548675774E+01 -0.11146404836E+04  0.14517957486E+03  0.11240619985E+04  0.25500000920E-02 0.  1.
       -2    1    3    3    0  502  0.38548675774E+01  0.11146404836E+04 -0.34694973455E+03  0.11673955568E+04  0.25500000920E-02 0. -1.
</event>
<event>
 5   0  0.2962279E-05  0.2302881E+04  0.7818609E-02  0.8476786E-01
       -1   -1    0    0    0  501  0.00000000000E+00  0.00000000000E+00  0.39773673146E+03  0.39773673149E+03  0.50400001928E-02 0.  1.
        1   -1    0    0  501    0  0.00000000000E+00  0.00000000000E+00 -0.33333976105E+04  0.33333976105E+04  0.50400001928E-02 0. -1.
    10030    2    1    2    0    0  0.00000000000E+00  0.00000000000E+00 -0.29356608790E+04  0.37311343420E+04  0.23028805182E+04 0.  0.
        1    1    3    3  502    0  0.87146670769E+03  0.60881205545E+03 -0.75106982219E+03  0.13016190761E+04  0.50400001928E-02 0.  1.
       -1    1    3    3    0  502 -0.87146670769E+03 -0.60881205545E+03 -0.21845910568E+04  0.24295152659E+04  0.50400001928E-02 0. -1.
</event>
<event>
 5   0  0.6676612E-05  0.2286579E+04  0.7818609E-02  0.8483232E-01
       -2   -1    0    0    0  501  0.00000000000E+00  0.00000000000E+00  0.11855666238E+04  0.11855666238E+04  0.25500000920E-02 0. -1.
        2   -1    0    0  501    0  0.00000000000E+00  0.00000000000E+00 -0.11025197983E+04  0.11025197983E+04  0.25500000920E-02 0.  1.
    10030    2    1    2    0    0  0.00000000000E+00  0.00000000000E+00  0.83046825521E+02  0.22880864220E+04  0.22865788199E+04 0.  0.
        2    1    3    3  502    0  0.17165016260E+03 -0.15154750907E+03 -0.10793402197E+04  0.11033611085E+04  0.25500000920E-02 0.  1.
       -2    1    3    3    0  502 -0.17165016260E+03  0.15154750907E+03  0.11623870452E+04  0.11847253136E+04  0.25500000920E-02 0. -1.
</event>
<event>
 5   0  0.6702421E-05  0.2308063E+04  0.7818609E-02  0.8474749E-01
        2   -1    0    0  501    0  0.00000000000E+00  0.00000000000E+00  0.11542229325E+04  0.11542229325E+04  0.25500000920E-02 0.  1.
       -2   -1    0    0    0  501  0.00000000000E+00  0.00000000000E+00 -0.11538404380E+04  0.11538404380E+04  0.25500000920E-02 0. -1.
    10030    2    1    2    0    0  0.00000000000E+00  0.00000000000E+00  0.38249446302E+00  0.23080633705E+04  0.23080633388E+04 0.  0.
        4    1    3    3  502    0  0.71255656087E+03  0.76666940653E+03 -0.48588349618E+03  0.11539511325E+04  0.12699999809E+01 0. -1.
       -4    1    3    3    0  502 -0.71255656087E+03 -0.76666940653E+03  0.48626599064E+03  0.11541122380E+04  0.12699999809E+01 0.  1.
</event>
<event>
 5   0  0.3006265E-05  0.2303490E+04  0.7818609E-02  0.8476546E-01
        1   -1    0    0  501    0  0.00000000000E+00  0.00000000000E+00  0.80072138860E+03  0.80072138861E+03  0.50400001928E-02 0.  1.
       -1   -1    0    0    0  501  0.00000000000E+00  0.00000000000E+00 -0.16566518305E+04  0.16566518305E+04  0.50400001928E-02 0. -1.
    10030    2    1    2    0    0  0.00000000000E+00  0.00000000000E+00 -0.85593044185E+03  0.24573732191E+04  0.23034900079E+04 0.  0.
        2    1    3    3  502    0 -0.14318785898E+03  0.18979736686E+02 -0.16469513590E+04  0.16532730483E+04  0.25500000920E-02 0. -1.
       -2    1    3    3    0  502  0.14318785898E+03 -0.18979736686E+02  0.79102091711E+03  0.80410017080E+03  0.25500000920E-02 0.  1.
</event>
<event>
 5   0  0.2962279E-05  0.2281718E+04  0.7818609E-02  0.8485164E-01
       -1   -1    0    0    0  501  0.00000000000E+00  0.00000000000E+00  0.12177228145E+04  0.12177228145E+04  0.50400001928E-02 0. -1.
        1   -1    0    0  501    0  0.00000000000E+00  0.00000000000E+00 -0.10688469307E+04  0.10688469307E+04  0.50400001928E-02 0.  1.
    10030    2    1    2    0    0  0.00000000000E+00  0.00000000000E+00  0.14887588379E+03  0.22865697452E+04  0.22817180306E+04 0.  0.
        1    1    3    3  502    0 -0.24319060082E+03  0.83956294686E+03 -0.66030020968E+03  0.10954469303E+04  0.50400001928E-02 0. -1.
       -1    1    3    3    0  502  0.24319060082E+03 -0.83956294686E+03  0.80917609347E+03  0.11911228150E+04  0.50400001928E-02 0.  1.
</event>
<event>
 5   0  0.2982385E-05  0.2263949E+04  0.7818609E-02  0.8492272E-01
       -1   -1    0    0    0  501  0.00000000000E+00  0.00000000000E+00  0.11404845631E+04  0.11404845631E+04  0.50400001928E-02 0. -1.
        1   -1    0    0  501    0  0.00000000000E+00  0.00000000000E+00 -0.11235283744E+04  0.11235283744E+04  0.50400001928E-02 0.  1.
    10030    2    1    2    0    0  0.00000000000E+00  0.00000000000E+00  0.16956188724E+02  0.22640129376E+04  0.22639494405E+04 0.  0.
        4    1    3    3  502    0  0.70601466369E+03 -0.82904890403E+02  0.88943141876E+03  0.11386043157E+04  0.12699999809E+01 0. -1.
       -4    1    3    3    0  502 -0.70601466369E+03  0.82904890403E+02 -0.87247523004E+03  0.11254086218E+04  0.12699999809E+01 0.  1.
</event>
<event>
 5   0  0.6702421E-05  0.2297229E+04  0.7818609E-02  0.8479015E-01
        2   -1    0    0  501    0  0.00000000000E+00  0.00000000000E+00  0.12583996159E+04  0.12583996159E+04  0.25500000920E-02 0. -1.
       -2   -1    0    0    0  501  0.00000000000E+00  0.00000000000E+00 -0.10484070583E+04  0.10484070583E+04  0.25500000920E-02 0.  1.
    10030    2    1    2    0    0  0.00000000000E+00  0.00000000000E+00  0.20999255764E+03  0.23068066742E+04  0.22972287996E+04 0.  0.
        4    1    3    3  502    0 -0.43795209584E+03  0.60746462843E+03  0.97954538346E+03  0.12330150381E+04  0.12699999809E+01 0. -1.
       -4    1    3    3    0  502  0.43795209584E+03 -0.60746462843E+03 -0.76955282582E+03  0.10737916361E+04  0.12699999809E+01 0.  1.
</event>
<event>
 5   0  0.3118614E-05  0.2153088E+04  0.7818609E-02  0.8538212E-01
       -1   -1    0    0    0  501  0.00000000000E+00  0.00000000000E+00  0.12981360251E+04  0.12981360251E+04  0.50400001928E-02 0. -1.
        1   -1    0    0  501    0  0.00000000000E+00  0.00000000000E+00 -0.89277789511E+03  0.89277789512E+03  0.50400001928E-02 0.  1.
    10030    2    1    2    0    0  0.00000000000E+00  0.00000000000E+00  0.40535812997E+03  0.21909139202E+04  0.21530881525E+04 0.  0.
        3    1    3    3  502    0 -0.68029263888E+03  0.39653343488E+03 -0.54432290120E+03  0.95724828047E+03  0.10100000352E+00 0.  1.
       -3    1    3    3    0  502  0.68029263888E+03 -0.39653343488E+03  0.94968103118E+03  0.12336656397E+04  0.10100000352E+00 0. -1.
</event>
<event>
 5   0  0.2962279E-05  0.2187794E+04  0.7818609E-02  0.8523526E-01
        1   -1    0    0  501    0  0.00000000000E+00  0.00000000000E+00  0.14816853149E+04  0.14816853149E+04  0.50400001928E-02 0. -1.
       -1   -1    0    0    0  501  0.00000000000E+00  0.00000000000E+00 -0.80760111702E+03  0.80760111704E+03  0.50400001928E-02 0.  1.
    10030    2    1    2    0    0  0.00000000000E+00  0.00000000000E+00  0.67408419787E+03  0.22892864319E+04  0.21877940629E+04 0.  0.
        1    1    3    3  502    0  0.87925064541E+02 -0.10414408115E+04  0.67494829268E+03  0.12441402568E+04  0.50400001928E-02 0. -1.
       -1    1    3    3    0  502 -0.87925064541E+02  0.10414408115E+04 -0.86409481200E+00  0.10451461752E+04  0.50400001928E-02 0.  1.
</event>
<event>
 5   0  0.2962279E-05  0.2310663E+04  0.7818609E-02  0.8473729E-01
        1   -1    0    0  501    0  0.00000000000E+00  0.00000000000E+00  0.78824403407E+03  0.78824403409E+03  0.50400001928E-02 0.  1.
       -1   -1    0    0    0  501  0.00000000000E+00  0.00000000000E+00 -0.16933719027E+04  0.16933719027E+04  0.50400001928E-02 0. -1.
    10030    2    1    2    0    0  0.00000000000E+00  0.00000000000E+00 -0.90512786865E+03  0.24816159368E+04  0.23106625022E+04 0.  0.
        1    1    3    3  502    0  0.11256569331E+04 -0.26947331614E+02 -0.17465164379E+03  0.11394441129E+04  0.50400001928E-02 0.  1.
       -1    1    3    3    0  502 -0.11256569331E+04  0.26947331614E+02 -0.73047622486E+03  0.13421718239E+04  0.50400001928E-02 0. -1.
</event>
<event>
 5   0  0.6702421E-05  0.2324596E+04  0.7818609E-02  0.8468286E-01
        2   -1    0    0  501    0  0.00000000000E+00  0.00000000000E+00  0.15538076880E+04  0.15538076880E+04  0.25500000920E-02 0.  1.
       -2   -1    0    0    0  501  0.00000000000E+00  0.00000000000E+00 -0.86943650454E+03  0.86943650455E+03  0.25500000920E-02 0. -1.
    10030    2    1    2    0    0  0.00000000000E+00  0.00000000000E+00  0.68437118345E+03  0.24232441925E+04  0.23245964166E+04 0.  0.
        4    1    3    3  502    0  0.71583018675E+03  0.82190007915E+02 -0.60852991869E+03  0.94312158733E+03  0.12699999809E+01 0. -1.
       -4    1    3    3    0  502 -0.71583018675E+03 -0.82190007915E+02  0.12929011021E+04  0.14801226052E+04  0.12699999809E+01 0.  1.
</event>
<event>
 5   0  0.6468758E-05  0.2300203E+04  0.7818609E-02  0.8477841E-01
       -2   -1    0    0    0  501  0.00000000000E+00  0.00000000000E+00  0.83847239041E+03  0.83847239041E+03  0.25500000920E-02 0. -1.
        2   -1    0    0  501    0  0.00000000000E+00  0.00000000000E+00 -0.15775521151E+04  0.15775521151E+04  0.25500000920E-02 0.  1.
    10030    2    1    2    0    0  0.00000000000E+00  0.00000000000E+00 -0.73907972471E+03  0.24160245055E+04  0.23002033762E+04 0.  0.
        3    1    3    3  502    0  0.29140726139E+03 -0.61085679892E+03 -0.13462376616E+04  0.15067913169E+04  0.10100000352E+00 0.  1.
       -3    1    3    3    0  502 -0.29140726139E+03  0.61085679892E+03  0.60715793693E+03  0.90923318866E+03  0.10100000352E+00 0. -1.
</event>
<event>
 5   0  0.6495405E-05  0.1660789E+04  0.7818609E-02  0.8784049E-01
        2   -1    0    0  501    0  0.00000000000E+00  0.00000000000E+00  0.14874773952E+04  0.14874773952E+04  0.25500000920E-02 0.  1.
       -2   -1    0    0    0  501  0.00000000000E+00  0.00000000000E+00 -0.46357344766E+03  0.46357344767E+03  0.25500000920E-02 0. -1.
    10030    2    1    2    0    0  0.00000000000E+00  0.00000000000E+00  0.10239039476E+04  0.19510508429E+04  0.16607889986E+04 0.  0.
        5    1    3    3  502    0  0.23557727078E+03  0.38068580358E+03  0.13335501040E+04  0.14066969472E+04  0.46999998093E+01 0.  1.
       -5    1    3    3    0  502 -0.23557727078E+03 -0.38068580358E+03 -0.30964615640E+03  0.54435389566E+03  0.46999998093E+01 0. -1.
</event>
<event>
 5   0  0.6468758E-05  0.2286297E+04  0.7818609E-02  0.8483344E-01
        2   -1    0    0  501    0  0.00000000000E+00  0.00000000000E+00  0.22302986608E+04  0.22302986608E+04  0.25500000920E-02 0.  1.
       -2   -1    0    0    0  501  0.00000000000E+00  0.00000000000E+00 -0.58592552306E+03  0.58592552307E+03  0.25500000920E-02 0. -1.
    10030    2    1    2    0    0  0.00000000000E+00  0.00000000000E+00  0.16443731377E+04  0.28162241838E+04  0.22862973642E+04 0.  0.
        3    1    3    3  502    0 -0.95121868673E+02  0.10384709383E+04  0.24532384312E+03  0.10712860765E+04  0.10100000352E+00 0. -1.
       -3    1    3    3    0  502  0.95121868673E+02 -0.10384709383E+04  0.13990492946E+04  0.17449381073E+04  0.10100000352E+00 0.  1.
</event>
<event>
 5   0  0.2944089E-05  0.2304083E+04  0.7818609E-02  0.8476313E-01
        1   -1    0    0  501    0  0.00000000000E+00  0.00000000000E+00  0.10291814122E+04  0.10291814122E+04  0.50400001928E-02 0. -1.
       -1   -1    0    0    0  501  0.00000000000E+00  0.00000000000E+00 -0.12895686092E+04  0.12895686092E+04  0.50400001928E-02 0.  1.
    10030    2    1    2    0    0  0.00000000000E+00  0.00000000000E+00 -0.26038719701E+03  0.23187500215E+04  0.23040833687E+04 0.  0.
        5    1    3    3  502    0  0.30875813620E+03 -0.50865738550E+03  0.86255117406E+03  0.10478933822E+04  0.46999998093E+01 0. -1.
       -5    1    3    3    0  502 -0.30875813620E+03  0.50865738550E+03 -0.11229383711E+04  0.12708566393E+04  0.46999998093E+01 0.  1.
</event>
<event>
 5   0  0.6495405E-05  0.2280487E+04  0.7818609E-02  0.8485655E-01
        2   -1    0    0  501    0  0.00000000000E+00  0.00000000000E+00  0.27627950735E+04  0.27627950735E+04  0.25500000920E-02 0.  1.
       -2   -1    0    0    0  501  0.00000000000E+00  0.00000000000E+00 -0.47059429428E+03  0.47059429429E+03  0.25500000920E-02 0. -1.
    10030    2    1    2    0    0  0.00000000000E+00  0.00000000000E+00  0.22922007792E+04  0.32333893678E+04  0.22804873145E+04 0.  0.
        5    1    3    3  502    0  0.26415924531E+03  0.75937963849E+03 -0.25228209134E+00  0.80402717360E+03  0.46999998093E+01 0. -1.
       -5    1    3    3    0  502 -0.26415924531E+03 -0.75937963849E+03  0.22924530613E+04  0.24293621942E+04  0.46999998093E+01 0.  1.
</event>
<event>
 5   0  0.6676612E-05  0.2368302E+04  0.7818609E-02  0.8451467E-01
        2   -1    0    0  501    0  0.00000000000E+00  0.00000000000E+00  0.20916073770E+04  0.20916073770E+04  0.25500000920E-02 0.  1.
       -2   -1    0    0    0  501  0.00000000000E+00  0.00000000000E+00 -0.67040007047E+03  0.67040007047E+03  0.25500000920E-02 0. -1.
    10030    2    1    2    0    0  0.00000000000E+00  0.00000000000E+00  0.14212073066E+04  0.27620074475E+04  0.23683021201E+04 0.  0.
        2    1    3    3  502    0 -0.10908730736E+04  0.29269071808E+03  0.29574059075E+03  0.11675334754E+04  0.25500000920E-02 0. -1.
       -2    1    3    3    0  502  0.10908730736E+04 -0.29269071808E+03  0.11254667158E+04  0.15944739721E+04  0.25500000920E-02 0.  1.
</event>
<event>
 5   0  0.6495405E-05  0.2228315E+04  0.7818609E-02  0.8506734E-01
       -2   -1    0    0    0  501  0.00000000000E+00  0.00000000000E+00  0.85873836238E+03  0.85873836239E+03  0.25500000920E-02 0.  1.
        2   -1    0    0  501    0  0.00000000000E+00  0.00000000000E+00 -0.14455479633E+04  0.14455479633E+04  0.25500000920E-02 0. -1.
    10030    2    1    2    0    0  0.00000000000E+00  0.00000000000E+00 -0.58680960090E+03  0.23042863257E+04  0.22283154990E+04 0.  0.
        5    1    3    3  502    0  0.42431210521E+03  0.53900537717E+03  0.61445489822E+03  0.92094759416E+03  0.46999998093E+01 0. -1.
       -5    1    3    3    0  502 -0.42431210521E+03 -0.53900537717E+03 -0.12012644991E+04  0.13833387315E+04  0.46999998093E+01 0.  1.
</event>
<event>
 5   0  0.2962279E-05  0.2182888E+04  0.7818609E-02  0.8525584E-01
        1   -1    0    0  501    0  0.00000000000E+00  0.00000000000E+00  0.19678240719E+04  0.19678240719E+04  0.50400001928E-02 0.  1.
       -1   -1    0    0    0  501  0.00000000000E+00  0.00000000000E+00 -0.60536434356E+03  0.60536434358E+03  0.50400001928E-02 0. -1.
    10030    2    1    2    0    0  0.00000000000E+00  0.00000000000E+00  0.13624597284E+04  0.25731884155E+04  0.21828884787E+04 0.  0.
        1    1    3    3  502    0  0.80666179700E+03 -0.42969927639E+03  0.13844763563E+04  0.16589513266E+04  0.50400001928E-02 0.  1.
       -1    1    3    3    0  502 -0.80666179700E+03  0.42969927639E+03 -0.22016627887E+02  0.91423708895E+03  0.50400001928E-02 0. -1.
</event>
<event>
 5   0  0.6676612E-05  0.2287687E+04  0.7818609E-02  0.8482792E-01
        2   -1    0    0  501    0  0.00000000000E+00  0.00000000000E+00  0.94236891211E+03  0.94236891211E+03  0.25500000920E-02 0. -1.
       -2   -1    0    0    0  501  0.00000000000E+00  0.00000000000E+00 -0.13883926699E+04  0.13883926699E+04  0.25500000920E-02 0.  1.
    10030    2    1    2    0    0  0.00000000000E+00  0.00000000000E+00 -0.44602375782E+03  0.23307615820E+04  0.22876871202E+04 0.  0.
        2    1    3    3  502    0  0.40815095652E+02  0.43214951332E+03  0.85519547369E+03  0.95905076618E+03  0.25500000920E-02 0. -1.
       -2    1    3    3    0  502 -0.40815095652E+02 -0.43214951332E+03 -0.13012192315E+04  0.13717108159E+04  0.25500000920E-02 0.  1.
</event>
<event>
 5   0  0.2944089E-05  0.2240091E+04  0.7818609E-02  0.8501924E-01
       -1   -1    0    0    0  501  0.00000000000E+00  0.00000000000E+00  0.11671856914E+04  0.11671856914E+04  0.50400001928E-02 0. -1.
        1   -1    0    0  501    0  0.00000000000E+00  0.00000000000E+00 -0.10748087924E+04  0.10748087924E+04  0.50400001928E-02 0.  1.
    10030    2    1    2    0    0  0.00000000000E+00  0.00000000000E+00  0.92376898988E+02  0.22419944837E+04  0.22400905726E+04 0.  0.
        5    1    3    3  502    0 -0.24782065236E+03 -0.50927485901E+03 -0.92091610929E+03  0.10811496326E+04  0.46999998093E+01 0.  1.
       -5    1    3    3    0  502  0.24782065236E+03  0.50927485901E+03  0.10132930083E+04  0.11608448511E+04  0.46999998093E+01 0. -1.
</event>
<event>
 5   0  0.3118614E-05  0.2304368E+04  0.7818609E-02  0.8476201E-01
       -1   -1    0    0    0  501  0.00000000000E+00  0.00000000000E+00  0.91483956473E+03  0.91483956474E+03  0.50400001928E-02 0.  1.
        1   -1    0    0  501    0  0.00000000000E+00  0.00000000000E+00 -0.14511042539E+04  0.14511042539E+04  0.50400001928E-02 0. -1.
    10030    2    1    2    0    0  0.00000000000E+00  0.00000000000E+00 -0.53626468921E+03  0.23659438187E+04  0.23043676652E+04 0.  0.
        3    1    3    3  502    0 -0.80366177647E+03 -0.80412304250E+03 -0.75936619708E+02  0.11394088374E+04  0.10100000352E+00 0. -1.
       -3    1    3    3    0  502  0.80366177647E+03  0.80412304250E+03 -0.46032806950E+03  0.12265349812E+04  0.10100000352E+00 0.  1.
</event>
<event>
 5   0  0.6702421E-05  0.2291530E+04  0.7818609E-02  0.8481268E-01
        2   -1    0    0  501    0  0.00000000000E+00  0.00000000000E+00  0.12458604091E+04  0.12458604091E+04  0.25500000920E-02 0. -1.
       -2   -1    0    0    0  501  0.00000000000E+00  0.00000000000E+00 -0.10537112758E+04  0.10537112758E+04  0.25500000920E-02 0.  1.
    10030    2    1    2    0    0  0.00000000000E+00  0.00000000000E+00  0.19214913334E+03  0.22995716849E+04  0.22915297608E+04 0.  0.
        4    1    3    3  502    0 -0.44869516026E+03  0.98944930586E+03 -0.26912327677E+03  0.11192703993E+04  0.12699999809E+01 0.  1.
       -4    1    3    3    0  502  0.44869516026E+03 -0.98944930586E+03  0.46127241011E+03  0.11803012857E+04  0.12699999809E+01 0. -1.
</event>
<event>
 5   0  0.2944089E-05  0.2300208E+04  0.7818609E-02  0.8477839E-01
        1   -1    0    0  501    0  0.00000000000E+00  0.00000000000E+00  0.21604791089E+04  0.21604791089E+04  0.50400001928E-02 0.  1.
       -1   -1    0    0    0  501  0.00000000000E+00  0.00000000000E+00 -0.61224333028E+03  0.61224333030E+03  0.50400001928E-02 0. -1.
    10030    2    1    2    0    0  0.00000000000E+00  0.00000000000E+00  0.15482357786E+04  0.27727224392E+04  0.23002077512E+04 0.  0.
        5    1    3    3  502    0  0.59915933096E+03  0.54384552730E+03 -0.21105755530E+03  0.83625788073E+03  0.46999998093E+01 0. -1.
       -5    1    3    3    0  502 -0.59915933096E+03 -0.54384552730E+03  0.17592933339E+04  0.19364645585E+04  0.46999998093E+01 0.  1.
</event>
<event>
 5   0  0.2982385E-05  0.2133309E+04  0.7818609E-02  0.8546711E-01
        1   -1    0    0  501    0  0.00000000000E+00  0.00000000000E+00  0.18759549188E+04  0.18759549188E+04  0.50400001928E-02 0. -1.
       -1   -1    0    0    0  501  0.00000000000E+00  0.00000000000E+00 -0.60649212238E+03  0.60649212240E+03  0.50400001928E-02 0.  1.
    10030    2    1    2    0    0  0.00000000000E+00  0.00000000000E+00  0.12694627964E+04  0.24824470412E+04  0.21333090542E+04 0.  0.
        4    1    3    3  502    0  0.99303628126E+02  0.98785791362E+03  0.10884482013E+04  0.14732432141E+04  0.12699999809E+01 0. -1.
       -4    1    3    3    0  502 -0.99303628126E+02 -0.98785791362E+03  0.18101459511E+03  0.10092038271E+04  0.12699999809E+01 0.  1.
</event>
<event>
 5   0  0.3118614E-05  0.2285313E+04  0.7818609E-02  0.8483735E-01
       -1   -1    0    0    0  501  0.00000000000E+00  0.00000000000E+00  0.11936815892E+04  0.11936815892E+04  0.50400001928E-02 0.  1.
        1   -1    0    0  501    0  0.00000000000E+00  0.00000000000E+00 -0.10938122777E+04  0.10938122777E+04  0.50400001928E-02 0. -1.
    10030    2    1    2    0    0  0.00000000000E+00  0.00000000000E+00  0.99869311506E+02  0.22874938670E+04  0.22853127384E+04 0.  0.
        3    1    3    3  502    0  0.54321832256E+03  0.84009754253E+03  0.60256079846E+03  0.11678739457E+04  0.10100000352E+00 0.  1.
       -3    1    3    3    0  502 -0.54321832256E+03 -0.84009754253E+03 -0.50269148695E+03  0.11196199213E+04  0.10100000352E+00 0. -1.
</event>
<event>
 5   0  0.6495405E-05  0.2350790E+04  0.7818609E-02  0.8458160E-01
        2   -1    0    0  501    0  0.00000000000E+00  0.00000000000E+00  0.21224974679E+04  0.21224974679E+04  0.25500000920E-02 0. -1.
       -2   -1    0    0    0  501  0.00000000000E+00  0.00000000000E+00 -0.65090955775E+03  0.65090955775E+03  0.25500000920E-02 0.  1.
    10030    2    1    2    0    0  0.00000000000E+00  0.00000000000E+00  0.14715879102E+04  0.27734070257E+04  0.23507904102E+04 0.  0.
        5    1    3    3  502    0 -0.71361979420E+03  0.54979472157E+03 -0.15492108707E+03  0.91408428482E+03  0.46999998093E+01 0.  1.
       -5    1    3    3    0  502  0.71361979420E+03 -0.54979472157E+03  0.16265089973E+04  0.18593227409E+04  0.46999998093E+01 0. -1.
</event>
<event>
 5   0  0.2982385E-05  0.2271852E+04  0.7818609E-02  0.8489103E-01
       -1   -1    0    0    0  501  0.00000000000E+00  0.00000000000E+00  0.16194374379E+04  0.16194374379E+04  0.50400001928E-02 0. -1.
        1   -1    0    0  501    0  0.00000000000E+00  0.00000000000E+00 -0.79677517062E+03  0.79677517064E+03  0.50400001928E-02 0.  1.
    10030    2    1    2    0    0  0.00000000000E+00  0.00000000000E+00  0.82266226732E+03  0.24162126086E+04  0.22718517037E+04 0.  0.
        4    1    3    3  502    0 -0.82420476523E+03 -0.78000267719E+03  0.46564745192E+03  0.12265997040E+04  0.12699999809E+01 0. -1.
       -4    1    3    3    0  502  0.82420476523E+03  0.78000267719E+03  0.35701481539E+03  0.11896129046E+04  0.12699999809E+01 0.  1.
</event>
<event>
 5   0  0.2944089E-05  0.2255443E+04  0.7818609E-02  0.8495699E-01
        1   -1    0    0  501    0  0.00000000000E+00  0.00000000000E+00  0.12784550385E+04  0.12784550385E+04  0.50400001928E-02 0.  1.
       -1   -1    0    0    0  501  0.00000000000E+00  0.00000000000E+00 -0.99475982637E+03  0.99475982639E+03  0.50400001928E-02 0. -1.
    10030    2    1    2    0    0  0.00000000000E+00  0.00000000000E+00  0.28369521209E+03  0.22732148649E+04  0.22554429384E+04 0.  0.
        5    1    3    3  502    0  0.57256058918E+03 -0.94259525219E+03  0.37912177587E+03  0.11662190398E+04  0.46999998093E+01 0.  1.
       -5    1    3    3    0  502 -0.57256058918E+03  0.94259525219E+03 -0.95426563779E+02  0.11069958251E+04  0.46999998093E+01 0. -1.
</event>
<event>
 5   0  0.6495405E-05  0.1939741E+04  0.7818609E-02  0.8635324E-01
        2   -1    0    0  501    0  0.00000000000E+00  0.00000000000E+00  0.14140467269E+04  0.14140467269E+04  0.25500000920E-02 0. -1.
       -2   -1    0    0    0  501  0.00000000000E+00  0.00000000000E+00 -0.66521741657E+03  0.66521741657E+03  0.25500000920E-02 0.  1.
    10030    2    1    2    0    0  0.00000000000E+00  0.00000000000E+00  0.74882931030E+03  0.20792641434E+04  0.19397407152E+04 0.  0.
        5    1    3    3  502    0 -0.95521460768E+02 -0.86502025421E+03  0.83327289071E+03  0.12048859656E+04  0.46999998093E+01 0. -1.
       -5    1    3    3    0  502  0.95521460768E+02  0.86502025421E+03 -0.84443580416E+02  0.87437817787E+03  0.46999998093E+01 0.  1.
</event>
<event>
 5   0  0.2944089E-05  0.2315408E+04  0.7818609E-02  0.8471871E-01
       -1   -1    0    0    0  501  0.00000000000E+00  0.00000000000E+00  0.54222650793E+03  0.54222650795E+03  0.50400001928E-02 0.  1.
        1   -1    0    0  501    0  0.00000000000E+00  0.00000000000E+00 -0.24718052078E+04  0.24718052078E+04  0.50400001928E-02 0. -1.
    10030    2    1    2    0    0  0.00000000000E+00  0.00000000000E+00 -0.19295786999E+04  0.30140317158E+04  0.23154077880E+04 0.  0.
        5    1    3    3  502    0  0.84065166596E+03 -0.79542698249E+03 -0.10028948336E+04  0.15314109328E+04  0.46999998093E+01 0. -1.
       -5    1    3    3    0  502 -0.84065166596E+03  0.79542698249E+03 -0.92668386629E+03  0.14826207829E+04  0.46999998093E+01 0.  1.
</event>
<event>
 5   0  0.6702421E-05  0.2096730E+04  0.7818609E-02  0.8562685E-01
        2   -1    0    0  501    0  0.00000000000E+00  0.00000000000E+00  0.60147339061E+03  0.60147339062E+03  0.25500000920E-02 0. -1.
       -2   -1    0    0    0  501  0.00000000000E+00  0.00000000000E+00 -0.18272943722E+04  0.18272943722E+04  0.25500000920E-02 0.  1.
    10030    2    1    2    0    0  0.00000000000E+00  0.00000000000E+00 -0.12258209816E+04  0.24287677628E+04  0.20967297791E+04 0.  0.
        4    1    3    3  502    0  0.31616414571E+03  0.94174435044E+03 -0.22485967147E+03  0.10185311352E+04  0.12699999809E+01 0. -1.
       -4    1    3    3    0  502 -0.31616414571E+03 -0.94174435044E+03 -0.10009613101E+04  0.14102366276E+04  0.12699999809E+01 0.  1.
</event>
<event>
 5   0  0.2982385E-05  0.2324961E+04  0.7818609E-02  0.8468144E-01
       -1   -1    0    0    0  501  0.00000000000E+00  0.00000000000E+00  0.11996884100E+04  0.11996884100E+04  0.50400001928E-02 0.  1.
        1   -1    0    0  501    0  0.00000000000E+00  0.00000000000E+00 -0.11264268939E+04  0.11264268939E+04  0.50400001928E-02 0. -1.
    10030    2    1    2    0    0  0.00000000000E+00  0.00000000000E+00  0.73261516097E+02  0.23261153040E+04  0.23249613239E+04 0.  0.
        4    1    3    3  502    0  0.10708577732E+04 -0.32468796075E+03 -0.27848752823E+03  0.11531329318E+04  0.12699999809E+01 0. -1.
       -4    1    3    3    0  502 -0.10708577732E+04  0.32468796075E+03  0.35174904433E+03  0.11729823721E+04  0.12699999809E+01 0.  1.
</event>
<event>
 5   0  0.3006265E-05  0.2293795E+04  0.7818609E-02  0.8480372E-01
       -1   -1    0    0    0  501  0.00000000000E+00  0.00000000000E+00  0.95050891934E+03  0.95050891936E+03  0.50400001928E-02 0. -1.
        1   -1    0    0  501    0  0.00000000000E+00  0.00000000000E+00 -0.13838624388E+04  0.13838624388E+04  0.50400001928E-02 0.  1.
    10030    2    1    2    0    0  0.00000000000E+00  0.00000000000E+00 -0.43335351942E+03  0.23343713581E+04  0.22937947521E+04 0.  0.
        2    1    3    3  502    0 -0.66815259588E+03  0.76390004837E+03 -0.76035783195E+03  0.12681148244E+04  0.25500000920E-02 0.  1.
       -2    1    3    3    0  502  0.66815259588E+03 -0.76390004837E+03  0.32700431253E+03  0.10662565337E+04  0.25500000920E-02 0. -1.
</event>
<event>
 5   0  0.3118614E-05  0.2266867E+04  0.7818609E-02  0.8491101E-01
        1   -1    0    0  501    0  0.00000000000E+00  0.00000000000E+00  0.17326864447E+04  0.17326864447E+04  0.50400001928E-02 0. -1.
       -1   -1    0    0    0  501  0.00000000000E+00  0.00000000000E+00 -0.74143324001E+03  0.74143324003E+03  0.50400001928E-02 0.  1.
    10030    2    1    2    0    0  0.00000000000E+00  0.00000000000E+00  0.99125320472E+03  0.24741196848E+04  0.22668668463E+04 0.  0.
        3    1    3    3  502    0  0.67417526194E+01 -0.78013518836E+03  0.13929992842E+04  0.15965911747E+04  0.10100000352E+00 0. -1.
       -3    1    3    3    0  502 -0.67417526194E+01  0.78013518836E+03 -0.40174607946E+03  0.87752851002E+03  0.10100000352E+00 0.  1.
</event>
<event>
 5   0  0.6468758E-05  0.2213667E+04  0.7818609E-02  0.8512761E-01
        2   -1    0    0  501    0  0.00000000000E+00  0.00000000000E+00  0.76802505664E+03  0.76802505665E+03  0.25500000920E-02 0.  1.
       -2   -1    0    0    0  501  0.00000000000E+00  0.00000000000E+00 -0.15951053112E+04  0.15951053112E+04  0.25500000920E-02 0. -1.
    10030    2    1    2    0    0  0.00000000000E+00  0.00000000000E+00 -0.82708025453E+03  0.23631303678E+04  0.22136674068E+04 0.  0.
        3    1    3    3  502    0 -0.14349245825E+03 -0.10370114040E+04 -0.79710182678E+03  0.13158092833E+04  0.10100000352E+00 0. -1.
       -3    1    3    3    0  502  0.14349245825E+03  0.10370114040E+04 -0.29978427747E+02  0.10473210845E+04  0.10100000352E+00 0.  1.
</event>
<event>
 5   0  0.3006265E-05  0.2278817E+04  0.7818609E-02  0.8486320E-01
        1   -1    0    0  501    0  0.00000000000E+00  0.00000000000E+00  0.97339751395E+03  0.97339751396E+03  0.50400001928E-02 0. -1.
       -1   -1    0    0    0  501  0.00000000000E+00  0.00000000000E+00 -0.13337323048E+04  0.13337323048E+04  0.50400001928E-02 0.  1.
    10030    2    1    2    0    0  0.00000000000E+00  0.00000000000E+00 -0.36033479086E+03  0.23071298188E+04  0.22788169824E+04 0.  0.
        2    1    3    3  502    0 -0.41369891592E+03 -0.10443357597E+04 -0.37350529527E+03  0.11837610306E+04  0.25500000920E-02 0. -1.
       -2    1    3    3    0  502  0.41369891592E+03  0.10443357597E+04  0.13170504411E+02  0.11233687882E+04  0.25500000920E-02 0.  1.
</event>
<event>
 5   0  0.3006265E-05  0.2313285E+04  0.7818609E-02  0.8472702E-01
        1   -1    0    0  501    0  0.00000000000E+00  0.00000000000E+00  0.11778419246E+04  0.11778419246E+04  0.50400001928E-02 0.  1.
       -1   -1    0    0    0  501  0.00000000000E+00  0.00000000000E+00 -0.11358242485E+04  0.11358242485E+04  0.50400001928E-02 0. -1.
    10030    2    1    2    0    0  0.00000000000E+00  0.00000000000E+00  0.42017676033E+02  0.23136661731E+04  0.23132846076E+04 0.  0.
        2    1    3    3  502    0 -0.44467261030E+03  0.77026624427E+03 -0.71855724638E+03  0.11434020875E+04  0.25500000920E-02 0. -1.
       -2    1    3    3    0  502  0.44467261030E+03 -0.77026624427E+03  0.76057492241E+03  0.11702640856E+04  0.25500000920E-02 0.  1.
</event>
<event>
 5   0  0.6495405E-05  0.2180531E+04  0.7818609E-02  0.8526575E-01
       -2   -1    0    0    0  501  0.00000000000E+00  0.00000000000E+00  0.95035766276E+03  0.95035766276E+03  0.25500000920E-02 0.  1.
        2   -1    0    0  501    0  0.00000000000E+00  0.00000000000E+00 -0.12507699885E+04  0.12507699885E+04  0.25500000920E-02 0. -1.
    10030    2    1    2    0    0  0.00000000000E+00  0.00000000000E+00 -0.30041232575E+03  0.22011276513E+04  0.21805309839E+04 0.  0.
        5    1    3    3  502    0 -0.45223047697E+03 -0.37202136674E+03 -0.10785365064E+04  0.12272633732E+04  0.46999998093E+01 0. -1.
       -5    1    3    3    0  502  0.45223047697E+03  0.37202136674E+03  0.77812418063E+03  0.97386427807E+03  0.46999998093E+01 0.  1.
</event>
<event>
 5   0  0.6702421E-05  0.2283229E+04  0.7818609E-02  0.8484563E-01
        2   -1    0    0  501    0  0.00000000000E+00  0.00000000000E+00  0.14893877958E+04  0.14893877958E+04  0.25500000920E-02 0. -1.
       -2   -1    0    0    0  501  0.00000000000E+00  0.00000000000E+00 -0.87504645361E+03  0.87504645361E+03  0.25500000920E-02 0.  1.
    10030    2    1    2    0    0  0.00000000000E+00  0.00000000000E+00  0.61434134221E+03  0.23644342494E+04  0.22832288618E+04 0.  0.
        4    1    3    3  502    0 -0.28726626861E+03  0.79437735539E+03 -0.48807702519E+03  0.97559114759E+03  0.12699999809E+01 0.  1.
       -4    1    3    3    0  502  0.28726626861E+03 -0.79437735539E+03  0.11024183674E+04  0.13888431018E+04  0.12699999809E+01 0. -1.
</event>
<event>
 5   0  0.3006265E-05  0.2290590E+04  0.7818609E-02  0.8481641E-01
       -1   -1    0    0    0  501  0.00000000000E+00  0.00000000000E+00  0.10314861857E+04  0.10314861857E+04  0.50400001928E-02 0. -1.
        1   -1    0    0  501    0  0.00000000000E+00  0.00000000000E+00 -0.12716610479E+04  0.12716610479E+04  0.50400001928E-02 0.  1.
    10030    2    1    2    0    0  0.00000000000E+00  0.00000000000E+00 -0.24017486225E+03  0.23031472336E+04  0.22905901456E+04 0.  0.
        2    1    3    3  502    0 -0.78629633270E+02  0.91413558621E+03 -0.80931900863E+03  0.12234474843E+04  0.25500000920E-02 0.  1.
       -2    1    3    3    0  502  0.78629633270E+02 -0.91413558621E+03  0.56914414638E+03  0.10796997493E+04  0.25500000920E-02 0. -1.
</event>
<event>
 5   0  0.2962279E-05  0.2284755E+04  0.7818609E-02  0.8483956E-01
       -1   -1    0    0    0  501  0.00000000000E+00  0.00000000000E+00  0.11408623570E+04  0.11408623570E+04  0.50400001928E-02 0.  1.
        1   -1    0    0  501    0  0.00000000000E+00  0.00000000000E+00 -0.11438946157E+04  0.11438946157E+04  0.50400001928E-02 0. -1.
    10030    2    1    2    0    0  0.00000000000E+00  0.00000000000E+00 -0.30322587490E+01  0.22847569727E+04  0.22847549606E+04 0.  0.
        1    1    3    3  502    0 -0.79875870426E+03  0.81637540213E+03  0.21765699093E+02  0.11423475874E+04  0.50400001928E-02 0.  1.
       -1    1    3    3    0  502  0.79875870426E+03 -0.81637540213E+03 -0.24797957842E+02  0.11424093853E+04  0.50400001928E-02 0. -1.
</event>
<event>
 5   0  0.3118614E-05  0.2329933E+04  0.7818609E-02  0.8466212E-01
       -1   -1    0    0    0  501  0.00000000000E+00  0.00000000000E+00  0.10665242999E+04  0.10665242999E+04  0.50400001928E-02 0.  1.
        1   -1    0    0  501    0  0.00000000000E+00  0.00000000000E+00 -0.12724952064E+04  0.12724952064E+04  0.50400001928E-02 0. -1.
    10030    2    1    2    0    0  0.00000000000E+00  0.00000000000E+00 -0.20597090649E+03  0.23390195063E+04  0.23299330970E+04 0.  0.
        3    1    3    3  502    0 -0.93945835546E+03 -0.25391254195E+03 -0.74586827181E+03  0.12261211480E+04  0.10100000352E+00 0. -1.
       -3    1    3    3    0  502  0.93945835546E+03  0.25391254195E+03  0.53989736532E+03  0.11128983583E+04  0.10100000352E+00 0.  1.
</event>
<event>
 5   0  0.6676612E-05  0.2308080E+04  0.7818609E-02  0.8474742E-01
       -2   -1    0    0    0  501  0.00000000000E+00  0.00000000000E+00  0.53973112585E+03  0.53973112586E+03  0.25500000920E-02 0.  1.
        2   -1    0    0  501    0  0.00000000000E+00  0.00000000000E+00 -0.24675402798E+04  0.24675402798E+04  0.25500000920E-02 0. -1.
    10030    2    1    2    0    0  0.00000000000E+00  0.00000000000E+00 -0.19278091539E+04  0.30072714056E+04  0.23080799755E+04 0.  0.
        2    1    3    3  502    0 -0.41032041042E+03  0.75038888895E+03 -0.19734557983E+04  0.21508077812E+04  0.25500000920E-02 0. -1.
       -2    1    3    3    0  502  0.41032041042E+03 -0.75038888895E+03  0.45646644340E+02  0.85646362445E+03  0.25500000920E-02 0.  1.
</event>
<event>
 5   0  0.2962279E-05  0.2305502E+04  0.7818609E-02  0.8475755E-01
        1   -1    0    0  501    0  0.00000000000E+00  0.00000000000E+00  0.16031424616E+04  0.16031424616E+04  0.50400001928E-02 0.  1.
       -1   -1    0    0    0  501  0.00000000000E+00  0.00000000000E+00 -0.82889409421E+03  0.82889409423E+03  0.50400001928E-02 0. -1.
    10030    2    1    2    0    0  0.00000000000E+00  0.00000000000E+00  0.77424836735E+03  0.24320365558E+04  0.23055023909E+04 0.  0.
        1    1    3    3  502    0  0.45776677356E+02 -0.99676332391E+03  0.99604212627E+03  0.14098696909E+04  0.50400001928E-02 0.  1.
       -1    1    3    3    0  502 -0.45776677356E+02  0.99676332391E+03 -0.22179375892E+03  0.10221668649E+04  0.50400001928E-02 0. -1.
</event>
<event>
 5   0  0.6495405E-05  0.2318762E+04  0.7818609E-02  0.8470560E-01
       -2   -1    0    0    0  501  0.00000000000E+00  0.00000000000E+00  0.22872224822E+04  0.22872224822E+04  0.25500000920E-02 0.  1.
        2   -1    0    0  501    0  0.00000000000E+00  0.00000000000E+00 -0.58768425552E+03  0.58768425552E+03  0.25500000920E-02 0. -1.
    10030    2    1    2    0    0  0.00000000000E+00  0.00000000000E+00  0.16995382266E+04  0.28749067377E+04  0.23187622919E+04 0.  0.
        5    1    3    3  502    0  0.83247365633E+03  0.73024981741E+03  0.42411127172E+03  0.11858202415E+04  0.46999998093E+01 0. -1.
       -5    1    3    3    0  502 -0.83247365633E+03 -0.73024981741E+03  0.12754269549E+04  0.16890864962E+04  0.46999998093E+01 0.  1.
</event>
<event>
 5   0  0.3118614E-05  0.2076050E+04  0.7818609E-02  0.8571868E-01
       -1   -1    0    0    0  501  0.00000000000E+00  0.00000000000E+00  0.71356058533E+03  0.71356058535E+03  0.50400001928E-02 0. -1.
        1   -1    0    0  501    0  0.00000000000E+00  0.00000000000E+00 -0.15100269247E+04  0.15100269247E+04  0.50400001928E-02 0.  1.
    10030    2    1    2    0    0  0.00000000000E+00  0.00000000000E+00 -0.79646633939E+03  0.22235875101E+04  0.20760498032E+04 0.  0.
        3    1    3    3  502    0 -0.25788301110E+03  0.97854365560E+03 -0.64584270731E+03  0.12004849629E+04  0.10100000352E+00 0.  1.
       -3    1    3    3    0  502  0.25788301110E+03 -0.97854365560E+03 -0.15062363207E+03  0.10231025472E+04  0.10100000352E+00 0. -1.
</event>
<event>
 5   0  0.6676612E-05  0.2326536E+04  0.7818609E-02  0.8467531E-01
       -2   -1    0    0    0  501  0.00000000000E+00  0.00000000000E+00  0.52319740825E+03  0.52319740826E+03  0.25500000920E-02 0. -1.
        2   -1    0    0  501    0  0.00000000000E+00  0.00000000000E+00 -0.25863891823E+04  0.25863891824E+04  0.25500000920E-02 0.  1.
    10030    2    1    2    0    0  0.00000000000E+00  0.00000000000E+00 -0.20631917741E+04  0.31095865906E+04  0.23265357224E+04 0.  0.
        2    1    3    3  502    0 -0.24115247138E+03 -0.10983337120E+04 -0.14296630507E+04  0.18189084353E+04  0.25500000920E-02 0. -1.
       -2    1    3    3    0  502  0.24115247138E+03  0.10983337120E+04 -0.63352872341E+03  0.12906781554E+04  0.25500000920E-02 0.  1.
</event>
<event>
 5   0  0.2342500E-05  0.2269503E+04  0.7818609E-02  0.8490044E-01
       -3   -1    0    0    0  501  0.00000000000E+00  0.00000000000E+00  0.14521372248E+04  0.14521372284E+04  0.10100000352E+00 0. -1.
        3   -1    0    0  501    0  0.00000000000E+00  0.00000000000E+00 -0.88673519699E+03  0.88673520275E+03  0.10100000352E+00 0.  1.
    10030    2    1    2    0    0  0.00000000000E+00  0.00000000000E+00  0.56540202785E+03  0.23388724311E+04  0.22695032046E+04 0.  0.
        3    1    3    3  502    0  0.24579532817E+03 -0.42548900314E+03 -0.77140458584E+03  0.91461537293E+03  0.10100000352E+00 0.  1.
       -3    1    3    3    0  502 -0.24579532817E+03  0.42548900314E+03  0.13368066137E+04  0.14242570582E+04  0.10100000352E+00 0. -1.
</event>
<event>
 5   0  0.6495405E-05  0.2294158E+04  0.7818609E-02  0.8480228E-01
        2   -1    0    0  501    0  0.00000000000E+00  0.00000000000E+00  0.20545918504E+04  0.20545918504E+04  0.25500000920E-02 0. -1.
       -2   -1    0    0    0  501  0.00000000000E+00  0.00000000000E+00 -0.64041415967E+03  0.64041415968E+03  0.25500000920E-02 0.  1.
    10030    2    1    2    0    0  0.00000000000E+00  0.00000000000E+00  0.14141776907E+04  0.26950060101E+04  0.22941575476E+04 0.  0.
        5    1    3    3  502    0 -0.10255266373E+04  0.75278143958E+02  0.10994447501E+03  0.10341574156E+04  0.46999998093E+01 0.  1.
       -5    1    3    3    0  502  0.10255266373E+04 -0.75278143958E+02  0.13042332157E+04  0.16608485944E+04  0.46999998093E+01 0. -1.
</event>
<event>
 5   0  0.2962279E-05  0.2357414E+04  0.7818609E-02  0.8455621E-01
        1   -1    0    0  501    0  0.00000000000E+00  0.00000000000E+00  0.95196385667E+03  0.95196385668E+03  0.50400001928E-02 0.  1.
       -1   -1    0    0    0  501  0.00000000000E+00  0.00000000000E+00 -0.14594573692E+04  0.14594573693E+04  0.50400001928E-02 0. -1.
    10030    2    1    2    0    0  0.00000000000E+00  0.00000000000E+00 -0.50749351258E+03  0.24114212259E+04  0.23574144022E+04 0.  0.
        1    1    3    3  502    0  0.81619160331E+03  0.72258684997E+03 -0.71240518258E+03  0.13022371647E+04  0.50400001928E-02 0. -1.
       -1    1    3    3    0  502 -0.81619160331E+03 -0.72258684997E+03  0.20491167000E+03  0.11091840612E+04  0.50400001928E-02 0.  1.
</event>
<event>
 5   0  0.3006265E-05  0.2298288E+04  0.7818609E-02  0.8478597E-01
        1   -1    0    0  501    0  0.00000000000E+00  0.00000000000E+00  0.66409425279E+03  0.66409425281E+03  0.50400001928E-02 0. -1.
       -1   -1    0    0    0  501  0.00000000000E+00  0.00000000000E+00 -0.19884702962E+04  0.19884702962E+04  0.50400001928E-02 0.  1.
    10030    2    1    2    0    0  0.00000000000E+00  0.00000000000E+00 -0.13243760434E+04  0.26525645490E+04  0.22982877936E+04 0.  0.
        2    1    3    3  502    0  0.23618703086E+02 -0.88792515390E+02  0.65984809743E+03  0.66621427905E+03  0.25500000920E-02 0. -1.
       -2    1    3    3    0  502 -0.23618703086E+02  0.88792515390E+02 -0.19842241408E+04  0.19863502699E+04  0.25500000920E-02 0.  1.
</event>
<event>
 5   0  0.6468758E-05  0.2319796E+04  0.7818609E-02  0.8470157E-01
        2   -1    0    0  501    0  0.00000000000E+00  0.00000000000E+00  0.13784799279E+04  0.13784799279E+04  0.25500000920E-02 0. -1.
       -2   -1    0    0    0  501  0.00000000000E+00  0.00000000000E+00 -0.97597582567E+03  0.97597582567E+03  0.25500000920E-02 0.  1.
    10030    2    1    2    0    0  0.00000000000E+00  0.00000000000E+00  0.40250410227E+03  0.23544557536E+04  0.23197957547E+04 0.  0.
        3    1    3    3  502    0  0.96225631213E+03 -0.63325657156E+03  0.33897015386E+03  0.12007713650E+04  0.10100000352E+00 0. -1.
       -3    1    3    3    0  502 -0.96225631213E+03  0.63325657156E+03  0.63533948406E+02  0.11536843886E+04  0.10100000352E+00 0.  1.
</event>
<event>
 5   0  0.2944089E-05  0.2327482E+04  0.7818609E-02  0.8467164E-01
        1   -1    0    0  501    0  0.00000000000E+00  0.00000000000E+00  0.80297197899E+03  0.80297197901E+03  0.50400001928E-02 0. -1.
       -1   -1    0    0    0  501  0.00000000000E+00  0.00000000000E+00 -0.16866006741E+04  0.16866006741E+04  0.50400001928E-02 0.  1.
    10030    2    1    2    0    0  0.00000000000E+00  0.00000000000E+00 -0.88362869507E+03  0.24895726531E+04  0.23274819708E+04 0.  0.
        5    1    3    3  502    0  0.88193412210E+03  0.40190541294E+03 -0.11308292840E+04  0.14893396913E+04  0.46999998093E+01 0.  1.
       -5    1    3    3    0  502 -0.88193412210E+03 -0.40190541294E+03  0.24720058888E+03  0.10002329618E+04  0.46999998093E+01 0. -1.
</event>
<event>
 5   0  0.6814789E-05  0.2306378E+04  0.7818609E-02  0.8475411E-01
        2   -1    0    0  501    0  0.00000000000E+00  0.00000000000E+00  0.15889960182E+04  0.15889960182E+04  0.25500000920E-02 0.  1.
       -2   -1    0    0    0  501  0.00000000000E+00  0.00000000000E+00 -0.83690859911E+03  0.83690859911E+03  0.25500000920E-02 0. -1.
    10030    2    1    2    0    0  0.00000000000E+00  0.00000000000E+00  0.75208741912E+03  0.24259046173E+04  0.23063776201E+04 0.  0.
        1    1    3    3  502    0 -0.86832438156E+03  0.19415090309E+03  0.11476576640E+04  0.14521707608E+04  0.50400001928E-02 0.  1.
       -1    1    3    3    0  502  0.86832438156E+03 -0.19415090309E+03 -0.39557024485E+03  0.97373385656E+03  0.50400001928E-02 0. -1.
</event>
<event>
 5   0  0.2962279E-05  0.2302373E+04  0.7818609E-02  0.8476986E-01
        1   -1    0    0  501    0  0.00000000000E+00  0.00000000000E+00  0.10814363681E+04  0.10814363681E+04  0.50400001928E-02 0.  1.
       -1   -1    0    0    0  501  0.00000000000E+00  0.00000000000E+00 -0.12254358201E+04  0.12254358201E+04  0.50400001928E-02 0. -1.
    10030    2    1    2    0    0  0.00000000000E+00  0.00000000000E+00 -0.14399945198E+03  0.23068721883E+04  0.23023734386E+04 0.  0.
        1    1    3    3  502    0  0.15961541385E+03  0.10898687574E+04 -0.40722763935E+03  0.11743616730E+04  0.50400001928E-02 0. -1.
       -1    1    3    3    0  502 -0.15961541385E+03 -0.10898687574E+04  0.26322818737E+03  0.11325105153E+04  0.50400001928E-02 0.  1.
</event>
<event>
 5   0  0.6676612E-05  0.2314790E+04  0.7818609E-02  0.8472112E-01
        2   -1    0    0  501    0  0.00000000000E+00  0.00000000000E+00  0.88747314675E+03  0.88747314675E+03  0.25500000920E-02 0.  1.
       -2   -1    0    0    0  501  0.00000000000E+00  0.00000000000E+00 -0.15094124810E+04  0.15094124811E+04  0.25500000920E-02 0. -1.
    10030    2    1    2    0    0  0.00000000000E+00  0.00000000000E+00 -0.62193933430E+03  0.23968856278E+04  0.23147898776E+04 0.  0.
        2    1    3    3  502    0 -0.22602750783E+03 -0.10944797319E+04  0.68441080265E+00  0.11175754052E+04  0.25500000920E-02 0. -1.
       -2    1    3    3    0  502  0.22602750783E+03  0.10944797319E+04 -0.62262374510E+03  0.12793102226E+04  0.25500000920E-02 0.  1.
</event>
<event>
 5   0  0.3118614E-05  0.2295334E+04  0.7818609E-02  0.8479763E-01
       -1   -1    0    0    0  501  0.00000000000E+00  0.00000000000E+00  0.10512371614E+04  0.10512371614E+04  0.50400001928E-02 0. -1.
        1   -1    0    0  501    0  0.00000000000E+00  0.00000000000E+00 -0.12529420948E+04  0.12529420948E+04  0.50400001928E-02 0.  1.
    10030    2    1    2    0    0  0.00000000000E+00  0.00000000000E+00 -0.20170493344E+03  0.23041792562E+04  0.22953337806E+04 0.  0.
        3    1    3    3  502    0 -0.14011083548E+02  0.46926804124E+03  0.95043229673E+03  0.10600614915E+04  0.10100000352E+00 0. -1.
       -3    1    3    3    0  502  0.14011083548E+02 -0.46926804124E+03 -0.11521372302E+04  0.12441177647E+04  0.10100000352E+00 0.  1.
</event>
<event>
 5   0  0.6702421E-05  0.2271183E+04  0.7818609E-02  0.8489371E-01
        2   -1    0    0  501    0  0.00000000000E+00  0.00000000000E+00  0.97543296720E+03  0.97543296720E+03  0.25500000920E-02 0. -1.
       -2   -1    0    0    0  501  0.00000000000E+00  0.00000000000E+00 -0.13220466610E+04  0.13220466610E+04  0.25500000920E-02 0.  1.
    10030    2    1    2    0    0  0.00000000000E+00  0.00000000000E+00 -0.34661369378E+03  0.22974796282E+04  0.22711828612E+04 0.  0.
        4    1    3    3  502    0 -0.44728302356E+03  0.73115546938E+03  0.58024499549E+03  0.10350537625E+04  0.12699999809E+01 0. -1.
       -4    1    3    3    0  502  0.44728302356E+03 -0.73115546938E+03 -0.92685868926E+03  0.12624258657E+04  0.12699999809E+01 0.  1.
</event>
<event>
 5   0  0.6814789E-05  0.2335314E+04  0.7818609E-02  0.8464126E-01
       -2   -1    0    0    0  501  0.00000000000E+00  0.00000000000E+00  0.20136827202E+04  0.20136827202E+04  0.25500000920E-02 0. -1.
        2   -1    0    0  501    0  0.00000000000E+00  0.00000000000E+00 -0.67707913730E+03  0.67707913730E+03  0.25500000920E-02 0.  1.
    10030    2    1    2    0    0  0.00000000000E+00  0.00000000000E+00  0.13366035829E+04  0.26907618575E+04  0.23353137339E+04 0.  0.
        1    1    3    3  502    0 -0.70195382913E+03  0.18870065951E+03 -0.38461217236E+03  0.82235858376E+03  0.50400001928E-02 0.  1.
       -1    1    3    3    0  502  0.70195382913E+03 -0.18870065951E+03  0.17212157552E+04  0.18684032737E+04  0.50400001928E-02 0. -1.
</event>
<event>
 5   0  0.3118614E-05  0.2310785E+04  0.7818609E-02  0.8473681E-01
        1   -1    0    0  501    0  0.00000000000E+00  0.00000000000E+00  0.10561232657E+04  0.10561232657E+04  0.50400001928E-02 0. -1.
       -1   -1    0    0    0  501  0.00000000000E+00  0.00000000000E+00 -0.12639919474E+04  0.12639919474E+04  0.50400001928E-02 0.  1.
    10030    2    1    2    0    0  0.00000000000E+00  0.00000000000E+00 -0.20786868172E+03  0.23201152131E+04  0.23107845449E+04 0.  0.
        3    1    3    3  502    0 -0.99069565958E+03  0.31662129418E+03  0.40129165279E+03  0.11147923280E+04  0.10100000352E+00 0. -1.
       -3    1    3    3    0  502  0.99069565958E+03 -0.31662129418E+03 -0.60916033451E+03  0.12053228850E+04  0.10100000352E+00 0.  1.
</event>
<event>
 5   0  0.2944089E-05  0.2310780E+04  0.7818609E-02  0.8473683E-01
       -1   -1    0    0    0  501  0.00000000000E+00  0.00000000000E+00  0.60251678998E+03  0.60251679000E+03  0.50400001928E-02 0.  1.
        1   -1    0    0  501    0  0.00000000000E+00  0.00000000000E+00 -0.22155831127E+04  0.22155831127E+04  0.50400001928E-02 0. -1.
    10030    2    1    2    0    0  0.00000000000E+00  0.00000000000E+00 -0.16130663228E+04  0.28180999027E+04  0.23107799766E+04 0.  0.
        5    1    3    3  502    0 -0.16875465487E+03  0.81535366845E+03  0.17033995095E+03  0.84989265621E+03  0.46999998093E+01 0.  1.
       -5    1    3    3    0  502  0.16875465487E+03 -0.81535366845E+03 -0.17834062737E+04  0.19682072465E+04  0.46999998093E+01 0. -1.
</event>
<event>
 5   0  0.3118614E-05  0.2280033E+04  0.7818609E-02  0.8485836E-01
        1   -1    0    0  501    0  0.00000000000E+00  0.00000000000E+00  0.19223418961E+04  0.19223418961E+04  0.50400001928E-02 0. -1.
       -1   -1    0    0    0  501  0.00000000000E+00  0.00000000000E+00 -0.67607017588E+03  0.67607017590E+03  0.50400001928E-02 0.  1.
    10030    2    1    2    0    0  0.00000000000E+00  0.00000000000E+00  0.12462717202E+04  0.25984120720E+04  0.22800333540E+04 0.  0.
        3    1    3    3  502    0  0.33418251151E+03 -0.10265507217E+04  0.20572079666E+03  0.10990019980E+04  0.10100000352E+00 0.  1.
       -3    1    3    3    0  502 -0.33418251151E+03  0.10265507217E+04  0.10405509235E+04  0.14994100740E+04  0.10100000352E+00 0. -1.
</event>
<event>
 5   0  0.2944089E-05  0.2345155E+04  0.7818609E-02  0.8460327E-01
        1   -1    0    0  501    0  0.00000000000E+00  0.00000000000E+00  0.14567450484E+04  0.14567450484E+04  0.50400001928E-02 0.  1.
       -1   -1    0    0    0  501  0.00000000000E+00  0.00000000000E+00 -0.94384275721E+03  0.94384275722E+03  0.50400001928E-02 0. -1.
    10030    2    1    2    0    0  0.00000000000E+00  0.00000000000E+00  0.51290229117E+03  0.24005878056E+04  0.23451552299E+04 0.  0.
        5    1    3    3  502    0  0.42359751129E+02  0.69896377269E+03 -0.70629649887E+03  0.99459616848E+03  0.46999998093E+01 0. -1.
       -5    1    3    3    0  502 -0.42359751129E+02 -0.69896377269E+03  0.12191987900E+04  0.14059916371E+04  0.46999998093E+01 0.  1.
</event>
<event>
 5   0  0.6676612E-05  0.2030665E+04  0.7818609E-02  0.8592416E-01
        2   -1    0    0  501    0  0.00000000000E+00  0.00000000000E+00  0.19109068838E+04  0.19109068838E+04  0.25500000920E-02 0. -1.
       -2   -1    0    0    0  501  0.00000000000E+00  0.00000000000E+00 -0.53948235913E+03  0.53948235913E+03  0.25500000920E-02 0.  1.
    10030    2    1    2    0    0  0.00000000000E+00  0.00000000000E+00  0.13714245246E+04  0.24503892429E+04  0.20306654611E+04 0.  0.
        2    1    3    3  502    0 -0.41834639026E+03  0.77650738680E+03  0.78848830401E+02  0.88554760576E+03  0.25500000920E-02 0.  1.
       -2    1    3    3    0  502  0.41834639026E+03 -0.77650738680E+03  0.12925756942E+04  0.15648416371E+04  0.25500000920E-02 0. -1.
</event>
<event>
 5   0  0.3118614E-05  0.2259715E+04  0.7818609E-02  0.8493977E-01
        1   -1    0    0  501    0  0.00000000000E+00  0.00000000000E+00  0.15154493048E+04  0.15154493048E+04  0.50400001928E-02 0.  1.
       -1   -1    0    0    0  501  0.00000000000E+00  0.00000000000E+00 -0.84237558248E+03  0.84237558250E+03  0.50400001928E-02 0. -1.
    10030    2    1    2    0    0  0.00000000000E+00  0.00000000000E+00  0.67307372235E+03  0.23578248873E+04  0.22597145757E+04 0.  0.
        3    1    3    3  502    0 -0.62528968897E+03 -0.20617113086E+03  0.12945982104E+04  0.14524043056E+04  0.10100000352E+00 0.  1.
       -3    1    3    3    0  502  0.62528968897E+03  0.20617113086E+03 -0.62152448808E+03  0.90542058173E+03  0.10100000352E+00 0. -1.
</event>
<event>
 5   0  0.6814789E-05  0.2304533E+04  0.7818609E-02  0.8476136E-01
       -2   -1    0    0    0  501  0.00000000000E+00  0.00000000000E+00  0.16541010998E+04  0.16541010998E+04  0.25500000920E-02 0. -1.
        2   -1    0    0  501    0  0.00000000000E+00  0.00000000000E+00 -0.80268263283E+03  0.80268263283E+03  0.25500000920E-02 0.  1.
    10030    2    1    2    0    0  0.00000000000E+00  0.00000000000E+00  0.85141846694E+03  0.24567837326E+04  0.23045331204E+04 0.  0.
        1    1    3    3  502    0 -0.54474177591E+03 -0.36338779023E+02  0.15074660829E+04  0.16032835371E+04  0.50400001928E-02 0. -1.
       -1    1    3    3    0  502  0.54474177591E+03  0.36338779023E+02 -0.65604761595E+03  0.85350019549E+03  0.50400001928E-02 0.  1.
</event>
<event>
 5   0  0.6702421E-05  0.2284514E+04  0.7818609E-02  0.8484052E-01
        2   -1    0    0  501    0  0.00000000000E+00  0.00000000000E+00  0.19811514309E+04  0.19811514309E+04  0.25500000920E-02 0. -1.
       -2   -1    0    0    0  501  0.00000000000E+00  0.00000000000E+00 -0.65858211041E+03  0.65858211042E+03  0.25500000920E-02 0.  1.
    10030    2    1    2    0    0  0.00000000000E+00  0.00000000000E+00  0.13225693205E+04  0.26397335413E+04  0.22845138568E+04 0.  0.
        4    1    3    3  502    0  0.11156924229E+03  0.11301356860E+04  0.51931955775E+03  0.12487388760E+04  0.12699999809E+01 0. -1.
       -4    1    3    3    0  502 -0.11156924229E+03 -0.11301356860E+04  0.80324976276E+03  0.13909946653E+04  0.12699999809E+01 0.  1.
</event>
<event>
 5   0  0.3118614E-05  0.2278740E+04  0.7818609E-02  0.8486351E-01
        1   -1    0    0  501    0  0.00000000000E+00  0.00000000000E+00  0.12185123003E+04  0.12185123003E+04  0.50400001928E-02 0.  1.
       -1   -1    0    0    0  501  0.00000000000E+00  0.00000000000E+00 -0.10653683420E+04  0.10653683420E+04  0.50400001928E-02 0. -1.
    10030    2    1    2    0    0  0.00000000000E+00  0.00000000000E+00  0.15314395831E+03  0.22838806423E+04  0.22787403793E+04 0.  0.
        3    1    3    3  502    0 -0.36126080860E+02  0.72665814812E+03  0.95537783567E+03  0.12008680098E+04  0.10100000352E+00 0.  1.
       -3    1    3    3    0  502  0.36126080860E+02 -0.72665814812E+03 -0.80223387736E+03  0.10830126325E+04  0.10100000352E+00 0. -1.
</event>
<event>
 5   0  0.6468758E-05  0.1721437E+04  0.7818609E-02  0.8749232E-01
       -2   -1    0    0    0  501  0.00000000000E+00  0.00000000000E+00  0.43690177457E+03  0.43690177457E+03  0.25500000920E-02 0. -1.
        2   -1    0    0  501    0  0.00000000000E+00  0.00000000000E+00 -0.16956581297E+04  0.16956581297E+04  0.25500000920E-02 0.  1.
    10030    2    1    2    0    0  0.00000000000E+00  0.00000000000E+00 -0.12587563551E+04  0.21325599042E+04  0.17214366627E+04 0.  0.
        3    1    3    3  502    0  0.27895282363E+03 -0.57863114698E+03 -0.13390937670E+04  0.14851938625E+04  0.10100000352E+00 0.  1.
       -3    1    3    3    0  502 -0.27895282363E+03  0.57863114698E+03  0.80337411924E+02  0.64736604176E+03  0.10100000352E+00 0. -1.
</event>
<event>
 5   0  0.6468758E-05  0.2283388E+04  0.7818609E-02  0.8484500E-01
       -2   -1    0    0    0  501  0.00000000000E+00  0.00000000000E+00  0.12276172057E+04  0.12276172057E+04  0.25500000920E-02 0.  1.
        2   -1    0    0  501    0  0.00000000000E+00  0.00000000000E+00 -0.10617844355E+04  0.10617844355E+04  0.25500000920E-02 0. -1.
    10030    2    1    2    0    0  0.00000000000E+00  0.00000000000E+00  0.16583277018E+03  0.22894016411E+04  0.22833876952E+04 0.  0.
        3    1    3    3  502    0 -0.98076320745E+03 -0.40989069037E+03 -0.33478376593E+03  0.11144447170E+04  0.10100000352E+00 0.  1.
       -3    1    3    3    0  502  0.98076320745E+03  0.40989069037E+03  0.50061653611E+03  0.11749569241E+04  0.10100000352E+00 0. -1.
</event>
<event>
 5   0  0.3006265E-05  0.2287330E+04  0.7818609E-02  0.8482933E-01
       -1   -1    0    0    0  501  0.00000000000E+00  0.00000000000E+00  0.77873924076E+03  0.77873924078E+03  0.50400001928E-02 0. -1.
        1   -1    0    0  501    0  0.00000000000E+00  0.00000000000E+00 -0.16795990615E+04  0.16795990615E+04  0.50400001928E-02 0.  1.
    10030    2    1    2    0    0  0.00000000000E+00  0.00000000000E+00 -0.90085982070E+03  0.24583383022E+04  0.22873300575E+04 0.  0.
        2    1    3    3  502    0  0.29798682396E+03  0.69169301855E+03  0.47457501216E+03  0.89020043885E+03  0.25500000920E-02 0. -1.
       -2    1    3    3    0  502 -0.29798682396E+03 -0.69169301855E+03 -0.13754348329E+04  0.15681378634E+04  0.25500000920E-02 0.  1.
</event>
<event>
 5   0  0.2944089E-05  0.2118062E+04  0.7818609E-02  0.8553328E-01
       -1   -1    0    0    0  501  0.00000000000E+00  0.00000000000E+00  0.93629154104E+03  0.93629154105E+03  0.50400001928E-02 0. -1.
        1   -1    0    0  501    0  0.00000000000E+00  0.00000000000E+00 -0.11978602661E+04  0.11978602661E+04  0.50400001928E-02 0.  1.
    10030    2    1    2    0    0  0.00000000000E+00  0.00000000000E+00 -0.26156872502E+03  0.21341518071E+04  0.21180617880E+04 0.  0.
        5    1    3    3  502    0 -0.44094357833E+03 -0.33950870266E+03 -0.10386433860E+04  0.11783461171E+04  0.46999998093E+01 0.  1.
       -5    1    3    3    0  502  0.44094357833E+03  0.33950870266E+03  0.77707466093E+03  0.95580569004E+03  0.46999998093E+01 0. -1.
</event>
<event>
 5   0  0.2962279E-05  0.2284051E+04  0.7818609E-02  0.8484236E-01
       -1   -1    0    0    0  501  0.00000000000E+00  0.00000000000E+00  0.73992495602E+03  0.73992495604E+03  0.50400001928E-02 0.  1.
        1   -1    0    0  501    0  0.00000000000E+00  0.00000000000E+00 -0.17626411829E+04  0.17626411829E+04  0.50400001928E-02 0. -1.
    10030    2    1    2    0    0  0.00000000000E+00  0.00000000000E+00 -0.10227162269E+04  0.25025661390E+04  0.22840509625E+04 0.  0.
        1    1    3    3  502    0 -0.10854805964E+04 -0.33346713888E+03 -0.37827257518E+03  0.11968954002E+04  0.50400001928E-02 0.  1.
       -1    1    3    3    0  502  0.10854805964E+04  0.33346713888E+03 -0.64444365172E+03  0.13056707388E+04  0.50400001928E-02 0. -1.
</event>
<event>
 5   0  0.6495405E-05  0.2292695E+04  0.7818609E-02  0.8480807E-01
       -2   -1    0    0    0  501  0.00000000000E+00  0.00000000000E+00  0.88257936878E+03  0.88257936879E+03  0.25500000920E-02 0. -1.
        2   -1    0    0  501    0  0.00000000000E+00  0.00000000000E+00 -0.14889461307E+04  0.14889461307E+04  0.25500000920E-02 0.  1.
    10030    2    1    2    0    0  0.00000000000E+00  0.00000000000E+00 -0.60636676195E+03  0.23715254995E+04  0.22926954758E+04 0.  0.
        5    1    3    3  502    0 -0.47330897314E+03  0.10191211795E+04 -0.68531834911E+02  0.11257655462E+04  0.46999998093E+01 0.  1.
       -5    1    3    3    0  502  0.47330897314E+03 -0.10191211795E+04 -0.53783492703E+03  0.12457599533E+04  0.46999998093E+01 0. -1.
</event>
<event>
 5   0  0.6468758E-05  0.2193505E+04  0.7818609E-02  0.8521136E-01
       -2   -1    0    0    0  501  0.00000000000E+00  0.00000000000E+00  0.10057810312E+04  0.10057810312E+04  0.25500000920E-02 0.  1.
        2   -1    0    0  501    0  0.00000000000E+00  0.00000000000E+00 -0.11959521131E+04  0.11959521131E+04  0.25500000920E-02 0. -1.
    10030    2    1    2    0    0  0.00000000000E+00  0.00000000000E+00 -0.19017108198E+03  0.22017331443E+04  0.21935049119E+04 0.  0.
        3    1    3    3  502    0 -0.59988068924E+03 -0.37680456606E+02 -0.10159085586E+04  0.11804011470E+04  0.10100000352E+00 0. -1.
       -3    1    3    3    0  502  0.59988068924E+03  0.37680456606E+02  0.82573747667E+03  0.10213319973E+04  0.10100000352E+00 0.  1.
</event>
<event>
 5   0  0.6702421E-05  0.2247671E+04  0.7818609E-02  0.8498844E-01
       -2   -1    0    0    0  501  0.00000000000E+00  0.00000000000E+00  0.10192711530E+04  0.10192711530E+04  0.25500000920E-02 0. -1.
        2   -1    0    0  501    0  0.00000000000E+00  0.00000000000E+00 -0.12391263789E+04  0.12391263789E+04  0.25500000920E-02 0.  1.
    10030    2    1    2    0    0  0.00000000000E+00  0.00000000000E+00 -0.21985522590E+03  0.22583975319E+04  0.22476705923E+04 0.  0.
        4    1    3    3  502    0  0.14918279696E+03  0.14117769146E+03  0.10002516281E+04  0.10211227056E+04  0.12699999809E+01 0. -1.
       -4    1    3    3    0  502 -0.14918279696E+03 -0.14117769146E+03 -0.12201068540E+04  0.12372748262E+04  0.12699999809E+01 0.  1.
</event>
<event>
 5   0  0.6468758E-05  0.2383439E+04  0.7818609E-02  0.8445730E-01
       -2   -1    0    0    0  501  0.00000000000E+00  0.00000000000E+00  0.10267860614E+04  0.10267860614E+04  0.25500000920E-02 0.  1.
        2   -1    0    0  501    0  0.00000000000E+00  0.00000000000E+00 -0.13831466485E+04  0.13831466485E+04  0.25500000920E-02 0. -1.
    10030    2    1    2    0    0  0.00000000000E+00  0.00000000000E+00 -0.35636058711E+03  0.24099327099E+04  0.23834392793E+04 0.  0.
        3    1    3    3  502    0 -0.46313838576E+03 -0.10774420975E+04 -0.39223385800E+03  0.12366187963E+04  0.10100000352E+00 0.  1.
       -3    1    3    3    0  502  0.46313838576E+03  0.10774420975E+04  0.35873270889E+02  0.11733139135E+04  0.10100000352E+00 0. -1.
</event>
<event>
 5   0  0.2944089E-05  0.2258735E+04  0.7818609E-02  0.8494372E-01
        1   -1    0    0  501    0  0.00000000000E+00  0.00000000000E+00  0.20532367343E+04  0.20532367344E+04  0.50400001928E-02 0. -1.
       -1   -1    0    0    0  501  0.00000000000E+00  0.00000000000E+00 -0.62119991186E+03  0.62119991188E+03  0.50400001928E-02 0.  1.
    10030    2    1    2    0    0  0.00000000000E+00  0.00000000000E+00  0.14320368225E+04  0.26744366462E+04  0.22587345824E+04 0.  0.
        5    1    3    3  502    0 -0.71111923576E+03  0.61911504672E+02  0.17522579887E+04  0.18920765711E+04  0.46999998093E+01 0. -1.
       -5    1    3    3    0  502  0.71111923576E+03 -0.61911504672E+02 -0.32022116622E+03  0.78236007514E+03  0.46999998093E+01 0.  1.
</event>
<event>
 5   0  0.2982385E-05  0.2308586E+04  0.7818609E-02  0.8474543E-01
       -1   -1    0    0    0  501  0.00000000000E+00  0.00000000000E+00  0.16564106332E+04  0.16564106332E+04  0.50400001928E-02 0. -1.
        1   -1    0    0  501    0  0.00000000000E+00  0.00000000000E+00 -0.80438551652E+03  0.80438551654E+03  0.50400001928E-02 0.  1.
    10030    2    1    2    0    0  0.00000000000E+00  0.00000000000E+00  0.85202511664E+03  0.24607961497E+04  0.23085863404E+04 0.  0.
        4    1    3    3  502    0  0.32397540568E+03  0.57768308670E+03 -0.58168133541E+03  0.88149452693E+03  0.12699999809E+01 0.  1.
       -4    1    3    3    0  502 -0.32397540568E+03 -0.57768308670E+03  0.14337064521E+04  0.15793016228E+04  0.12699999809E+01 0. -1.
</event>
<event>
 5   0  0.2944089E-05  0.2250665E+04  0.7818609E-02  0.8497631E-01
       -1   -1    0    0    0  501  0.00000000000E+00  0.00000000000E+00  0.66265785410E+03  0.66265785412E+03  0.50400001928E-02 0.  1.
        1   -1    0    0  501    0  0.00000000000E+00  0.00000000000E+00 -0.19110513535E+04  0.19110513535E+04  0.50400001928E-02 0. -1.
    10030    2    1    2    0    0  0.00000000000E+00  0.00000000000E+00 -0.12483934994E+04  0.25737092076E+04  0.22506649586E+04 0.  0.
        5    1    3    3  502    0 -0.10467976496E+04  0.27863009180E+03 -0.27559540886E+03  0.11177633768E+04  0.46999998093E+01 0.  1.
       -5    1    3    3    0  502  0.10467976496E+04 -0.27863009180E+03 -0.97279809049E+03  0.14559458307E+04  0.46999998093E+01 0. -1.
</event>
<event>
 5   0  0.2982385E-05  0.2255642E+04  0.7818609E-02  0.8495619E-01
        1   -1    0    0  501    0  0.00000000000E+00  0.00000000000E+00  0.20212738484E+04  0.20212738484E+04  0.50400001928E-02 0.  1.
       -1   -1    0    0    0  501  0.00000000000E+00  0.00000000000E+00 -0.62929644349E+03  0.62929644351E+03  0.50400001928E-02 0. -1.
    10030    2    1    2    0    0  0.00000000000E+00  0.00000000000E+00  0.13919774049E+04  0.26505702919E+04  0.22556422093E+04 0.  0.
        4    1    3    3  502    0 -0.80411373718E+03  0.13970764793E+03 -0.21866324507E+03  0.84494517979E+03  0.12699999809E+01 0. -1.
       -4    1    3    3    0  502  0.80411373718E+03 -0.13970764793E+03  0.16106406499E+04  0.18056251121E+04  0.12699999809E+01 0.  1.
</event>
<event>
 5   0  0.6468758E-05  0.2302058E+04  0.7818609E-02  0.8477110E-01
        2   -1    0    0  501    0  0.00000000000E+00  0.00000000000E+00  0.19857287225E+04  0.19857287226E+04  0.25500000920E-02 0.  1.
       -2   -1    0    0    0  501  0.00000000000E+00  0.00000000000E+00 -0.66719499853E+03  0.66719499854E+03  0.25500000920E-02 0. -1.
    10030    2    1    2    0    0  0.00000000000E+00  0.00000000000E+00  0.13185337240E+04  0.26529237211E+04  0.23020584459E+04 0.  0.
        3    1    3    3  502    0 -0.11338641812E+04  0.18882288573E+03  0.72808630644E+03  0.13606659191E+04  0.10100000352E+00 0. -1.
       -3    1    3    3    0  502  0.11338641812E+04 -0.18882288573E+03  0.59044741758E+03  0.12922578020E+04  0.10100000352E+00 0.  1.
</event>
<event>
 5   0  0.3118614E-05  0.2273733E+04  0.7818609E-02  0.8488351E-01
       -1   -1    0    0    0  501  0.00000000000E+00  0.00000000000E+00  0.71170551942E+03  0.71170551943E+03  0.50400001928E-02 0. -1.
        1   -1    0    0  501    0  0.00000000000E+00  0.00000000000E+00 -0.18160110625E+04  0.18160110625E+04  0.50400001928E-02 0.  1.
    10030    2    1    2    0    0  0.00000000000E+00  0.00000000000E+00 -0.11043055430E+04  0.25277165819E+04  0.22737326989E+04 0.  0.
        3    1    3    3  502    0 -0.93830100063E+03  0.27739609666E+03  0.91395590205E+02  0.98270571706E+03  0.10100000352E+00 0. -1.
       -3    1    3    3    0  502  0.93830100063E+03 -0.27739609666E+03 -0.11957011333E+04  0.15450108648E+04  0.10100000352E+00 0.  1.
</event>
<event>
 5   0  0.6495405E-05  0.2234631E+04  0.7818609E-02  0.8504151E-01
       -2   -1    0    0    0  501  0.00000000000E+00  0.00000000000E+00  0.91214758573E+03  0.91214758573E+03  0.25500000920E-02 0.  1.
        2   -1    0    0  501    0  0.00000000000E+00  0.00000000000E+00 -0.13686310070E+04  0.13686310070E+04  0.25500000920E-02 0. -1.
    10030    2    1    2    0    0  0.00000000000E+00  0.00000000000E+00 -0.45648342124E+03  0.22807785927E+04  0.22346305903E+04 0.  0.
        5    1    3    3  502    0  0.48444798285E+03 -0.64339907998E+03 -0.10186497493E+04  0.12985844700E+04  0.46999998093E+01 0. -1.
       -5    1    3    3    0  502 -0.48444798285E+03  0.64339907998E+03  0.56216632802E+03  0.98219412264E+03  0.46999998093E+01 0.  1.
</event>
<event>
 5   0  0.6468758E-05  0.2248609E+04  0.7818609E-02  0.8498464E-01
       -2   -1    0    0    0  501  0.00000000000E+00  0.00000000000E+00  0.13683228995E+04  0.13683228995E+04  0.25500000920E-02 0. -1.
        2   -1    0    0  501    0  0.00000000000E+00  0.00000000000E+00 -0.92380277028E+03  0.92380277029E+03  0.25500000920E-02 0.  1.
    10030    2    1    2    0    0  0.00000000000E+00  0.00000000000E+00  0.44452012919E+03  0.22921256698E+04  0.22486088901E+04 0.  0.
        3    1    3    3  502    0  0.63371851242E+02  0.80681417965E+03  0.10178094566E+04  0.13003465738E+04  0.10100000352E+00 0. -1.
       -3    1    3    3    0  502 -0.63371851242E+02 -0.80681417965E+03 -0.57328932738E+03  0.99177909592E+03  0.10100000352E+00 0.  1.
</event>
<event>
 5   0  0.3118614E-05  0.2496988E+04  0.7818609E-02  0.8404059E-01
        1   -1    0    0  501    0  0.00000000000E+00  0.00000000000E+00  0.14664252545E+04  0.14664252545E+04  0.50400001928E-02 0.  1.
       -1   -1    0    0    0  501  0.00000000000E+00  0.00000000000E+00 -0.10629505658E+04  0.10629505658E+04  0.50400001928E-02 0. -1.
    10030    2    1    2    0    0  0.00000000000E+00  0.00000000000E+00  0.40347468868E+03  0.25293758204E+04  0.24969882291E+04 0.  0.
        3    1    3    3  502    0  0.71900812767E+03 -0.65578302450E+03  0.99400311575E+03  0.13910665934E+04  0.10100000352E+00 0.  1.
       -3    1    3    3    0  502 -0.71900812767E+03  0.65578302450E+03 -0.59052842707E+03  0.11383092270E+04  0.10100000352E+00 0. -1.
</event>
<event>
 5   0  0.6702421E-05  0.2274669E+04  0.7818609E-02  0.8487976E-01
        2   -1    0    0  501    0  0.00000000000E+00  0.00000000000E+00  0.10380086851E+04  0.10380086851E+04  0.25500000920E-02 0.  1.
       -2   -1    0    0    0  501  0.00000000000E+00  0.00000000000E+00 -0.12461644238E+04  0.12461644238E+04  0.25500000920E-02 0. -1.
    10030    2    1    2    0    0  0.00000000000E+00  0.00000000000E+00 -0.20815573877E+03  0.22841731089E+04  0.22746687626E+04 0.  0.
        4    1    3    3  502    0 -0.34915233705E+03 -0.63971504932E+03  0.77271715052E+03  0.10621845915E+04  0.12699999809E+01 0.  1.
       -4    1    3    3    0  502  0.34915233705E+03  0.63971504932E+03 -0.98087288929E+03  0.12219885174E+04  0.12699999809E+01 0. -1.
</event>
<event>
 5   0  0.6495405E-05  0.2295800E+04  0.7818609E-02  0.8479579E-01
       -2   -1    0    0    0  501  0.00000000000E+00  0.00000000000E+00  0.60895318772E+03  0.60895318773E+03  0.25500000920E-02 0. -1.
        2   -1    0    0  501    0  0.00000000000E+00  0.00000000000E+00 -0.21638344917E+04  0.21638344917E+04  0.25500000920E-02 0.  1.
    10030    2    1    2    0    0  0.00000000000E+00  0.00000000000E+00 -0.15548813040E+04  0.27727876794E+04  0.22957995657E+04 0.  0.
        5    1    3    3  502    0 -0.13107807992E+03 -0.85817913117E+03 -0.16844709391E+04  0.18950243584E+04  0.46999998093E+01 0.  1.
       -5    1    3    3    0  502  0.13107807992E+03  0.85817913117E+03  0.12958963513E+03  0.87776332103E+03  0.46999998093E+01 0. -1.
</event>
<event>
 5   0  0.3006265E-05  0.2291676E+04  0.7818609E-02  0.8481211E-01
        1   -1    0    0  501    0  0.00000000000E+00  0.00000000000E+00  0.83791308528E+03  0.83791308529E+03  0.50400001928E-02 0.  1.
       -1   -1    0    0    0  501  0.00000000000E+00  0.00000000000E+00 -0.15669217048E+04  0.15669217048E+04  0.50400001928E-02 0. -1.
    10030    2    1    2    0    0  0.00000000000E+00  0.00000000000E+00 -0.72900861949E+03  0.24048347901E+04  0.22916755443E+04 0.  0.
        2    1    3    3  502    0  0.99682894338E+03 -0.19436129010E+03 -0.92126847388E+03  0.13711965047E+04  0.25500000920E-02 0. -1.
       -2    1    3    3    0  502 -0.99682894338E+03  0.19436129010E+03  0.19225985439E+03  0.10336382854E+04  0.25500000920E-02 0.  1.
</event>
<event>
 5   0  0.2982385E-05  0.2314374E+04  0.7818609E-02  0.8472275E-01
        1   -1    0    0  501    0  0.00000000000E+00  0.00000000000E+00  0.14550040929E+04  0.14550040929E+04  0.50400001928E-02 0.  1.
       -1   -1    0    0    0  501  0.00000000000E+00  0.00000000000E+00 -0.92032829384E+03  0.92032829385E+03  0.50400001928E-02 0. -1.
    10030    2    1    2    0    0  0.00000000000E+00  0.00000000000E+00  0.53467579908E+03  0.23753323868E+04  0.23143737247E+04 0.  0.
        4    1    3    3  502    0 -0.85524947674E+03 -0.54173829929E+03 -0.30791377310E+03  0.10581798320E+04  0.12699999809E+01 0. -1.
       -4    1    3    3    0  502  0.85524947674E+03  0.54173829929E+03  0.84258957219E+03  0.13171525547E+04  0.12699999809E+01 0.  1.
</event>
<event>
 5   0  0.3118614E-05  0.2286075E+04  0.7818609E-02  0.8483432E-01
       -1   -1    0    0    0  501  0.00000000000E+00  0.00000000000E+00  0.16012021571E+04  0.16012021571E+04  0.50400001928E-02 0. -1.
        1   -1    0    0  501    0  0.00000000000E+00  0.00000000000E+00 -0.81597097759E+03  0.81597097761E+03  0.50400001928E-02 0.  1.
    10030    2    1    2    0    0  0.00000000000E+00  0.00000000000E+00  0.78523117955E+03  0.24171731348E+04  0.22860747927E+04 0.  0.
        3    1    3    3  502    0  0.11408688319E+04  0.51306184573E+02  0.44354922261E+03  0.12251326211E+04  0.10100000352E+00 0. -1.
       -3    1    3    3    0  502 -0.11408688319E+04 -0.51306184573E+02  0.34168195694E+03  0.11920405136E+04  0.10100000352E+00 0.  1.
</event>
<event>
 5   0  0.2944089E-05  0.2363465E+04  0.7818609E-02  0.8453310E-01
       -1   -1    0    0    0  501  0.00000000000E+00  0.00000000000E+00  0.16947917249E+04  0.16947917249E+04  0.50400001928E-02 0.  1.
        1   -1    0    0  501    0  0.00000000000E+00  0.00000000000E+00 -0.82399029705E+03  0.82399029707E+03  0.50400001928E-02 0. -1.
    10030    2    1    2    0    0  0.00000000000E+00  0.00000000000E+00  0.87080142782E+03  0.25187820219E+04  0.23634651991E+04 0.  0.
        5    1    3    3  502    0  0.39357271872E+03 -0.38295189370E+03 -0.67974652161E+03  0.87385871939E+03  0.46999998093E+01 0. -1.
       -5    1    3    3    0  502 -0.39357271872E+03  0.38295189370E+03  0.15505479494E+04  0.16449233026E+04  0.46999998093E+01 0.  1.
</event>
<event>
 5   0  0.6468758E-05  0.2216229E+04  0.7818609E-02  0.8511704E-01
        2   -1    0    0  501    0  0.00000000000E+00  0.00000000000E+00  0.11452451205E+04  0.11452451205E+04  0.25500000920E-02 0.  1.
       -2   -1    0    0    0  501  0.00000000000E+00  0.00000000000E+00 -0.10721875559E+04  0.10721875559E+04  0.25500000920E-02 0. -1.
    10030    2    1    2    0    0  0.00000000000E+00  0.00000000000E+00  0.73057564647E+02  0.22174326764E+04  0.22162288389E+04 0.  0.
        3    1    3    3  502    0 -0.12060348204E+02 -0.78709596878E+03  0.81685756874E+03  0.11344257639E+04  0.10100000352E+00 0.  1.
       -3    1    3    3    0  502  0.12060348204E+02  0.78709596878E+03 -0.74380000409E+03  0.10830069124E+04  0.10100000352E+00 0. -1.
</event>
<event>
 5   0  0.2962279E-05  0.2286290E+04  0.7818609E-02  0.8483347E-01
        1   -1    0    0  501    0  0.00000000000E+00  0.00000000000E+00  0.11386254205E+04  0.11386254206E+04  0.50400001928E-02 0.  1.
       -1   -1    0    0    0  501  0.00000000000E+00  0.00000000000E+00 -0.11476821303E+04  0.11476821303E+04  0.50400001928E-02 0. -1.
    10030    2    1    2    0    0  0.00000000000E+00  0.00000000000E+00 -0.90567097097E+01  0.22863075508E+04  0.22862896127E+04 0.  0.
        1    1    3    3  502    0 -0.10502952138E+04  0.36612813930E+03  0.25931116078E+03  0.11421086326E+04  0.50400001928E-02 0.  1.
       -1    1    3    3    0  502  0.10502952138E+04 -0.36612813930E+03 -0.26836787049E+03  0.11441989182E+04  0.50400001928E-02 0. -1.
</event>
<event>
 5   0  0.6814789E-05  0.2295044E+04  0.7818609E-02  0.8479878E-01
        2   -1    0    0  501    0  0.00000000000E+00  0.00000000000E+00  0.51943561508E+03  0.51943561509E+03  0.25500000920E-02 0. -1.
       -2   -1    0    0    0  501  0.00000000000E+00  0.00000000000E+00 -0.25350713817E+04  0.25350713817E+04  0.25500000920E-02 0.  1.
    10030    2    1    2    0    0  0.00000000000E+00  0.00000000000E+00 -0.20156357666E+04  0.30545069968E+04  0.22950436705E+04 0.  0.
        1    1    3    3  502    0 -0.42424951464E+03  0.10305555575E+04 -0.13717541583E+04  0.17674110667E+04  0.50400001928E-02 0. -1.
       -1    1    3    3    0  502  0.42424951464E+03 -0.10305555575E+04 -0.64388160831E+03  0.12870959301E+04  0.50400001928E-02 0.  1.
</event>
<event>
 5   0  0.3118614E-05  0.2254910E+04  0.7818609E-02  0.8495915E-01
        1   -1    0    0  501    0  0.00000000000E+00  0.00000000000E+00  0.15131576027E+04  0.15131576027E+04  0.50400001928E-02 0.  1.
       -1   -1    0    0    0  501  0.00000000000E+00  0.00000000000E+00 -0.84006742830E+03  0.84006742832E+03  0.50400001928E-02 0. -1.
    10030    2    1    2    0    0  0.00000000000E+00  0.00000000000E+00  0.67309017441E+03  0.23532250310E+04  0.22549096798E+04 0.  0.
        3    1    3    3  502    0 -0.63088670157E+03  0.92953366606E+03  0.43611759421E+03  0.12050931220E+04  0.10100000352E+00 0. -1.
       -3    1    3    3    0  502  0.63088670157E+03 -0.92953366606E+03  0.23697258020E+03  0.11481319090E+04  0.10100000352E+00 0.  1.
</event>
<event>
 5   0  0.3006265E-05  0.2303359E+04  0.7818609E-02  0.8476598E-01
        1   -1    0    0  501    0  0.00000000000E+00  0.00000000000E+00  0.15425545917E+04  0.15425545917E+04  0.50400001928E-02 0. -1.
       -1   -1    0    0    0  501  0.00000000000E+00  0.00000000000E+00 -0.85984997489E+03  0.85984997491E+03  0.50400001928E-02 0.  1.
    10030    2    1    2    0    0  0.00000000000E+00  0.00000000000E+00  0.68270461685E+03  0.24024045667E+04  0.23033588752E+04 0.  0.
        2    1    3    3  502    0  0.33842915557E+03  0.39024766544E+03 -0.73224843455E+03  0.89611121164E+03  0.25500000920E-02 0.  1.
       -2    1    3    3    0  502 -0.33842915557E+03 -0.39024766544E+03  0.14149530514E+04  0.15062933550E+04  0.25500000920E-02 0. -1.
</event>
<event>
 5   0  0.2944089E-05  0.2402218E+04  0.7818609E-02  0.8438674E-01
        1   -1    0    0  501    0  0.00000000000E+00  0.00000000000E+00  0.10495761178E+04  0.10495761178E+04  0.50400001928E-02 0. -1.
       -1   -1    0    0    0  501  0.00000000000E+00  0.00000000000E+00 -0.13745191983E+04  0.13745191983E+04  0.50400001928E-02 0.  1.
    10030    2    1    2    0    0  0.00000000000E+00  0.00000000000E+00 -0.32494308048E+03  0.24240953162E+04  0.24022177454E+04 0.  0.
        5    1    3    3  502    0 -0.22077512357E+03  0.48984416000E+03 -0.12464760661E+04  0.13573553807E+04  0.46999998093E+01 0.  1.
       -5    1    3    3    0  502  0.22077512357E+03 -0.48984416000E+03  0.92153298561E+03  0.10667399354E+04  0.46999998093E+01 0. -1.
</event>
<event>
 5   0  0.6495405E-05  0.2328038E+04  0.7818609E-02  0.8466948E-01
        2   -1    0    0  501    0  0.00000000000E+00  0.00000000000E+00  0.14167123324E+04  0.14167123324E+04  0.25500000920E-02 0. -1.
       -2   -1    0    0    0  501  0.00000000000E+00  0.00000000000E+00 -0.95639728669E+03  0.95639728669E+03  0.25500000920E-02 0.  1.
    10030    2    1    2    0    0  0.00000000000E+00  0.00000000000E+00  0.46031504568E+03  0.23731096191E+04  0.23280376549E+04 0.  0.
        5    1    3    3  502    0  0.63171400929E+03 -0.18978066465E+03 -0.74749286972E+03  0.99691873815E+03  0.46999998093E+01 0.  1.
       -5    1    3    3    0  502 -0.63171400929E+03  0.18978066465E+03  0.12078079154E+04  0.13761908809E+04  0.46999998093E+01 0. -1.
</event>
<event>
 5   0  0.6495405E-05  0.2253042E+04  0.7818609E-02  0.8496670E-01
        2   -1    0    0  501    0  0.00000000000E+00  0.00000000000E+00  0.14984547719E+04  0.14984547719E+04  0.25500000920E-02 0. -1.
       -2   -1    0    0    0  501  0.00000000000E+00  0.00000000000E+00 -0.84690514691E+03  0.84690514691E+03  0.25500000920E-02 0.  1.
    10030    2    1    2    0    0  0.00000000000E+00  0.00000000000E+00  0.65154962503E+03  0.23453599189E+04  0.22530415520E+04 0.  0.
        5    1    3    3  502    0 -0.11513288459E+03 -0.10603158062E+04 -0.51715761270E+02  0.10678116875E+04  0.46999998093E+01 0.  1.
       -5    1    3    3    0  502  0.11513288459E+03  0.10603158062E+04  0.70326538630E+03  0.12775482314E+04  0.46999998093E+01 0. -1.
</event>
<event>
 5   0  0.6495405E-05  0.2303396E+04  0.7818609E-02  0.8476583E-01
        2   -1    0    0  501    0  0.00000000000E+00  0.00000000000E+00  0.12000897601E+04  0.12000897601E+04  0.25500000920E-02 0.  1.
       -2   -1    0    0    0  501  0.00000000000E+00  0.00000000000E+00 -0.11052577155E+04  0.11052577155E+04  0.25500000920E-02 0. -1.
    10030    2    1    2    0    0  0.00000000000E+00  0.00000000000E+00  0.94832044612E+02  0.23053474755E+04  0.23033961592E+04 0.  0.
        5    1    3    3  502    0  0.95071837096E+03  0.54784906634E+03  0.39754427857E+03  0.11670765030E+04  0.46999998093E+01 0. -1.
       -5    1    3    3    0  502 -0.95071837096E+03 -0.54784906634E+03 -0.30271223396E+03  0.11382709726E+04  0.46999998093E+01 0.  1.
</event>
<event>
 5   0  0.2982385E-05  0.2309252E+04  0.7818609E-02  0.8474282E-01
       -1   -1    0    0    0  501  0.00000000000E+00  0.00000000000E+00  0.77217481941E+03  0.77217481942E+03  0.50400001928E-02 0.  1.
        1   -1    0    0  501    0  0.00000000000E+00  0.00000000000E+00 -0.17265023569E+04  0.17265023569E+04  0.50400001928E-02 0. -1.
    10030    2    1    2    0    0  0.00000000000E+00  0.00000000000E+00 -0.95432753746E+03  0.24986771763E+04  0.23092523861E+04 0.  0.
        4    1    3    3  502    0 -0.24242313887E+03 -0.38905856811E+03 -0.16238203325E+04  0.16872846923E+04  0.12699999809E+01 0. -1.
       -4    1    3    3    0  502  0.24242313887E+03  0.38905856811E+03  0.66949279501E+03  0.81139248404E+03  0.12699999809E+01 0.  1.
</event>
<event>
 5   0  0.6676612E-05  0.2310702E+04  0.7818609E-02  0.8473713E-01
       -2   -1    0    0    0  501  0.00000000000E+00  0.00000000000E+00  0.94776806016E+03  0.94776806016E+03  0.25500000920E-02 0.  1.
        2   -1    0    0  501    0  0.00000000000E+00  0.00000000000E+00 -0.14083997709E+04  0.14083997709E+04  0.25500000920E-02 0. -1.
    10030    2    1    2    0    0  0.00000000000E+00  0.00000000000E+00 -0.46063171077E+03  0.23561678311E+04  0.23107023338E+04 0.  0.
        2    1    3    3  502    0 -0.13593578978E+02  0.18305821514E+03 -0.13934356251E+04  0.14054742747E+04  0.25500000920E-02 0. -1.
       -2    1    3    3    0  502  0.13593578978E+02 -0.18305821514E+03  0.93280391435E+03  0.95069355639E+03  0.25500000920E-02 0.  1.
</event>
<event>
 5   0  0.6468758E-05  0.2297550E+04  0.7818609E-02  0.8478888E-01
       -2   -1    0    0    0  501  0.00000000000E+00  0.00000000000E+00  0.52561699315E+03  0.52561699316E+03  0.25500000920E-02 0.  1.
        2   -1    0    0  501    0  0.00000000000E+00  0.00000000000E+00 -0.25107336772E+04  0.25107336772E+04  0.25500000920E-02 0. -1.
    10030    2    1    2    0    0  0.00000000000E+00  0.00000000000E+00 -0.19851166840E+04  0.30363506703E+04  0.22975502484E+04 0.  0.
        3    1    3    3  502    0 -0.71141422118E+03  0.58267266325E+03 -0.82631219209E+02  0.92327978164E+03  0.10100000352E+00 0.  1.
       -3    1    3    3    0  502  0.71141422118E+03 -0.58267266325E+03 -0.19024854648E+04  0.21130708887E+04  0.10100000352E+00 0. -1.
</event>
<event>
 5   0  0.2962279E-05  0.2414040E+04  0.7818609E-02  0.8434266E-01
       -1   -1    0    0    0  501  0.00000000000E+00  0.00000000000E+00  0.71042699192E+03  0.71042699194E+03  0.50400001928E-02 0.  1.
        1   -1    0    0  501    0  0.00000000000E+00  0.00000000000E+00 -0.20507352493E+04  0.20507352493E+04  0.50400001928E-02 0. -1.
    10030    2    1    2    0    0  0.00000000000E+00  0.00000000000E+00 -0.13403082573E+04  0.27611622412E+04  0.24140403264E+04 0.  0.
        1    1    3    3  502    0 -0.64348710109E+03 -0.16596274699E+03 -0.18226515880E+04  0.19400201272E+04  0.50400001928E-02 0. -1.
       -1    1    3    3    0  502  0.64348710109E+03  0.16596274699E+03  0.48234333070E+03  0.82114211398E+03  0.50400001928E-02 0.  1.
</event>
<event>
 5   0  0.6468758E-05  0.2287211E+04  0.7818609E-02  0.8482981E-01
        2   -1    0    0  501    0  0.00000000000E+00  0.00000000000E+00  0.13388948252E+04  0.13388948252E+04  0.25500000920E-02 0.  1.
       -2   -1    0    0    0  501  0.00000000000E+00  0.00000000000E+00 -0.97680072296E+03  0.97680072296E+03  0.25500000920E-02 0. -1.
    10030    2    1    2    0    0  0.00000000000E+00  0.00000000000E+00  0.36209410226E+03  0.23156955482E+04  0.22872109070E+04 0.  0.
        3    1    3    3  502    0  0.32983873639E+03  0.10949937759E+04  0.18644845687E+03  0.11586923658E+04  0.10100000352E+00 0. -1.
       -3    1    3    3    0  502 -0.32983873639E+03 -0.10949937759E+04  0.17564564539E+03  0.11570031824E+04  0.10100000352E+00 0.  1.
</event>
<event>
 5   0  0.2982385E-05  0.2292067E+04  0.7818609E-02  0.8481055E-01
       -1   -1    0    0    0  501  0.00000000000E+00  0.00000000000E+00  0.73283202423E+03  0.73283202425E+03  0.50400001928E-02 0.  1.
        1   -1    0    0  501    0  0.00000000000E+00  0.00000000000E+00 -0.17922157448E+04  0.17922157449E+04  0.50400001928E-02 0. -1.
    10030    2    1    2    0    0  0.00000000000E+00  0.00000000000E+00 -0.10593837206E+04  0.25250477691E+04  0.22920672697E+04 0.  0.
        4    1    3    3  502    0 -0.72688434557E+03  0.76845958363E+03 -0.43841425945E+02  0.10586853485E+04  0.12699999809E+01 0.  1.
       -4    1    3    3    0  502  0.72688434557E+03 -0.76845958363E+03 -0.10155422947E+04  0.14663624206E+04  0.12699999809E+01 0. -1.
</event>
<event>
 5   0  0.6495405E-05  0.1960915E+04  0.7818609E-02  0.8625115E-01
       -2   -1    0    0    0  501  0.00000000000E+00  0.00000000000E+00  0.74877174989E+03  0.74877174990E+03  0.25500000920E-02 0.  1.
        2   -1    0    0  501    0  0.00000000000E+00  0.00000000000E+00 -0.12838322977E+04  0.12838322977E+04  0.25500000920E-02 0. -1.
    10030    2    1    2    0    0  0.00000000000E+00  0.00000000000E+00 -0.53506054782E+03  0.20326040476E+04  0.19609154557E+04 0.  0.
        5    1    3    3  502    0  0.28809978771E+03  0.93511775137E+03 -0.33166779738E+03  0.10331855179E+04  0.46999998093E+01 0. -1.
       -5    1    3    3    0  502 -0.28809978771E+03 -0.93511775137E+03 -0.20339275044E+03  0.99941852971E+03  0.46999998093E+01 0.  1.
</event>
<event>
 5   0  0.3118614E-05  0.2284712E+04  0.7818609E-02  0.8483974E-01
        1   -1    0    0  501    0  0.00000000000E+00  0.00000000000E+00  0.13088933751E+04  0.13088933751E+04  0.50400001928E-02 0. -1.
       -1   -1    0    0    0  501  0.00000000000E+00  0.00000000000E+00 -0.99700779920E+03  0.99700779921E+03  0.50400001928E-02 0.  1.
    10030    2    1    2    0    0  0.00000000000E+00  0.00000000000E+00  0.31188557587E+03  0.23059011743E+04  0.22847117134E+04 0.  0.
        3    1    3    3  502    0 -0.18241823030E+03  0.79699149709E+03  0.96115472441E+03  0.12618598463E+04  0.10100000352E+00 0. -1.
       -3    1    3    3    0  502  0.18241823030E+03 -0.79699149709E+03 -0.64926914853E+03  0.10440413280E+04  0.10100000352E+00 0.  1.
</event>
<event>
 5   0  0.6676612E-05  0.2296020E+04  0.7818609E-02  0.8479492E-01
       -2   -1    0    0    0  501  0.00000000000E+00  0.00000000000E+00  0.13473471579E+04  0.13473471579E+04  0.25500000920E-02 0.  1.
        2   -1    0    0  501    0  0.00000000000E+00  0.00000000000E+00 -0.97816395627E+03  0.97816395627E+03  0.25500000920E-02 0. -1.
    10030    2    1    2    0    0  0.00000000000E+00  0.00000000000E+00  0.36918320164E+03  0.23255111142E+04  0.22960195352E+04 0.  0.
        2    1    3    3  502    0 -0.76743011089E+03 -0.45085303859E+03  0.91896264084E+03  0.12793395846E+04  0.25500000920E-02 0.  1.
       -2    1    3    3    0  502  0.76743011089E+03  0.45085303859E+03 -0.54977943920E+03  0.10461715296E+04  0.25500000920E-02 0. -1.
</event>
<event>
 5   0  0.2944089E-05  0.2305308E+04  0.7818609E-02  0.8475831E-01
        1   -1    0    0  501    0  0.00000000000E+00  0.00000000000E+00  0.18973016062E+04  0.18973016062E+04  0.50400001928E-02 0.  1.
       -1   -1    0    0    0  501  0.00000000000E+00  0.00000000000E+00 -0.70026381511E+03  0.70026381513E+03  0.50400001928E-02 0. -1.
    10030    2    1    2    0    0  0.00000000000E+00  0.00000000000E+00  0.11970377911E+04  0.25975654213E+04  0.23053083622E+04 0.  0.
        5    1    3    3  502    0 -0.26276590345E+03  0.87571094724E+03 -0.19237329156E+03  0.93431534100E+03  0.46999998093E+01 0. -1.
       -5    1    3    3    0  502  0.26276590345E+03 -0.87571094724E+03  0.13894110826E+04  0.16632500803E+04  0.46999998093E+01 0.  1.
</event>
<event>
 5   0  0.3006265E-05  0.2313788E+04  0.7818609E-02  0.8472505E-01
        1   -1    0    0  501    0  0.00000000000E+00  0.00000000000E+00  0.10757235049E+04  0.10757235049E+04  0.50400001928E-02 0.  1.
       -1   -1    0    0    0  501  0.00000000000E+00  0.00000000000E+00 -0.12441891120E+04  0.12441891120E+04  0.50400001928E-02 0. -1.
    10030    2    1    2    0    0  0.00000000000E+00  0.00000000000E+00 -0.16846560711E+03  0.23199126169E+04  0.23137877796E+04 0.  0.
        2    1    3    3  502    0  0.35620470795E+03 -0.33828464095E+03  0.96595816239E+03  0.10836943590E+04  0.25500000920E-02 0.  1.
       -2    1    3    3    0  502 -0.35620470795E+03  0.33828464095E+03 -0.11344237695E+04  0.12362182579E+04  0.25500000920E-02 0. -1.
</event>
<event>
 5   0  0.2944089E-05  0.2241800E+04  0.7818609E-02  0.8501229E-01
       -1   -1    0    0    0  501  0.00000000000E+00  0.00000000000E+00  0.72260763327E+03  0.72260763329E+03  0.50400001928E-02 0. -1.
        1   -1    0    0  501    0  0.00000000000E+00  0.00000000000E+00 -0.17387259590E+04  0.17387259590E+04  0.50400001928E-02 0.  1.
    10030    2    1    2    0    0  0.00000000000E+00  0.00000000000E+00 -0.10161183257E+04  0.24613335923E+04  0.22417998574E+04 0.  0.
        5    1    3    3  502    0  0.25626795080E+03 -0.68617519454E+03  0.42348869998E+03  0.84609362911E+03  0.46999998093E+01 0. -1.
       -5    1    3    3    0  502 -0.25626795080E+03  0.68617519454E+03 -0.14396070257E+04  0.16152399632E+04  0.46999998093E+01 0.  1.
</event>
<event>
 5   0  0.6495405E-05  0.2311880E+04  0.7818609E-02  0.8473252E-01
        2   -1    0    0  501    0  0.00000000000E+00  0.00000000000E+00  0.94047102436E+03  0.94047102436E+03  0.25500000920E-02 0. -1.
       -2   -1    0    0    0  501  0.00000000000E+00  0.00000000000E+00 -0.14207748168E+04  0.14207748168E+04  0.25500000920E-02 0.  1.
    10030    2    1    2    0    0  0.00000000000E+00  0.00000000000E+00 -0.48030379241E+03  0.23612458411E+04  0.23118802281E+04 0.  0.
        5    1    3    3  502    0 -0.93263981743E+03 -0.24431133540E+03  0.41117221647E+03  0.10481363171E+04  0.46999998093E+01 0. -1.
       -5    1    3    3    0  502  0.93263981743E+03  0.24431133540E+03 -0.89147600888E+03  0.13131095240E+04  0.46999998093E+01 0.  1.
</event>
<event>
 5   0  0.2944089E-05  0.2318593E+04  0.7818609E-02  0.8470626E-01
       -1   -1    0    0    0  501  0.00000000000E+00  0.00000000000E+00  0.88891479305E+03  0.88891479306E+03  0.50400001928E-02 0.  1.
        1   -1    0    0  501    0  0.00000000000E+00  0.00000000000E+00 -0.15119208969E+04  0.15119208969E+04  0.50400001928E-02 0. -1.
    10030    2    1    2    0    0  0.00000000000E+00  0.00000000000E+00 -0.62300610388E+03  0.24008356900E+04  0.23185934109E+04 0.  0.
        5    1    3    3  502    0  0.10989242652E+04  0.31386818407E+03 -0.11018723302E+03  0.11481772920E+04  0.46999998093E+01 0.  1.
       -5    1    3    3    0  502 -0.10989242652E+04 -0.31386818407E+03 -0.51281887086E+03  0.12526583980E+04  0.46999998093E+01 0. -1.
</event>
<event>
 5   0  0.6814789E-05  0.2290083E+04  0.7818609E-02  0.8481842E-01
       -2   -1    0    0    0  501  0.00000000000E+00  0.00000000000E+00  0.70361731158E+03  0.70361731159E+03  0.25500000920E-02 0.  1.
        2   -1    0    0  501    0  0.00000000000E+00  0.00000000000E+00 -0.18633992649E+04  0.18633992649E+04  0.25500000920E-02 0. -1.
    10030    2    1    2    0    0  0.00000000000E+00  0.00000000000E+00 -0.11597819533E+04  0.25670165765E+04  0.22900829515E+04 0.  0.
        1    1    3    3  502    0 -0.93900097331E+03  0.52397191855E+03 -0.13879420397E+03  0.10842201024E+04  0.50400001928E-02 0.  1.
       -1    1    3    3    0  502  0.93900097331E+03 -0.52397191855E+03 -0.10209877494E+04  0.14827964741E+04  0.50400001928E-02 0. -1.
</event>
<event>
 5   0  0.6495405E-05  0.2271730E+04  0.7818609E-02  0.8489152E-01
        2   -1    0    0  501    0  0.00000000000E+00  0.00000000000E+00  0.22111515665E+04  0.22111515665E+04  0.25500000920E-02 0.  1.
       -2   -1    0    0    0  501  0.00000000000E+00  0.00000000000E+00 -0.58349220915E+03  0.58349220916E+03  0.25500000920E-02 0. -1.
    10030    2    1    2    0    0  0.00000000000E+00  0.00000000000E+00  0.16276593574E+04  0.27946437757E+04  0.22717303646E+04 0.  0.
        5    1    3    3  502    0 -0.12715264258E+03 -0.96442926021E+03  0.15352205240E+04  0.18174751002E+04  0.46999998093E+01 0.  1.
       -5    1    3    3    0  502  0.12715264258E+03  0.96442926021E+03  0.92438833357E+02  0.97716867549E+03  0.46999998093E+01 0. -1.
</event>
<event>
 5   0  0.6495405E-05  0.2328026E+04  0.7818609E-02  0.8466952E-01
       -2   -1    0    0    0  501  0.00000000000E+00  0.00000000000E+00  0.57871980671E+03  0.57871980671E+03  0.25500000920E-02 0.  1.
        2   -1    0    0  501    0  0.00000000000E+00  0.00000000000E+00 -0.23412480646E+04  0.23412480646E+04  0.25500000920E-02 0. -1.
    10030    2    1    2    0    0  0.00000000000E+00  0.00000000000E+00 -0.17625282579E+04  0.29199678714E+04  0.23280263121E+04 0.  0.
        5    1    3    3  502    0  0.32265825164E+03 -0.63402355617E+03 -0.20368321480E+04  0.21574989007E+04  0.46999998093E+01 0. -1.
       -5    1    3    3    0  502 -0.32265825164E+03  0.63402355617E+03  0.27430389010E+03  0.76246897068E+03  0.46999998093E+01 0.  1.
</event>
<event>
 5   0  0.2944089E-05  0.2319484E+04  0.7818609E-02  0.8470278E-01
       -1   -1    0    0    0  501  0.00000000000E+00  0.00000000000E+00  0.84596232629E+03  0.84596232630E+03  0.50400001928E-02 0.  1.
        1   -1    0    0  501    0  0.00000000000E+00  0.00000000000E+00 -0.15899069391E+04  0.15899069391E+04  0.50400001928E-02 0. -1.
    10030    2    1    2    0    0  0.00000000000E+00  0.00000000000E+00 -0.74394461285E+03  0.24358692654E+04  0.23194838847E+04 0.  0.
        5    1    3    3  502    0  0.11015524441E+03 -0.11364511680E+04 -0.58545515689E+03  0.12831349367E+04  0.46999998093E+01 0. -1.
       -5    1    3    3    0  502 -0.11015524441E+03  0.11364511680E+04 -0.15848945597E+03  0.11527343288E+04  0.46999998093E+01 0.  1.
</event>
<event>
 5   0  0.2944089E-05  0.2244929E+04  0.7818609E-02  0.8499957E-01
        1   -1    0    0  501    0  0.00000000000E+00  0.00000000000E+00  0.11862226598E+04  0.11862226598E+04  0.50400001928E-02 0. -1.
       -1   -1    0    0    0  501  0.00000000000E+00  0.00000000000E+00 -0.10621330473E+04  0.10621330473E+04  0.50400001928E-02 0.  1.
    10030    2    1    2    0    0  0.00000000000E+00  0.00000000000E+00  0.12408961254E+03  0.22483557071E+04  0.22449287636E+04 0.  0.
        5    1    3    3  502    0  0.71275464436E+03 -0.73693797660E+03 -0.39560726767E+03  0.10989194532E+04  0.46999998093E+01 0.  1.
       -5    1    3    3    0  502 -0.71275464436E+03  0.73693797660E+03  0.51969688021E+03  0.11494362539E+04  0.46999998093E+01 0. -1.
</event>
<event>
 5   0  0.6495405E-05  0.2109456E+04  0.7818609E-02  0.8557089E-01
       -2   -1    0    0    0  501  0.00000000000E+00  0.00000000000E+00  0.12543020167E+04  0.12543020167E+04  0.25500000920E-02 0. -1.
        2   -1    0    0  501    0  0.00000000000E+00  0.00000000000E+00 -0.88690891948E+03  0.88690891949E+03  0.25500000920E-02 0.  1.
    10030    2    1    2    0    0  0.00000000000E+00  0.00000000000E+00  0.36739309722E+03  0.21412109362E+04  0.21094564668E+04 0.  0.
        5    1    3    3  502    0  0.42913695724E+02 -0.23879811028E+03  0.12255802162E+04  0.12493738749E+04  0.46999998093E+01 0. -1.
       -5    1    3    3    0  502 -0.42913695724E+02  0.23879811028E+03 -0.85818711901E+03  0.89183706134E+03  0.46999998093E+01 0.  1.
</event>
<event>
 5   0  0.2982385E-05  0.2293713E+04  0.7818609E-02  0.8480404E-01
        1   -1    0    0  501    0  0.00000000000E+00  0.00000000000E+00  0.12422232955E+04  0.12422232956E+04  0.50400001928E-02 0. -1.
       -1   -1    0    0    0  501  0.00000000000E+00  0.00000000000E+00 -0.10588109418E+04  0.10588109419E+04  0.50400001928E-02 0.  1.
    10030    2    1    2    0    0  0.00000000000E+00  0.00000000000E+00  0.18341235371E+03  0.23010342374E+04  0.22937128134E+04 0.  0.
        4    1    3    3  502    0 -0.10967223724E+03  0.71728034454E+03  0.98266201853E+03  0.12215340142E+04  0.12699999809E+01 0. -1.
       -4    1    3    3    0  502  0.10967223724E+03 -0.71728034454E+03 -0.79924966482E+03  0.10795002232E+04  0.12699999809E+01 0.  1.
</event>
<event>
 5   0  0.6814789E-05  0.2365131E+04  0.7818609E-02  0.8452675E-01
        2   -1    0    0  501    0  0.00000000000E+00  0.00000000000E+00  0.11994204247E+04  0.11994204247E+04  0.25500000920E-02 0. -1.
       -2   -1    0    0    0  501  0.00000000000E+00  0.00000000000E+00 -0.11659471485E+04  0.11659471485E+04  0.25500000920E-02 0.  1.
    10030    2    1    2    0    0  0.00000000000E+00  0.00000000000E+00  0.33473276192E+02  0.23653675731E+04  0.23651307143E+04 0.  0.
        1    1    3    3  502    0  0.39483369343E+03 -0.23398592879E+03 -0.10732430343E+04  0.11672590420E+04  0.50400001928E-02 0.  1.
       -1    1    3    3    0  502 -0.39483369343E+03  0.23398592879E+03  0.11067163105E+04  0.11981085311E+04  0.50400001928E-02 0. -1.
</event>
<event>
 5   0  0.2944089E-05  0.2314937E+04  0.7818609E-02  0.8472055E-01
        1   -1    0    0  501    0  0.00000000000E+00  0.00000000000E+00  0.81374315976E+03  0.81374315977E+03  0.50400001928E-02 0. -1.
       -1   -1    0    0    0  501  0.00000000000E+00  0.00000000000E+00 -0.16463828341E+04  0.16463828341E+04  0.50400001928E-02 0.  1.
    10030    2    1    2    0    0  0.00000000000E+00  0.00000000000E+00 -0.83263967432E+03  0.24601259939E+04  0.23149365171E+04 0.  0.
        5    1    3    3  502    0  0.31088659986E+03 -0.75101611910E+03 -0.12920379671E+04  0.15264533689E+04  0.46999998093E+01 0.  1.
       -5    1    3    3    0  502 -0.31088659986E+03  0.75101611910E+03  0.45939829277E+03  0.93367262492E+03  0.46999998093E+01 0. -1.
</event>
<event>
 5   0  0.2962279E-05  0.2248748E+04  0.7818609E-02  0.8498408E-01
       -1   -1    0    0    0  501  0.00000000000E+00  0.00000000000E+00  0.95064465053E+03  0.95064465054E+03  0.50400001928E-02 0.  1.
        1   -1    0    0  501    0  0.00000000000E+00  0.00000000000E+00 -0.13298521953E+04  0.13298521953E+04  0.50400001928E-02 0. -1.
    10030    2    1    2    0    0  0.00000000000E+00  0.00000000000E+00 -0.37920754479E+03  0.22804968459E+04  0.22487479854E+04 0.  0.
        1    1    3    3  502    0 -0.46646195077E+03  0.25728727527E+03 -0.11937517860E+04  0.13072210296E+04  0.50400001928E-02 0. -1.
       -1    1    3    3    0  502  0.46646195077E+03 -0.25728727527E+03  0.81454424126E+03  0.97327581626E+03  0.50400001928E-02 0.  1.
</event>
<event>
 5   0  0.2962279E-05  0.2293405E+04  0.7818609E-02  0.8480526E-01
       -1   -1    0    0    0  501  0.00000000000E+00  0.00000000000E+00  0.11296932814E+04  0.11296932814E+04  0.50400001928E-02 0. -1.
        1   -1    0    0  501    0  0.00000000000E+00  0.00000000000E+00 -0.11639680395E+04  0.11639680395E+04  0.50400001928E-02 0.  1.
    10030    2    1    2    0    0  0.00000000000E+00  0.00000000000E+00 -0.34274758123E+02  0.22936613209E+04  0.22934052185E+04 0.  0.
        1    1    3    3  502    0 -0.10802994663E+04 -0.33929954735E+03 -0.19814309779E+03  0.11495354745E+04  0.50400001928E-02 0.  1.
       -1    1    3    3    0  502  0.10802994663E+04  0.33929954735E+03  0.16386833967E+03  0.11441258465E+04  0.50400001928E-02 0. -1.
</event>
<event>
 5   0  0.2982385E-05  0.2247295E+04  0.7818609E-02  0.8498997E-01
        1   -1    0    0  501    0  0.00000000000E+00  0.00000000000E+00  0.20701254980E+04  0.20701254980E+04  0.50400001928E-02 0.  1.
       -1   -1    0    0    0  501  0.00000000000E+00  0.00000000000E+00 -0.60990657752E+03  0.60990657754E+03  0.50400001928E-02 0. -1.
    10030    2    1    2    0    0  0.00000000000E+00  0.00000000000E+00  0.14602189204E+04  0.26800320755E+04  0.22472945134E+04 0.  0.
        4    1    3    3  502    0 -0.26902164465E+03 -0.43729111378E+02 -0.56988780687E+03  0.63171085616E+03  0.12699999809E+01 0. -1.
       -4    1    3    3    0  502  0.26902164465E+03  0.43729111378E+02  0.20301067273E+04  0.20483212193E+04  0.12699999809E+01 0.  1.
</event>
<event>
 5   0  0.6702421E-05  0.2308014E+04  0.7818609E-02  0.8474768E-01
        2   -1    0    0  501    0  0.00000000000E+00  0.00000000000E+00  0.13563933168E+04  0.13563933168E+04  0.25500000920E-02 0. -1.
       -2   -1    0    0    0  501  0.00000000000E+00  0.00000000000E+00 -0.98181876277E+03  0.98181876278E+03  0.25500000920E-02 0.  1.
    10030    2    1    2    0    0  0.00000000000E+00  0.00000000000E+00  0.37457455404E+03  0.23382120796E+04  0.23080142185E+04 0.  0.
        4    1    3    3  502    0 -0.11894362151E+03  0.59099518320E+03 -0.80961401352E+03  0.10094054465E+04  0.12699999809E+01 0.  1.
       -4    1    3    3    0  502  0.11894362151E+03 -0.59099518320E+03  0.11841885676E+04  0.13288066331E+04  0.12699999809E+01 0. -1.
</event>
<event>
 5   0  0.6468758E-05  0.2337798E+04  0.7818609E-02  0.8463165E-01
        2   -1    0    0  501    0  0.00000000000E+00  0.00000000000E+00  0.86762586462E+03  0.86762586462E+03  0.25500000920E-02 0. -1.
       -2   -1    0    0    0  501  0.00000000000E+00  0.00000000000E+00 -0.15747851808E+04  0.15747851808E+04  0.25500000920E-02 0.  1.
    10030    2    1    2    0    0  0.00000000000E+00  0.00000000000E+00 -0.70715931618E+03  0.24424110454E+04  0.23377975567E+04 0.  0.
        3    1    3    3  502    0  0.73734719961E+03 -0.36487605792E+03 -0.12211042552E+04  0.14723827773E+04  0.10100000352E+00 0.  1.
       -3    1    3    3    0  502 -0.73734719961E+03  0.36487605792E+03  0.51394493907E+03  0.97002826815E+03  0.10100000352E+00 0. -1.
</event>
<event>
 5   0  0.2982385E-05  0.2298242E+04  0.7818609E-02  0.8478614E-01
       -1   -1    0    0    0  501  0.00000000000E+00  0.00000000000E+00  0.10958752134E+04  0.10958752134E+04  0.50400001928E-02 0.  1.
        1   -1    0    0  501    0  0.00000000000E+00  0.00000000000E+00 -0.12049541299E+04  0.12049541299E+04  0.50400001928E-02 0. -1.
    10030    2    1    2    0    0  0.00000000000E+00  0.00000000000E+00 -0.10907891651E+03  0.23008293433E+04  0.22982422538E+04 0.  0.
        4    1    3    3  502    0  0.11020032197E+04  0.11023579430E+02 -0.38039800283E+03  0.11658631433E+04  0.12699999809E+01 0. -1.
       -4    1    3    3    0  502 -0.11020032197E+04 -0.11023579430E+02  0.27131908632E+03  0.11349662000E+04  0.12699999809E+01 0.  1.
</event>
<event>
 5   0  0.6495405E-05  0.2283854E+04  0.7818609E-02  0.8484315E-01
       -2   -1    0    0    0  501  0.00000000000E+00  0.00000000000E+00  0.71242743102E+03  0.71242743103E+03  0.25500000920E-02 0.  1.
        2   -1    0    0  501    0  0.00000000000E+00  0.00000000000E+00 -0.18303574880E+04  0.18303574880E+04  0.25500000920E-02 0. -1.
    10030    2    1    2    0    0  0.00000000000E+00  0.00000000000E+00 -0.11179300570E+04  0.25427849191E+04  0.22838536582E+04 0.  0.
        5    1    3    3  502    0  0.12743703828E+03 -0.97714131365E+01 -0.18223579373E+04  0.18268405024E+04  0.46999998093E+01 0. -1.
       -5    1    3    3    0  502 -0.12743703828E+03  0.97714131365E+01  0.70442788033E+03  0.71594441671E+03  0.46999998093E+01 0.  1.
</event>
<event>
 5   0  0.6468758E-05  0.2364282E+04  0.7818609E-02  0.8452998E-01
        2   -1    0    0  501    0  0.00000000000E+00  0.00000000000E+00  0.17845261509E+04  0.17845261509E+04  0.25500000920E-02 0. -1.
       -2   -1    0    0    0  501  0.00000000000E+00  0.00000000000E+00 -0.78309702493E+03  0.78309702494E+03  0.25500000920E-02 0.  1.
    10030    2    1    2    0    0  0.00000000000E+00  0.00000000000E+00  0.10014291260E+04  0.25676231758E+04  0.23642818104E+04 0.  0.
        3    1    3    3  502    0  0.66913957640E+03  0.82183677068E+03 -0.68059691852E+02  0.10619772042E+04  0.10100000352E+00 0. -1.
       -3    1    3    3    0  502 -0.66913957640E+03 -0.82183677068E+03  0.10694888178E+04  0.15056459717E+04  0.10100000352E+00 0.  1.
</event>
<event>
 5   0  0.6702421E-05  0.2331319E+04  0.7818609E-02  0.8465674E-01
       -2   -1    0    0    0  501  0.00000000000E+00  0.00000000000E+00  0.16754387277E+04  0.16754387277E+04  0.25500000920E-02 0. -1.
        2   -1    0    0  501    0  0.00000000000E+00  0.00000000000E+00 -0.81098860874E+03  0.81098860874E+03  0.25500000920E-02 0.  1.
    10030    2    1    2    0    0  0.00000000000E+00  0.00000000000E+00  0.86445011901E+03  0.24864273365E+04  0.23313187022E+04 0.  0.
        4    1    3    3  502    0  0.62033317135E+03 -0.91194338417E+03  0.29891806036E+02  0.11033354487E+04  0.12699999809E+01 0.  1.
       -4    1    3    3    0  502 -0.62033317135E+03  0.91194338417E+03  0.83455831297E+03  0.13830918878E+04  0.12699999809E+01 0. -1.
</event>
<event>
 5   0  0.6676612E-05  0.2306878E+04  0.7818609E-02  0.8475214E-01
        2   -1    0    0  501    0  0.00000000000E+00  0.00000000000E+00  0.21878961123E+04  0.21878961123E+04  0.25500000920E-02 0.  1.
       -2   -1    0    0    0  501  0.00000000000E+00  0.00000000000E+00 -0.60808272938E+03  0.60808272938E+03  0.25500000920E-02 0. -1.
    10030    2    1    2    0    0  0.00000000000E+00  0.00000000000E+00  0.15798133829E+04  0.27959788417E+04  0.23068782712E+04 0.  0.
        2    1    3    3  502    0 -0.50250898226E+03 -0.79458974640E+03 -0.20002487994E+02  0.94036601484E+03  0.25500000920E-02 0.  1.
       -2    1    3    3    0  502  0.50250898226E+03  0.79458974640E+03  0.15998158709E+04  0.18556128268E+04  0.25500000920E-02 0. -1.
</event>
<event>
 5   0  0.6676612E-05  0.2301730E+04  0.7818609E-02  0.8477239E-01
       -2   -1    0    0    0  501  0.00000000000E+00  0.00000000000E+00  0.64082326141E+03  0.64082326142E+03  0.25500000920E-02 0. -1.
        2   -1    0    0  501    0  0.00000000000E+00  0.00000000000E+00 -0.20668573754E+04  0.20668573754E+04  0.25500000920E-02 0.  1.
    10030    2    1    2    0    0  0.00000000000E+00  0.00000000000E+00 -0.14260341140E+04  0.27076806368E+04  0.23017300312E+04 0.  0.
        2    1    3    3  502    0  0.22677859778E+03 -0.51836503895E+03 -0.18919460212E+04  0.19747381075E+04  0.25500000920E-02 0.  1.
       -2    1    3    3    0  502 -0.22677859778E+03  0.51836503895E+03  0.46591190721E+03  0.73294252933E+03  0.25500000920E-02 0. -1.
</event>
<event>
 5   0  0.6676612E-05  0.2308802E+04  0.7818609E-02  0.8474459E-01
        2   -1    0    0  501    0  0.00000000000E+00  0.00000000000E+00  0.90896126622E+03  0.90896126622E+03  0.25500000920E-02 0.  1.
       -2   -1    0    0    0  501  0.00000000000E+00  0.00000000000E+00 -0.14661154185E+04  0.14661154185E+04  0.25500000920E-02 0. -1.
    10030    2    1    2    0    0  0.00000000000E+00  0.00000000000E+00 -0.55715415232E+03  0.23750766848E+04  0.23088023971E+04 0.  0.
        2    1    3    3  502    0  0.11121129001E+04 -0.29715993398E+03 -0.36792055906E+03  0.12084968625E+04  0.25500000920E-02 0. -1.
       -2    1    3    3    0  502 -0.11121129001E+04  0.29715993398E+03 -0.18923359326E+03  0.11665798223E+04  0.25500000920E-02 0.  1.
</event>
<event>
 5   0  0.6468758E-05  0.2288822E+04  0.7818609E-02  0.8482342E-01
        2   -1    0    0  501    0  0.00000000000E+00  0.00000000000E+00  0.14791028739E+04  0.14791028739E+04  0.25500000920E-02 0.  1.
       -2   -1    0    0    0  501  0.00000000000E+00  0.00000000000E+00 -0.88545314913E+03  0.88545314913E+03  0.25500000920E-02 0. -1.
    10030    2    1    2    0    0  0.00000000000E+00  0.00000000000E+00  0.59364972475E+03  0.23645560230E+04  0.22888217909E+04 0.  0.
        3    1    3    3  502    0 -0.44097252981E+02  0.10857754771E+04 -0.73971012881E+02  0.10891853264E+04  0.10100000352E+00 0.  1.
       -3    1    3    3    0  502  0.44097252981E+02 -0.10857754771E+04  0.66762073763E+03  0.12753706966E+04  0.10100000352E+00 0. -1.
</event>
<event>
 5   0  0.6702421E-05  0.1672154E+04  0.7818609E-02  0.8777408E-01
       -2   -1    0    0    0  501  0.00000000000E+00  0.00000000000E+00  0.48882047517E+03  0.48882047518E+03  0.25500000920E-02 0.  1.
        2   -1    0    0  501    0  0.00000000000E+00  0.00000000000E+00 -0.14300226482E+04  0.14300226482E+04  0.25500000920E-02 0. -1.
    10030    2    1    2    0    0  0.00000000000E+00  0.00000000000E+00 -0.94120217302E+03  0.19188431234E+04  0.16721535221E+04 0.  0.
        4    1    3    3  502    0 -0.60142917441E+03 -0.11736877934E+02  0.19572444260E+03  0.63258554873E+03  0.12699999809E+01 0.  1.
       -4    1    3    3    0  502  0.60142917441E+03  0.11736877934E+02 -0.11369266156E+04  0.12862575746E+04  0.12699999809E+01 0. -1.
</event>
<event>
 5   0  0.6814789E-05  0.2234222E+04  0.7818609E-02  0.8504318E-01
        2   -1    0    0  501    0  0.00000000000E+00  0.00000000000E+00  0.19479940645E+04  0.19479940645E+04  0.25500000920E-02 0. -1.
       -2   -1    0    0    0  501  0.00000000000E+00  0.00000000000E+00 -0.64062656483E+03  0.64062656484E+03  0.25500000920E-02 0.  1.
    10030    2    1    2    0    0  0.00000000000E+00  0.00000000000E+00  0.13073674997E+04  0.25886206294E+04  0.22342217848E+04 0.  0.
        1    1    3    3  502    0 -0.65433261017E+03 -0.30974832021E+03  0.16394271613E+04  0.17921541797E+04  0.50400001928E-02 0. -1.
       -1    1    3    3    0  502  0.65433261017E+03  0.30974832021E+03 -0.33205966157E+03  0.79646644968E+03  0.50400001928E-02 0.  1.
</event>
<event>
 5   0  0.2962279E-05  0.2287431E+04  0.7818609E-02  0.8482894E-01
        1   -1    0    0  501    0  0.00000000000E+00  0.00000000000E+00  0.12607458785E+04  0.12607458785E+04  0.50400001928E-02 0.  1.
       -1   -1    0    0    0  501  0.00000000000E+00  0.00000000000E+00 -0.10375483226E+04  0.10375483226E+04  0.50400001928E-02 0. -1.
    10030    2    1    2    0    0  0.00000000000E+00  0.00000000000E+00  0.22319755591E+03  0.22982942010E+04  0.22874306734E+04 0.  0.
        1    1    3    3  502    0  0.51100798768E+03  0.45943503834E+03  0.10302028426E+04  0.12383568205E+04  0.50400001928E-02 0.  1.
       -1    1    3    3    0  502 -0.51100798768E+03 -0.45943503834E+03 -0.80700528668E+03  0.10599373806E+04  0.50400001928E-02 0. -1.
</event>
<event>
 5   0  0.3118614E-05  0.2106745E+04  0.7818609E-02  0.8558278E-01
        1   -1    0    0  501    0  0.00000000000E+00  0.00000000000E+00  0.11576162918E+04  0.11576162918E+04  0.50400001928E-02 0. -1.
       -1   -1    0    0    0  501  0.00000000000E+00  0.00000000000E+00 -0.95851626003E+03  0.95851626004E+03  0.50400001928E-02 0.  1.
    10030    2    1    2    0    0  0.00000000000E+00  0.00000000000E+00  0.19910003180E+03  0.21161325519E+04  0.21067453938E+04 0.  0.
        3    1    3    3  502    0  0.31015837799E+03  0.54872374945E+03 -0.74818806875E+03  0.97830535574E+03  0.10100000352E+00 0.  1.
       -3    1    3    3    0  502 -0.31015837799E+03 -0.54872374945E+03  0.94728810055E+03  0.11378271961E+04  0.10100000352E+00 0. -1.
</event>
<event>
 5   0  0.2962279E-05  0.2338477E+04  0.7818609E-02  0.8462903E-01
        1   -1    0    0  501    0  0.00000000000E+00  0.00000000000E+00  0.83443073993E+03  0.83443073994E+03  0.50400001928E-02 0.  1.
       -1   -1    0    0    0  501  0.00000000000E+00  0.00000000000E+00 -0.16383845594E+04  0.16383845594E+04  0.50400001928E-02 0. -1.
    10030    2    1    2    0    0  0.00000000000E+00  0.00000000000E+00 -0.80395381949E+03  0.24728152994E+04  0.23384768036E+04 0.  0.
        1    1    3    3  502    0 -0.23371988341E+03  0.21441234742E+03  0.78807190549E+03  0.84950277627E+03  0.50400001928E-02 0.  1.
       -1    1    3    3    0  502  0.23371988341E+03 -0.21441234742E+03 -0.15920257250E+04  0.16233125231E+04  0.50400001928E-02 0. -1.
</event>
<event>
 5   0  0.6702421E-05  0.2247822E+04  0.7818609E-02  0.8498783E-01
        2   -1    0    0  501    0  0.00000000000E+00  0.00000000000E+00  0.19418211800E+04  0.19418211800E+04  0.25500000920E-02 0.  1.
       -2   -1    0    0    0  501  0.00000000000E+00  0.00000000000E+00 -0.65051072343E+03  0.65051072343E+03  0.25500000920E-02 0. -1.
    10030    2    1    2    0    0  0.00000000000E+00  0.00000000000E+00  0.12913104565E+04  0.25923319034E+04  0.22478216126E+04 0.  0.
        4    1    3    3  502    0  0.69960139322E+03 -0.72493955890E+02 -0.36532818591E+03  0.79256783897E+03  0.12699999809E+01 0. -1.
       -4    1    3    3    0  502 -0.69960139322E+03  0.72493955890E+02  0.16566386424E+04  0.17997640644E+04  0.12699999809E+01 0.  1.
</event>
<event>
 5   0  0.6676612E-05  0.2290061E+04  0.7818609E-02  0.8481850E-01
       -2   -1    0    0    0  501  0.00000000000E+00  0.00000000000E+00  0.11437613971E+04  0.11437613971E+04  0.25500000920E-02 0.  1.
        2   -1    0    0  501    0  0.00000000000E+00  0.00000000000E+00 -0.11463007427E+04  0.11463007427E+04  0.25500000920E-02 0. -1.
    10030    2    1    2    0    0  0.00000000000E+00  0.00000000000E+00 -0.25393456169E+01  0.22900621398E+04  0.22900607320E+04 0.  0.
        2    1    3    3  502    0 -0.47494613123E+03  0.41529129014E+03 -0.95680877636E+03  0.11460906237E+04  0.25500000920E-02 0. -1.
       -2    1    3    3    0  502  0.47494613123E+03 -0.41529129014E+03  0.95426943075E+03  0.11439715161E+04  0.25500000920E-02 0.  1.
</event>
<event>
 5   0  0.6676612E-05  0.2291795E+04  0.7818609E-02  0.8481163E-01
        2   -1    0    0  501    0  0.00000000000E+00  0.00000000000E+00  0.26959616686E+04  0.26959616686E+04  0.25500000920E-02 0.  1.
       -2   -1    0    0    0  501  0.00000000000E+00  0.00000000000E+00 -0.48705474085E+03  0.48705474085E+03  0.25500000920E-02 0. -1.
    10030    2    1    2    0    0  0.00000000000E+00  0.00000000000E+00  0.22089069277E+04  0.31830164094E+04  0.22917948528E+04 0.  0.
        2    1    3    3  502    0 -0.11114674773E+04 -0.22648843594E+03  0.13302212544E+04  0.17481835003E+04  0.25500000920E-02 0. -1.
       -2    1    3    3    0  502  0.11114674773E+04  0.22648843594E+03  0.87868567329E+03  0.14348329092E+04  0.25500000920E-02 0.  1.
</event>
<event>
 5   0  0.6814789E-05  0.2291613E+04  0.7818609E-02  0.8481235E-01
        2   -1    0    0  501    0  0.00000000000E+00  0.00000000000E+00  0.15298695260E+04  0.15298695260E+04  0.25500000920E-02 0. -1.
       -2   -1    0    0    0  501  0.00000000000E+00  0.00000000000E+00 -0.85815980324E+03  0.85815980324E+03  0.25500000920E-02 0.  1.
    10030    2    1    2    0    0  0.00000000000E+00  0.00000000000E+00  0.67170972272E+03  0.23880293292E+04  0.22916129965E+04 0.  0.
        1    1    3    3  502    0 -0.33269842902E+03 -0.41197468819E+03 -0.72299708117E+03  0.89617864725E+03  0.50400001928E-02 0.  1.
       -1    1    3    3    0  502  0.33269842902E+03  0.41197468819E+03  0.13947068039E+04  0.14918506819E+04  0.50400001928E-02 0. -1.
</event>
<event>
 5   0  0.6495405E-05  0.2480172E+04  0.7818609E-02  0.8410083E-01
        2   -1    0    0  501    0  0.00000000000E+00  0.00000000000E+00  0.19205170836E+04  0.19205170836E+04  0.25500000920E-02 0. -1.
       -2   -1    0    0    0  501  0.00000000000E+00  0.00000000000E+00 -0.80072895766E+03  0.80072895766E+03  0.25500000920E-02 0.  1.
    10030    2    1    2    0    0  0.00000000000E+00  0.00000000000E+00  0.11197881259E+04  0.27212460412E+04  0.24801722864E+04 0.  0.
        5    1    3    3  502    0  0.52231514299E+03 -0.97661954791E+03 -0.52175328950E+02  0.11087575050E+04  0.46999998093E+01 0.  1.
       -5    1    3    3    0  502 -0.52231514299E+03  0.97661954791E+03  0.11719634549E+04  0.16124885362E+04  0.46999998093E+01 0. -1.
</event>
<event>
 5   0  0.3006265E-05  0.2334137E+04  0.7818609E-02  0.8464582E-01
       -1   -1    0    0    0  501  0.00000000000E+00  0.00000000000E+00  0.63166989294E+03  0.63166989296E+03  0.50400001928E-02 0.  1.
        1   -1    0    0  501    0  0.00000000000E+00  0.00000000000E+00 -0.21562675559E+04  0.21562675559E+04  0.50400001928E-02 0. -1.
    10030    2    1    2    0    0  0.00000000000E+00  0.00000000000E+00 -0.15245976629E+04  0.27879374488E+04  0.23341373535E+04 0.  0.
        2    1    3    3  502    0  0.67808646386E+03 -0.12190716969E+03 -0.18874556878E+04  0.20092664293E+04  0.25500000920E-02 0. -1.
       -2    1    3    3    0  502 -0.67808646386E+03  0.12190716969E+03  0.36285802485E+03  0.77867101956E+03  0.25500000920E-02 0.  1.
</event>
<event>
 5   0  0.3118614E-05  0.2188647E+04  0.7818609E-02  0.8523168E-01
        1   -1    0    0  501    0  0.00000000000E+00  0.00000000000E+00  0.15065455875E+04  0.15065455875E+04  0.50400001928E-02 0.  1.
       -1   -1    0    0    0  501  0.00000000000E+00  0.00000000000E+00 -0.79489408654E+03  0.79489408656E+03  0.50400001928E-02 0. -1.
    10030    2    1    2    0    0  0.00000000000E+00  0.00000000000E+00  0.71165150092E+03  0.23014396740E+04  0.21886472339E+04 0.  0.
        3    1    3    3  502    0  0.33304862347E+03  0.54774318650E+03 -0.57678592871E+03  0.86233752192E+03  0.10100000352E+00 0. -1.
       -3    1    3    3    0  502 -0.33304862347E+03 -0.54774318650E+03  0.12884374296E+04  0.14391021521E+04  0.10100000352E+00 0.  1.
</event>
<event>
 5   0  0.2962279E-05  0.2290689E+04  0.7818609E-02  0.8481602E-01
        1   -1    0    0  501    0  0.00000000000E+00  0.00000000000E+00  0.18811771755E+04  0.18811771756E+04  0.50400001928E-02 0. -1.
       -1   -1    0    0    0  501  0.00000000000E+00  0.00000000000E+00 -0.69733655522E+03  0.69733655523E+03  0.50400001928E-02 0.  1.
    10030    2    1    2    0    0  0.00000000000E+00  0.00000000000E+00  0.11838406203E+04  0.25785137308E+04  0.22906886400E+04 0.  0.
        1    1    3    3  502    0  0.21275985702E+03  0.71517294236E+03 -0.38621354984E+03  0.84017855266E+03  0.50400001928E-02 0.  1.
       -1    1    3    3    0  502 -0.21275985702E+03 -0.71517294236E+03  0.15700541702E+04  0.17383351781E+04  0.50400001928E-02 0. -1.
</event>
<event>
 5   0  0.3006265E-05  0.2315917E+04  0.7818609E-02  0.8471672E-01
       -1   -1    0    0    0  501  0.00000000000E+00  0.00000000000E+00  0.85919540462E+03  0.85919540464E+03  0.50400001928E-02 0.  1.
        1   -1    0    0  501    0  0.00000000000E+00  0.00000000000E+00 -0.15606082110E+04  0.15606082110E+04  0.50400001928E-02 0. -1.
    10030    2    1    2    0    0  0.00000000000E+00  0.00000000000E+00 -0.70141280635E+03  0.24198036156E+04  0.23159165817E+04 0.  0.
        2    1    3    3  502    0  0.42041222191E+03  0.10732128287E+04 -0.46675239693E+03  0.12435393086E+04  0.25500000920E-02 0. -1.
       -2    1    3    3    0  502 -0.42041222191E+03 -0.10732128287E+04 -0.23466040942E+03  0.11762643070E+04  0.25500000920E-02 0.  1.
</event>
<event>
 5   0  0.6468758E-05  0.2308176E+04  0.7818609E-02  0.8474704E-01
        2   -1    0    0  501    0  0.00000000000E+00  0.00000000000E+00  0.13353949577E+04  0.13353949577E+04  0.25500000920E-02 0. -1.
       -2   -1    0    0    0  501  0.00000000000E+00  0.00000000000E+00 -0.99739731407E+03  0.99739731407E+03  0.25500000920E-02 0.  1.
    10030    2    1    2    0    0  0.00000000000E+00  0.00000000000E+00  0.33799764365E+03  0.23327922718E+04  0.23081762013E+04 0.  0.
        3    1    3    3  502    0  0.11453407995E+04 -0.14101877332E+03  0.15375511640E+03  0.11641874795E+04  0.10100000352E+00 0.  1.
       -3    1    3    3    0  502 -0.11453407995E+04  0.14101877332E+03  0.18424252724E+03  0.11686047923E+04  0.10100000352E+00 0. -1.
</event>
<event>
 5   0  0.3006265E-05  0.2497939E+04  0.7818609E-02  0.8403720E-01
        1   -1    0    0  501    0  0.00000000000E+00  0.00000000000E+00  0.10316826881E+04  0.10316826881E+04  0.50400001928E-02 0.  1.
       -1   -1    0    0    0  501  0.00000000000E+00  0.00000000000E+00 -0.15120205182E+04  0.15120205182E+04  0.50400001928E-02 0. -1.
    10030    2    1    2    0    0  0.00000000000E+00  0.00000000000E+00 -0.48033783007E+03  0.25437032063E+04  0.24979394650E+04 0.  0.
        2    1    3    3  502    0 -0.25298370133E+03  0.87337220732E+03 -0.11120949634E+04  0.14365009479E+04  0.25500000920E-02 0. -1.
       -2    1    3    3    0  502  0.25298370133E+03 -0.87337220732E+03  0.63175713329E+03  0.11072022585E+04  0.25500000920E-02 0.  1.
</event>
<event>
 5   0  0.6495405E-05  0.2323581E+04  0.7818609E-02  0.8468681E-01
        2   -1    0    0  501    0  0.00000000000E+00  0.00000000000E+00  0.28431252063E+04  0.28431252063E+04  0.25500000920E-02 0. -1.
       -2   -1    0    0    0  501  0.00000000000E+00  0.00000000000E+00 -0.47474436230E+03  0.47474436231E+03  0.25500000920E-02 0.  1.
    10030    2    1    2    0    0  0.00000000000E+00  0.00000000000E+00  0.23683808440E+04  0.33178695686E+04  0.23235814279E+04 0.  0.
        5    1    3    3  502    0  0.33315633812E+03 -0.84154204366E+02 -0.40050907068E+03  0.52773542750E+03  0.46999998093E+01 0.  1.
       -5    1    3    3    0  502 -0.33315633812E+03  0.84154204366E+02  0.27688899147E+04  0.27901341411E+04  0.46999998093E+01 0. -1.
</event>
<event>
 5   0  0.6702421E-05  0.2317671E+04  0.7818609E-02  0.8470986E-01
        2   -1    0    0  501    0  0.00000000000E+00  0.00000000000E+00  0.12780942309E+04  0.12780942309E+04  0.25500000920E-02 0. -1.
       -2   -1    0    0    0  501  0.00000000000E+00  0.00000000000E+00 -0.10507046795E+04  0.10507046795E+04  0.25500000920E-02 0.  1.
    10030    2    1    2    0    0  0.00000000000E+00  0.00000000000E+00  0.22738955137E+03  0.23287989104E+04  0.23176708906E+04 0.  0.
        4    1    3    3  502    0 -0.66669375425E+03 -0.94665613448E+03  0.16145802214E+03  0.11690631740E+04  0.12699999809E+01 0.  1.
       -4    1    3    3    0  502  0.66669375425E+03  0.94665613448E+03  0.65931529235E+02  0.11597357364E+04  0.12699999809E+01 0. -1.
</event>
<event>
 5   0  0.2944089E-05  0.2316142E+04  0.7818609E-02  0.8471584E-01
       -1   -1    0    0    0  501  0.00000000000E+00  0.00000000000E+00  0.50349660494E+03  0.50349660496E+03  0.50400001928E-02 0.  1.
        1   -1    0    0  501    0  0.00000000000E+00  0.00000000000E+00 -0.26636299747E+04  0.26636299747E+04  0.50400001928E-02 0. -1.
    10030    2    1    2    0    0  0.00000000000E+00  0.00000000000E+00 -0.21601333697E+04  0.31671265796E+04  0.23161421797E+04 0.  0.
        5    1    3    3  502    0  0.72549045140E+02  0.35026970422E+03 -0.25861820239E+04  0.26108067298E+04  0.46999998093E+01 0. -1.
       -5    1    3    3    0  502 -0.72549045140E+02 -0.35026970422E+03  0.42604865415E+03  0.55631984985E+03  0.46999998093E+01 0.  1.
</event>
<event>
 5   0  0.3118614E-05  0.2317894E+04  0.7818609E-02  0.8470899E-01
       -1   -1    0    0    0  501  0.00000000000E+00  0.00000000000E+00  0.18735498254E+04  0.18735498254E+04  0.50400001928E-02 0.  1.
        1   -1    0    0  501    0  0.00000000000E+00  0.00000000000E+00 -0.71690523057E+03  0.71690523058E+03  0.50400001928E-02 0. -1.
    10030    2    1    2    0    0  0.00000000000E+00  0.00000000000E+00  0.11566445949E+04  0.25904550560E+04  0.23178935865E+04 0.  0.
        3    1    3    3  502    0  0.10444644960E+03  0.40593432539E+02 -0.71083660920E+03  0.71961488505E+03  0.10100000352E+00 0. -1.
       -3    1    3    3    0  502 -0.10444644960E+03 -0.40593432539E+02  0.18674812041E+04  0.18708401710E+04  0.10100000352E+00 0.  1.
</event>
<event>
 5   0  0.2982385E-05  0.2439794E+04  0.7818609E-02  0.8424754E-01
       -1   -1    0    0    0  501  0.00000000000E+00  0.00000000000E+00  0.84331594922E+03  0.84331594924E+03  0.50400001928E-02 0. -1.
        1   -1    0    0  501    0  0.00000000000E+00  0.00000000000E+00 -0.17646389429E+04  0.17646389429E+04  0.50400001928E-02 0.  1.
    10030    2    1    2    0    0  0.00000000000E+00  0.00000000000E+00 -0.92132299364E+03  0.26079548921E+04  0.24397935693E+04 0.  0.
        4    1    3    3  502    0 -0.38097261334E+02 -0.11820577048E+04 -0.14099280654E+03  0.11910467678E+04  0.12699999809E+01 0. -1.
       -4    1    3    3    0  502  0.38097261334E+02  0.11820577048E+04 -0.78033018711E+03  0.14169081243E+04  0.12699999809E+01 0.  1.
</event>
<event>
 5   0  0.2944089E-05  0.1740453E+04  0.7818609E-02  0.8738623E-01
       -1   -1    0    0    0  501  0.00000000000E+00  0.00000000000E+00  0.39344773024E+03  0.39344773027E+03  0.50400001928E-02 0. -1.
        1   -1    0    0  501    0  0.00000000000E+00  0.00000000000E+00 -0.19247640180E+04  0.19247640180E+04  0.50400001928E-02 0.  1.
    10030    2    1    2    0    0  0.00000000000E+00  0.00000000000E+00 -0.15313162878E+04  0.23182117483E+04  0.17404528539E+04 0.  0.
        5    1    3    3  502    0 -0.75754566817E+03  0.36976430273E+03 -0.47790918221E+03  0.96903062664E+03  0.46999998093E+01 0.  1.
       -5    1    3    3    0  502  0.75754566817E+03 -0.36976430273E+03 -0.10534071056E+04  0.13491811216E+04  0.46999998093E+01 0. -1.
</event>
<event>
 5   0  0.6676612E-05  0.2314772E+04  0.7818609E-02  0.8472119E-01
        2   -1    0    0  501    0  0.00000000000E+00  0.00000000000E+00  0.18523751865E+04  0.18523751865E+04  0.25500000920E-02 0. -1.
       -2   -1    0    0    0  501  0.00000000000E+00  0.00000000000E+00 -0.72314877568E+03  0.72314877569E+03  0.25500000920E-02 0.  1.
    10030    2    1    2    0    0  0.00000000000E+00  0.00000000000E+00  0.11292264108E+04  0.25755239621E+04  0.23147724279E+04 0.  0.
        2    1    3    3  502    0 -0.65830672188E+03 -0.48774433584E+03 -0.34495801751E+03  0.88896474118E+03  0.25500000920E-02 0.  1.
       -2    1    3    3    0  502  0.65830672188E+03  0.48774433584E+03  0.14741844283E+04  0.16865592210E+04  0.25500000920E-02 0. -1.
</event>
<event>
 5   0  0.3006265E-05  0.2265897E+04  0.7818609E-02  0.8491490E-01
       -1   -1    0    0    0  501  0.00000000000E+00  0.00000000000E+00  0.93368283206E+03  0.93368283208E+03  0.50400001928E-02 0.  1.
        1   -1    0    0  501    0  0.00000000000E+00  0.00000000000E+00 -0.13747415155E+04  0.13747415156E+04  0.50400001928E-02 0. -1.
    10030    2    1    2    0    0  0.00000000000E+00  0.00000000000E+00 -0.44105868348E+03  0.23084243476E+04  0.22658972189E+04 0.  0.
        2    1    3    3  502    0  0.91624628250E+03 -0.38650136304E+03  0.33250518103E+03  0.10485467320E+04  0.25500000920E-02 0.  1.
       -2    1    3    3    0  502 -0.91624628250E+03  0.38650136304E+03 -0.77356386450E+03  0.12598776156E+04  0.25500000920E-02 0. -1.
</event>
<event>
 5   0  0.6495405E-05  0.2135780E+04  0.7818609E-02  0.8545644E-01
        2   -1    0    0  501    0  0.00000000000E+00  0.00000000000E+00  0.16466208068E+04  0.16466208068E+04  0.25500000920E-02 0.  1.
       -2   -1    0    0    0  501  0.00000000000E+00  0.00000000000E+00 -0.69256326777E+03  0.69256326778E+03  0.25500000920E-02 0. -1.
    10030    2    1    2    0    0  0.00000000000E+00  0.00000000000E+00  0.95405753900E+03  0.23391840746E+04  0.21357800324E+04 0.  0.
        5    1    3    3  502    0 -0.68390318697E+03  0.45936941400E+03 -0.26710613429E+03  0.86608983635E+03  0.46999998093E+01 0. -1.
       -5    1    3    3    0  502  0.68390318697E+03 -0.45936941400E+03  0.12211636733E+04  0.14730942382E+04  0.46999998093E+01 0.  1.
</event>
<event>
 5   0  0.2962279E-05  0.2285145E+04  0.7818609E-02  0.8483801E-01
       -1   -1    0    0    0  501  0.00000000000E+00  0.00000000000E+00  0.57459682953E+03  0.57459682955E+03  0.50400001928E-02 0. -1.
        1   -1    0    0  501    0  0.00000000000E+00  0.00000000000E+00 -0.22719785885E+04  0.22719785886E+04  0.50400001928E-02 0.  1.
    10030    2    1    2    0    0  0.00000000000E+00  0.00000000000E+00 -0.16973817590E+04  0.28465754181E+04  0.22851448040E+04 0.  0.
        1    1    3    3  502    0  0.90746371340E+03  0.14138188189E+03 -0.19970088124E+01  0.91841342311E+03  0.50400001928E-02 0. -1.
       -1    1    3    3    0  502 -0.90746371340E+03 -0.14138188189E+03 -0.16953847502E+04  0.19281619950E+04  0.50400001928E-02 0.  1.
</event>
<event>
 5   0  0.6468758E-05  0.2284659E+04  0.7818609E-02  0.8483995E-01
        2   -1    0    0  501    0  0.00000000000E+00  0.00000000000E+00  0.19730715547E+04  0.19730715547E+04  0.25500000920E-02 0. -1.
       -2   -1    0    0    0  501  0.00000000000E+00  0.00000000000E+00 -0.66136296105E+03  0.66136296106E+03  0.25500000920E-02 0.  1.
    10030    2    1    2    0    0  0.00000000000E+00  0.00000000000E+00  0.13117085937E+04  0.26344345158E+04  0.22846587892E+04 0.  0.
        3    1    3    3  502    0  0.75005362633E+03  0.59106827432E+03 -0.66995607523E+02  0.95730380178E+03  0.10100000352E+00 0.  1.
       -3    1    3    3    0  502 -0.75005362633E+03 -0.59106827432E+03  0.13787042012E+04  0.16771307140E+04  0.10100000352E+00 0. -1.
</event>
<event>
 5   0  0.6495405E-05  0.2339528E+04  0.7818609E-02  0.8462497E-01
       -2   -1    0    0    0  501  0.00000000000E+00  0.00000000000E+00  0.84425992586E+03  0.84425992587E+03  0.25500000920E-02 0.  1.
        2   -1    0    0  501    0  0.00000000000E+00  0.00000000000E+00 -0.16207654015E+04  0.16207654015E+04  0.25500000920E-02 0. -1.
    10030    2    1    2    0    0  0.00000000000E+00  0.00000000000E+00 -0.77650547568E+03  0.24650253274E+04  0.23395275401E+04 0.  0.
        5    1    3    3  502    0 -0.52119922639E+02 -0.10987036544E+04 -0.80767516951E+03  0.13646345576E+04  0.46999998093E+01 0. -1.
       -5    1    3    3    0  502  0.52119922639E+02  0.10987036544E+04  0.31169693827E+02  0.11003907698E+04  0.46999998093E+01 0.  1.
</event>
<event>
 5   0  0.6495405E-05  0.2335204E+04  0.7818609E-02  0.8464168E-01
       -2   -1    0    0    0  501  0.00000000000E+00  0.00000000000E+00  0.12778619320E+04  0.12778619320E+04  0.25500000920E-02 0.  1.
        2   -1    0    0  501    0  0.00000000000E+00  0.00000000000E+00 -0.10668560800E+04  0.10668560800E+04  0.25500000920E-02 0. -1.
    10030    2    1    2    0    0  0.00000000000E+00  0.00000000000E+00  0.21100585195E+03  0.23447180120E+04  0.23352042922E+04 0.  0.
        5    1    3    3  502    0 -0.98922454302E+03  0.60562059966E+03 -0.28949952850E+02  0.11602593232E+04  0.46999998093E+01 0.  1.
       -5    1    3    3    0  502  0.98922454302E+03 -0.60562059966E+03  0.23995580480E+03  0.11844586888E+04  0.46999998093E+01 0. -1.
</event>
<event>
 5   0  0.6468758E-05  0.2267130E+04  0.7818609E-02  0.8490995E-01
       -2   -1    0    0    0  501  0.00000000000E+00  0.00000000000E+00  0.98162953418E+03  0.98162953418E+03  0.25500000920E-02 0.  1.
        2   -1    0    0  501    0  0.00000000000E+00  0.00000000000E+00 -0.13090164094E+04  0.13090164094E+04  0.25500000920E-02 0. -1.
    10030    2    1    2    0    0  0.00000000000E+00  0.00000000000E+00 -0.32738687518E+03  0.22906459435E+04  0.22671296109E+04 0.  0.
        3    1    3    3  502    0 -0.31226591341E+03 -0.19944918426E+03 -0.12461036210E+04  0.13000247006E+04  0.10100000352E+00 0. -1.
       -3    1    3    3    0  502  0.31226591341E+03  0.19944918426E+03  0.91871674579E+03  0.99062124294E+03  0.10100000352E+00 0.  1.
</event>
<event>
 5   0  0.2962279E-05  0.2335576E+04  0.7818609E-02  0.8464025E-01
        1   -1    0    0  501    0  0.00000000000E+00  0.00000000000E+00  0.21231468035E+04  0.21231468035E+04  0.50400001928E-02 0.  1.
       -1   -1    0    0    0  501  0.00000000000E+00  0.00000000000E+00 -0.64231474635E+03  0.64231474637E+03  0.50400001928E-02 0. -1.
    10030    2    1    2    0    0  0.00000000000E+00  0.00000000000E+00  0.14808320571E+04  0.27654615499E+04  0.23355757325E+04 0.  0.
        1    1    3    3  502    0  0.49024045791E+03  0.60320575017E+03 -0.29150804099E+03  0.83016252722E+03  0.50400001928E-02 0. -1.
       -1    1    3    3    0  502 -0.49024045791E+03 -0.60320575017E+03  0.17723400981E+04  0.19352990227E+04  0.50400001928E-02 0.  1.
</event>
<event>
 5   0  0.3006265E-05  0.2141142E+04  0.7818609E-02  0.8543333E-01
        1   -1    0    0  501    0  0.00000000000E+00  0.00000000000E+00  0.15543000410E+04  0.15543000411E+04  0.50400001928E-02 0.  1.
       -1   -1    0    0    0  501  0.00000000000E+00  0.00000000000E+00 -0.73738831399E+03  0.73738831401E+03  0.50400001928E-02 0. -1.
    10030    2    1    2    0    0  0.00000000000E+00  0.00000000000E+00  0.81691172705E+03  0.22916883551E+04  0.21411423930E+04 0.  0.
        2    1    3    3  502    0 -0.54622446338E+01  0.10437505256E+04  0.15364609010E+03  0.10550128515E+04  0.25500000920E-02 0. -1.
       -2    1    3    3    0  502  0.54622446338E+01 -0.10437505256E+04  0.66326563695E+03  0.12366755035E+04  0.25500000920E-02 0.  1.
</event>
<event>
 5   0  0.2944089E-05  0.2343384E+04  0.7818609E-02  0.8461009E-01
        1   -1    0    0  501    0  0.00000000000E+00  0.00000000000E+00  0.69158793883E+03  0.69158793885E+03  0.50400001928E-02 0.  1.
       -1   -1    0    0    0  501  0.00000000000E+00  0.00000000000E+00 -0.19850868229E+04  0.19850868229E+04  0.50400001928E-02 0. -1.
    10030    2    1    2    0    0  0.00000000000E+00  0.00000000000E+00 -0.12934988840E+04  0.26766747617E+04  0.23433839671E+04 0.  0.
        5    1    3    3  502    0  0.44476179858E+02 -0.11090817425E+04 -0.10753500840E+04  0.15454579695E+04  0.46999998093E+01 0. -1.
       -5    1    3    3    0  502 -0.44476179858E+02  0.11090817425E+04 -0.21814880000E+03  0.11312167923E+04  0.46999998093E+01 0.  1.
</event>
<event>
 5   0  0.6676612E-05  0.2268235E+04  0.7818609E-02  0.8490552E-01
        2   -1    0    0  501    0  0.00000000000E+00  0.00000000000E+00  0.23015181591E+04  0.23015181591E+04  0.25500000920E-02 0. -1.
       -2   -1    0    0    0  501  0.00000000000E+00  0.00000000000E+00 -0.55885843970E+03  0.55885843971E+03  0.25500000920E-02 0.  1.
    10030    2    1    2    0    0  0.00000000000E+00  0.00000000000E+00  0.17426597194E+04  0.28603765988E+04  0.22682353029E+04 0.  0.
        2    1    3    3  502    0 -0.30983712557E+03 -0.52258025042E+03 -0.33634891398E+03  0.69442044501E+03  0.25500000920E-02 0.  1.
       -2    1    3    3    0  502  0.30983712557E+03  0.52258025042E+03  0.20790086333E+04  0.21659561538E+04  0.25500000920E-02 0. -1.
</event>
<event>
 5   0  0.3118614E-05  0.2267342E+04  0.7818609E-02  0.8490910E-01
       -1   -1    0    0    0  501  0.00000000000E+00  0.00000000000E+00  0.84040791635E+03  0.84040791637E+03  0.50400001928E-02 0.  1.
        1   -1    0    0  501    0  0.00000000000E+00  0.00000000000E+00 -0.15292685202E+04  0.15292685202E+04  0.50400001928E-02 0. -1.
    10030    2    1    2    0    0  0.00000000000E+00  0.00000000000E+00 -0.68886060389E+03  0.23696764366E+04  0.22673415011E+04 0.  0.
        3    1    3    3  502    0 -0.56548518151E+02  0.11057097270E+03 -0.15221374911E+04  0.15271955431E+04  0.10100000352E+00 0. -1.
       -3    1    3    3    0  502  0.56548518151E+02 -0.11057097270E+03  0.83327688722E+03  0.84248089349E+03  0.10100000352E+00 0.  1.
</event>
<event>
 5   0  0.2982385E-05  0.2294820E+04  0.7818609E-02  0.8479966E-01
        1   -1    0    0  501    0  0.00000000000E+00  0.00000000000E+00  0.69516018752E+03  0.69516018753E+03  0.50400001928E-02 0. -1.
       -1   -1    0    0    0  501  0.00000000000E+00  0.00000000000E+00 -0.18938801368E+04  0.18938801368E+04  0.50400001928E-02 0.  1.
    10030    2    1    2    0    0  0.00000000000E+00  0.00000000000E+00 -0.11987199493E+04  0.25890403243E+04  0.22948203163E+04 0.  0.
        4    1    3    3  502    0  0.15967102887E+03  0.46249394483E+03 -0.17702842789E+04  0.18366555277E+04  0.12699999809E+01 0.  1.
       -4    1    3    3    0  502 -0.15967102887E+03 -0.46249394483E+03  0.57156432959E+03  0.75238479665E+03  0.12699999809E+01 0. -1.
</event>
<event>
 5   0  0.6702421E-05  0.2286468E+04  0.7818609E-02  0.8483276E-01
        2   -1    0    0  501    0  0.00000000000E+00  0.00000000000E+00  0.89099992649E+03  0.89099992650E+03  0.25500000920E-02 0.  1.
       -2   -1    0    0    0  501  0.00000000000E+00  0.00000000000E+00 -0.14668727845E+04  0.14668727845E+04  0.25500000920E-02 0. -1.
    10030    2    1    2    0    0  0.00000000000E+00  0.00000000000E+00 -0.57587285797E+03  0.23578727110E+04  0.22864676190E+04 0.  0.
        4    1    3    3  502    0 -0.93652811115E+03  0.48170895244E+03 -0.74663478448E+03  0.12909661235E+04  0.12699999809E+01 0. -1.
       -4    1    3    3    0  502  0.93652811115E+03 -0.48170895244E+03  0.17076192651E+03  0.10669065874E+04  0.12699999809E+01 0.  1.
</event>
<event>
 5   0  0.2982385E-05  0.2317407E+04  0.7818609E-02  0.8471089E-01
       -1   -1    0    0    0  501  0.00000000000E+00  0.00000000000E+00  0.98460373222E+03  0.98460373223E+03  0.50400001928E-02 0.  1.
        1   -1    0    0  501    0  0.00000000000E+00  0.00000000000E+00 -0.13635875169E+04  0.13635875169E+04  0.50400001928E-02 0. -1.
    10030    2    1    2    0    0  0.00000000000E+00  0.00000000000E+00 -0.37898378464E+03  0.23481912491E+04  0.23174066180E+04 0.  0.
        4    1    3    3  502    0  0.32593637089E+03 -0.14014210025E+03  0.92821025484E+03  0.99370529646E+03  0.12699999809E+01 0.  1.
       -4    1    3    3    0  502 -0.32593637089E+03  0.14014210025E+03 -0.13071940395E+04  0.13544859526E+04  0.12699999809E+01 0. -1.
</event>
<event>
 5   0  0.2982385E-05  0.2240492E+04  0.7818609E-02  0.8501761E-01
       -1   -1    0    0    0  501  0.00000000000E+00  0.00000000000E+00  0.54675997444E+03  0.54675997446E+03  0.50400001928E-02 0. -1.
        1   -1    0    0  501    0  0.00000000000E+00  0.00000000000E+00 -0.22952498854E+04  0.22952498854E+04  0.50400001928E-02 0.  1.
    10030    2    1    2    0    0  0.00000000000E+00  0.00000000000E+00 -0.17484899110E+04  0.28420098599E+04  0.22404917038E+04 0.  0.
        4    1    3    3  502    0 -0.20257485208E+03  0.48806432329E+03  0.37872796149E+03  0.65013832072E+03  0.12699999809E+01 0. -1.
       -4    1    3    3    0  502  0.20257485208E+03 -0.48806432329E+03 -0.21272178725E+04  0.21918715392E+04  0.12699999809E+01 0.  1.
</event>
<event>
 5   0  0.2962279E-05  0.2344646E+04  0.7818609E-02  0.8460523E-01
        1   -1    0    0  501    0  0.00000000000E+00  0.00000000000E+00  0.23136659872E+04  0.23136659872E+04  0.50400001928E-02 0. -1.
       -1   -1    0    0    0  501  0.00000000000E+00  0.00000000000E+00 -0.59401022456E+03  0.59401022458E+03  0.50400001928E-02 0.  1.
    10030    2    1    2    0    0  0.00000000000E+00  0.00000000000E+00  0.17196557626E+04  0.29076762118E+04  0.23446460310E+04 0.  0.
        1    1    3    3  502    0 -0.61453315786E+03  0.63353244947E+03  0.18166837055E+04  0.20197410855E+04  0.50400001928E-02 0. -1.
       -1    1    3    3    0  502  0.61453315786E+03 -0.63353244947E+03 -0.97027942918E+02  0.88793512622E+03  0.50400001928E-02 0.  1.
</event>
<event>
 5   0  0.6814789E-05  0.2317500E+04  0.7818609E-02  0.8471053E-01
        2   -1    0    0  501    0  0.00000000000E+00  0.00000000000E+00  0.10807833600E+04  0.10807833600E+04  0.25500000920E-02 0. -1.
       -2   -1    0    0    0  501  0.00000000000E+00  0.00000000000E+00 -0.12423407328E+04  0.12423407328E+04  0.25500000920E-02 0.  1.
    10030    2    1    2    0    0  0.00000000000E+00  0.00000000000E+00 -0.16155737276E+03  0.23231240928E+04  0.23174996798E+04 0.  0.
        1    1    3    3  502    0 -0.90717110685E+03  0.33111527135E+03  0.56116948736E+03  0.11169189467E+04  0.50400001928E-02 0. -1.
       -1    1    3    3    0  502  0.90717110685E+03 -0.33111527135E+03 -0.72272686012E+03  0.12062051461E+04  0.50400001928E-02 0.  1.
</event>
<event>
 5   0  0.3118614E-05  0.2301106E+04  0.7818609E-02  0.8477485E-01
        1   -1    0    0  501    0  0.00000000000E+00  0.00000000000E+00  0.81756286866E+03  0.81756286868E+03  0.50400001928E-02 0. -1.
       -1   -1    0    0    0  501  0.00000000000E+00  0.00000000000E+00 -0.16191693751E+04  0.16191693751E+04  0.50400001928E-02 0.  1.
    10030    2    1    2    0    0  0.00000000000E+00  0.00000000000E+00 -0.80160650645E+03  0.24367322438E+04  0.23011064810E+04 0.  0.
        3    1    3    3  502    0  0.38038623581E+03  0.17735557530E+03  0.73360902112E+03  0.84518098331E+03  0.10100000352E+00 0. -1.
       -3    1    3    3    0  502 -0.38038623581E+03 -0.17735557530E+03 -0.15352155276E+04  0.15915512605E+04  0.10100000352E+00 0.  1.
</event>
<event>
 5   0  0.6676612E-05  0.2289599E+04  0.7818609E-02  0.8482033E-01
       -2   -1    0    0    0  501  0.00000000000E+00  0.00000000000E+00  0.71005025789E+03  0.71005025789E+03  0.25500000920E-02 0. -1.
        2   -1    0    0  501    0  0.00000000000E+00  0.00000000000E+00 -0.18457375360E+04  0.18457375360E+04  0.25500000920E-02 0.  1.
    10030    2    1    2    0    0  0.00000000000E+00  0.00000000000E+00 -0.11356872781E+04  0.25557877939E+04  0.22895994527E+04 0.  0.
        2    1    3    3  502    0  0.78900059241E+03  0.21253471294E+03 -0.14628539372E+04  0.16755997674E+04  0.25500000920E-02 0.  1.
       -2    1    3    3    0  502 -0.78900059241E+03 -0.21253471294E+03  0.32716665912E+03  0.88018802643E+03  0.25500000920E-02 0. -1.
</event>
<event>
 5   0  0.6468758E-05  0.2271345E+04  0.7818609E-02  0.8489306E-01
       -2   -1    0    0    0  501  0.00000000000E+00  0.00000000000E+00  0.10644893377E+04  0.10644893377E+04  0.25500000920E-02 0.  1.
        2   -1    0    0  501    0  0.00000000000E+00  0.00000000000E+00 -0.12116160280E+04  0.12116160280E+04  0.25500000920E-02 0. -1.
    10030    2    1    2    0    0  0.00000000000E+00  0.00000000000E+00 -0.14712669035E+03  0.22761053657E+04  0.22713452781E+04 0.  0.
        3    1    3    3  502    0 -0.72376258006E+03 -0.83574630526E+02  0.79943132614E+03  0.10816225990E+04  0.10100000352E+00 0.  1.
       -3    1    3    3    0  502  0.72376258006E+03  0.83574630526E+02 -0.94655801649E+03  0.11944827667E+04  0.10100000352E+00 0. -1.
</event>
<event>
 5   0  0.2342500E-05  0.2309083E+04  0.7818609E-02  0.8474348E-01
        3   -1    0    0  501    0  0.00000000000E+00  0.00000000000E+00  0.21418629406E+04  0.21418629430E+04  0.10100000352E+00 0.  1.
       -3   -1    0    0    0  501  0.00000000000E+00  0.00000000000E+00 -0.62233956823E+03  0.62233957643E+03  0.10100000352E+00 0. -1.
    10030    2    1    2    0    0  0.00000000000E+00  0.00000000000E+00  0.15195233724E+04  0.27642025194E+04  0.23090829975E+04 0.  0.
        5    1    3    3  502    0 -0.17948899072E+02  0.59664548107E+03 -0.42327081775E+03  0.73177063908E+03  0.46999998093E+01 0. -1.
       -5    1    3    3    0  502  0.17948899072E+02 -0.59664548107E+03  0.19427941901E+04  0.20324318804E+04  0.46999998093E+01 0.  1.
</event>
<event>
 5   0  0.2944089E-05  0.2255263E+04  0.7818609E-02  0.8495772E-01
       -1   -1    0    0    0  501  0.00000000000E+00  0.00000000000E+00  0.60696343418E+03  0.60696343420E+03  0.50400001928E-02 0.  1.
        1   -1    0    0  501    0  0.00000000000E+00  0.00000000000E+00 -0.20949421768E+04  0.20949421768E+04  0.50400001928E-02 0. -1.
    10030    2    1    2    0    0  0.00000000000E+00  0.00000000000E+00 -0.14879787426E+04  0.27019056110E+04  0.22552634419E+04 0.  0.
        5    1    3    3  502    0  0.96118746878E+03 -0.19970992116E+03 -0.14086241696E+04  0.17169768618E+04  0.46999998093E+01 0. -1.
       -5    1    3    3    0  502 -0.96118746878E+03  0.19970992116E+03 -0.79354573009E+02  0.98492874920E+03  0.46999998093E+01 0.  1.
</event>
<event>
 5   0  0.6702421E-05  0.2223377E+04  0.7818609E-02  0.8508761E-01
        2   -1    0    0  501    0  0.00000000000E+00  0.00000000000E+00  0.24229197339E+04  0.24229197339E+04  0.25500000920E-02 0.  1.
       -2   -1    0    0    0  501  0.00000000000E+00  0.00000000000E+00 -0.51006692445E+03  0.51006692446E+03  0.25500000920E-02 0. -1.
    10030    2    1    2    0    0  0.00000000000E+00  0.00000000000E+00  0.19128528095E+04  0.29329866584E+04  0.22233769063E+04 0.  0.
        4    1    3    3  502    0 -0.12813245624E+02 -0.13730136459E+03 -0.49873987445E+03  0.51745426778E+03  0.12699999809E+01 0. -1.
       -4    1    3    3    0  502  0.12813245624E+02  0.13730136459E+03  0.24115926839E+04  0.24155323906E+04  0.12699999809E+01 0.  1.
</event>
<event>
 5   0  0.6702421E-05  0.2254924E+04  0.7818609E-02  0.8495909E-01
       -2   -1    0    0    0  501  0.00000000000E+00  0.00000000000E+00  0.92232745418E+03  0.92232745418E+03  0.25500000920E-02 0. -1.
        2   -1    0    0  501    0  0.00000000000E+00  0.00000000000E+00 -0.13782209314E+04  0.13782209314E+04  0.25500000920E-02 0.  1.
    10030    2    1    2    0    0  0.00000000000E+00  0.00000000000E+00 -0.45589347726E+03  0.23005483856E+04  0.22549243916E+04 0.  0.
        4    1    3    3  502    0 -0.94303712834E+03  0.49486099768E+03  0.14962627852E+03  0.10754515650E+04  0.12699999809E+01 0. -1.
       -4    1    3    3    0  502  0.94303712834E+03 -0.49486099768E+03 -0.60551975578E+03  0.12250968207E+04  0.12699999809E+01 0.  1.
</event>
<event>
 5   0  0.6676612E-05  0.2286668E+04  0.7818609E-02  0.8483196E-01
        2   -1    0    0  501    0  0.00000000000E+00  0.00000000000E+00  0.15913181170E+04  0.15913181170E+04  0.25500000920E-02 0. -1.
       -2   -1    0    0    0  501  0.00000000000E+00  0.00000000000E+00 -0.82146554420E+03  0.82146554421E+03  0.25500000920E-02 0.  1.
    10030    2    1    2    0    0  0.00000000000E+00  0.00000000000E+00  0.76985257283E+03  0.24127836612E+04  0.22866683214E+04 0.  0.
        2    1    3    3  502    0  0.46391155866E+03 -0.53766625467E+03 -0.56054804233E+03  0.90471710685E+03  0.25500000920E-02 0.  1.
       -2    1    3    3    0  502 -0.46391155866E+03  0.53766625467E+03  0.13304006152E+04  0.15080665544E+04  0.25500000920E-02 0. -1.
</event>
<event>
 5   0  0.2944089E-05  0.2333338E+04  0.7818609E-02  0.8464891E-01
        1   -1    0    0  501    0  0.00000000000E+00  0.00000000000E+00  0.12370691806E+04  0.12370691806E+04  0.50400001928E-02 0. -1.
       -1   -1    0    0    0  501  0.00000000000E+00  0.00000000000E+00 -0.11002748360E+04  0.11002748360E+04  0.50400001928E-02 0.  1.
    10030    2    1    2    0    0  0.00000000000E+00  0.00000000000E+00  0.13679434465E+03  0.23373440166E+04  0.23333376008E+04 0.  0.
        5    1    3    3  502    0  0.86717660562E+03 -0.77779912975E+03  0.13275114383E+03  0.11724383599E+04  0.46999998093E+01 0. -1.
       -5    1    3    3    0  502 -0.86717660562E+03  0.77779912975E+03  0.40432008136E+01  0.11649056567E+04  0.46999998093E+01 0.  1.
</event>
<event>
 5   0  0.6468758E-05  0.2286354E+04  0.7818609E-02  0.8483321E-01
        2   -1    0    0  501    0  0.00000000000E+00  0.00000000000E+00  0.16547631304E+04  0.16547631304E+04  0.25500000920E-02 0. -1.
       -2   -1    0    0    0  501  0.00000000000E+00  0.00000000000E+00 -0.78975304267E+03  0.78975304267E+03  0.25500000920E-02 0.  1.
    10030    2    1    2    0    0  0.00000000000E+00  0.00000000000E+00  0.86501008775E+03  0.24445161731E+04  0.22863544932E+04 0.  0.
        3    1    3    3  502    0  0.10086245642E+04 -0.30620357310E+03  0.90557186817E+03  0.13896562734E+04  0.10100000352E+00 0. -1.
       -3    1    3    3    0  502 -0.10086245642E+04  0.30620357310E+03 -0.40561780419E+02  0.10548598997E+04  0.10100000352E+00 0.  1.
</event>
<event>
 5   0  0.2342500E-05  0.2287528E+04  0.7818609E-02  0.8482855E-01
       -3   -1    0    0    0  501  0.00000000000E+00  0.00000000000E+00  0.14566944186E+04  0.14566944221E+04  0.10100000352E+00 0.  1.
        3   -1    0    0  501    0  0.00000000000E+00  0.00000000000E+00 -0.89805835263E+03  0.89805835831E+03  0.10100000352E+00 0. -1.
    10030    2    1    2    0    0  0.00000000000E+00  0.00000000000E+00  0.55863606595E+03  0.23547527804E+04  0.22875284485E+04 0.  0.
        4    1    3    3  502    0  0.51547050787E+03  0.68172623766E+03  0.10617434651E+04  0.13629971776E+04  0.12699999809E+01 0.  1.
       -4    1    3    3    0  502 -0.51547050787E+03 -0.68172623766E+03 -0.50310739918E+03  0.99175560276E+03  0.12699999809E+01 0. -1.
</event>
<event>
 5   0  0.3118614E-05  0.2288878E+04  0.7818609E-02  0.8482319E-01
       -1   -1    0    0    0  501  0.00000000000E+00  0.00000000000E+00  0.10371713017E+04  0.10371713017E+04  0.50400001928E-02 0.  1.
        1   -1    0    0  501    0  0.00000000000E+00  0.00000000000E+00 -0.12628009816E+04  0.12628009816E+04  0.50400001928E-02 0. -1.
    10030    2    1    2    0    0  0.00000000000E+00  0.00000000000E+00 -0.22562967986E+03  0.22999722833E+04  0.22888782736E+04 0.  0.
        3    1    3    3  502    0 -0.10999377226E+04 -0.14974706920E+03 -0.39246889963E+03  0.11774204966E+04  0.10100000352E+00 0. -1.
       -3    1    3    3    0  502  0.10999377226E+04  0.14974706920E+03  0.16683921977E+03  0.11225517867E+04  0.10100000352E+00 0.  1.
</event>
<event>
 5   0  0.2342500E-05  0.2285390E+04  0.7818609E-02  0.8483704E-01
        3   -1    0    0  501    0  0.00000000000E+00  0.00000000000E+00  0.10188900758E+04  0.10188900808E+04  0.10100000352E+00 0. -1.
       -3   -1    0    0    0  501  0.00000000000E+00  0.00000000000E+00 -0.12815435989E+04  0.12815436028E+04  0.10100000352E+00 0.  1.
    10030    2    1    2    0    0  0.00000000000E+00  0.00000000000E+00 -0.26265352307E+03  0.23004336836E+04  0.22853901767E+04 0.  0.
        1    1    3    3  502    0  0.11029136742E+04  0.43155101948E+02 -0.42902874510E+03  0.11842071608E+04  0.50400001928E-02 0.  1.
       -1    1    3    3    0  502 -0.11029136742E+04 -0.43155101948E+02  0.16637522203E+03  0.11162265228E+04  0.50400001928E-02 0. -1.
</event>
<event>
 5   0  0.6702421E-05  0.2299957E+04  0.7818609E-02  0.8477938E-01
        2   -1    0    0  501    0  0.00000000000E+00  0.00000000000E+00  0.13491083561E+04  0.13491083561E+04  0.25500000920E-02 0.  1.
       -2   -1    0    0    0  501  0.00000000000E+00  0.00000000000E+00 -0.98024038117E+03  0.98024038117E+03  0.25500000920E-02 0. -1.
    10030    2    1    2    0    0  0.00000000000E+00  0.00000000000E+00  0.36886797497E+03  0.23293487373E+04  0.22999569468E+04 0.  0.
        4    1    3    3  502    0  0.46777314048E+03 -0.92039363794E+03 -0.32850918934E+03  0.10834463808E+04  0.12699999809E+01 0. -1.
       -4    1    3    3    0  502 -0.46777314048E+03  0.92039363794E+03  0.69737716431E+03  0.12459023565E+04  0.12699999809E+01 0.  1.
</event>
<event>
 5   0  0.2982385E-05  0.2184931E+04  0.7818609E-02  0.8524726E-01
       -1   -1    0    0    0  501  0.00000000000E+00  0.00000000000E+00  0.24910056450E+04  0.24910056450E+04  0.50400001928E-02 0.  1.
        1   -1    0    0  501    0  0.00000000000E+00  0.00000000000E+00 -0.47911627437E+03  0.47911627440E+03  0.50400001928E-02 0. -1.
    10030    2    1    2    0    0  0.00000000000E+00  0.00000000000E+00  0.20118893706E+04  0.29701219194E+04  0.21849314352E+04 0.  0.
        4    1    3    3  502    0  0.24117441464E+03  0.56948189336E+03  0.22301330046E+04  0.23142967736E+04  0.12699999809E+01 0.  1.
       -4    1    3    3    0  502 -0.24117441464E+03 -0.56948189336E+03 -0.21824363401E+03  0.65582514577E+03  0.12699999809E+01 0. -1.
</event>
<event>
 5   0  0.3118614E-05  0.2283217E+04  0.7818609E-02  0.8484568E-01
        1   -1    0    0  501    0  0.00000000000E+00  0.00000000000E+00  0.21761657355E+04  0.21761657355E+04  0.50400001928E-02 0. -1.
       -1   -1    0    0    0  501  0.00000000000E+00  0.00000000000E+00 -0.59888382318E+03  0.59888382321E+03  0.50400001928E-02 0.  1.
    10030    2    1    2    0    0  0.00000000000E+00  0.00000000000E+00  0.15772819123E+04  0.27750495587E+04  0.22832174277E+04 0.  0.
        3    1    3    3  502    0  0.97058198738E+03 -0.57113224395E+03  0.10161828441E+04  0.15168549756E+04  0.10100000352E+00 0. -1.
       -3    1    3    3    0  502 -0.97058198738E+03  0.57113224395E+03  0.56109906823E+03  0.12581945831E+04  0.10100000352E+00 0.  1.
</event>
<event>
 5   0  0.6676612E-05  0.2312370E+04  0.7818609E-02  0.8473060E-01
        2   -1    0    0  501    0  0.00000000000E+00  0.00000000000E+00  0.11575520512E+04  0.11575520512E+04  0.25500000920E-02 0. -1.
       -2   -1    0    0    0  501  0.00000000000E+00  0.00000000000E+00 -0.11548193969E+04  0.11548193969E+04  0.25500000920E-02 0.  1.
    10030    2    1    2    0    0  0.00000000000E+00  0.00000000000E+00  0.27326542693E+01  0.23123714482E+04  0.23123698335E+04 0.  0.
        2    1    3    3  502    0  0.32111614497E+03 -0.10406359149E+04 -0.38686696129E+03  0.11557269278E+04  0.25500000920E-02 0.  1.
       -2    1    3    3    0  502 -0.32111614497E+03  0.10406359149E+04  0.38959961556E+03  0.11566445203E+04  0.25500000920E-02 0. -1.
</event>
<event>
 5   0  0.3118614E-05  0.1667587E+04  0.7818609E-02  0.8780070E-01
       -1   -1    0    0    0  501  0.00000000000E+00  0.00000000000E+00  0.56478061095E+03  0.56478061097E+03  0.50400001928E-02 0.  1.
        1   -1    0    0  501    0  0.00000000000E+00  0.00000000000E+00 -0.12309413948E+04  0.12309413948E+04  0.50400001928E-02 0. -1.
    10030    2    1    2    0    0  0.00000000000E+00  0.00000000000E+00 -0.66616078386E+03  0.17957220058E+04  0.16675872787E+04 0.  0.
        3    1    3    3  502    0 -0.29993772706E+03  0.50407796948E+03  0.30503570777E+03  0.66113843682E+03  0.10100000352E+00 0.  1.
       -3    1    3    3    0  502  0.29993772706E+03 -0.50407796948E+03 -0.97119649163E+03  0.11345835690E+04  0.10100000352E+00 0. -1.
</event>
<event>
 5   0  0.6702421E-05  0.2185399E+04  0.7818609E-02  0.8524530E-01
       -2   -1    0    0    0  501  0.00000000000E+00  0.00000000000E+00  0.15331388798E+04  0.15331388798E+04  0.25500000920E-02 0.  1.
        2   -1    0    0  501    0  0.00000000000E+00  0.00000000000E+00 -0.77878918851E+03  0.77878918851E+03  0.25500000920E-02 0. -1.
    10030    2    1    2    0    0  0.00000000000E+00  0.00000000000E+00  0.75434969129E+03  0.23119280683E+04  0.21853988049E+04 0.  0.
        4    1    3    3  502    0 -0.78436324635E+03 -0.60646317556E+03  0.86307939823E+03  0.13145078722E+04  0.12699999809E+01 0.  1.
       -4    1    3    3    0  502  0.78436324635E+03  0.60646317556E+03 -0.10872970693E+03  0.99742019611E+03  0.12699999809E+01 0. -1.
</event>
<event>
 5   0  0.6814789E-05  0.2378032E+04  0.7818609E-02  0.8447774E-01
       -2   -1    0    0    0  501  0.00000000000E+00  0.00000000000E+00  0.69828503916E+03  0.69828503916E+03  0.25500000920E-02 0.  1.
        2   -1    0    0  501    0  0.00000000000E+00  0.00000000000E+00 -0.20246167111E+04  0.20246167111E+04  0.25500000920E-02 0. -1.
    10030    2    1    2    0    0  0.00000000000E+00  0.00000000000E+00 -0.13263316719E+04  0.27229017502E+04  0.23780324299E+04 0.  0.
        1    1    3    3  502    0 -0.69647617539E+03  0.82818209692E+03 -0.12273670130E+04  0.16362745592E+04  0.50400001928E-02 0. -1.
       -1    1    3    3    0  502  0.69647617539E+03 -0.82818209692E+03 -0.98964658939E+02  0.10866271910E+04  0.50400001928E-02 0.  1.
</event>
<event>
 5   0  0.6814789E-05  0.2495213E+04  0.7818609E-02  0.8404693E-01
       -2   -1    0    0    0  501  0.00000000000E+00  0.00000000000E+00  0.95157864081E+03  0.95157864081E+03  0.25500000920E-02 0. -1.
        2   -1    0    0  501    0  0.00000000000E+00  0.00000000000E+00 -0.16357255157E+04  0.16357255157E+04  0.25500000920E-02 0.  1.
    10030    2    1    2    0    0  0.00000000000E+00  0.00000000000E+00 -0.68414687493E+03  0.25873041566E+04  0.24952125865E+04 0.  0.
        1    1    3    3  502    0 -0.96982281165E+03  0.73372023302E+03 -0.53187644658E+02  0.12172635671E+04  0.50400001928E-02 0. -1.
       -1    1    3    3    0  502  0.96982281165E+03 -0.73372023302E+03 -0.63095923028E+03  0.13700405894E+04  0.50400001928E-02 0.  1.
</event>
<event>
 5   0  0.6468758E-05  0.2228040E+04  0.7818609E-02  0.8506847E-01
       -2   -1    0    0    0  501  0.00000000000E+00  0.00000000000E+00  0.27593460926E+04  0.27593460926E+04  0.25500000920E-02 0. -1.
        2   -1    0    0  501    0  0.00000000000E+00  0.00000000000E+00 -0.44975886444E+03  0.44975886445E+03  0.25500000920E-02 0.  1.
    10030    2    1    2    0    0  0.00000000000E+00  0.00000000000E+00  0.23095872282E+04  0.32091049571E+04  0.22280398248E+04 0.  0.
        3    1    3    3  502    0 -0.15304942575E+02  0.24346947600E+03  0.27204019135E+04  0.27313180350E+04  0.10100000352E+00 0. -1.
       -3    1    3    3    0  502  0.15304942575E+02 -0.24346947600E+03 -0.41081468535E+03  0.47778692208E+03  0.10100000352E+00 0.  1.
</event>
<event>
 5   0  0.6495405E-05  0.2230869E+04  0.7818609E-02  0.8505689E-01
       -2   -1    0    0    0  501  0.00000000000E+00  0.00000000000E+00  0.32648814724E+04  0.32648814724E+04  0.25500000920E-02 0. -1.
        2   -1    0    0  501    0  0.00000000000E+00  0.00000000000E+00 -0.38108397794E+03  0.38108397795E+03  0.25500000920E-02 0.  1.
    10030    2    1    2    0    0  0.00000000000E+00  0.00000000000E+00  0.28837974944E+04  0.36459654503E+04  0.22308689061E+04 0.  0.
        5    1    3    3  502    0 -0.63084538673E+03  0.47675224610E+02  0.29432852557E+04  0.30105130817E+04  0.46999998093E+01 0. -1.
       -5    1    3    3    0  502  0.63084538673E+03 -0.47675224610E+02 -0.59487761255E+02  0.63545236858E+03  0.46999998093E+01 0.  1.
</event>
<event>
 5   0  0.3118614E-05  0.2233980E+04  0.7818609E-02  0.8504417E-01
        1   -1    0    0  501    0  0.00000000000E+00  0.00000000000E+00  0.15306728066E+04  0.15306728066E+04  0.50400001928E-02 0.  1.
       -1   -1    0    0    0  501  0.00000000000E+00  0.00000000000E+00 -0.81510966029E+03  0.81510966030E+03  0.50400001928E-02 0. -1.
    10030    2    1    2    0    0  0.00000000000E+00  0.00000000000E+00  0.71556314628E+03  0.23457824669E+04  0.22339795804E+04 0.  0.
        3    1    3    3  502    0  0.35021492038E+03  0.25306399335E+03  0.14393673562E+04  0.15028207716E+04  0.10100000352E+00 0.  1.
       -3    1    3    3    0  502 -0.35021492038E+03 -0.25306399335E+03 -0.72380420994E+03  0.84296169528E+03  0.10100000352E+00 0. -1.
</event>
<event>
 5   0  0.2982385E-05  0.2310896E+04  0.7818609E-02  0.8473637E-01
        1   -1    0    0  501    0  0.00000000000E+00  0.00000000000E+00  0.14595792512E+04  0.14595792512E+04  0.50400001928E-02 0.  1.
       -1   -1    0    0    0  501  0.00000000000E+00  0.00000000000E+00 -0.91468841465E+03  0.91468841466E+03  0.50400001928E-02 0. -1.
    10030    2    1    2    0    0  0.00000000000E+00  0.00000000000E+00  0.54489083653E+03  0.23742676659E+04  0.23108961304E+04 0.  0.
        4    1    3    3  502    0  0.57039264772E+03 -0.91352983689E+03  0.70246098657E+03  0.12858217551E+04  0.12699999809E+01 0.  1.
       -4    1    3    3    0  502 -0.57039264772E+03  0.91352983689E+03 -0.15757015004E+03  0.10884459107E+04  0.12699999809E+01 0. -1.
</event>
<event>
 5   0  0.6702421E-05  0.2260299E+04  0.7818609E-02  0.8493741E-01
       -2   -1    0    0    0  501  0.00000000000E+00  0.00000000000E+00  0.67845682028E+03  0.67845682028E+03  0.25500000920E-02 0. -1.
        2   -1    0    0  501    0  0.00000000000E+00  0.00000000000E+00 -0.18825639526E+04  0.18825639526E+04  0.25500000920E-02 0.  1.
    10030    2    1    2    0    0  0.00000000000E+00  0.00000000000E+00 -0.12041071324E+04  0.25610207729E+04  0.22602994079E+04 0.  0.
        4    1    3    3  502    0 -0.14301219545E+03  0.78988350966E+03 -0.15034250179E+04  0.17043053847E+04  0.12699999809E+01 0.  1.
       -4    1    3    3    0  502  0.14301219545E+03 -0.78988350966E+03  0.29931788558E+03  0.85671538821E+03  0.12699999809E+01 0. -1.
</event>
<event>
 5   0  0.3118614E-05  0.2311885E+04  0.7818609E-02  0.8473250E-01
        1   -1    0    0  501    0  0.00000000000E+00  0.00000000000E+00  0.93062548305E+03  0.93062548306E+03  0.50400001928E-02 0. -1.
       -1   -1    0    0    0  501  0.00000000000E+00  0.00000000000E+00 -0.14358113152E+04  0.14358113152E+04  0.50400001928E-02 0.  1.
    10030    2    1    2    0    0  0.00000000000E+00  0.00000000000E+00 -0.50518583215E+03  0.23664367983E+04  0.23118845982E+04 0.  0.
        3    1    3    3  502    0  0.17721025165E+03 -0.12541974777E+03  0.90956953882E+03  0.93512049629E+03  0.10100000352E+00 0. -1.
       -3    1    3    3    0  502 -0.17721025165E+03  0.12541974777E+03 -0.14147553710E+04  0.14313163020E+04  0.10100000352E+00 0.  1.
</event>
<event>
 5   0  0.3006265E-05  0.2340320E+04  0.7818609E-02  0.8462191E-01
       -1   -1    0    0    0  501  0.00000000000E+00  0.00000000000E+00  0.79415759088E+03  0.79415759089E+03  0.50400001928E-02 0.  1.
        1   -1    0    0  501    0  0.00000000000E+00  0.00000000000E+00 -0.17241842504E+04  0.17241842504E+04  0.50400001928E-02 0. -1.
    10030    2    1    2    0    0  0.00000000000E+00  0.00000000000E+00 -0.93002665949E+03  0.25183418413E+04  0.23403196453E+04 0.  0.
        2    1    3    3  502    0  0.29308946437E+03  0.64946531184E+03  0.53379953646E+03  0.89030813236E+03  0.25500000920E-02 0.  1.
       -2    1    3    3    0  502 -0.29308946437E+03 -0.64946531184E+03 -0.14638261959E+04  0.16280337089E+04  0.25500000920E-02 0. -1.
</event>
<event>
 5   0  0.3118614E-05  0.1935260E+04  0.7818609E-02  0.8637502E-01
       -1   -1    0    0    0  501  0.00000000000E+00  0.00000000000E+00  0.16974902699E+04  0.16974902699E+04  0.50400001928E-02 0. -1.
        1   -1    0    0  501    0  0.00000000000E+00  0.00000000000E+00 -0.55158344394E+03  0.55158344396E+03  0.50400001928E-02 0.  1.
    10030    2    1    2    0    0  0.00000000000E+00  0.00000000000E+00  0.11459068260E+04  0.22490737139E+04  0.19352597026E+04 0.  0.
        3    1    3    3  502    0 -0.51228765613E+03  0.81410356901E+03  0.45048921161E+03  0.10621411411E+04  0.10100000352E+00 0.  1.
       -3    1    3    3    0  502  0.51228765613E+03 -0.81410356901E+03  0.69541761436E+03  0.11869325728E+04  0.10100000352E+00 0. -1.
</event>
<event>
 5   0  0.3118614E-05  0.2271822E+04  0.7818609E-02  0.8489115E-01
       -1   -1    0    0    0  501  0.00000000000E+00  0.00000000000E+00  0.13931848810E+04  0.13931848810E+04  0.50400001928E-02 0. -1.
        1   -1    0    0  501    0  0.00000000000E+00  0.00000000000E+00 -0.92614691550E+03  0.92614691551E+03  0.50400001928E-02 0.  1.
    10030    2    1    2    0    0  0.00000000000E+00  0.00000000000E+00  0.46703796551E+03  0.23193317965E+04  0.22718220708E+04 0.  0.
        3    1    3    3  502    0  0.38620561796E+02 -0.90788710682E+03 -0.46230866189E+03  0.10195488490E+04  0.10100000352E+00 0.  1.
       -3    1    3    3    0  502 -0.38620561796E+02  0.90788710682E+03  0.92934662740E+03  0.12997829475E+04  0.10100000352E+00 0. -1.
</event>
<event>
 5   0  0.2944089E-05  0.2421005E+04  0.7818609E-02  0.8431681E-01
       -1   -1    0    0    0  501  0.00000000000E+00  0.00000000000E+00  0.99889100063E+03  0.99889100064E+03  0.50400001928E-02 0. -1.
        1   -1    0    0  501    0  0.00000000000E+00  0.00000000000E+00 -0.14669434109E+04  0.14669434109E+04  0.50400001928E-02 0.  1.
    10030    2    1    2    0    0  0.00000000000E+00  0.00000000000E+00 -0.46805241026E+03  0.24658344115E+04  0.24210052223E+04 0.  0.
        5    1    3    3  502    0  0.10462882168E+04 -0.59442168249E+03 -0.36775211326E+03  0.12583003918E+04  0.46999998093E+01 0. -1.
       -5    1    3    3    0  502 -0.10462882168E+04  0.59442168249E+03 -0.10030029700E+03  0.12075340197E+04  0.46999998093E+01 0.  1.
</event>
<event>
 5   0  0.3006265E-05  0.2104936E+04  0.7818609E-02  0.8559072E-01
       -1   -1    0    0    0  501  0.00000000000E+00  0.00000000000E+00  0.90943257991E+03  0.90943257992E+03  0.50400001928E-02 0. -1.
        1   -1    0    0  501    0  0.00000000000E+00  0.00000000000E+00 -0.12180002741E+04  0.12180002741E+04  0.50400001928E-02 0.  1.
    10030    2    1    2    0    0  0.00000000000E+00  0.00000000000E+00 -0.30856769423E+03  0.21274328541E+04  0.21049362286E+04 0.  0.
        2    1    3    3  502    0  0.15325627037E+03 -0.21836327302E+01  0.89809229834E+03  0.91107740012E+03  0.25500000920E-02 0. -1.
       -2    1    3    3    0  502 -0.15325627037E+03  0.21836327302E+01 -0.12066599926E+04  0.12163554539E+04  0.25500000920E-02 0.  1.
</event>
<event>
 5   0  0.3006265E-05  0.2307644E+04  0.7818609E-02  0.8474913E-01
       -1   -1    0    0    0  501  0.00000000000E+00  0.00000000000E+00  0.13288108691E+04  0.13288108691E+04  0.50400001928E-02 0. -1.
        1   -1    0    0  501    0  0.00000000000E+00  0.00000000000E+00 -0.10018775239E+04  0.10018775239E+04  0.50400001928E-02 0.  1.
    10030    2    1    2    0    0  0.00000000000E+00  0.00000000000E+00  0.32693334522E+03  0.23306883930E+04  0.23076444641E+04 0.  0.
        2    1    3    3  502    0 -0.44095155878E+03  0.58636951110E+02  0.12387242418E+04  0.13161741209E+04  0.25500000920E-02 0. -1.
       -2    1    3    3    0  502  0.44095155878E+03 -0.58636951110E+02 -0.91179089656E+03  0.10145142721E+04  0.25500000920E-02 0.  1.
</event>
<event>
 5   0  0.6495405E-05  0.2283182E+04  0.7818609E-02  0.8484582E-01
       -2   -1    0    0    0  501  0.00000000000E+00  0.00000000000E+00  0.57400830095E+03  0.57400830096E+03  0.25500000920E-02 0.  1.
        2   -1    0    0  501    0  0.00000000000E+00  0.00000000000E+00 -0.22704023212E+04  0.22704023212E+04  0.25500000920E-02 0. -1.
    10030    2    1    2    0    0  0.00000000000E+00  0.00000000000E+00 -0.16963940202E+04  0.28444106221E+04  0.22831817964E+04 0.  0.
        5    1    3    3  502    0 -0.41665615040E+03 -0.70685577974E+03 -0.18369968131E+04  0.20119211769E+04  0.46999998093E+01 0. -1.
       -5    1    3    3    0  502  0.41665615040E+03  0.70685577974E+03  0.14060279284E+03  0.83248944520E+03  0.46999998093E+01 0.  1.
</event>
<event>
 5   0  0.3118614E-05  0.1782141E+04  0.7818609E-02  0.8715854E-01
        1   -1    0    0  501    0  0.00000000000E+00  0.00000000000E+00  0.18482606802E+04  0.18482606802E+04  0.50400001928E-02 0.  1.
       -1   -1    0    0    0  501  0.00000000000E+00  0.00000000000E+00 -0.42959690854E+03  0.42959690857E+03  0.50400001928E-02 0. -1.
    10030    2    1    2    0    0  0.00000000000E+00  0.00000000000E+00  0.14186637716E+04  0.22778575887E+04  0.17821414921E+04 0.  0.
        3    1    3    3  502    0  0.45016094097E+03  0.66165959843E+03  0.12102143599E+04  0.14508814921E+04  0.10100000352E+00 0.  1.
       -3    1    3    3    0  502 -0.45016094097E+03 -0.66165959843E+03  0.20844941169E+03  0.82697609664E+03  0.10100000352E+00 0. -1.
</event>
<event>
 5   0  0.6495405E-05  0.2295819E+04  0.7818609E-02  0.8479572E-01
       -2   -1    0    0    0  501  0.00000000000E+00  0.00000000000E+00  0.12646551957E+04  0.12646551957E+04  0.25500000920E-02 0. -1.
        2   -1    0    0  501    0  0.00000000000E+00  0.00000000000E+00 -0.10419408285E+04  0.10419408285E+04  0.25500000920E-02 0.  1.
    10030    2    1    2    0    0  0.00000000000E+00  0.00000000000E+00  0.22271436719E+03  0.23065960242E+04  0.22958187057E+04 0.  0.
        5    1    3    3  502    0  0.57548300928E+02  0.11314801661E+04  0.29692566461E+03  0.11712156563E+04  0.46999998093E+01 0. -1.
       -5    1    3    3    0  502 -0.57548300928E+02 -0.11314801661E+04 -0.74211297415E+02  0.11353803679E+04  0.46999998093E+01 0.  1.
</event>
<event>
 5   0  0.3118614E-05  0.2303654E+04  0.7818609E-02  0.8476482E-01
       -1   -1    0    0    0  501  0.00000000000E+00  0.00000000000E+00  0.11274253850E+04  0.11274253850E+04  0.50400001928E-02 0. -1.
        1   -1    0    0  501    0  0.00000000000E+00  0.00000000000E+00 -0.11767570612E+04  0.11767570612E+04  0.50400001928E-02 0.  1.
    10030    2    1    2    0    0  0.00000000000E+00  0.00000000000E+00 -0.49331676277E+02  0.23041824462E+04  0.23036542994E+04 0.  0.
        3    1    3    3  502    0 -0.30991768925E+03  0.23822649505E+03  0.10590514992E+04  0.11288892440E+04  0.10100000352E+00 0. -1.
       -3    1    3    3    0  502  0.30991768925E+03 -0.23822649505E+03 -0.11083831755E+04  0.11752932022E+04  0.10100000352E+00 0.  1.
</event>
<event>
 5   0  0.6702421E-05  0.2417013E+04  0.7818609E-02  0.8433161E-01
       -2   -1    0    0    0  501  0.00000000000E+00  0.00000000000E+00  0.16281144562E+04  0.16281144562E+04  0.25500000920E-02 0. -1.
        2   -1    0    0  501    0  0.00000000000E+00  0.00000000000E+00 -0.89704262525E+03  0.89704262526E+03  0.25500000920E-02 0.  1.
    10030    2    1    2    0    0  0.00000000000E+00  0.00000000000E+00  0.73107183092E+03  0.25251570814E+04  0.24170130872E+04 0.  0.
        4    1    3    3  502    0 -0.87372941786E+03  0.50901878692E+03 -0.32587803726E+03  0.10624035623E+04  0.12699999809E+01 0. -1.
       -4    1    3    3    0  502  0.87372941786E+03 -0.50901878692E+03  0.10569498682E+04  0.14627535192E+04  0.12699999809E+01 0.  1.
</event>
<event>
 5   0  0.2982385E-05  0.2295230E+04  0.7818609E-02  0.8479804E-01
        1   -1    0    0  501    0  0.00000000000E+00  0.00000000000E+00  0.12264221115E+04  0.12264221115E+04  0.50400001928E-02 0.  1.
       -1   -1    0    0    0  501  0.00000000000E+00  0.00000000000E+00 -0.10738718731E+04  0.10738718731E+04  0.50400001928E-02 0. -1.
    10030    2    1    2    0    0  0.00000000000E+00  0.00000000000E+00  0.15255023835E+03  0.23002939846E+04  0.22952300191E+04 0.  0.
        4    1    3    3  502    0 -0.10630757301E+04  0.11395207065E+03 -0.34166234971E+03  0.11224303348E+04  0.12699999809E+01 0. -1.
       -4    1    3    3    0  502  0.10630757301E+04 -0.11395207065E+03  0.49421258806E+03  0.11778636498E+04  0.12699999809E+01 0.  1.
</event>
<event>
 5   0  0.6702421E-05  0.2351972E+04  0.7818609E-02  0.8457707E-01
        2   -1    0    0  501    0  0.00000000000E+00  0.00000000000E+00  0.12998845964E+04  0.12998845964E+04  0.25500000920E-02 0.  1.
       -2   -1    0    0    0  501  0.00000000000E+00  0.00000000000E+00 -0.10638966971E+04  0.10638966971E+04  0.25500000920E-02 0. -1.
    10030    2    1    2    0    0  0.00000000000E+00  0.00000000000E+00  0.23598789929E+03  0.23637812936E+04  0.23519718781E+04 0.  0.
        4    1    3    3  502    0 -0.29940133167E+03 -0.17112353006E+02 -0.10248203331E+04  0.10677978825E+04  0.12699999809E+01 0. -1.
       -4    1    3    3    0  502  0.29940133167E+03  0.17112353006E+02  0.12608082323E+04  0.12959834110E+04  0.12699999809E+01 0.  1.
</event>
<event>
 5   0  0.6676612E-05  0.2105830E+04  0.7818609E-02  0.8558680E-01
       -2   -1    0    0    0  501  0.00000000000E+00  0.00000000000E+00  0.66351585754E+03  0.66351585755E+03  0.25500000920E-02 0. -1.
        2   -1    0    0  501    0  0.00000000000E+00  0.00000000000E+00 -0.16708419320E+04  0.16708419320E+04  0.25500000920E-02 0.  1.
    10030    2    1    2    0    0  0.00000000000E+00  0.00000000000E+00 -0.10073260745E+04  0.23343577896E+04  0.21058301141E+04 0.  0.
        2    1    3    3  502    0 -0.78780896461E+03 -0.62435275362E+03 -0.85098739100E+03  0.13170568952E+04  0.25500000920E-02 0.  1.
       -2    1    3    3    0  502  0.78780896461E+03  0.62435275362E+03 -0.15633868350E+03  0.10173008943E+04  0.25500000920E-02 0. -1.
</event>
<event>
 5   0  0.2962279E-05  0.2219667E+04  0.7818609E-02  0.8510287E-01
       -1   -1    0    0    0  501  0.00000000000E+00  0.00000000000E+00  0.26958824250E+04  0.26958824250E+04  0.50400001928E-02 0. -1.
        1   -1    0    0  501    0  0.00000000000E+00  0.00000000000E+00 -0.45689328913E+03  0.45689328916E+03  0.50400001928E-02 0.  1.
    10030    2    1    2    0    0  0.00000000000E+00  0.00000000000E+00  0.22389891359E+04  0.31527757142E+04  0.22196671717E+04 0.  0.
        1    1    3    3  502    0  0.10591746525E+04 -0.32122865306E+03  0.12356866599E+04  0.16589033467E+04  0.50400001928E-02 0. -1.
       -1    1    3    3    0  502 -0.10591746525E+04  0.32122865306E+03  0.10033024760E+04  0.14938723675E+04  0.50400001928E-02 0.  1.
</event>
<event>
 5   0  0.2342500E-05  0.2304002E+04  0.7818609E-02  0.8476345E-01
        3   -1    0    0  501    0  0.00000000000E+00  0.00000000000E+00  0.12352233496E+04  0.12352233538E+04  0.10100000352E+00 0. -1.
       -3   -1    0    0    0  501  0.00000000000E+00  0.00000000000E+00 -0.10743857807E+04  0.10743857854E+04  0.10100000352E+00 0.  1.
    10030    2    1    2    0    0  0.00000000000E+00  0.00000000000E+00  0.16083756895E+03  0.23096091392E+04  0.23040020947E+04 0.  0.
        3    1    3    3  502    0  0.23020223204E+03  0.30684968376E+03  0.11693203895E+04  0.12306339747E+04  0.10100000352E+00 0. -1.
       -3    1    3    3    0  502 -0.23020223204E+03 -0.30684968376E+03 -0.10084828206E+04  0.10789751645E+04  0.10100000352E+00 0.  1.
</event>
<event>
 5   0  0.2962279E-05  0.2321436E+04  0.7818609E-02  0.8469517E-01
        1   -1    0    0  501    0  0.00000000000E+00  0.00000000000E+00  0.26105889533E+04  0.26105889533E+04  0.50400001928E-02 0. -1.
       -1   -1    0    0    0  501  0.00000000000E+00  0.00000000000E+00 -0.51607750343E+03  0.51607750346E+03  0.50400001928E-02 0.  1.
    10030    2    1    2    0    0  0.00000000000E+00  0.00000000000E+00  0.20945114499E+04  0.31266664568E+04  0.23214359604E+04 0.  0.
        1    1    3    3  502    0  0.11250901239E+04 -0.17456499166E+03  0.74319311541E+03  0.13596458105E+04  0.50400001928E-02 0. -1.
       -1    1    3    3    0  502 -0.11250901239E+04  0.17456499166E+03  0.13513183345E+04  0.17670206463E+04  0.50400001928E-02 0.  1.
</event>
<event>
 5   0  0.6495405E-05  0.2327907E+04  0.7818609E-02  0.8466998E-01
        2   -1    0    0  501    0  0.00000000000E+00  0.00000000000E+00  0.15210431770E+04  0.15210431770E+04  0.25500000920E-02 0. -1.
       -2   -1    0    0    0  501  0.00000000000E+00  0.00000000000E+00 -0.89069644199E+03  0.89069644200E+03  0.25500000920E-02 0.  1.
    10030    2    1    2    0    0  0.00000000000E+00  0.00000000000E+00  0.63034673497E+03  0.24117396190E+04  0.23279069963E+04 0.  0.
        5    1    3    3  502    0  0.17482964547E+03 -0.10843273092E+03 -0.87170154625E+03  0.89566106190E+03  0.46999998093E+01 0.  1.
       -5    1    3    3    0  502 -0.17482964547E+03  0.10843273092E+03  0.15020482812E+04  0.15160785571E+04  0.46999998093E+01 0. -1.
</event>
<event>
 5   0  0.6468758E-05  0.2301301E+04  0.7818609E-02  0.8477408E-01
        2   -1    0    0  501    0  0.00000000000E+00  0.00000000000E+00  0.21564011127E+04  0.21564011127E+04  0.25500000920E-02 0.  1.
       -2   -1    0    0    0  501  0.00000000000E+00  0.00000000000E+00 -0.61398457152E+03  0.61398457152E+03  0.25500000920E-02 0. -1.
    10030    2    1    2    0    0  0.00000000000E+00  0.00000000000E+00  0.15424165412E+04  0.27703856842E+04  0.23013013824E+04 0.  0.
        3    1    3    3  502    0  0.15077114180E+03 -0.85403212847E+03 -0.13917564891E+03  0.87833517812E+03  0.10100000352E+00 0.  1.
       -3    1    3    3    0  502 -0.15077114180E+03  0.85403212847E+03  0.16815921901E+04  0.18920505061E+04  0.10100000352E+00 0. -1.
</event>
<event>
 5   0  0.6468758E-05  0.2294018E+04  0.7818609E-02  0.8480284E-01
       -2   -1    0    0    0  501  0.00000000000E+00  0.00000000000E+00  0.62826032773E+03  0.62826032773E+03  0.25500000920E-02 0. -1.
        2   -1    0    0  501    0  0.00000000000E+00  0.00000000000E+00 -0.20940827875E+04  0.20940827875E+04  0.25500000920E-02 0.  1.
    10030    2    1    2    0    0  0.00000000000E+00  0.00000000000E+00 -0.14658224598E+04  0.27223431152E+04  0.22940175574E+04 0.  0.
        3    1    3    3  502    0 -0.65988361609E+03  0.84237365410E+03 -0.24276902021E+03  0.10972586602E+04  0.10100000352E+00 0. -1.
       -3    1    3    3    0  502  0.65988361609E+03 -0.84237365410E+03 -0.12230534396E+04  0.16250844551E+04  0.10100000352E+00 0.  1.
</event>
<event>
 5   0  0.3006265E-05  0.2305325E+04  0.7818609E-02  0.8475824E-01
        1   -1    0    0  501    0  0.00000000000E+00  0.00000000000E+00  0.10843010448E+04  0.10843010448E+04  0.50400001928E-02 0.  1.
       -1   -1    0    0    0  501  0.00000000000E+00  0.00000000000E+00 -0.12253342213E+04  0.12253342213E+04  0.50400001928E-02 0. -1.
    10030    2    1    2    0    0  0.00000000000E+00  0.00000000000E+00 -0.14103317646E+03  0.23096352661E+04  0.23053252928E+04 0.  0.
        2    1    3    3  502    0  0.39358260578E+03  0.56839917290E+03 -0.99454578287E+03  0.12112415950E+04  0.25500000920E-02 0. -1.
       -2    1    3    3    0  502 -0.39358260578E+03 -0.56839917290E+03  0.85351260641E+03  0.10983936711E+04  0.25500000920E-02 0.  1.
</event>
<event>
 5   0  0.6702421E-05  0.2297377E+04  0.7818609E-02  0.8478956E-01
        2   -1    0    0  501    0  0.00000000000E+00  0.00000000000E+00  0.15220444673E+04  0.15220444673E+04  0.25500000920E-02 0. -1.
       -2   -1    0    0    0  501  0.00000000000E+00  0.00000000000E+00 -0.86691605334E+03  0.86691605335E+03  0.25500000920E-02 0.  1.
    10030    2    1    2    0    0  0.00000000000E+00  0.00000000000E+00  0.65512841398E+03  0.23889605207E+04  0.22973765757E+04 0.  0.
        4    1    3    3  502    0 -0.35599219282E+03  0.88256788872E+03  0.99650242958E+03  0.13779242449E+04  0.12699999809E+01 0. -1.
       -4    1    3    3    0  502  0.35599219282E+03 -0.88256788872E+03 -0.34137401560E+03  0.10110362758E+04  0.12699999809E+01 0.  1.
</event>
<event>
 5   0  0.2962279E-05  0.2228826E+04  0.7818609E-02  0.8506525E-01
        1   -1    0    0  501    0  0.00000000000E+00  0.00000000000E+00  0.11709124440E+04  0.11709124441E+04  0.50400001928E-02 0. -1.
       -1   -1    0    0    0  501  0.00000000000E+00  0.00000000000E+00 -0.10606394045E+04  0.10606394046E+04  0.50400001928E-02 0.  1.
    10030    2    1    2    0    0  0.00000000000E+00  0.00000000000E+00  0.11027303950E+03  0.22315518486E+04  0.22288255898E+04 0.  0.
        1    1    3    3  502    0 -0.70755644720E+03  0.14184030069E+03  0.90538729552E+03  0.11577914112E+04  0.50400001928E-02 0. -1.
       -1    1    3    3    0  502  0.70755644720E+03 -0.14184030069E+03 -0.79511425602E+03  0.10737604374E+04  0.50400001928E-02 0.  1.
</event>
<event>
 5   0  0.6468758E-05  0.2313037E+04  0.7818609E-02  0.8472799E-01
       -2   -1    0    0    0  501  0.00000000000E+00  0.00000000000E+00  0.85554914459E+03  0.85554914459E+03  0.25500000920E-02 0. -1.
        2   -1    0    0  501    0  0.00000000000E+00  0.00000000000E+00 -0.15633643070E+04  0.15633643070E+04  0.25500000920E-02 0.  1.
    10030    2    1    2    0    0  0.00000000000E+00  0.00000000000E+00 -0.70781516243E+03  0.24189134516E+04  0.23130369608E+04 0.  0.
        3    1    3    3  502    0  0.10419586744E+04 -0.25854992663E+02  0.17022087819E+03  0.10560878360E+04  0.10100000352E+00 0. -1.
       -3    1    3    3    0  502 -0.10419586744E+04  0.25854992663E+02 -0.87803604062E+03  0.13628256156E+04  0.10100000352E+00 0.  1.
</event>
<event>
 5   0  0.2962279E-05  0.2321102E+04  0.7818609E-02  0.8469647E-01
       -1   -1    0    0    0  501  0.00000000000E+00  0.00000000000E+00  0.59370917342E+03  0.59370917344E+03  0.50400001928E-02 0.  1.
        1   -1    0    0  501    0  0.00000000000E+00  0.00000000000E+00 -0.22685836383E+04  0.22685836383E+04  0.50400001928E-02 0. -1.
    10030    2    1    2    0    0  0.00000000000E+00  0.00000000000E+00 -0.16748744649E+04  0.28622928118E+04  0.23211022526E+04 0.  0.
        1    1    3    3  502    0 -0.43110245208E+03  0.35650158346E+03  0.41647361725E+03  0.69741879606E+03  0.50400001928E-02 0.  1.
       -1    1    3    3    0  502  0.43110245208E+03 -0.35650158346E+03 -0.20913480822E+04  0.21648740157E+04  0.50400001928E-02 0. -1.
</event>
<event>
 5   0  0.6495405E-05  0.2295744E+04  0.7818609E-02  0.8479601E-01
       -2   -1    0    0    0  501  0.00000000000E+00  0.00000000000E+00  0.74928276046E+03  0.74928276046E+03  0.25500000920E-02 0. -1.
        2   -1    0    0  501    0  0.00000000000E+00  0.00000000000E+00 -0.17584954913E+04  0.17584954913E+04  0.25500000920E-02 0.  1.
    10030    2    1    2    0    0  0.00000000000E+00  0.00000000000E+00 -0.10092127308E+04  0.25077782517E+04  0.22957441983E+04 0.  0.
        5    1    3    3  502    0 -0.74912999466E+03  0.84779378535E+03 -0.71653036575E+03  0.13391743376E+04  0.46999998093E+01 0.  1.
       -5    1    3    3    0  502  0.74912999466E+03 -0.84779378535E+03 -0.29268236505E+03  0.11686039142E+04  0.46999998093E+01 0. -1.
</event>
<event>
 5   0  0.2342500E-05  0.2309148E+04  0.7818609E-02  0.8474323E-01
        3   -1    0    0  501    0  0.00000000000E+00  0.00000000000E+00  0.20552121442E+04  0.20552121467E+04  0.10100000352E+00 0. -1.
       -3   -1    0    0    0  501  0.00000000000E+00  0.00000000000E+00 -0.64861501530E+03  0.64861502316E+03  0.10100000352E+00 0.  1.
    10030    2    1    2    0    0  0.00000000000E+00  0.00000000000E+00  0.14065971289E+04  0.27038271699E+04  0.23091483022E+04 0.  0.
        5    1    3    3  502    0 -0.97377619857E+03  0.60799830907E+03  0.84726622899E+03  0.14268090908E+04  0.46999998093E+01 0. -1.
       -5    1    3    3    0  502  0.97377619857E+03 -0.60799830907E+03  0.55933089996E+03  0.12770180791E+04  0.46999998093E+01 0.  1.
</event>
<event>
 5   0  0.2982385E-05  0.2308424E+04  0.7818609E-02  0.8474607E-01
       -1   -1    0    0    0  501  0.00000000000E+00  0.00000000000E+00  0.11370379033E+04  0.11370379033E+04  0.50400001928E-02 0. -1.
        1   -1    0    0  501    0  0.00000000000E+00  0.00000000000E+00 -0.11716456964E+04  0.11716456964E+04  0.50400001928E-02 0.  1.
    10030    2    1    2    0    0  0.00000000000E+00  0.00000000000E+00 -0.34607793042E+02  0.23086835997E+04  0.23084241950E+04 0.  0.
        4    1    3    3  502    0  0.51378861740E+03  0.73296153658E+03  0.71147037641E+03  0.11434172759E+04  0.12699999809E+01 0. -1.
       -4    1    3    3    0  502 -0.51378861740E+03 -0.73296153658E+03 -0.74607816945E+03  0.11652663238E+04  0.12699999809E+01 0.  1.
</event>
<event>
 5   0  0.6676612E-05  0.2239151E+04  0.7818609E-02  0.8502307E-01
        2   -1    0    0  501    0  0.00000000000E+00  0.00000000000E+00  0.12906856464E+04  0.12906856464E+04  0.25500000920E-02 0. -1.
       -2   -1    0    0    0  501  0.00000000000E+00  0.00000000000E+00 -0.97114979465E+03  0.97114979466E+03  0.25500000920E-02 0.  1.
    10030    2    1    2    0    0  0.00000000000E+00  0.00000000000E+00  0.31953585173E+03  0.22618354410E+04  0.22391508216E+04 0.  0.
        2    1    3    3  502    0  0.18880043899E+03 -0.71418890570E+03  0.10095622447E+04  0.12509705531E+04  0.25500000920E-02 0. -1.
       -2    1    3    3    0  502 -0.18880043899E+03  0.71418890570E+03 -0.69002639294E+03  0.10108648880E+04  0.25500000920E-02 0.  1.
</event>
<event>
 5   0  0.6468758E-05  0.2334488E+04  0.7818609E-02  0.8464446E-01
       -2   -1    0    0    0  501  0.00000000000E+00  0.00000000000E+00  0.70433149258E+03  0.70433149259E+03  0.25500000920E-02 0.  1.
        2   -1    0    0  501    0  0.00000000000E+00  0.00000000000E+00 -0.19343995210E+04  0.19343995210E+04  0.25500000920E-02 0. -1.
    10030    2    1    2    0    0  0.00000000000E+00  0.00000000000E+00 -0.12300680284E+04  0.26387310136E+04  0.23344879540E+04 0.  0.
        3    1    3    3  502    0  0.92839627913E+03  0.33183235963E+03  0.91239499230E+02  0.99012980079E+03  0.10100000352E+00 0.  1.
       -3    1    3    3    0  502 -0.92839627913E+03 -0.33183235963E+03 -0.13213075276E+04  0.16486012128E+04  0.10100000352E+00 0. -1.
</event>
<event>
 5   0  0.2944089E-05  0.2287327E+04  0.7818609E-02  0.8482935E-01
        1   -1    0    0  501    0  0.00000000000E+00  0.00000000000E+00  0.53338606108E+03  0.53338606111E+03  0.50400001928E-02 0. -1.
       -1   -1    0    0    0  501  0.00000000000E+00  0.00000000000E+00 -0.24521946792E+04  0.24521946792E+04  0.50400001928E-02 0.  1.
    10030    2    1    2    0    0  0.00000000000E+00  0.00000000000E+00 -0.19188086181E+04  0.29855807403E+04  0.22873272271E+04 0.  0.
        5    1    3    3  502    0 -0.87982787498E+03  0.92873547627E+02 -0.19053623795E+04  0.21007499786E+04  0.46999998093E+01 0.  1.
       -5    1    3    3    0  502  0.87982787498E+03 -0.92873547627E+02 -0.13446238567E+02  0.88483076165E+03  0.46999998093E+01 0. -1.
</event>
<event>
 5   0  0.6495405E-05  0.2241311E+04  0.7818609E-02  0.8501428E-01
       -2   -1    0    0    0  501  0.00000000000E+00  0.00000000000E+00  0.38154524350E+03  0.38154524350E+03  0.25500000920E-02 0. -1.
        2   -1    0    0  501    0  0.00000000000E+00  0.00000000000E+00 -0.32915327606E+04  0.32915327606E+04  0.25500000920E-02 0.  1.
    10030    2    1    2    0    0  0.00000000000E+00  0.00000000000E+00 -0.29099875171E+04  0.36730780041E+04  0.22413109277E+04 0.  0.
        5    1    3    3  502    0 -0.29525520468E+02  0.39245599199E+03  0.26454692492E+03  0.47423688964E+03  0.46999998093E+01 0. -1.
       -5    1    3    3    0  502  0.29525520468E+02 -0.39245599199E+03 -0.31745344421E+04  0.31988411145E+04  0.46999998093E+01 0.  1.
</event>
<event>
 5   0  0.6702421E-05  0.2149744E+04  0.7818609E-02  0.8539642E-01
       -2   -1    0    0    0  501  0.00000000000E+00  0.00000000000E+00  0.48758145588E+03  0.48758145588E+03  0.25500000920E-02 0. -1.
        2   -1    0    0  501    0  0.00000000000E+00  0.00000000000E+00 -0.23695513951E+04  0.23695513951E+04  0.25500000920E-02 0.  1.
    10030    2    1    2    0    0  0.00000000000E+00  0.00000000000E+00 -0.18819699392E+04  0.28571328510E+04  0.21497435373E+04 0.  0.
        4    1    3    3  502    0 -0.52874189826E+03  0.44221770029E+03  0.15516381849E+03  0.70654222301E+03  0.12699999809E+01 0. -1.
       -4    1    3    3    0  502  0.52874189826E+03 -0.44221770029E+03 -0.20371337577E+04  0.21505906280E+04  0.12699999809E+01 0.  1.
</event>
<event>
 5   0  0.6676612E-05  0.2339718E+04  0.7818609E-02  0.8462423E-01
       -2   -1    0    0    0  501  0.00000000000E+00  0.00000000000E+00  0.56976092881E+03  0.56976092882E+03  0.25500000920E-02 0.  1.
        2   -1    0    0  501    0  0.00000000000E+00  0.00000000000E+00 -0.24020077175E+04  0.24020077175E+04  0.25500000920E-02 0. -1.
    10030    2    1    2    0    0  0.00000000000E+00  0.00000000000E+00 -0.18322467887E+04  0.29717686463E+04  0.23397180584E+04 0.  0.
        2    1    3    3  502    0 -0.14914354507E+03 -0.19904909193E+03  0.53578889219E+03  0.59070642035E+03  0.25500000920E-02 0.  1.
       -2    1    3    3    0  502  0.14914354507E+03  0.19904909193E+03 -0.23680356809E+04  0.23810622260E+04  0.25500000920E-02 0. -1.
</event>
<event>
 5   0  0.3006265E-05  0.2278290E+04  0.7818609E-02  0.8486530E-01
       -1   -1    0    0    0  501  0.00000000000E+00  0.00000000000E+00  0.10621090123E+04  0.10621090123E+04  0.50400001928E-02 0.  1.
        1   -1    0    0  501    0  0.00000000000E+00  0.00000000000E+00 -0.12217686829E+04  0.12217686830E+04  0.50400001928E-02 0. -1.
    10030    2    1    2    0    0  0.00000000000E+00  0.00000000000E+00 -0.15965967066E+03  0.22838776952E+04  0.22782901739E+04 0.  0.
        2    1    3    3  502    0  0.31811425280E+02 -0.28420578747E+03 -0.11851975513E+04  0.12192120947E+04  0.25500000920E-02 0. -1.
       -2    1    3    3    0  502 -0.31811425280E+02  0.28420578747E+03  0.10255378806E+04  0.10646656005E+04  0.25500000920E-02 0.  1.
</event>
<event>
 5   0  0.6676612E-05  0.2389558E+04  0.7818609E-02  0.8443423E-01
       -2   -1    0    0    0  501  0.00000000000E+00  0.00000000000E+00  0.76992706778E+03  0.76992706778E+03  0.25500000920E-02 0. -1.
        2   -1    0    0  501    0  0.00000000000E+00  0.00000000000E+00 -0.18540682539E+04  0.18540682539E+04  0.25500000920E-02 0.  1.
    10030    2    1    2    0    0  0.00000000000E+00  0.00000000000E+00 -0.10841411861E+04  0.26239953217E+04  0.23895583979E+04 0.  0.
        2    1    3    3  502    0  0.78563112582E+03  0.80654372980E+03 -0.98099596722E+03  0.14933459551E+04  0.25500000920E-02 0.  1.
       -2    1    3    3    0  502 -0.78563112582E+03 -0.80654372980E+03 -0.10314521891E+03  0.11306493666E+04  0.25500000920E-02 0. -1.
</event>
<event>
 5   0  0.6495405E-05  0.2258899E+04  0.7818609E-02  0.8494305E-01
       -2   -1    0    0    0  501  0.00000000000E+00  0.00000000000E+00  0.63427623514E+03  0.63427623514E+03  0.25500000920E-02 0. -1.
        2   -1    0    0  501    0  0.00000000000E+00  0.00000000000E+00 -0.20111989205E+04  0.20111989205E+04  0.25500000920E-02 0.  1.
    10030    2    1    2    0    0  0.00000000000E+00  0.00000000000E+00 -0.13769226853E+04  0.26454751556E+04  0.22588985629E+04 0.  0.
        5    1    3    3  502    0  0.20646160758E+03  0.52021703307E+03 -0.18373569684E+04  0.19207172817E+04  0.46999998093E+01 0.  1.
       -5    1    3    3    0  502 -0.20646160758E+03 -0.52021703307E+03  0.46043428302E+03  0.72475787396E+03  0.46999998093E+01 0. -1.
</event>
<event>
 5   0  0.6702421E-05  0.2290426E+04  0.7818609E-02  0.8481706E-01
        2   -1    0    0  501    0  0.00000000000E+00  0.00000000000E+00  0.25994031348E+04  0.25994031348E+04  0.25500000920E-02 0.  1.
       -2   -1    0    0    0  501  0.00000000000E+00  0.00000000000E+00 -0.50454368644E+03  0.50454368645E+03  0.25500000920E-02 0. -1.
    10030    2    1    2    0    0  0.00000000000E+00  0.00000000000E+00  0.20948594484E+04  0.31039468213E+04  0.22904256724E+04 0.  0.
        4    1    3    3  502    0 -0.72718003853E+03 -0.85419177341E+03  0.73521819686E+03  0.13412612736E+04  0.12699999809E+01 0. -1.
       -4    1    3    3    0  502  0.72718003853E+03  0.85419177341E+03  0.13596412515E+04  0.17626855477E+04  0.12699999809E+01 0.  1.
</event>
<event>
 5   0  0.6676612E-05  0.2317256E+04  0.7818609E-02  0.8471148E-01
        2   -1    0    0  501    0  0.00000000000E+00  0.00000000000E+00  0.95317411823E+03  0.95317411823E+03  0.25500000920E-02 0. -1.
       -2   -1    0    0    0  501  0.00000000000E+00  0.00000000000E+00 -0.14083663161E+04  0.14083663161E+04  0.25500000920E-02 0.  1.
    10030    2    1    2    0    0  0.00000000000E+00  0.00000000000E+00 -0.45519219787E+03  0.23615404343E+04  0.23172555504E+04 0.  0.
        2    1    3    3  502    0  0.10141127564E+04 -0.18816107798E+03 -0.76549848929E+03  0.12844521054E+04  0.25500000920E-02 0.  1.
       -2    1    3    3    0  502 -0.10141127564E+04  0.18816107798E+03  0.31030629142E+03  0.10770883290E+04  0.25500000920E-02 0. -1.
</event>
<event>
 5   0  0.6495405E-05  0.2316515E+04  0.7818609E-02  0.8471438E-01
        2   -1    0    0  501    0  0.00000000000E+00  0.00000000000E+00  0.12189104045E+04  0.12189104045E+04  0.25500000920E-02 0. -1.
       -2   -1    0    0    0  501  0.00000000000E+00  0.00000000000E+00 -0.11006223889E+04  0.11006223889E+04  0.25500000920E-02 0.  1.
    10030    2    1    2    0    0  0.00000000000E+00  0.00000000000E+00  0.11828801564E+03  0.23195327934E+04  0.23165146935E+04 0.  0.
        5    1    3    3  502    0 -0.14098387521E+02 -0.27743195074E+03  0.11850514143E+04  0.12171837151E+04  0.46999998093E+01 0. -1.
       -5    1    3    3    0  502  0.14098387521E+02  0.27743195074E+03 -0.10667633986E+04  0.11023490783E+04  0.46999998093E+01 0.  1.
</event>
<event>
 5   0  0.2962279E-05  0.2225545E+04  0.7818609E-02  0.8507870E-01
        1   -1    0    0  501    0  0.00000000000E+00  0.00000000000E+00  0.16734557592E+04  0.16734557593E+04  0.50400001928E-02 0. -1.
       -1   -1    0    0    0  501  0.00000000000E+00  0.00000000000E+00 -0.73994349215E+03  0.73994349216E+03  0.50400001928E-02 0.  1.
    10030    2    1    2    0    0  0.00000000000E+00  0.00000000000E+00  0.93351226710E+03  0.24133992514E+04  0.22255450555E+04 0.  0.
        1    1    3    3  502    0  0.34729188242E+03  0.38129626531E+03 -0.60250783216E+03  0.79310414283E+03  0.50400001928E-02 0.  1.
       -1    1    3    3    0  502 -0.34729188242E+03 -0.38129626531E+03  0.15360200993E+04  0.16202951086E+04  0.50400001928E-02 0. -1.
</event>
<event>
 5   0  0.6468758E-05  0.2322740E+04  0.7818609E-02  0.8469009E-01
       -2   -1    0    0    0  501  0.00000000000E+00  0.00000000000E+00  0.64960506831E+03  0.64960506831E+03  0.25500000920E-02 0. -1.
        2   -1    0    0  501    0  0.00000000000E+00  0.00000000000E+00 -0.20763078589E+04  0.20763078589E+04  0.25500000920E-02 0.  1.
    10030    2    1    2    0    0  0.00000000000E+00  0.00000000000E+00 -0.14267027906E+04  0.27259129272E+04  0.23227398550E+04 0.  0.
        3    1    3    3  502    0 -0.49571410974E+03  0.72030280997E+03  0.18365688356E+03  0.89347550483E+03  0.10100000352E+00 0. -1.
       -3    1    3    3    0  502  0.49571410974E+03 -0.72030280997E+03 -0.16103596742E+04  0.18324374224E+04  0.10100000352E+00 0.  1.
</event>
<event>
 5   0  0.2962279E-05  0.2283733E+04  0.7818609E-02  0.8484363E-01
        1   -1    0    0  501    0  0.00000000000E+00  0.00000000000E+00  0.18900690195E+04  0.18900690195E+04  0.50400001928E-02 0.  1.
       -1   -1    0    0    0  501  0.00000000000E+00  0.00000000000E+00 -0.68984750618E+03  0.68984750620E+03  0.50400001928E-02 0. -1.
    10030    2    1    2    0    0  0.00000000000E+00  0.00000000000E+00  0.12002215133E+04  0.25799165257E+04  0.22837332590E+04 0.  0.
        1    1    3    3  502    0  0.57054548665E+02 -0.17911655392E+03  0.18724683420E+04  0.18818808818E+04  0.50400001928E-02 0.  1.
       -1    1    3    3    0  502 -0.57054548665E+02  0.17911655392E+03 -0.67224682870E+03  0.69803564389E+03  0.50400001928E-02 0. -1.
</event>
<event>
 5   0  0.6676612E-05  0.2279719E+04  0.7818609E-02  0.8485961E-01
       -2   -1    0    0    0  501  0.00000000000E+00  0.00000000000E+00  0.84575645628E+03  0.84575645628E+03  0.25500000920E-02 0. -1.
        2   -1    0    0  501    0  0.00000000000E+00  0.00000000000E+00 -0.15362335093E+04  0.15362335093E+04  0.25500000920E-02 0.  1.
    10030    2    1    2    0    0  0.00000000000E+00  0.00000000000E+00 -0.69047705303E+03  0.23819899656E+04  0.22797187624E+04 0.  0.
        2    1    3    3  502    0  0.40919216631E+03  0.10072652226E+04  0.12552797163E+02  0.10872805666E+04  0.25500000920E-02 0.  1.
       -2    1    3    3    0  502 -0.40919216631E+03 -0.10072652226E+04 -0.70302985019E+03  0.12947093990E+04  0.25500000920E-02 0. -1.
</event>
<event>
 5   0  0.6495405E-05  0.2304793E+04  0.7818609E-02  0.8476034E-01
        2   -1    0    0  501    0  0.00000000000E+00  0.00000000000E+00  0.22701698551E+04  0.22701698551E+04  0.25500000920E-02 0.  1.
       -2   -1    0    0    0  501  0.00000000000E+00  0.00000000000E+00 -0.58498601309E+03  0.58498601310E+03  0.25500000920E-02 0. -1.
    10030    2    1    2    0    0  0.00000000000E+00  0.00000000000E+00  0.16851838420E+04  0.28551558682E+04  0.23047929300E+04 0.  0.
        5    1    3    3  502    0 -0.39859569964E+03  0.27365031325E+03  0.21384358944E+04  0.21924172026E+04  0.46999998093E+01 0.  1.
       -5    1    3    3    0  502  0.39859569964E+03 -0.27365031325E+03 -0.45325205248E+03  0.66273866553E+03  0.46999998093E+01 0. -1.
</event>
<event>
 5   0  0.2962279E-05  0.2260146E+04  0.7818609E-02  0.8493803E-01
       -1   -1    0    0    0  501  0.00000000000E+00  0.00000000000E+00  0.11198695720E+04  0.11198695720E+04  0.50400001928E-02 0. -1.
        1   -1    0    0  501    0  0.00000000000E+00  0.00000000000E+00 -0.11403697022E+04  0.11403697022E+04  0.50400001928E-02 0.  1.
    10030    2    1    2    0    0  0.00000000000E+00  0.00000000000E+00 -0.20500130201E+02  0.22602392742E+04  0.22601463053E+04 0.  0.
        1    1    3    3  502    0  0.28284550594E+03 -0.67795788787E+03 -0.86902682369E+03  0.11379086511E+04  0.50400001928E-02 0.  1.
       -1    1    3    3    0  502 -0.28284550594E+03  0.67795788787E+03  0.84852669349E+03  0.11223306231E+04  0.50400001928E-02 0. -1.
</event>
<event>
 5   0  0.2982385E-05  0.2284864E+04  0.7818609E-02  0.8483913E-01
       -1   -1    0    0    0  501  0.00000000000E+00  0.00000000000E+00  0.84766669859E+03  0.84766669860E+03  0.50400001928E-02 0. -1.
        1   -1    0    0  501    0  0.00000000000E+00  0.00000000000E+00 -0.15396981050E+04  0.15396981050E+04  0.50400001928E-02 0.  1.
    10030    2    1    2    0    0  0.00000000000E+00  0.00000000000E+00 -0.69203140643E+03  0.23873648036E+04  0.22848639430E+04 0.  0.
        4    1    3    3  502    0  0.57522245411E+03 -0.98523826240E+03 -0.40847960475E+03  0.12117889692E+04  0.12699999809E+01 0.  1.
       -4    1    3    3    0  502 -0.57522245411E+03  0.98523826240E+03 -0.28355180169E+03  0.11755758345E+04  0.12699999809E+01 0. -1.
</event>
<event>
 5   0  0.2944089E-05  0.2303480E+04  0.7818609E-02  0.8476550E-01
       -1   -1    0    0    0  501  0.00000000000E+00  0.00000000000E+00  0.51928667361E+03  0.51928667364E+03  0.50400001928E-02 0.  1.
        1   -1    0    0  501    0  0.00000000000E+00  0.00000000000E+00 -0.25544752987E+04  0.25544752987E+04  0.50400001928E-02 0. -1.
    10030    2    1    2    0    0  0.00000000000E+00  0.00000000000E+00 -0.20351886251E+04  0.30737619724E+04  0.23034799593E+04 0.  0.
        5    1    3    3  502    0  0.32580762758E+03  0.91531690186E+03 -0.18429040785E+04  0.20833322283E+04  0.46999998093E+01 0. -1.
       -5    1    3    3    0  502 -0.32580762758E+03 -0.91531690186E+03 -0.19228454661E+03  0.99042974404E+03  0.46999998093E+01 0.  1.
</event>
<event>
 5   0  0.2342500E-05  0.2285136E+04  0.7818609E-02  0.8483805E-01
       -3   -1    0    0    0  501  0.00000000000E+00  0.00000000000E+00  0.18855898548E+04  0.18855898575E+04  0.10100000352E+00 0.  1.
        3   -1    0    0  501    0  0.00000000000E+00  0.00000000000E+00 -0.69233622965E+03  0.69233623702E+03  0.10100000352E+00 0. -1.
    10030    2    1    2    0    0  0.00000000000E+00  0.00000000000E+00  0.11932536251E+04  0.25779260945E+04  0.22851364806E+04 0.  0.
        5    1    3    3  502    0 -0.10430348940E+02 -0.20890332669E+03  0.18637964849E+04  0.18755022845E+04  0.46999998093E+01 0.  1.
       -5    1    3    3    0  502  0.10430348940E+02  0.20890332669E+03 -0.67054285976E+03  0.70242381000E+03  0.46999998093E+01 0. -1.
</event>
<event>
 5   0  0.2342500E-05  0.2272899E+04  0.7818609E-02  0.8488684E-01
       -3   -1    0    0    0  501  0.00000000000E+00  0.00000000000E+00  0.11609514362E+04  0.11609514406E+04  0.10100000352E+00 0.  1.
        3   -1    0    0  501    0  0.00000000000E+00  0.00000000000E+00 -0.11124647135E+04  0.11124647180E+04  0.10100000352E+00 0. -1.
    10030    2    1    2    0    0  0.00000000000E+00  0.00000000000E+00  0.48486722786E+02  0.22734161587E+04  0.22728990449E+04 0.  0.
        4    1    3    3  502    0 -0.37398057404E+02  0.98257808234E+03 -0.54567360269E+03  0.11245530651E+04  0.12699999809E+01 0. -1.
       -4    1    3    3    0  502  0.37398057404E+02 -0.98257808234E+03  0.59416032548E+03  0.11488630936E+04  0.12699999809E+01 0.  1.
</event>
<event>
 5   0  0.3118614E-05  0.2287720E+04  0.7818609E-02  0.8482779E-01
       -1   -1    0    0    0  501  0.00000000000E+00  0.00000000000E+00  0.86603396303E+03  0.86603396305E+03  0.50400001928E-02 0. -1.
        1   -1    0    0  501    0  0.00000000000E+00  0.00000000000E+00 -0.15108136476E+04  0.15108136476E+04  0.50400001928E-02 0.  1.
    10030    2    1    2    0    0  0.00000000000E+00  0.00000000000E+00 -0.64477968452E+03  0.23768476106E+04  0.22877202020E+04 0.  0.
        3    1    3    3  502    0  0.28186181027E+03 -0.70872965318E+03  0.56327148141E+03  0.94816589970E+03  0.10100000352E+00 0. -1.
       -3    1    3    3    0  502 -0.28186181027E+03  0.70872965318E+03 -0.12080511659E+04  0.14286817109E+04  0.10100000352E+00 0.  1.
</event>
<event>
 5   0  0.6495405E-05  0.2297646E+04  0.7818609E-02  0.8478850E-01
       -2   -1    0    0    0  501  0.00000000000E+00  0.00000000000E+00  0.10171427154E+04  0.10171427154E+04  0.25500000920E-02 0.  1.
        2   -1    0    0  501    0  0.00000000000E+00  0.00000000000E+00 -0.12975505022E+04  0.12975505022E+04  0.25500000920E-02 0. -1.
    10030    2    1    2    0    0  0.00000000000E+00  0.00000000000E+00 -0.28040778679E+03  0.23146932175E+04  0.22976457874E+04 0.  0.
        5    1    3    3  502    0  0.93439862638E+03 -0.66329467281E+03 -0.57673327021E+02  0.11473486474E+04  0.46999998093E+01 0.  1.
       -5    1    3    3    0  502 -0.93439862638E+03  0.66329467281E+03 -0.22273445977E+03  0.11673445702E+04  0.46999998093E+01 0. -1.
</event>
<event>
 5   0  0.2342500E-05  0.2291010E+04  0.7818609E-02  0.8481474E-01
        3   -1    0    0  501    0  0.00000000000E+00  0.00000000000E+00  0.79625128706E+03  0.79625129347E+03  0.10100000352E+00 0. -1.
       -3   -1    0    0    0  501  0.00000000000E+00  0.00000000000E+00 -0.16479486261E+04  0.16479486292E+04  0.10100000352E+00 0.  1.
    10030    2    1    2    0    0  0.00000000000E+00  0.00000000000E+00 -0.85169733907E+03  0.24441999227E+04  0.22910095820E+04 0.  0.
        4    1    3    3  502    0 -0.64876885250E+03  0.64755961047E+02  0.57898111727E+03  0.87196049539E+03  0.12699999809E+01 0. -1.
       -4    1    3    3    0  502  0.64876885250E+03 -0.64755961047E+02 -0.14306784563E+04  0.15722394273E+04  0.12699999809E+01 0.  1.
</event>
<event>
 5   0  0.6495405E-05  0.2208578E+04  0.7818609E-02  0.8514866E-01
        2   -1    0    0  501    0  0.00000000000E+00  0.00000000000E+00  0.19536717038E+04  0.19536717038E+04  0.25500000920E-02 0. -1.
       -2   -1    0    0    0  501  0.00000000000E+00  0.00000000000E+00 -0.62418594621E+03  0.62418594621E+03  0.25500000920E-02 0.  1.
    10030    2    1    2    0    0  0.00000000000E+00  0.00000000000E+00  0.13294857576E+04  0.25778576500E+04  0.22085782042E+04 0.  0.
        5    1    3    3  502    0 -0.40857141858E+03 -0.47553108102E+03  0.17257881767E+04  0.18361446931E+04  0.46999998093E+01 0. -1.
       -5    1    3    3    0  502  0.40857141858E+03  0.47553108102E+03 -0.39630241911E+03  0.74171295694E+03  0.46999998093E+01 0.  1.
</event>
<event>
 5   0  0.2982385E-05  0.2319480E+04  0.7818609E-02  0.8470280E-01
        1   -1    0    0  501    0  0.00000000000E+00  0.00000000000E+00  0.75141412460E+03  0.75141412462E+03  0.50400001928E-02 0.  1.
       -1   -1    0    0    0  501  0.00000000000E+00  0.00000000000E+00 -0.17899547278E+04  0.17899547278E+04  0.50400001928E-02 0. -1.
    10030    2    1    2    0    0  0.00000000000E+00  0.00000000000E+00 -0.10385406032E+04  0.25413688525E+04  0.23194803426E+04 0.  0.
        4    1    3    3  502    0 -0.52406900101E+03 -0.18863414645E+03 -0.16338157060E+04  0.17261478886E+04  0.12699999809E+01 0. -1.
       -4    1    3    3    0  502  0.52406900101E+03  0.18863414645E+03  0.59527510281E+03  0.81522096388E+03  0.12699999809E+01 0.  1.
</event>
<event>
 5   0  0.2944089E-05  0.2297136E+04  0.7818609E-02  0.8479051E-01
       -1   -1    0    0    0  501  0.00000000000E+00  0.00000000000E+00  0.12867490903E+04  0.12867490903E+04  0.50400001928E-02 0. -1.
        1   -1    0    0  501    0  0.00000000000E+00  0.00000000000E+00 -0.10252257534E+04  0.10252257534E+04  0.50400001928E-02 0.  1.
    10030    2    1    2    0    0  0.00000000000E+00  0.00000000000E+00  0.26152333684E+03  0.23119748437E+04  0.22971358737E+04 0.  0.
        5    1    3    3  502    0  0.43003591174E+02  0.10959871266E+04 -0.21224644403E+03  0.11171874209E+04  0.46999998093E+01 0.  1.
       -5    1    3    3    0  502 -0.43003591174E+02 -0.10959871266E+04  0.47376978087E+03  0.11947874228E+04  0.46999998093E+01 0. -1.
</event>
<event>
 5   0  0.6468758E-05  0.2305440E+04  0.7818609E-02  0.8475779E-01
       -2   -1    0    0    0  501  0.00000000000E+00  0.00000000000E+00  0.95115398476E+03  0.95115398476E+03  0.25500000920E-02 0. -1.
        2   -1    0    0  501    0  0.00000000000E+00  0.00000000000E+00 -0.13970014774E+04  0.13970014774E+04  0.25500000920E-02 0.  1.
    10030    2    1    2    0    0  0.00000000000E+00  0.00000000000E+00 -0.44584749267E+03  0.23481554622E+04  0.23054401072E+04 0.  0.
        3    1    3    3  502    0 -0.87536151456E+03 -0.63325601385E+03 -0.63223082019E+03  0.12517934256E+04  0.10100000352E+00 0.  1.
       -3    1    3    3    0  502  0.87536151456E+03  0.63325601385E+03  0.18638332752E+03  0.10963620366E+04  0.10100000352E+00 0. -1.
</event>
<event>
 5   0  0.6495405E-05  0.2262779E+04  0.7818609E-02  0.8492743E-01
       -2   -1    0    0    0  501  0.00000000000E+00  0.00000000000E+00  0.68735840107E+03  0.68735840107E+03  0.25500000920E-02 0.  1.
        2   -1    0    0  501    0  0.00000000000E+00  0.00000000000E+00 -0.18622623579E+04  0.18622623579E+04  0.25500000920E-02 0. -1.
    10030    2    1    2    0    0  0.00000000000E+00  0.00000000000E+00 -0.11749039568E+04  0.25496207589E+04  0.22627785368E+04 0.  0.
        5    1    3    3  502    0 -0.39199273538E+03  0.45295037601E+03  0.49400649969E+03  0.77645789290E+03  0.46999998093E+01 0.  1.
       -5    1    3    3    0  502  0.39199273538E+03 -0.45295037601E+03 -0.16689104565E+04  0.17731628660E+04  0.46999998093E+01 0. -1.
</event>
<event>
 5   0  0.2342500E-05  0.2328733E+04  0.7818609E-02  0.8466678E-01
        3   -1    0    0  501    0  0.00000000000E+00  0.00000000000E+00  0.17061250373E+04  0.17061250403E+04  0.10100000352E+00 0. -1.
       -3   -1    0    0    0  501  0.00000000000E+00  0.00000000000E+00 -0.79463633939E+03  0.79463634580E+03  0.10100000352E+00 0.  1.
    10030    2    1    2    0    0  0.00000000000E+00  0.00000000000E+00  0.91148869796E+03  0.25007613861E+04  0.23287326733E+04 0.  0.
        1    1    3    3  502    0  0.95287293351E+03 -0.63049028650E+03  0.21498579060E+03  0.11626279366E+04  0.50400001928E-02 0.  1.
       -1    1    3    3    0  502 -0.95287293351E+03  0.63049028650E+03  0.69650290736E+03  0.13381334495E+04  0.50400001928E-02 0. -1.
</event>
<event>
 5   0  0.6702421E-05  0.2419087E+04  0.7818609E-02  0.8432392E-01
        2   -1    0    0  501    0  0.00000000000E+00  0.00000000000E+00  0.13538478594E+04  0.13538478594E+04  0.25500000920E-02 0.  1.
       -2   -1    0    0    0  501  0.00000000000E+00  0.00000000000E+00 -0.10806204675E+04  0.10806204675E+04  0.25500000920E-02 0. -1.
    10030    2    1    2    0    0  0.00000000000E+00  0.00000000000E+00  0.27322739191E+03  0.24344683270E+04  0.24190871889E+04 0.  0.
        4    1    3    3  502    0  0.18952391109E+03  0.11563950138E+04 -0.16500070501E+03  0.11833831106E+04  0.12699999809E+01 0. -1.
       -4    1    3    3    0  502 -0.18952391109E+03 -0.11563950138E+04  0.43822809692E+03  0.12510852164E+04  0.12699999809E+01 0.  1.
</event>
<event>
 5   0  0.2962279E-05  0.2293846E+04  0.7818609E-02  0.8480352E-01
        1   -1    0    0  501    0  0.00000000000E+00  0.00000000000E+00  0.15132233245E+04  0.15132233245E+04  0.50400001928E-02 0.  1.
       -1   -1    0    0    0  501  0.00000000000E+00  0.00000000000E+00 -0.86929144817E+03  0.86929144818E+03  0.50400001928E-02 0. -1.
    10030    2    1    2    0    0  0.00000000000E+00  0.00000000000E+00  0.64393187631E+03  0.23825147727E+04  0.22938457622E+04 0.  0.
        1    1    3    3  502    0 -0.72359730362E+03  0.88956319029E+03  0.29836382036E+03  0.11848783468E+04  0.50400001928E-02 0. -1.
       -1    1    3    3    0  502  0.72359730362E+03 -0.88956319029E+03  0.34556805595E+03  0.11976364259E+04  0.50400001928E-02 0.  1.
</event>
<event>
 5   0  0.3006265E-05  0.2245044E+04  0.7818609E-02  0.8499910E-01
       -1   -1    0    0    0  501  0.00000000000E+00  0.00000000000E+00  0.66301296849E+03  0.66301296851E+03  0.50400001928E-02 0.  1.
        1   -1    0    0  501    0  0.00000000000E+00  0.00000000000E+00 -0.19004985917E+04  0.19004985917E+04  0.50400001928E-02 0. -1.
    10030    2    1    2    0    0  0.00000000000E+00  0.00000000000E+00 -0.12374856232E+04  0.25635115602E+04  0.22450436191E+04 0.  0.
        2    1    3    3  502    0 -0.72692687250E+03  0.65629151996E+03 -0.12451138605E+04  0.15841242889E+04  0.25500000920E-02 0. -1.
       -2    1    3    3    0  502  0.72692687250E+03 -0.65629151996E+03  0.76282373013E+01  0.97938727128E+03  0.25500000920E-02 0.  1.
</event>
<event>
 5   0  0.2982385E-05  0.2301346E+04  0.7818609E-02  0.8477391E-01
       -1   -1    0    0    0  501  0.00000000000E+00  0.00000000000E+00  0.73806370529E+03  0.73806370531E+03  0.50400001928E-02 0. -1.
        1   -1    0    0  501    0  0.00000000000E+00  0.00000000000E+00 -0.17939482097E+04  0.17939482097E+04  0.50400001928E-02 0.  1.
    10030    2    1    2    0    0  0.00000000000E+00  0.00000000000E+00 -0.10558845044E+04  0.25320119150E+04  0.23013457479E+04 0.  0.
        4    1    3    3  502    0  0.95074276088E+03 -0.58845570531E+03 -0.82694312738E+03  0.13906935188E+04  0.12699999809E+01 0.  1.
       -4    1    3    3    0  502 -0.95074276088E+03  0.58845570531E+03 -0.22894137703E+03  0.11413183962E+04  0.12699999809E+01 0. -1.
</event>
<event>
 5   0  0.2982385E-05  0.2127252E+04  0.7818609E-02  0.8549333E-01
        1   -1    0    0  501    0  0.00000000000E+00  0.00000000000E+00  0.17893730299E+04  0.17893730299E+04  0.50400001928E-02 0.  1.
       -1   -1    0    0    0  501  0.00000000000E+00  0.00000000000E+00 -0.63223253927E+03  0.63223253929E+03  0.50400001928E-02 0. -1.
    10030    2    1    2    0    0  0.00000000000E+00  0.00000000000E+00  0.11571404906E+04  0.24216055692E+04  0.21272516113E+04 0.  0.
        4    1    3    3  502    0  0.46497277246E+03 -0.68563294875E+03 -0.18082432828E+03  0.84793352931E+03  0.12699999809E+01 0.  1.
       -4    1    3    3    0  502 -0.46497277246E+03  0.68563294875E+03  0.13379648189E+04  0.15736720398E+04  0.12699999809E+01 0. -1.
</event>
<event>
 5   0  0.2962279E-05  0.2285575E+04  0.7818609E-02  0.8483630E-01
       -1   -1    0    0    0  501  0.00000000000E+00  0.00000000000E+00  0.17076941967E+04  0.17076941967E+04  0.50400001928E-02 0.  1.
        1   -1    0    0  501    0  0.00000000000E+00  0.00000000000E+00 -0.76475249076E+03  0.76475249078E+03  0.50400001928E-02 0. -1.
    10030    2    1    2    0    0  0.00000000000E+00  0.00000000000E+00  0.94294170591E+03  0.24724466875E+04  0.22855751052E+04 0.  0.
        1    1    3    3  502    0 -0.76578428782E+02 -0.86732476546E+03  0.12721546453E+04  0.15415881246E+04  0.50400001928E-02 0.  1.
       -1    1    3    3    0  502  0.76578428782E+02  0.86732476546E+03 -0.32921293935E+03  0.93085856283E+03  0.50400001928E-02 0. -1.
</event>
<event>
 5   0  0.2944089E-05  0.2280060E+04  0.7818609E-02  0.8485825E-01
       -1   -1    0    0    0  501  0.00000000000E+00  0.00000000000E+00  0.59900603599E+03  0.59900603601E+03  0.50400001928E-02 0.  1.
        1   -1    0    0  501    0  0.00000000000E+00  0.00000000000E+00 -0.21697079915E+04  0.21697079916E+04  0.50400001928E-02 0. -1.
    10030    2    1    2    0    0  0.00000000000E+00  0.00000000000E+00 -0.15707019556E+04  0.27687140276E+04  0.22800598091E+04 0.  0.
        5    1    3    3  502    0 -0.66331155970E+03  0.77199754386E+03 -0.16179783690E+03  0.10306129550E+04  0.46999998093E+01 0. -1.
       -5    1    3    3    0  502  0.66331155970E+03 -0.77199754386E+03 -0.14089041187E+04  0.17381010726E+04  0.46999998093E+01 0.  1.
</event>
<event>
 5   0  0.6702421E-05  0.2298803E+04  0.7818609E-02  0.8478393E-01
       -2   -1    0    0    0  501  0.00000000000E+00  0.00000000000E+00  0.50664313360E+03  0.50664313361E+03  0.25500000920E-02 0.  1.
        2   -1    0    0  501    0  0.00000000000E+00  0.00000000000E+00 -0.26076021036E+04  0.26076021036E+04  0.25500000920E-02 0. -1.
    10030    2    1    2    0    0  0.00000000000E+00  0.00000000000E+00 -0.21009589700E+04  0.31142452372E+04  0.22988029067E+04 0.  0.
        4    1    3    3  502    0  0.84106594559E+03 -0.70913849762E+03 -0.59942987075E+03  0.12528316393E+04  0.12699999809E+01 0.  1.
       -4    1    3    3    0  502 -0.84106594559E+03  0.70913849762E+03 -0.15015290992E+04  0.18614135979E+04  0.12699999809E+01 0. -1.
</event>
<event>
 5   0  0.2944089E-05  0.2324214E+04  0.7818609E-02  0.8468434E-01
       -1   -1    0    0    0  501  0.00000000000E+00  0.00000000000E+00  0.82097542337E+03  0.82097542339E+03  0.50400001928E-02 0. -1.
        1   -1    0    0  501    0  0.00000000000E+00  0.00000000000E+00 -0.16449861935E+04  0.16449861935E+04  0.50400001928E-02 0.  1.
    10030    2    1    2    0    0  0.00000000000E+00  0.00000000000E+00 -0.82401077016E+03  0.24659616169E+04  0.23242144795E+04 0.  0.
        5    1    3    3  502    0  0.10678829837E+04 -0.19356595770E+03  0.28820780568E+02  0.10856770119E+04  0.46999998093E+01 0. -1.
       -5    1    3    3    0  502 -0.10678829837E+04  0.19356595770E+03 -0.85283155073E+03  0.13802846050E+04  0.46999998093E+01 0.  1.
</event>
<event>
 5   0  0.6702421E-05  0.2309890E+04  0.7818609E-02  0.8474032E-01
       -2   -1    0    0    0  501  0.00000000000E+00  0.00000000000E+00  0.12357586246E+04  0.12357586246E+04  0.25500000920E-02 0.  1.
        2   -1    0    0  501    0  0.00000000000E+00  0.00000000000E+00 -0.10794158648E+04  0.10794158648E+04  0.25500000920E-02 0. -1.
    10030    2    1    2    0    0  0.00000000000E+00  0.00000000000E+00  0.15634275982E+03  0.23151744895E+04  0.23098895771E+04 0.  0.
        4    1    3    3  502    0 -0.54357656714E+03  0.10176166992E+04  0.13192823091E+03  0.11612174223E+04  0.12699999809E+01 0. -1.
       -4    1    3    3    0  502  0.54357656714E+03 -0.10176166992E+04  0.24414528908E+02  0.11539570672E+04  0.12699999809E+01 0.  1.
</event>
<event>
 5   0  0.2962279E-05  0.2570408E+04  0.7818609E-02  0.8378323E-01
        1   -1    0    0  501    0  0.00000000000E+00  0.00000000000E+00  0.73212182474E+03  0.73212182476E+03  0.50400001928E-02 0. -1.
       -1   -1    0    0    0  501  0.00000000000E+00  0.00000000000E+00 -0.22561130571E+04  0.22561130571E+04  0.50400001928E-02 0.  1.
    10030    2    1    2    0    0  0.00000000000E+00  0.00000000000E+00 -0.15239912324E+04  0.29882348819E+04  0.25704082230E+04 0.  0.
        1    1    3    3  502    0  0.38017899877E+03  0.67159873181E+03 -0.19567517574E+04  0.21034396515E+04  0.50400001928E-02 0.  1.
       -1    1    3    3    0  502 -0.38017899877E+03 -0.67159873181E+03  0.43276052497E+03  0.88479523036E+03  0.50400001928E-02 0. -1.
</event>
<event>
 5   0  0.6814789E-05  0.2293976E+04  0.7818609E-02  0.8480300E-01
        2   -1    0    0  501    0  0.00000000000E+00  0.00000000000E+00  0.76639976979E+03  0.76639976979E+03  0.25500000920E-02 0.  1.
       -2   -1    0    0    0  501  0.00000000000E+00  0.00000000000E+00 -0.17165738271E+04  0.17165738271E+04  0.25500000920E-02 0. -1.
    10030    2    1    2    0    0  0.00000000000E+00  0.00000000000E+00 -0.95017405734E+03  0.24829735969E+04  0.22939762736E+04 0.  0.
        1    1    3    3  502    0  0.10664822545E+04 -0.34557059484E+03 -0.21267008203E+03  0.11410661676E+04  0.50400001928E-02 0.  1.
       -1    1    3    3    0  502 -0.10664822545E+04  0.34557059484E+03 -0.73750397531E+03  0.13419074293E+04  0.50400001928E-02 0. -1.
</event>
<event>
 5   0  0.3118614E-05  0.2280625E+04  0.7818609E-02  0.8485600E-01
        1   -1    0    0  501    0  0.00000000000E+00  0.00000000000E+00  0.10361996103E+04  0.10361996103E+04  0.50400001928E-02 0. -1.
       -1   -1    0    0    0  501  0.00000000000E+00  0.00000000000E+00 -0.12548862720E+04  0.12548862720E+04  0.50400001928E-02 0.  1.
    10030    2    1    2    0    0  0.00000000000E+00  0.00000000000E+00 -0.21868666168E+03  0.22910858823E+04  0.22806250599E+04 0.  0.
        3    1    3    3  502    0  0.65535754893E+03 -0.90590748549E+03 -0.33431418901E+03  0.11670166564E+04  0.10100000352E+00 0.  1.
       -3    1    3    3    0  502 -0.65535754893E+03  0.90590748549E+03  0.11562752733E+03  0.11240692258E+04  0.10100000352E+00 0. -1.
</event>
<event>
 5   0  0.6676612E-05  0.2285577E+04  0.7818609E-02  0.8483630E-01
       -2   -1    0    0    0  501  0.00000000000E+00  0.00000000000E+00  0.85563786334E+03  0.85563786334E+03  0.25500000920E-02 0.  1.
        2   -1    0    0  501    0  0.00000000000E+00  0.00000000000E+00 -0.15263057452E+04  0.15263057452E+04  0.25500000920E-02 0. -1.
    10030    2    1    2    0    0  0.00000000000E+00  0.00000000000E+00 -0.67066788191E+03  0.23819436086E+04  0.22855765020E+04 0.  0.
        2    1    3    3  502    0  0.36645422714E+03 -0.50285830133E+03 -0.13342949238E+04  0.14722425464E+04  0.25500000920E-02 0. -1.
       -2    1    3    3    0  502 -0.36645422714E+03  0.50285830133E+03  0.66362704188E+03  0.90970106218E+03  0.25500000920E-02 0.  1.
</event>
<event>
 5   0  0.2962279E-05  0.2324640E+04  0.7818609E-02  0.8468269E-01
       -1   -1    0    0    0  501  0.00000000000E+00  0.00000000000E+00  0.10109857022E+04  0.10109857022E+04  0.50400001928E-02 0.  1.
        1   -1    0    0  501    0  0.00000000000E+00  0.00000000000E+00 -0.13363075536E+04  0.13363075537E+04  0.50400001928E-02 0. -1.
    10030    2    1    2    0    0  0.00000000000E+00  0.00000000000E+00 -0.32532185143E+03  0.23472932559E+04  0.23246400414E+04 0.  0.
        1    1    3    3  502    0  0.46056610862E+03  0.59942575117E+02  0.91321428727E+03  0.10245362791E+04  0.50400001928E-02 0.  1.
       -1    1    3    3    0  502 -0.46056610862E+03 -0.59942575117E+02 -0.12385361387E+04  0.13227569768E+04  0.50400001928E-02 0. -1.
</event>
<event>
 5   0  0.3118614E-05  0.2263513E+04  0.7818609E-02  0.8492448E-01
        1   -1    0    0  501    0  0.00000000000E+00  0.00000000000E+00  0.73575965038E+03  0.73575965040E+03  0.50400001928E-02 0.  1.
       -1   -1    0    0    0  501  0.00000000000E+00  0.00000000000E+00 -0.17408851220E+04  0.17408851220E+04  0.50400001928E-02 0. -1.
    10030    2    1    2    0    0  0.00000000000E+00  0.00000000000E+00 -0.10051254716E+04  0.24766447724E+04  0.22635132240E+04 0.  0.
        3    1    3    3  502    0  0.10896851456E+04  0.19020578723E+03 -0.76443301344E+03  0.13446002381E+04  0.10100000352E+00 0.  1.
       -3    1    3    3    0  502 -0.10896851456E+04 -0.19020578723E+03 -0.24069245820E+03  0.11320445343E+04  0.10100000352E+00 0. -1.
</event>
<event>
 5   0  0.2962279E-05  0.2269812E+04  0.7818609E-02  0.8489920E-01
       -1   -1    0    0    0  501  0.00000000000E+00  0.00000000000E+00  0.13322738182E+04  0.13322738182E+04  0.50400001928E-02 0.  1.
        1   -1    0    0  501    0  0.00000000000E+00  0.00000000000E+00 -0.96677688124E+03  0.96677688126E+03  0.50400001928E-02 0. -1.
    10030    2    1    2    0    0  0.00000000000E+00  0.00000000000E+00  0.36549693696E+03  0.22990506995E+04  0.22698119102E+04 0.  0.
        1    1    3    3  502    0  0.85084429830E+02  0.24141829594E+03 -0.93715663651E+03  0.97148582862E+03  0.50400001928E-02 0. -1.
       -1    1    3    3    0  502 -0.85084429830E+02 -0.24141829594E+03  0.13026535735E+04  0.13275648709E+04  0.50400001928E-02 0.  1.
</event>
<event>
 5   0  0.6495405E-05  0.2351806E+04  0.7818609E-02  0.8457770E-01
       -2   -1    0    0    0  501  0.00000000000E+00  0.00000000000E+00  0.77539323257E+03  0.77539323258E+03  0.25500000920E-02 0. -1.
        2   -1    0    0  501    0  0.00000000000E+00  0.00000000000E+00 -0.17832866254E+04  0.17832866254E+04  0.25500000920E-02 0.  1.
    10030    2    1    2    0    0  0.00000000000E+00  0.00000000000E+00 -0.10078933928E+04  0.25586798579E+04  0.23518064385E+04 0.  0.
        5    1    3    3  502    0 -0.66603200788E+03  0.93887779038E+03 -0.24275350140E+03  0.11764529286E+04  0.46999998093E+01 0.  1.
       -5    1    3    3    0  502  0.66603200788E+03 -0.93887779038E+03 -0.76513989139E+03  0.13822269293E+04  0.46999998093E+01 0. -1.
</event>
<event>
 5   0  0.6468758E-05  0.2277900E+04  0.7818609E-02  0.8486686E-01
       -2   -1    0    0    0  501  0.00000000000E+00  0.00000000000E+00  0.91229622850E+03  0.91229622851E+03  0.25500000920E-02 0. -1.
        2   -1    0    0  501    0  0.00000000000E+00  0.00000000000E+00 -0.14219139553E+04  0.14219139553E+04  0.25500000920E-02 0.  1.
    10030    2    1    2    0    0  0.00000000000E+00  0.00000000000E+00 -0.50961772678E+03  0.23342101838E+04  0.22778996806E+04 0.  0.
        3    1    3    3  502    0  0.10448083015E+04  0.45341048882E+03 -0.25365400735E+03  0.11668529573E+04  0.10100000352E+00 0. -1.
       -3    1    3    3    0  502 -0.10448083015E+04 -0.45341048882E+03 -0.25596371943E+03  0.11673572265E+04  0.10100000352E+00 0.  1.
</event>
<event>
 5   0  0.6814789E-05  0.2276405E+04  0.7818609E-02  0.8487283E-01
       -2   -1    0    0    0  501  0.00000000000E+00  0.00000000000E+00  0.94561137135E+03  0.94561137136E+03  0.25500000920E-02 0. -1.
        2   -1    0    0  501    0  0.00000000000E+00  0.00000000000E+00 -0.13700184113E+04  0.13700184113E+04  0.25500000920E-02 0.  1.
    10030    2    1    2    0    0  0.00000000000E+00  0.00000000000E+00 -0.42440703995E+03  0.23156297827E+04  0.22764050507E+04 0.  0.
        1    1    3    3  502    0  0.23986711677E+03 -0.46389735259E+03 -0.12409495024E+04  0.13463627501E+04  0.50400001928E-02 0.  1.
       -1    1    3    3    0  502 -0.23986711677E+03  0.46389735259E+03  0.81654246241E+03  0.96926703255E+03  0.50400001928E-02 0. -1.
</event>
<event>
 5   0  0.3006265E-05  0.2272816E+04  0.7818609E-02  0.8488717E-01
       -1   -1    0    0    0  501  0.00000000000E+00  0.00000000000E+00  0.31936985501E+04  0.31936985501E+04  0.50400001928E-02 0. -1.
        1   -1    0    0  501    0  0.00000000000E+00  0.00000000000E+00 -0.40436592269E+03  0.40436592272E+03  0.50400001928E-02 0.  1.
    10030    2    1    2    0    0  0.00000000000E+00  0.00000000000E+00  0.27893326274E+04  0.35980644728E+04  0.22728157524E+04 0.  0.
        2    1    3    3  502    0 -0.51914778780E+03 -0.17308642512E+03 -0.18203524606E+03  0.57672364869E+03  0.25500000920E-02 0.  1.
       -2    1    3    3    0  502  0.51914778780E+03  0.17308642512E+03  0.29713678735E+04  0.30213408241E+04  0.25500000920E-02 0. -1.
</event>
<event>
 5   0  0.2962279E-05  0.2297896E+04  0.7818609E-02  0.8478751E-01
       -1   -1    0    0    0  501  0.00000000000E+00  0.00000000000E+00  0.59851318736E+03  0.59851318738E+03  0.50400001928E-02 0. -1.
        1   -1    0    0  501    0  0.00000000000E+00  0.00000000000E+00 -0.22056009533E+04  0.22056009533E+04  0.50400001928E-02 0.  1.
    10030    2    1    2    0    0  0.00000000000E+00  0.00000000000E+00 -0.16070877659E+04  0.28041141407E+04  0.22978957823E+04 0.  0.
        1    1    3    3  502    0 -0.99945665670E+03 -0.26887096051E+03 -0.14123190326E+04  0.17509569532E+04  0.50400001928E-02 0.  1.
       -1    1    3    3    0  502  0.99945665670E+03  0.26887096051E+03 -0.19476873330E+03  0.10531571875E+04  0.50400001928E-02 0. -1.
</event>
<event>
 5   0  0.6495405E-05  0.1801017E+04  0.7818609E-02  0.8705759E-01
       -2   -1    0    0    0  501  0.00000000000E+00  0.00000000000E+00  0.38938068174E+03  0.38938068175E+03  0.25500000920E-02 0.  1.
        2   -1    0    0  501    0  0.00000000000E+00  0.00000000000E+00 -0.20825774815E+04  0.20825774815E+04  0.25500000920E-02 0. -1.
    10030    2    1    2    0    0  0.00000000000E+00  0.00000000000E+00 -0.16931967997E+04  0.24719581632E+04  0.18010168678E+04 0.  0.
        5    1    3    3  502    0  0.28677160919E+03 -0.77024486617E+03 -0.13516058296E+04  0.15818898565E+04  0.46999998093E+01 0. -1.
       -5    1    3    3    0  502 -0.28677160919E+03  0.77024486617E+03 -0.34159097018E+03  0.89006830670E+03  0.46999998093E+01 0.  1.
</event>
<event>
 5   0  0.2944089E-05  0.2274120E+04  0.7818609E-02  0.8488195E-01
       -1   -1    0    0    0  501  0.00000000000E+00  0.00000000000E+00  0.73589299392E+03  0.73589299393E+03  0.50400001928E-02 0. -1.
        1   -1    0    0  501    0  0.00000000000E+00  0.00000000000E+00 -0.17569211316E+04  0.17569211316E+04  0.50400001928E-02 0.  1.
    10030    2    1    2    0    0  0.00000000000E+00  0.00000000000E+00 -0.10210281377E+04  0.24928141256E+04  0.22741204468E+04 0.  0.
        5    1    3    3  502    0  0.49611542062E+03 -0.92270599968E+03 -0.99502326646E+03  0.14448564853E+04  0.46999998093E+01 0.  1.
       -5    1    3    3    0  502 -0.49611542062E+03  0.92270599968E+03 -0.26004871263E+02  0.10479576402E+04  0.46999998093E+01 0. -1.
</event>
<event>
 5   0  0.2982385E-05  0.2341960E+04  0.7818609E-02  0.8461558E-01
        1   -1    0    0  501    0  0.00000000000E+00  0.00000000000E+00  0.77951969655E+03  0.77951969656E+03  0.50400001928E-02 0.  1.
       -1   -1    0    0    0  501  0.00000000000E+00  0.00000000000E+00 -0.17590245706E+04  0.17590245706E+04  0.50400001928E-02 0. -1.
    10030    2    1    2    0    0  0.00000000000E+00  0.00000000000E+00 -0.97950487406E+03  0.25385442672E+04  0.23419601188E+04 0.  0.
        4    1    3    3  502    0 -0.60459050148E+03 -0.97818479754E+03 -0.72924557569E+03  0.13616812752E+04  0.12699999809E+01 0. -1.
       -4    1    3    3    0  502  0.60459050148E+03  0.97818479754E+03 -0.25025929837E+03  0.11768629920E+04  0.12699999809E+01 0.  1.
</event>
<event>
 5   0  0.6468758E-05  0.2313591E+04  0.7818609E-02  0.8472581E-01
       -2   -1    0    0    0  501  0.00000000000E+00  0.00000000000E+00  0.96142595002E+03  0.96142595002E+03  0.25500000920E-02 0. -1.
        2   -1    0    0  501    0  0.00000000000E+00  0.00000000000E+00 -0.13918660476E+04  0.13918660476E+04  0.25500000920E-02 0.  1.
    10030    2    1    2    0    0  0.00000000000E+00  0.00000000000E+00 -0.43044009756E+03  0.23532919976E+04  0.23135912665E+04 0.  0.
        3    1    3    3  502    0 -0.17796102865E+03 -0.10632938438E+04  0.21139597441E+03  0.10986137602E+04  0.10100000352E+00 0. -1.
       -3    1    3    3    0  502  0.17796102865E+03  0.10632938438E+04 -0.64183607197E+03  0.12546782374E+04  0.10100000352E+00 0.  1.
</event>
<event>
 5   0  0.2944089E-05  0.2284523E+04  0.7818609E-02  0.8484049E-01
       -1   -1    0    0    0  501  0.00000000000E+00  0.00000000000E+00  0.69023838177E+03  0.69023838179E+03  0.50400001928E-02 0. -1.
        1   -1    0    0  501    0  0.00000000000E+00  0.00000000000E+00 -0.18903053916E+04  0.18903053916E+04  0.50400001928E-02 0.  1.
    10030    2    1    2    0    0  0.00000000000E+00  0.00000000000E+00 -0.12000670098E+04  0.25805437734E+04  0.22845230002E+04 0.  0.
        5    1    3    3  502    0  0.11088240461E+03  0.95441797175E+02 -0.18796674401E+04  0.18853582735E+04  0.46999998093E+01 0.  1.
       -5    1    3    3    0  502 -0.11088240461E+03 -0.95441797175E+02  0.67960043029E+03  0.69518549982E+03  0.46999998093E+01 0. -1.
</event>
<event>
 5   0  0.6495405E-05  0.2303330E+04  0.7818609E-02  0.8476609E-01
       -2   -1    0    0    0  501  0.00000000000E+00  0.00000000000E+00  0.98904786006E+03  0.98904786006E+03  0.25500000920E-02 0. -1.
        2   -1    0    0  501    0  0.00000000000E+00  0.00000000000E+00 -0.13410195889E+04  0.13410195889E+04  0.25500000920E-02 0.  1.
    10030    2    1    2    0    0  0.00000000000E+00  0.00000000000E+00 -0.35197172885E+03  0.23300674490E+04  0.23033302453E+04 0.  0.
        5    1    3    3  502    0 -0.10646610156E+04 -0.10391758780E+03 -0.60756271688E+03  0.12302261939E+04  0.46999998093E+01 0.  1.
       -5    1    3    3    0  502  0.10646610156E+04  0.10391758780E+03  0.25559098803E+03  0.10998412551E+04  0.46999998093E+01 0. -1.
</event>
<event>
 5   0  0.6702421E-05  0.2352600E+04  0.7818609E-02  0.8457466E-01
        2   -1    0    0  501    0  0.00000000000E+00  0.00000000000E+00  0.14451794564E+04  0.14451794564E+04  0.25500000920E-02 0. -1.
       -2   -1    0    0    0  501  0.00000000000E+00  0.00000000000E+00 -0.95744653525E+03  0.95744653525E+03  0.25500000920E-02 0.  1.
    10030    2    1    2    0    0  0.00000000000E+00  0.00000000000E+00  0.48773292119E+03  0.24026259917E+04  0.23526003174E+04 0.  0.
        4    1    3    3  502    0  0.51334731892E+03  0.10154846923E+04 -0.60713125455E+02  0.11394833595E+04  0.12699999809E+01 0. -1.
       -4    1    3    3    0  502 -0.51334731892E+03 -0.10154846923E+04  0.54844604664E+03  0.12631426321E+04  0.12699999809E+01 0.  1.
</event>
<event>
 5   0  0.6814789E-05  0.2181707E+04  0.7818609E-02  0.8526081E-01
       -2   -1    0    0    0  501  0.00000000000E+00  0.00000000000E+00  0.11802933086E+04  0.11802933086E+04  0.25500000920E-02 0. -1.
        2   -1    0    0  501    0  0.00000000000E+00  0.00000000000E+00 -0.10081916544E+04  0.10081916544E+04  0.25500000920E-02 0.  1.
    10030    2    1    2    0    0  0.00000000000E+00  0.00000000000E+00  0.17210165421E+03  0.21884849631E+04  0.21817074630E+04 0.  0.
        1    1    3    3  502    0 -0.70556164292E+03  0.54666573635E+03  0.71513634552E+03  0.11437135358E+04  0.50400001928E-02 0.  1.
       -1    1    3    3    0  502  0.70556164292E+03 -0.54666573635E+03 -0.54303469131E+03  0.10447714273E+04  0.50400001928E-02 0. -1.
</event>
<event>
 5   0  0.6814789E-05  0.2255179E+04  0.7818609E-02  0.8495806E-01
       -2   -1    0    0    0  501  0.00000000000E+00  0.00000000000E+00  0.76677831407E+03  0.76677831407E+03  0.25500000920E-02 0.  1.
        2   -1    0    0  501    0  0.00000000000E+00  0.00000000000E+00 -0.16581825405E+04  0.16581825405E+04  0.25500000920E-02 0. -1.
    10030    2    1    2    0    0  0.00000000000E+00  0.00000000000E+00 -0.89140422646E+03  0.24249608546E+04  0.22551792947E+04 0.  0.
        1    1    3    3  502    0  0.27355021124E+03 -0.80355722927E+02  0.72738012139E+03  0.78126090475E+03  0.50400001928E-02 0.  1.
       -1    1    3    3    0  502 -0.27355021124E+03  0.80355722927E+02 -0.16187843478E+04  0.16436999499E+04  0.50400001928E-02 0. -1.
</event>
<event>
 5   0  0.3006265E-05  0.2305316E+04  0.7818609E-02  0.8475828E-01
        1   -1    0    0  501    0  0.00000000000E+00  0.00000000000E+00  0.11827707023E+04  0.11827707023E+04  0.50400001928E-02 0.  1.
       -1   -1    0    0    0  501  0.00000000000E+00  0.00000000000E+00 -0.11233116861E+04  0.11233116861E+04  0.50400001928E-02 0. -1.
    10030    2    1    2    0    0  0.00000000000E+00  0.00000000000E+00  0.59459016184E+02  0.23060823883E+04  0.23053157283E+04 0.  0.
        2    1    3    3  502    0  0.65101802726E+02 -0.90536801491E+03  0.74038160453E+03  0.11713643359E+04  0.25500000920E-02 0.  1.
       -2    1    3    3    0  502 -0.65101802726E+02  0.90536801491E+03 -0.68092258835E+03  0.11347180524E+04  0.25500000920E-02 0. -1.
</event>
<event>
 5   0  0.6814789E-05  0.2318463E+04  0.7818609E-02  0.8470677E-01
        2   -1    0    0  501    0  0.00000000000E+00  0.00000000000E+00  0.21764447388E+04  0.21764447388E+04  0.25500000920E-02 0.  1.
       -2   -1    0    0    0  501  0.00000000000E+00  0.00000000000E+00 -0.61743699128E+03  0.61743699129E+03  0.25500000920E-02 0. -1.
    10030    2    1    2    0    0  0.00000000000E+00  0.00000000000E+00  0.15590077475E+04  0.27938817301E+04  0.23184628453E+04 0.  0.
        1    1    3    3  502    0 -0.19814376284E+03 -0.68207342536E+03 -0.32451085371E+03  0.78089205562E+03  0.50400001928E-02 0. -1.
       -1    1    3    3    0  502  0.19814376284E+03  0.68207342536E+03  0.18835186012E+04  0.20129896745E+04  0.50400001928E-02 0.  1.
</event>
<event>
 5   0  0.2944089E-05  0.2299523E+04  0.7818609E-02  0.8478109E-01
        1   -1    0    0  501    0  0.00000000000E+00  0.00000000000E+00  0.69778940077E+03  0.69778940079E+03  0.50400001928E-02 0.  1.
       -1   -1    0    0    0  501  0.00000000000E+00  0.00000000000E+00 -0.18944855242E+04  0.18944855242E+04  0.50400001928E-02 0. -1.
    10030    2    1    2    0    0  0.00000000000E+00  0.00000000000E+00 -0.11966961234E+04  0.25922749250E+04  0.22995233582E+04 0.  0.
        5    1    3    3  502    0  0.26936846905E+03 -0.42880561585E+03  0.56529339734E+03  0.75895477031E+03  0.46999998093E+01 0.  1.
       -5    1    3    3    0  502 -0.26936846905E+03  0.42880561585E+03 -0.17619895208E+04  0.18333201547E+04  0.46999998093E+01 0. -1.
</event>
<event>
 5   0  0.3118614E-05  0.2321688E+04  0.7818609E-02  0.8469419E-01
        1   -1    0    0  501    0  0.00000000000E+00  0.00000000000E+00  0.14968771834E+04  0.14968771834E+04  0.50400001928E-02 0. -1.
       -1   -1    0    0    0  501  0.00000000000E+00  0.00000000000E+00 -0.90024670072E+03  0.90024670073E+03  0.50400001928E-02 0.  1.
    10030    2    1    2    0    0  0.00000000000E+00  0.00000000000E+00  0.59663048270E+03  0.23971238842E+04  0.23216879599E+04 0.  0.
        3    1    3    3  502    0  0.16232394086E+03 -0.11337890798E+04  0.49348623391E+03  0.12471388906E+04  0.10100000352E+00 0. -1.
       -3    1    3    3    0  502 -0.16232394086E+03  0.11337890798E+04  0.10314424879E+03  0.11499849936E+04  0.10100000352E+00 0.  1.
</event>
<event>
 5   0  0.6702421E-05  0.2283731E+04  0.7818609E-02  0.8484363E-01
        2   -1    0    0  501    0  0.00000000000E+00  0.00000000000E+00  0.16360588271E+04  0.16360588271E+04  0.25500000920E-02 0.  1.
       -2   -1    0    0    0  501  0.00000000000E+00  0.00000000000E+00 -0.79694995142E+03  0.79694995142E+03  0.25500000920E-02 0. -1.
    10030    2    1    2    0    0  0.00000000000E+00  0.00000000000E+00  0.83910887565E+03  0.24330087785E+04  0.22837311600E+04 0.  0.
        4    1    3    3  502    0 -0.53554198208E+03 -0.38034140323E+03  0.14146257027E+04  0.15596898054E+04  0.12699999809E+01 0.  1.
       -4    1    3    3    0  502  0.53554198208E+03  0.38034140323E+03 -0.57551682704E+03  0.87331897305E+03  0.12699999809E+01 0. -1.
</event>
<event>
 5   0  0.2982385E-05  0.2344251E+04  0.7818609E-02  0.8460675E-01
       -1   -1    0    0    0  501  0.00000000000E+00  0.00000000000E+00  0.13785248723E+04  0.13785248723E+04  0.50400001928E-02 0. -1.
        1   -1    0    0  501    0  0.00000000000E+00  0.00000000000E+00 -0.99662892019E+03  0.99662892020E+03  0.50400001928E-02 0.  1.
    10030    2    1    2    0    0  0.00000000000E+00  0.00000000000E+00  0.38189595207E+03  0.23751537925E+04  0.23442506307E+04 0.  0.
        4    1    3    3  502    0  0.29141941005E+03 -0.71543710726E+03 -0.70220596826E+03  0.10439685636E+04  0.12699999809E+01 0.  1.
       -4    1    3    3    0  502 -0.29141941005E+03  0.71543710726E+03  0.10841019203E+04  0.13311852289E+04  0.12699999809E+01 0. -1.
</event>
<event>
 5   0  0.6468758E-05  0.2311235E+04  0.7818609E-02  0.8473504E-01
       -2   -1    0    0    0  501  0.00000000000E+00  0.00000000000E+00  0.10881320109E+04  0.10881320110E+04  0.25500000920E-02 0. -1.
        2   -1    0    0  501    0  0.00000000000E+00  0.00000000000E+00 -0.12272889031E+04  0.12272889031E+04  0.25500000920E-02 0.  1.
    10030    2    1    2    0    0  0.00000000000E+00  0.00000000000E+00 -0.13915689217E+03  0.23154209141E+04  0.23112354637E+04 0.  0.
        3    1    3    3  502    0 -0.96104709376E+03 -0.64104319359E+03 -0.99706808027E+02  0.11595211728E+04  0.10100000352E+00 0.  1.
       -3    1    3    3    0  502  0.96104709376E+03  0.64104319359E+03 -0.39450084140E+02  0.11558997412E+04  0.10100000352E+00 0. -1.
</event>
<event>
 5   0  0.6468758E-05  0.2262560E+04  0.7818609E-02  0.8492831E-01
        2   -1    0    0  501    0  0.00000000000E+00  0.00000000000E+00  0.10588685658E+04  0.10588685658E+04  0.25500000920E-02 0. -1.
       -2   -1    0    0    0  501  0.00000000000E+00  0.00000000000E+00 -0.12086428653E+04  0.12086428653E+04  0.25500000920E-02 0.  1.
    10030    2    1    2    0    0  0.00000000000E+00  0.00000000000E+00 -0.14977429944E+03  0.22675114311E+04  0.22625595571E+04 0.  0.
        3    1    3    3  502    0  0.12866107808E+03  0.82998155191E+03 -0.83441844170E+03  0.11839244890E+04  0.10100000352E+00 0.  1.
       -3    1    3    3    0  502 -0.12866107808E+03 -0.82998155191E+03  0.68464414225E+03  0.10835869422E+04  0.10100000352E+00 0. -1.
</event>
<event>
 5   0  0.6468758E-05  0.2284242E+04  0.7818609E-02  0.8484160E-01
        2   -1    0    0  501    0  0.00000000000E+00  0.00000000000E+00  0.12614856543E+04  0.12614856543E+04  0.25500000920E-02 0.  1.
       -2   -1    0    0    0  501  0.00000000000E+00  0.00000000000E+00 -0.10340512590E+04  0.10340512590E+04  0.25500000920E-02 0. -1.
    10030    2    1    2    0    0  0.00000000000E+00  0.00000000000E+00  0.22743439529E+03  0.22955369133E+04  0.22842423943E+04 0.  0.
        3    1    3    3  502    0 -0.42003488364E+03 -0.10435285438E+04  0.31232966656E+03  0.11674463396E+04  0.10100000352E+00 0.  1.
       -3    1    3    3    0  502  0.42003488364E+03  0.10435285438E+04 -0.84895271270E+02  0.11280905737E+04  0.10100000352E+00 0. -1.
</event>
<event>
 5   0  0.3006265E-05  0.1712479E+04  0.7818609E-02  0.8754279E-01
       -1   -1    0    0    0  501  0.00000000000E+00  0.00000000000E+00  0.78959076527E+03  0.78959076529E+03  0.50400001928E-02 0. -1.
        1   -1    0    0  501    0  0.00000000000E+00  0.00000000000E+00 -0.92851438099E+03  0.92851438100E+03  0.50400001928E-02 0.  1.
    10030    2    1    2    0    0  0.00000000000E+00  0.00000000000E+00 -0.13892361572E+03  0.17181051463E+04  0.17124793496E+04 0.  0.
        2    1    3    3  502    0  0.44906821580E+03 -0.70136163959E+03  0.13012883307E+03  0.84291394883E+03  0.25500000920E-02 0.  1.
       -2    1    3    3    0  502 -0.44906821580E+03  0.70136163959E+03 -0.26905244879E+03  0.87519119747E+03  0.25500000920E-02 0. -1.
</event>
<event>
 5   0  0.6495405E-05  0.2310753E+04  0.7818609E-02  0.8473693E-01
        2   -1    0    0  501    0  0.00000000000E+00  0.00000000000E+00  0.11042285941E+04  0.11042285941E+04  0.25500000920E-02 0. -1.
       -2   -1    0    0    0  501  0.00000000000E+00  0.00000000000E+00 -0.12088938308E+04  0.12088938308E+04  0.25500000920E-02 0.  1.
    10030    2    1    2    0    0  0.00000000000E+00  0.00000000000E+00 -0.10466523673E+03  0.23131224249E+04  0.23107532410E+04 0.  0.
        5    1    3    3  502    0  0.86727181440E+03 -0.35289684700E+01 -0.81646328343E+03  0.11911369513E+04  0.46999998093E+01 0.  1.
       -5    1    3    3    0  502 -0.86727181440E+03  0.35289684700E+01  0.71179804670E+03  0.11219854736E+04  0.46999998093E+01 0. -1.
</event>
<event>
 5   0  0.6495405E-05  0.2364083E+04  0.7818609E-02  0.8453074E-01
       -2   -1    0    0    0  501  0.00000000000E+00  0.00000000000E+00  0.73650473851E+03  0.73650473852E+03  0.25500000920E-02 0.  1.
        2   -1    0    0  501    0  0.00000000000E+00  0.00000000000E+00 -0.18970983688E+04  0.18970983688E+04  0.25500000920E-02 0. -1.
    10030    2    1    2    0    0  0.00000000000E+00  0.00000000000E+00 -0.11605936303E+04  0.26336031073E+04  0.23640828565E+04 0.  0.
        5    1    3    3  502    0 -0.50028700267E+03 -0.23061998240E+03 -0.17453403013E+04  0.18302206202E+04  0.46999998093E+01 0. -1.
       -5    1    3    3    0  502  0.50028700267E+03  0.23061998240E+03  0.58474667101E+03  0.80338248710E+03  0.46999998093E+01 0.  1.
</event>
<event>
 5   0  0.6702421E-05  0.2256843E+04  0.7818609E-02  0.8495134E-01
       -2   -1    0    0    0  501  0.00000000000E+00  0.00000000000E+00  0.96926956297E+03  0.96926956298E+03  0.25500000920E-02 0. -1.
        2   -1    0    0  501    0  0.00000000000E+00  0.00000000000E+00 -0.13137059357E+04  0.13137059357E+04  0.25500000920E-02 0.  1.
    10030    2    1    2    0    0  0.00000000000E+00  0.00000000000E+00 -0.34443637272E+03  0.22829754987E+04  0.22568430855E+04 0.  0.
        4    1    3    3  502    0 -0.52640674163E+03  0.63447021548E+03  0.60720804492E+03  0.10238943962E+04  0.12699999809E+01 0. -1.
       -4    1    3    3    0  502  0.52640674163E+03 -0.63447021548E+03 -0.95164441764E+03  0.12590811024E+04  0.12699999809E+01 0.  1.
</event>
<event>
 5   0  0.6702421E-05  0.2301966E+04  0.7818609E-02  0.8477146E-01
        2   -1    0    0  501    0  0.00000000000E+00  0.00000000000E+00  0.15652871617E+04  0.15652871617E+04  0.25500000920E-02 0.  1.
       -2   -1    0    0    0  501  0.00000000000E+00  0.00000000000E+00 -0.84633825120E+03  0.84633825121E+03  0.25500000920E-02 0. -1.
    10030    2    1    2    0    0  0.00000000000E+00  0.00000000000E+00  0.71894891051E+03  0.24116254129E+04  0.23019664629E+04 0.  0.
        4    1    3    3  502    0  0.74249535184E+03 -0.24928214853E+03 -0.52410034940E+03  0.94240316543E+03  0.12699999809E+01 0. -1.
       -4    1    3    3    0  502 -0.74249535184E+03  0.24928214853E+03  0.12430492599E+04  0.14692222475E+04  0.12699999809E+01 0.  1.
</event>
<event>
 5   0  0.3006265E-05  0.2432408E+04  0.7818609E-02  0.8427469E-01
       -1   -1    0    0    0  501  0.00000000000E+00  0.00000000000E+00  0.19670206079E+04  0.19670206079E+04  0.50400001928E-02 0. -1.
        1   -1    0    0  501    0  0.00000000000E+00  0.00000000000E+00 -0.75197597987E+03  0.75197597988E+03  0.50400001928E-02 0.  1.
    10030    2    1    2    0    0  0.00000000000E+00  0.00000000000E+00  0.12150446280E+04  0.27189965878E+04  0.24324080653E+04 0.  0.
        2    1    3    3  502    0 -0.42028988874E+03  0.30753727088E+03 -0.62102820308E+03  0.81049293185E+03  0.25500000920E-02 0.  1.
       -2    1    3    3    0  502  0.42028988874E+03 -0.30753727088E+03  0.18360728311E+04  0.19085036559E+04  0.25500000920E-02 0. -1.
</event>
<event>
 5   0  0.6468758E-05  0.2271474E+04  0.7818609E-02  0.8489254E-01
       -2   -1    0    0    0  501  0.00000000000E+00  0.00000000000E+00  0.82808437363E+03  0.82808437363E+03  0.25500000920E-02 0. -1.
        2   -1    0    0  501    0  0.00000000000E+00  0.00000000000E+00 -0.15576900519E+04  0.15576900519E+04  0.25500000920E-02 0.  1.
    10030    2    1    2    0    0  0.00000000000E+00  0.00000000000E+00 -0.72960567824E+03  0.23857744255E+04  0.22714742269E+04 0.  0.
        3    1    3    3  502    0 -0.83657449802E+02  0.10794982093E+04 -0.72496274372E+03  0.13030295249E+04  0.10100000352E+00 0.  1.
       -3    1    3    3    0  502  0.83657449802E+02 -0.10794982093E+04 -0.46429345214E+01  0.10827449006E+04  0.10100000352E+00 0. -1.
</event>
<event>
 5   0  0.2982385E-05  0.2274182E+04  0.7818609E-02  0.8488171E-01
       -1   -1    0    0    0  501  0.00000000000E+00  0.00000000000E+00  0.78834443420E+03  0.78834443422E+03  0.50400001928E-02 0.  1.
        1   -1    0    0  501    0  0.00000000000E+00  0.00000000000E+00 -0.16401149783E+04  0.16401149783E+04  0.50400001928E-02 0. -1.
    10030    2    1    2    0    0  0.00000000000E+00  0.00000000000E+00 -0.85177054406E+03  0.24284594125E+04  0.22741816239E+04 0.  0.
        4    1    3    3  502    0 -0.95704333271E+03 -0.61075668265E+03 -0.35819544525E+03  0.11904878227E+04  0.12699999809E+01 0. -1.
       -4    1    3    3    0  502  0.95704333271E+03  0.61075668265E+03 -0.49357509881E+03  0.12379715898E+04  0.12699999809E+01 0.  1.
</event>
<event>
 5   0  0.6814789E-05  0.2298328E+04  0.7818609E-02  0.8478581E-01
       -2   -1    0    0    0  501  0.00000000000E+00  0.00000000000E+00  0.53280189815E+03  0.53280189816E+03  0.25500000920E-02 0.  1.
        2   -1    0    0  501    0  0.00000000000E+00  0.00000000000E+00 -0.24785526772E+04  0.24785526772E+04  0.25500000920E-02 0. -1.
    10030    2    1    2    0    0  0.00000000000E+00  0.00000000000E+00 -0.19457507790E+04  0.30113545753E+04  0.22983277147E+04 0.  0.
        1    1    3    3  502    0  0.24128957623E+03  0.43025712409E+03  0.38701941171E+03  0.62699750996E+03  0.50400001928E-02 0.  1.
       -1    1    3    3    0  502 -0.24128957623E+03 -0.43025712409E+03 -0.23327701907E+04  0.23843570654E+04  0.50400001928E-02 0. -1.
</event>
<event>
 5   0  0.6676612E-05  0.2297730E+04  0.7818609E-02  0.8478817E-01
        2   -1    0    0  501    0  0.00000000000E+00  0.00000000000E+00  0.10551700261E+04  0.10551700261E+04  0.25500000920E-02 0. -1.
       -2   -1    0    0    0  501  0.00000000000E+00  0.00000000000E+00 -0.12508797789E+04  0.12508797789E+04  0.25500000920E-02 0.  1.
    10030    2    1    2    0    0  0.00000000000E+00  0.00000000000E+00 -0.19570975278E+03  0.23060498050E+04  0.22977300529E+04 0.  0.
        2    1    3    3  502    0  0.66768663723E+03 -0.71159585352E+03  0.51073732305E+03  0.11013749214E+04  0.25500000920E-02 0. -1.
       -2    1    3    3    0  502 -0.66768663723E+03  0.71159585352E+03 -0.70644707583E+03  0.12046748836E+04  0.25500000920E-02 0.  1.
</event>
<event>
 5   0  0.2982385E-05  0.2289170E+04  0.7818609E-02  0.8482203E-01
       -1   -1    0    0    0  501  0.00000000000E+00  0.00000000000E+00  0.90673188016E+03  0.90673188017E+03  0.50400001928E-02 0. -1.
        1   -1    0    0  501    0  0.00000000000E+00  0.00000000000E+00 -0.14448320131E+04  0.14448320131E+04  0.50400001928E-02 0.  1.
    10030    2    1    2    0    0  0.00000000000E+00  0.00000000000E+00 -0.53810013295E+03  0.23515638933E+04  0.22891703718E+04 0.  0.
        4    1    3    3  502    0 -0.93220594936E+03  0.55008594782E+03  0.11320946308E+03  0.10883108368E+04  0.12699999809E+01 0. -1.
       -4    1    3    3    0  502  0.93220594936E+03 -0.55008594782E+03 -0.65130959603E+03  0.12632530565E+04  0.12699999809E+01 0.  1.
</event>
<event>
 5   0  0.3006265E-05  0.2322221E+04  0.7818609E-02  0.8469211E-01
       -1   -1    0    0    0  501  0.00000000000E+00  0.00000000000E+00  0.85765842946E+03  0.85765842948E+03  0.50400001928E-02 0. -1.
        1   -1    0    0  501    0  0.00000000000E+00  0.00000000000E+00 -0.15719282375E+04  0.15719282376E+04  0.50400001928E-02 0.  1.
    10030    2    1    2    0    0  0.00000000000E+00  0.00000000000E+00 -0.71426980808E+03  0.24295866670E+04  0.23222209227E+04 0.  0.
        2    1    3    3  502    0 -0.45420289459E+03 -0.39103322274E+02  0.76010797645E+03  0.88633711145E+03  0.25500000920E-02 0. -1.
       -2    1    3    3    0  502  0.45420289459E+03  0.39103322274E+02 -0.14743777845E+04  0.15432495556E+04  0.25500000920E-02 0.  1.
</event>
<event>
 5   0  0.6702421E-05  0.2347221E+04  0.7818609E-02  0.8459532E-01
        2   -1    0    0  501    0  0.00000000000E+00  0.00000000000E+00  0.20320996169E+04  0.20320996169E+04  0.25500000920E-02 0.  1.
       -2   -1    0    0    0  501  0.00000000000E+00  0.00000000000E+00 -0.67780239764E+03  0.67780239765E+03  0.25500000920E-02 0. -1.
    10030    2    1    2    0    0  0.00000000000E+00  0.00000000000E+00  0.13542972192E+04  0.27099020145E+04  0.23472213296E+04 0.  0.
        4    1    3    3  502    0  0.54829768693E+03  0.70405820371E+03  0.15571829056E+04  0.17947558391E+04  0.12699999809E+01 0.  1.
       -4    1    3    3    0  502 -0.54829768693E+03 -0.70405820371E+03 -0.20288568636E+03  0.91514617540E+03  0.12699999809E+01 0. -1.
</event>
<event>
 5   0  0.6702421E-05  0.2246106E+04  0.7818609E-02  0.8499479E-01
        2   -1    0    0  501    0  0.00000000000E+00  0.00000000000E+00  0.13066714437E+04  0.13066714437E+04  0.25500000920E-02 0.  1.
       -2   -1    0    0    0  501  0.00000000000E+00  0.00000000000E+00 -0.96523760959E+03  0.96523760959E+03  0.25500000920E-02 0. -1.
    10030    2    1    2    0    0  0.00000000000E+00  0.00000000000E+00  0.34143383407E+03  0.22719090532E+04  0.22461063383E+04 0.  0.
        4    1    3    3  502    0  0.38398168392E+03  0.37194484418E+03 -0.82828376783E+03  0.98581971661E+03  0.12699999809E+01 0. -1.
       -4    1    3    3    0  502 -0.38398168392E+03 -0.37194484418E+03  0.11697176019E+04  0.12860893366E+04  0.12699999809E+01 0.  1.
</event>
<event>
 5   0  0.2982385E-05  0.2278976E+04  0.7818609E-02  0.8486257E-01
       -1   -1    0    0    0  501  0.00000000000E+00  0.00000000000E+00  0.11546047186E+04  0.11546047186E+04  0.50400001928E-02 0.  1.
        1   -1    0    0  501    0  0.00000000000E+00  0.00000000000E+00 -0.11245691656E+04  0.11245691656E+04  0.50400001928E-02 0. -1.
    10030    2    1    2    0    0  0.00000000000E+00  0.00000000000E+00  0.30035553058E+02  0.22791738842E+04  0.22789759674E+04 0.  0.
        4    1    3    3  502    0 -0.14795858460E+03 -0.40502969222E+03 -0.10398204546E+04  0.11256860064E+04  0.12699999809E+01 0. -1.
       -4    1    3    3    0  502  0.14795858460E+03  0.40502969222E+03  0.10698560076E+04  0.11534878778E+04  0.12699999809E+01 0.  1.
</event>
<event>
 5   0  0.3006265E-05  0.2223859E+04  0.7818609E-02  0.8508563E-01
       -1   -1    0    0    0  501  0.00000000000E+00  0.00000000000E+00  0.98131730886E+03  0.98131730887E+03  0.50400001928E-02 0.  1.
        1   -1    0    0  501    0  0.00000000000E+00  0.00000000000E+00 -0.12599258920E+04  0.12599258921E+04  0.50400001928E-02 0. -1.
    10030    2    1    2    0    0  0.00000000000E+00  0.00000000000E+00 -0.27860858319E+03  0.22412432009E+04  0.22238588856E+04 0.  0.
        2    1    3    3  502    0 -0.60367854281E+03 -0.72960998408E+02 -0.10775144286E+04  0.12372503523E+04  0.25500000920E-02 0. -1.
       -2    1    3    3    0  502  0.60367854281E+03  0.72960998408E+02  0.79890584540E+03  0.10039928487E+04  0.25500000920E-02 0.  1.
</event>
<event>
 5   0  0.6495405E-05  0.2329862E+04  0.7818609E-02  0.8466239E-01
        2   -1    0    0  501    0  0.00000000000E+00  0.00000000000E+00  0.14511069156E+04  0.14511069156E+04  0.25500000920E-02 0.  1.
       -2   -1    0    0    0  501  0.00000000000E+00  0.00000000000E+00 -0.93519262090E+03  0.93519262090E+03  0.25500000920E-02 0. -1.
    10030    2    1    2    0    0  0.00000000000E+00  0.00000000000E+00  0.51591429475E+03  0.23862995365E+04  0.23298622102E+04 0.  0.
        5    1    3    3  502    0 -0.32412357014E+03 -0.76958577908E+03  0.10898662400E+04  0.13730072364E+04  0.46999998093E+01 0.  1.
       -5    1    3    3    0  502  0.32412357014E+03  0.76958577908E+03 -0.57395194525E+03  0.10132923002E+04  0.46999998093E+01 0. -1.
</event>
<event>
 5   0  0.6495405E-05  0.2291933E+04  0.7818609E-02  0.8481108E-01
       -2   -1    0    0    0  501  0.00000000000E+00  0.00000000000E+00  0.99598906037E+03  0.99598906038E+03  0.25500000920E-02 0. -1.
        2   -1    0    0  501    0  0.00000000000E+00  0.00000000000E+00 -0.13185283275E+04  0.13185283275E+04  0.25500000920E-02 0.  1.
    10030    2    1    2    0    0  0.00000000000E+00  0.00000000000E+00 -0.32253926713E+03  0.23145173879E+04  0.22919334982E+04 0.  0.
        5    1    3    3  502    0  0.28607905259E+02  0.11042585465E+04  0.14671478463E+03  0.11143395657E+04  0.46999998093E+01 0. -1.
       -5    1    3    3    0  502 -0.28607905259E+02 -0.11042585465E+04 -0.46925405176E+03  0.12001778222E+04  0.46999998093E+01 0.  1.
</event>
<event>
 5   0  0.2944089E-05  0.2301929E+04  0.7818609E-02  0.8477161E-01
       -1   -1    0    0    0  501  0.00000000000E+00  0.00000000000E+00  0.80057368831E+03  0.80057368833E+03  0.50400001928E-02 0.  1.
        1   -1    0    0  501    0  0.00000000000E+00  0.00000000000E+00 -0.16547126186E+04  0.16547126186E+04  0.50400001928E-02 0. -1.
    10030    2    1    2    0    0  0.00000000000E+00  0.00000000000E+00 -0.85413893032E+03  0.24552863070E+04  0.23019290903E+04 0.  0.
        5    1    3    3  502    0  0.44808694852E+03 -0.92543635201E+03  0.12457370278E+03  0.10357388920E+04  0.46999998093E+01 0.  1.
       -5    1    3    3    0  502 -0.44808694852E+03  0.92543635201E+03 -0.97871263310E+03  0.14195474149E+04  0.46999998093E+01 0. -1.
</event>
<event>
 5   0  0.6676612E-05  0.2305601E+04  0.7818609E-02  0.8475716E-01
        2   -1    0    0  501    0  0.00000000000E+00  0.00000000000E+00  0.15001191837E+04  0.15001191837E+04  0.25500000920E-02 0.  1.
       -2   -1    0    0    0  501  0.00000000000E+00  0.00000000000E+00 -0.88589532466E+03  0.88589532466E+03  0.25500000920E-02 0. -1.
    10030    2    1    2    0    0  0.00000000000E+00  0.00000000000E+00  0.61422385909E+03  0.23860145084E+04  0.23056006344E+04 0.  0.
        2    1    3    3  502    0 -0.43038322810E+03  0.33077917229E+03  0.13595900995E+04  0.14639432443E+04  0.25500000920E-02 0.  1.
       -2    1    3    3    0  502  0.43038322810E+03 -0.33077917229E+03 -0.74536624038E+03  0.92207126414E+03  0.25500000920E-02 0. -1.
</event>
<event>
 5   0  0.2982385E-05  0.2150054E+04  0.7818609E-02  0.8539509E-01
       -1   -1    0    0    0  501  0.00000000000E+00  0.00000000000E+00  0.95442837920E+03  0.95442837921E+03  0.50400001928E-02 0.  1.
        1   -1    0    0  501    0  0.00000000000E+00  0.00000000000E+00 -0.12108643340E+04  0.12108643340E+04  0.50400001928E-02 0. -1.
    10030    2    1    2    0    0  0.00000000000E+00  0.00000000000E+00 -0.25643595482E+03  0.21652927132E+04  0.21500542168E+04 0.  0.
        4    1    3    3  502    0 -0.91975540437E+03 -0.30595635247E+03  0.33996656515E+03  0.10271991880E+04  0.12699999809E+01 0.  1.
       -4    1    3    3    0  502  0.91975540437E+03  0.30595635247E+03 -0.59640251997E+03  0.11380935253E+04  0.12699999809E+01 0. -1.
</event>
<event>
 5   0  0.6468758E-05  0.2325997E+04  0.7818609E-02  0.8467741E-01
        2   -1    0    0  501    0  0.00000000000E+00  0.00000000000E+00  0.12917910719E+04  0.12917910719E+04  0.25500000920E-02 0. -1.
       -2   -1    0    0    0  501  0.00000000000E+00  0.00000000000E+00 -0.10470469944E+04  0.10470469944E+04  0.25500000920E-02 0.  1.
    10030    2    1    2    0    0  0.00000000000E+00  0.00000000000E+00  0.24474407749E+03  0.23388380664E+04  0.23259973855E+04 0.  0.
        3    1    3    3  502    0  0.89146853925E+03 -0.42772480883E+03  0.73804402532E+03  0.12338450722E+04  0.10100000352E+00 0. -1.
       -3    1    3    3    0  502 -0.89146853925E+03  0.42772480883E+03 -0.49329994783E+03  0.11049929942E+04  0.10100000352E+00 0.  1.
</event>
<event>
 5   0  0.6495405E-05  0.2309564E+04  0.7818609E-02  0.8474160E-01
       -2   -1    0    0    0  501  0.00000000000E+00  0.00000000000E+00  0.12929654832E+04  0.12929654832E+04  0.25500000920E-02 0. -1.
        2   -1    0    0  501    0  0.00000000000E+00  0.00000000000E+00 -0.10313667102E+04  0.10313667102E+04  0.25500000920E-02 0.  1.
    10030    2    1    2    0    0  0.00000000000E+00  0.00000000000E+00  0.26159877299E+03  0.23243321934E+04  0.23095640773E+04 0.  0.
        5    1    3    3  502    0 -0.37517483795E+03  0.57580838333E+03 -0.80313672850E+03  0.10570535218E+04  0.46999998093E+01 0.  1.
       -5    1    3    3    0  502  0.37517483795E+03 -0.57580838333E+03  0.10647355015E+04  0.12672786716E+04  0.46999998093E+01 0. -1.
</event>
<event>
 5   0  0.6676612E-05  0.2320874E+04  0.7818609E-02  0.8469736E-01
       -2   -1    0    0    0  501  0.00000000000E+00  0.00000000000E+00  0.16959261089E+04  0.16959261089E+04  0.25500000920E-02 0. -1.
        2   -1    0    0  501    0  0.00000000000E+00  0.00000000000E+00 -0.79402872714E+03  0.79402872714E+03  0.25500000920E-02 0.  1.
    10030    2    1    2    0    0  0.00000000000E+00  0.00000000000E+00  0.90189738175E+03  0.24899548360E+04  0.23208740160E+04 0.  0.
        2    1    3    3  502    0 -0.57446494830E+03  0.94672475855E+03  0.78812296764E+02  0.11101842745E+04  0.25500000920E-02 0.  1.
       -2    1    3    3    0  502  0.57446494830E+03 -0.94672475855E+03  0.82308508498E+03  0.13797705615E+04  0.25500000920E-02 0. -1.
</event>
<event>
 5   0  0.3118614E-05  0.2291568E+04  0.7818609E-02  0.8481253E-01
        1   -1    0    0  501    0  0.00000000000E+00  0.00000000000E+00  0.21080575712E+04  0.21080575712E+04  0.50400001928E-02 0.  1.
       -1   -1    0    0    0  501  0.00000000000E+00  0.00000000000E+00 -0.62276333765E+03  0.62276333767E+03  0.50400001928E-02 0. -1.
    10030    2    1    2    0    0  0.00000000000E+00  0.00000000000E+00  0.14852942335E+04  0.27308209088E+04  0.22915679951E+04 0.  0.
        3    1    3    3  502    0  0.28447510322E+03  0.83309954023E+03 -0.13130378089E+03  0.89006832398E+03  0.10100000352E+00 0. -1.
       -3    1    3    3    0  502 -0.28447510322E+03 -0.83309954023E+03  0.16165980144E+04  0.18407525848E+04  0.10100000352E+00 0.  1.
</event>
<event>
 5   0  0.6676612E-05  0.2299787E+04  0.7818609E-02  0.8478005E-01
        2   -1    0    0  501    0  0.00000000000E+00  0.00000000000E+00  0.15405837806E+04  0.15405837806E+04  0.25500000920E-02 0.  1.
       -2   -1    0    0    0  501  0.00000000000E+00  0.00000000000E+00 -0.85828149380E+03  0.85828149381E+03  0.25500000920E-02 0. -1.
    10030    2    1    2    0    0  0.00000000000E+00  0.00000000000E+00  0.68230228683E+03  0.23988652745E+04  0.22997865541E+04 0.  0.
        2    1    3    3  502    0 -0.97565118252E+03 -0.15235228148E+03  0.95572732406E+03  0.13742347564E+04  0.25500000920E-02 0.  1.
       -2    1    3    3    0  502  0.97565118252E+03  0.15235228148E+03 -0.27342503723E+03  0.10246305181E+04  0.25500000920E-02 0. -1.
</event>
<event>
 5   0  0.2944089E-05  0.2228320E+04  0.7818609E-02  0.8506732E-01
       -1   -1    0    0    0  501  0.00000000000E+00  0.00000000000E+00  0.13219518492E+04  0.13219518493E+04  0.50400001928E-02 0. -1.
        1   -1    0    0  501    0  0.00000000000E+00  0.00000000000E+00 -0.93903038581E+03  0.93903038583E+03  0.50400001928E-02 0.  1.
    10030    2    1    2    0    0  0.00000000000E+00  0.00000000000E+00  0.38292146343E+03  0.22609822351E+04  0.22283204034E+04 0.  0.
        5    1    3    3  502    0  0.11949830296E+03  0.11054957316E+04  0.26270536184E+03  0.11425571557E+04  0.46999998093E+01 0. -1.
       -5    1    3    3    0  502 -0.11949830296E+03 -0.11054957316E+04  0.12021610159E+03  0.11184250793E+04  0.46999998093E+01 0.  1.
</event>
<event>
 5   0  0.2982385E-05  0.2312659E+04  0.7818609E-02  0.8472947E-01
       -1   -1    0    0    0  501  0.00000000000E+00  0.00000000000E+00  0.72961548618E+03  0.72961548620E+03  0.50400001928E-02 0.  1.
        1   -1    0    0  501    0  0.00000000000E+00  0.00000000000E+00 -0.18326060774E+04  0.18326060774E+04  0.50400001928E-02 0. -1.
    10030    2    1    2    0    0  0.00000000000E+00  0.00000000000E+00 -0.11029905912E+04  0.25622215636E+04  0.23126588803E+04 0.  0.
        4    1    3    3  502    0  0.25442965518E+03  0.89262791213E+03 -0.13155343891E+04  0.16100159567E+04  0.12699999809E+01 0. -1.
       -4    1    3    3    0  502 -0.25442965518E+03 -0.89262791213E+03  0.21254379789E+03  0.95220560693E+03  0.12699999809E+01 0.  1.
</event>
<event>
 5   0  0.6468758E-05  0.2299983E+04  0.7818609E-02  0.8477928E-01
        2   -1    0    0  501    0  0.00000000000E+00  0.00000000000E+00  0.16846077185E+04  0.16846077185E+04  0.25500000920E-02 0.  1.
       -2   -1    0    0    0  501  0.00000000000E+00  0.00000000000E+00 -0.78503762023E+03  0.78503762024E+03  0.25500000920E-02 0. -1.
    10030    2    1    2    0    0  0.00000000000E+00  0.00000000000E+00  0.89957009824E+03  0.24696453387E+04  0.22999829863E+04 0.  0.
        3    1    3    3  502    0  0.80552075123E+03  0.41405458824E+03  0.12107028504E+04  0.15119875280E+04  0.10100000352E+00 0.  1.
       -3    1    3    3    0  502 -0.80552075123E+03 -0.41405458824E+03 -0.31113275216E+03  0.95765781069E+03  0.10100000352E+00 0. -1.
</event>
<event>
 5   0  0.3118614E-05  0.2279721E+04  0.7818609E-02  0.8485960E-01
       -1   -1    0    0    0  501  0.00000000000E+00  0.00000000000E+00  0.13114662289E+04  0.13114662289E+04  0.50400001928E-02 0.  1.
        1   -1    0    0  501    0  0.00000000000E+00  0.00000000000E+00 -0.99070967306E+03  0.99070967307E+03  0.50400001928E-02 0. -1.
    10030    2    1    2    0    0  0.00000000000E+00  0.00000000000E+00  0.32075655588E+03  0.23021759020E+04  0.22797212803E+04 0.  0.
        3    1    3    3  502    0 -0.11332027096E+04  0.88924593676E+02  0.24622325139E+03  0.11630485219E+04  0.10100000352E+00 0.  1.
       -3    1    3    3    0  502  0.11332027096E+04 -0.88924593676E+02  0.74533304489E+02  0.11391273801E+04  0.10100000352E+00 0. -1.
</event>
<event>
 5   0  0.3006265E-05  0.2213361E+04  0.7818609E-02  0.8512887E-01
       -1   -1    0    0    0  501  0.00000000000E+00  0.00000000000E+00  0.72354869209E+03  0.72354869211E+03  0.50400001928E-02 0.  1.
        1   -1    0    0  501    0  0.00000000000E+00  0.00000000000E+00 -0.16926881239E+04  0.16926881239E+04  0.50400001928E-02 0. -1.
    10030    2    1    2    0    0  0.00000000000E+00  0.00000000000E+00 -0.96913943182E+03  0.24162368160E+04  0.22133614962E+04 0.  0.
        2    1    3    3  502    0 -0.10586783878E+04  0.29977714147E+03 -0.61408678439E+03  0.12600669990E+04  0.25500000920E-02 0. -1.
       -2    1    3    3    0  502  0.10586783878E+04 -0.29977714147E+03 -0.35505264743E+03  0.11561698170E+04  0.25500000920E-02 0.  1.
</event>
<event>
 5   0  0.3006265E-05  0.2277173E+04  0.7818609E-02  0.8486976E-01
        1   -1    0    0  501    0  0.00000000000E+00  0.00000000000E+00  0.10679371074E+04  0.10679371074E+04  0.50400001928E-02 0. -1.
       -1   -1    0    0    0  501  0.00000000000E+00  0.00000000000E+00 -0.12139101454E+04  0.12139101454E+04  0.50400001928E-02 0.  1.
    10030    2    1    2    0    0  0.00000000000E+00  0.00000000000E+00 -0.14597303804E+03  0.22818472528E+04  0.22771734140E+04 0.  0.
        2    1    3    3  502    0  0.10950249305E+04  0.19712105557E+03  0.16926032533E+03  0.11254267487E+04  0.25500000920E-02 0. -1.
       -2    1    3    3    0  502 -0.10950249305E+04 -0.19712105557E+03 -0.31523336337E+03  0.11564205041E+04  0.25500000920E-02 0.  1.
</event>
<event>
 5   0  0.6702421E-05  0.2155976E+04  0.7818609E-02  0.8536978E-01
       -2   -1    0    0    0  501  0.00000000000E+00  0.00000000000E+00  0.90970290079E+03  0.90970290079E+03  0.25500000920E-02 0. -1.
        2   -1    0    0  501    0  0.00000000000E+00  0.00000000000E+00 -0.12774044939E+04  0.12774044939E+04  0.25500000920E-02 0.  1.
    10030    2    1    2    0    0  0.00000000000E+00  0.00000000000E+00 -0.36770159311E+03  0.21871073947E+04  0.21559764132E+04 0.  0.
        4    1    3    3  502    0 -0.88067240404E+03 -0.53047573950E+03  0.14497244684E+03  0.10382711672E+04  0.12699999809E+01 0.  1.
       -4    1    3    3    0  502  0.88067240404E+03  0.53047573950E+03 -0.51267403995E+03  0.11488362275E+04  0.12699999809E+01 0. -1.
</event>
<event>
 5   0  0.2962279E-05  0.2322228E+04  0.7818609E-02  0.8469208E-01
        1   -1    0    0  501    0  0.00000000000E+00  0.00000000000E+00  0.22418383522E+04  0.22418383522E+04  0.50400001928E-02 0.  1.
       -1   -1    0    0    0  501  0.00000000000E+00  0.00000000000E+00 -0.60137529648E+03  0.60137529650E+03  0.50400001928E-02 0. -1.
    10030    2    1    2    0    0  0.00000000000E+00  0.00000000000E+00  0.16404630557E+04  0.28432136487E+04  0.23222284158E+04 0.  0.
        1    1    3    3  502    0 -0.56105008355E+01  0.86577467320E+02  0.22378642702E+04  0.22395454065E+04  0.50400001928E-02 0.  1.
       -1    1    3    3    0  502  0.56105008355E+01 -0.86577467320E+02 -0.59740121452E+03  0.60366824225E+03  0.50400001928E-02 0. -1.
</event>
<event>
 5   0  0.2962279E-05  0.2282633E+04  0.7818609E-02  0.8484800E-01
        1   -1    0    0  501    0  0.00000000000E+00  0.00000000000E+00  0.10258831460E+04  0.10258831460E+04  0.50400001928E-02 0. -1.
       -1   -1    0    0    0  501  0.00000000000E+00  0.00000000000E+00 -0.12697389136E+04  0.12697389136E+04  0.50400001928E-02 0.  1.
    10030    2    1    2    0    0  0.00000000000E+00  0.00000000000E+00 -0.24385576755E+03  0.22956220596E+04  0.22826333488E+04 0.  0.
        1    1    3    3  502    0 -0.10961308460E+04  0.22491334292E+03 -0.34796201055E+03  0.11718218313E+04  0.50400001928E-02 0.  1.
       -1    1    3    3    0  502  0.10961308460E+04 -0.22491334292E+03  0.10410624299E+03  0.11238002284E+04  0.50400001928E-02 0. -1.
</event>
<event>
 5   0  0.6495405E-05  0.2345438E+04  0.7818609E-02  0.8460218E-01
       -2   -1    0    0    0  501  0.00000000000E+00  0.00000000000E+00  0.80815797113E+03  0.80815797113E+03  0.25500000920E-02 0.  1.
        2   -1    0    0  501    0  0.00000000000E+00  0.00000000000E+00 -0.17017334970E+04  0.17017334970E+04  0.25500000920E-02 0. -1.
    10030    2    1    2    0    0  0.00000000000E+00  0.00000000000E+00 -0.89357552588E+03  0.25098914681E+04  0.23454376908E+04 0.  0.
        5    1    3    3  502    0 -0.22361007202E+03 -0.11046373888E+03  0.77943855299E+03  0.81838270375E+03  0.46999998093E+01 0.  1.
       -5    1    3    3    0  502  0.22361007202E+03  0.11046373888E+03 -0.16730140789E+04  0.16915087644E+04  0.46999998093E+01 0. -1.
</event>
<event>
 5   0  0.6814789E-05  0.2239945E+04  0.7818609E-02  0.8501983E-01
       -2   -1    0    0    0  501  0.00000000000E+00  0.00000000000E+00  0.97470105490E+03  0.97470105491E+03  0.25500000920E-02 0.  1.
        2   -1    0    0  501    0  0.00000000000E+00  0.00000000000E+00 -0.12868960481E+04  0.12868960481E+04  0.25500000920E-02 0. -1.
    10030    2    1    2    0    0  0.00000000000E+00  0.00000000000E+00 -0.31219499319E+03  0.22615971030E+04  0.22399454776E+04 0.  0.
        1    1    3    3  502    0  0.10909627301E+04  0.20165080556E+03 -0.13969735058E+01  0.11094434089E+04  0.50400001928E-02 0.  1.
       -1    1    3    3    0  502 -0.10909627301E+04 -0.20165080556E+03 -0.31079801969E+03  0.11521536942E+04  0.50400001928E-02 0. -1.
</event>
<event>
 5   0  0.6814789E-05  0.2069054E+04  0.7818609E-02  0.8574999E-01
        2   -1    0    0  501    0  0.00000000000E+00  0.00000000000E+00  0.11481245795E+04  0.11481245795E+04  0.25500000920E-02 0. -1.
       -2   -1    0    0    0  501  0.00000000000E+00  0.00000000000E+00 -0.93216915846E+03  0.93216915847E+03  0.25500000920E-02 0.  1.
    10030    2    1    2    0    0  0.00000000000E+00  0.00000000000E+00  0.21595542105E+03  0.20802937380E+04  0.20690542024E+04 0.  0.
        1    1    3    3  502    0  0.16451395814E+03  0.92541929049E+03  0.54250664164E+03  0.10852553441E+04  0.50400001928E-02 0. -1.
       -1    1    3    3    0  502 -0.16451395814E+03 -0.92541929049E+03 -0.32655122058E+03  0.99503839390E+03  0.50400001928E-02 0.  1.
</event>
<event>
 5   0  0.3118614E-05  0.2255784E+04  0.7818609E-02  0.8495562E-01
        1   -1    0    0  501    0  0.00000000000E+00  0.00000000000E+00  0.13547464580E+04  0.13547464580E+04  0.50400001928E-02 0.  1.
       -1   -1    0    0    0  501  0.00000000000E+00  0.00000000000E+00 -0.93902485365E+03  0.93902485366E+03  0.50400001928E-02 0. -1.
    10030    2    1    2    0    0  0.00000000000E+00  0.00000000000E+00  0.41572160431E+03  0.22937713116E+04  0.22557842046E+04 0.  0.
        3    1    3    3  502    0  0.10138355489E+04  0.99545891913E+01 -0.29460521424E+03  0.10558190454E+04  0.10100000352E+00 0. -1.
       -3    1    3    3    0  502 -0.10138355489E+04 -0.99545891913E+01  0.71032681855E+03  0.12379522662E+04  0.10100000352E+00 0.  1.
</event>
<event>
 5   0  0.6495405E-05  0.2214666E+04  0.7818609E-02  0.8512349E-01
       -2   -1    0    0    0  501  0.00000000000E+00  0.00000000000E+00  0.77422179285E+03  0.77422179285E+03  0.25500000920E-02 0.  1.
        2   -1    0    0  501    0  0.00000000000E+00  0.00000000000E+00 -0.15837659975E+04  0.15837659975E+04  0.25500000920E-02 0. -1.
    10030    2    1    2    0    0  0.00000000000E+00  0.00000000000E+00 -0.80954420465E+03  0.23579877904E+04  0.22146657988E+04 0.  0.
        5    1    3    3  502    0 -0.53095596200E+03  0.21334934666E+03  0.60459333016E+03  0.83245862490E+03  0.46999998093E+01 0.  1.
       -5    1    3    3    0  502  0.53095596200E+03 -0.21334934666E+03 -0.14141375348E+04  0.15255291655E+04  0.46999998093E+01 0. -1.
</event>
<event>
 5   0  0.6676612E-05  0.2297133E+04  0.7818609E-02  0.8479052E-01
       -2   -1    0    0    0  501  0.00000000000E+00  0.00000000000E+00  0.56325184208E+03  0.56325184208E+03  0.25500000920E-02 0.  1.
        2   -1    0    0  501    0  0.00000000000E+00  0.00000000000E+00 -0.23421234368E+04  0.23421234368E+04  0.25500000920E-02 0. -1.
    10030    2    1    2    0    0  0.00000000000E+00  0.00000000000E+00 -0.17788715948E+04  0.29053752789E+04  0.22971332919E+04 0.  0.
        2    1    3    3  502    0 -0.61746606173E+03  0.95475755986E+03 -0.68401460616E+03  0.13269145854E+04  0.25500000920E-02 0.  1.
       -2    1    3    3    0  502  0.61746606173E+03 -0.95475755986E+03 -0.10948569886E+04  0.15784606935E+04  0.25500000920E-02 0. -1.
</event>
<event>
 5   0  0.2944089E-05  0.2295966E+04  0.7818609E-02  0.8479513E-01
       -1   -1    0    0    0  501  0.00000000000E+00  0.00000000000E+00  0.61232585021E+03  0.61232585023E+03  0.50400001928E-02 0. -1.
        1   -1    0    0  501    0  0.00000000000E+00  0.00000000000E+00 -0.21522289658E+04  0.21522289658E+04  0.50400001928E-02 0.  1.
    10030    2    1    2    0    0  0.00000000000E+00  0.00000000000E+00 -0.15399031156E+04  0.27645548160E+04  0.22959664034E+04 0.  0.
        5    1    3    3  502    0 -0.61329936854E+03  0.87061071926E+03 -0.12860903463E+04  0.16697753168E+04  0.46999998093E+01 0.  1.
       -5    1    3    3    0  502  0.61329936854E+03 -0.87061071926E+03 -0.25381276927E+03  0.10947794992E+04  0.46999998093E+01 0. -1.
</event>
<event>
 5   0  0.6814789E-05  0.2331258E+04  0.7818609E-02  0.8465698E-01
       -2   -1    0    0    0  501  0.00000000000E+00  0.00000000000E+00  0.62958879728E+03  0.62958879728E+03  0.25500000920E-02 0. -1.
        2   -1    0    0  501    0  0.00000000000E+00  0.00000000000E+00 -0.21580604660E+04  0.21580604660E+04  0.25500000920E-02 0.  1.
    10030    2    1    2    0    0  0.00000000000E+00  0.00000000000E+00 -0.15284716687E+04  0.27876492633E+04  0.23312577663E+04 0.  0.
        1    1    3    3  502    0  0.93624416434E+03  0.68730451909E+03 -0.64616261906E+03  0.13290849362E+04  0.50400001928E-02 0. -1.
       -1    1    3    3    0  502 -0.93624416434E+03 -0.68730451909E+03 -0.88230904964E+03  0.14585643271E+04  0.50400001928E-02 0.  1.
</event>
<event>
 5   0  0.6702421E-05  0.2313862E+04  0.7818609E-02  0.8472476E-01
       -2   -1    0    0    0  501  0.00000000000E+00  0.00000000000E+00  0.19946560118E+04  0.19946560118E+04  0.25500000920E-02 0. -1.
        2   -1    0    0  501    0  0.00000000000E+00  0.00000000000E+00 -0.67103740559E+03  0.67103740559E+03  0.25500000920E-02 0.  1.
    10030    2    1    2    0    0  0.00000000000E+00  0.00000000000E+00  0.13236186062E+04  0.26656934174E+04  0.23138615302E+04 0.  0.
        4    1    3    3  502    0  0.70659353611E+03  0.12573109070E+03  0.17072019446E+04  0.18519240872E+04  0.12699999809E+01 0. -1.
       -4    1    3    3    0  502 -0.70659353611E+03 -0.12573109070E+03 -0.38358333831E+03  0.81376933020E+03  0.12699999809E+01 0.  1.
</event>
<event>
 5   0  0.6814789E-05  0.2258269E+04  0.7818609E-02  0.8494559E-01
        2   -1    0    0  501    0  0.00000000000E+00  0.00000000000E+00  0.12936692384E+04  0.12936692384E+04  0.25500000920E-02 0. -1.
       -2   -1    0    0    0  501  0.00000000000E+00  0.00000000000E+00 -0.98552640412E+03  0.98552640412E+03  0.25500000920E-02 0.  1.
    10030    2    1    2    0    0  0.00000000000E+00  0.00000000000E+00  0.30814283428E+03  0.22791956425E+04  0.22582694194E+04 0.  0.
        1    1    3    3  502    0  0.47973992824E+03 -0.71110667859E+03  0.89512466342E+03  0.12397867842E+04  0.50400001928E-02 0. -1.
       -1    1    3    3    0  502 -0.47973992824E+03  0.71110667859E+03 -0.58698182914E+03  0.10394088584E+04  0.50400001928E-02 0.  1.
</event>
<event>
 5   0  0.6676612E-05  0.2284306E+04  0.7818609E-02  0.8484135E-01
       -2   -1    0    0    0  501  0.00000000000E+00  0.00000000000E+00  0.78261724112E+03  0.78261724113E+03  0.25500000920E-02 0. -1.
        2   -1    0    0  501    0  0.00000000000E+00  0.00000000000E+00 -0.16668597679E+04  0.16668597679E+04  0.25500000920E-02 0.  1.
    10030    2    1    2    0    0  0.00000000000E+00  0.00000000000E+00 -0.88424252680E+03  0.24494770091E+04  0.22843057527E+04 0.  0.
        2    1    3    3  502    0 -0.77162922146E+03 -0.81504228845E+03 -0.66910513646E+03  0.13066779523E+04  0.25500000920E-02 0. -1.
       -2    1    3    3    0  502  0.77162922146E+03  0.81504228845E+03 -0.21513739034E+03  0.11427990568E+04  0.25500000920E-02 0.  1.
</event>
<event>
 5   0  0.3006265E-05  0.2367958E+04  0.7818609E-02  0.8451598E-01
        1   -1    0    0  501    0  0.00000000000E+00  0.00000000000E+00  0.11628204239E+04  0.11628204240E+04  0.50400001928E-02 0. -1.
       -1   -1    0    0    0  501  0.00000000000E+00  0.00000000000E+00 -0.12055226757E+04  0.12055226757E+04  0.50400001928E-02 0.  1.
    10030    2    1    2    0    0  0.00000000000E+00  0.00000000000E+00 -0.42702251721E+02  0.23683430996E+04  0.23679580983E+04 0.  0.
        2    1    3    3  502    0 -0.15574254194E+03 -0.29786319001E+03 -0.11568013887E+04  0.12046442098E+04  0.25500000920E-02 0.  1.
       -2    1    3    3    0  502  0.15574254194E+03  0.29786319001E+03  0.11140991369E+04  0.11636988899E+04  0.25500000920E-02 0. -1.
</event>
<event>
 5   0  0.3006265E-05  0.1829388E+04  0.7818609E-02  0.8690826E-01
       -1   -1    0    0    0  501  0.00000000000E+00  0.00000000000E+00  0.10528558614E+04  0.10528558614E+04  0.50400001928E-02 0.  1.
        1   -1    0    0  501    0  0.00000000000E+00  0.00000000000E+00 -0.79466235270E+03  0.79466235272E+03  0.50400001928E-02 0. -1.
    10030    2    1    2    0    0  0.00000000000E+00  0.00000000000E+00  0.25819350865E+03  0.18475182141E+04  0.18293877838E+04 0.  0.
        2    1    3    3  502    0 -0.21953462676E+03 -0.50307109626E+03  0.86805117216E+03  0.10270291221E+04  0.25500000920E-02 0.  1.
       -2    1    3    3    0  502  0.21953462676E+03  0.50307109626E+03 -0.60985766351E+03  0.82048909193E+03  0.25500000920E-02 0. -1.
</event>
<event>
 5   0  0.6814789E-05  0.2328425E+04  0.7818609E-02  0.8466797E-01
        2   -1    0    0  501    0  0.00000000000E+00  0.00000000000E+00  0.21807827369E+04  0.21807827369E+04  0.25500000920E-02 0. -1.
       -2   -1    0    0    0  501  0.00000000000E+00  0.00000000000E+00 -0.62151597126E+03  0.62151597126E+03  0.25500000920E-02 0.  1.
    10030    2    1    2    0    0  0.00000000000E+00  0.00000000000E+00  0.15592667657E+04  0.28022987082E+04  0.23284254773E+04 0.  0.
        1    1    3    3  502    0  0.55530423990E+03 -0.24427205191E+02 -0.45150692732E+03  0.71611311442E+03  0.50400001928E-02 0.  1.
       -1    1    3    3    0  502 -0.55530423990E+03  0.24427205191E+02  0.20107736930E+04  0.20861855938E+04  0.50400001928E-02 0. -1.
</event>
<event>
 5   0  0.2962279E-05  0.2318589E+04  0.7818609E-02  0.8470628E-01
       -1   -1    0    0    0  501  0.00000000000E+00  0.00000000000E+00  0.23775965185E+04  0.23775965185E+04  0.50400001928E-02 0.  1.
        1   -1    0    0  501    0  0.00000000000E+00  0.00000000000E+00 -0.56526157943E+03  0.56526157945E+03  0.50400001928E-02 0. -1.
    10030    2    1    2    0    0  0.00000000000E+00  0.00000000000E+00  0.18123349391E+04  0.29428580980E+04  0.23185891946E+04 0.  0.
        1    1    3    3  502    0  0.19796864392E+03  0.15302790815E+03 -0.53057927031E+03  0.58662039408E+03  0.50400001928E-02 0. -1.
       -1    1    3    3    0  502 -0.19796864392E+03 -0.15302790815E+03  0.23429142094E+04  0.23562377039E+04  0.50400001928E-02 0.  1.
</event>
<event>
 5   0  0.2944089E-05  0.2278344E+04  0.7818609E-02  0.8486509E-01
       -1   -1    0    0    0  501  0.00000000000E+00  0.00000000000E+00  0.52195326771E+03  0.52195326774E+03  0.50400001928E-02 0. -1.
        1   -1    0    0  501    0  0.00000000000E+00  0.00000000000E+00 -0.24862615608E+04  0.24862615608E+04  0.50400001928E-02 0.  1.
    10030    2    1    2    0    0  0.00000000000E+00  0.00000000000E+00 -0.19643082931E+04  0.30082148285E+04  0.22783435615E+04 0.  0.
        5    1    3    3  502    0 -0.23239216916E+03 -0.10464146949E+04 -0.14913041306E+04  0.18365728774E+04  0.46999998093E+01 0.  1.
       -5    1    3    3    0  502  0.23239216916E+03  0.10464146949E+04 -0.47300416247E+03  0.11716419511E+04  0.46999998093E+01 0. -1.
</event>
<event>
 5   0  0.6814789E-05  0.2312878E+04  0.7818609E-02  0.8472861E-01
       -2   -1    0    0    0  501  0.00000000000E+00  0.00000000000E+00  0.12642084154E+04  0.12642084154E+04  0.25500000920E-02 0.  1.
        2   -1    0    0  501    0  0.00000000000E+00  0.00000000000E+00 -0.10578569127E+04  0.10578569127E+04  0.25500000920E-02 0. -1.
    10030    2    1    2    0    0  0.00000000000E+00  0.00000000000E+00  0.20635150271E+03  0.23220653282E+04  0.23128783897E+04 0.  0.
        1    1    3    3  502    0 -0.53673486953E+03 -0.35487845503E+03 -0.86154089689E+03  0.10753026342E+04  0.50400001928E-02 0. -1.
       -1    1    3    3    0  502  0.53673486953E+03  0.35487845503E+03  0.10678923996E+04  0.12467626940E+04  0.50400001928E-02 0.  1.
</event>
<event>
 5   0  0.2982385E-05  0.2345931E+04  0.7818609E-02  0.8460028E-01
       -1   -1    0    0    0  501  0.00000000000E+00  0.00000000000E+00  0.13726426922E+04  0.13726426923E+04  0.50400001928E-02 0.  1.
        1   -1    0    0  501    0  0.00000000000E+00  0.00000000000E+00 -0.10023354768E+04  0.10023354768E+04  0.50400001928E-02 0. -1.
    10030    2    1    2    0    0  0.00000000000E+00  0.00000000000E+00  0.37030721549E+03  0.23749781690E+04  0.23459313437E+04 0.  0.
        4    1    3    3  502    0  0.47741656572E+03  0.73493779310E+03 -0.60410608934E+03  0.10644275067E+04  0.12699999809E+01 0. -1.
       -4    1    3    3    0  502 -0.47741656572E+03 -0.73493779310E+03  0.97441330484E+03  0.13105506623E+04  0.12699999809E+01 0.  1.
</event>
<event>
 5   0  0.6676612E-05  0.2471737E+04  0.7818609E-02  0.8413124E-01
       -2   -1    0    0    0  501  0.00000000000E+00  0.00000000000E+00  0.60845231078E+03  0.60845231079E+03  0.25500000920E-02 0.  1.
        2   -1    0    0  501    0  0.00000000000E+00  0.00000000000E+00 -0.25102565986E+04  0.25102565986E+04  0.25500000920E-02 0. -1.
    10030    2    1    2    0    0  0.00000000000E+00  0.00000000000E+00 -0.19018042878E+04  0.31187089094E+04  0.24717373874E+04 0.  0.
        2    1    3    3  502    0 -0.30900978714E+03 -0.11915685092E+03 -0.24532224701E+04  0.24754769018E+04  0.25500000920E-02 0. -1.
       -2    1    3    3    0  502  0.30900978714E+03  0.11915685092E+03  0.55141818233E+03  0.64323200751E+03  0.25500000920E-02 0.  1.
</event>
<event>
 5   0  0.2982385E-05  0.2274313E+04  0.7818609E-02  0.8488119E-01
       -1   -1    0    0    0  501  0.00000000000E+00  0.00000000000E+00  0.78029860613E+03  0.78029860614E+03  0.50400001928E-02 0.  1.
        1   -1    0    0  501    0  0.00000000000E+00  0.00000000000E+00 -0.16572179518E+04  0.16572179518E+04  0.50400001928E-02 0. -1.
    10030    2    1    2    0    0  0.00000000000E+00  0.00000000000E+00 -0.87691934563E+03  0.24375165579E+04  0.22743129581E+04 0.  0.
        4    1    3    3  502    0  0.70812756331E+03  0.85851313424E+03 -0.18794795650E+03  0.11286343495E+04  0.12699999809E+01 0.  1.
       -4    1    3    3    0  502 -0.70812756331E+03 -0.85851313424E+03 -0.68897138913E+03  0.13088822084E+04  0.12699999809E+01 0. -1.
</event>
<event>
 5   0  0.2962279E-05  0.2292852E+04  0.7818609E-02  0.8480745E-01
       -1   -1    0    0    0  501  0.00000000000E+00  0.00000000000E+00  0.10321550989E+04  0.10321550989E+04  0.50400001928E-02 0. -1.
        1   -1    0    0  501    0  0.00000000000E+00  0.00000000000E+00 -0.12733481535E+04  0.12733481535E+04  0.50400001928E-02 0.  1.
    10030    2    1    2    0    0  0.00000000000E+00  0.00000000000E+00 -0.24119305459E+03  0.23055032524E+04  0.22928521883E+04 0.  0.
        1    1    3    3  502    0 -0.78589533697E+03 -0.83197386108E+03 -0.18790467065E+03  0.11597931503E+04  0.50400001928E-02 0.  1.
       -1    1    3    3    0  502  0.78589533697E+03  0.83197386108E+03 -0.53288383941E+02  0.11457101021E+04  0.50400001928E-02 0. -1.
</event>
<event>
 5   0  0.6495405E-05  0.2269188E+04  0.7818609E-02  0.8490170E-01
        2   -1    0    0  501    0  0.00000000000E+00  0.00000000000E+00  0.15378857616E+04  0.15378857616E+04  0.25500000920E-02 0.  1.
       -2   -1    0    0    0  501  0.00000000000E+00  0.00000000000E+00 -0.83706031323E+03  0.83706031323E+03  0.25500000920E-02 0. -1.
    10030    2    1    2    0    0  0.00000000000E+00  0.00000000000E+00  0.70082544833E+03  0.23749460748E+04  0.22691876408E+04 0.  0.
        5    1    3    3  502    0 -0.90412560291E+03  0.12148974692E+03 -0.35562247168E+03  0.97912833521E+03  0.46999998093E+01 0. -1.
       -5    1    3    3    0  502  0.90412560291E+03 -0.12148974692E+03  0.10564479200E+04  0.13958177396E+04  0.46999998093E+01 0.  1.
</event>
<event>
 5   0  0.3118614E-05  0.2279111E+04  0.7818609E-02  0.8486203E-01
       -1   -1    0    0    0  501  0.00000000000E+00  0.00000000000E+00  0.66714134770E+03  0.66714134772E+03  0.50400001928E-02 0. -1.
        1   -1    0    0  501    0  0.00000000000E+00  0.00000000000E+00 -0.19464933890E+04  0.19464933891E+04  0.50400001928E-02 0.  1.
    10030    2    1    2    0    0  0.00000000000E+00  0.00000000000E+00 -0.12793520413E+04  0.26136347368E+04  0.22791105483E+04 0.  0.
        3    1    3    3  502    0  0.23912071907E+02 -0.10891021159E+04 -0.10232404059E+04  0.14945688825E+04  0.10100000352E+00 0.  1.
       -3    1    3    3    0  502 -0.23912071907E+02  0.10891021159E+04 -0.25611163546E+03  0.11190658543E+04  0.10100000352E+00 0. -1.
</event>
<event>
 5   0  0.3118614E-05  0.2263110E+04  0.7818609E-02  0.8492610E-01
       -1   -1    0    0    0  501  0.00000000000E+00  0.00000000000E+00  0.97323664736E+03  0.97323664738E+03  0.50400001928E-02 0. -1.
        1   -1    0    0  501    0  0.00000000000E+00  0.00000000000E+00 -0.13156274365E+04  0.13156274365E+04  0.50400001928E-02 0.  1.
    10030    2    1    2    0    0  0.00000000000E+00  0.00000000000E+00 -0.34239078917E+03  0.22888640839E+04  0.22631101038E+04 0.  0.
        3    1    3    3  502    0 -0.89771593741E+03  0.32503921603E+03 -0.78545565374E+03  0.12363191297E+04  0.10100000352E+00 0.  1.
       -3    1    3    3    0  502  0.89771593741E+03 -0.32503921603E+03  0.44306486457E+03  0.10525449542E+04  0.10100000352E+00 0. -1.
</event>
<event>
 5   0  0.6676612E-05  0.2187785E+04  0.7818609E-02  0.8523530E-01
       -2   -1    0    0    0  501  0.00000000000E+00  0.00000000000E+00  0.47864165435E+03  0.47864165436E+03  0.25500000920E-02 0.  1.
        2   -1    0    0  501    0  0.00000000000E+00  0.00000000000E+00 -0.24999923165E+04  0.24999923165E+04  0.25500000920E-02 0. -1.
    10030    2    1    2    0    0  0.00000000000E+00  0.00000000000E+00 -0.20213506622E+04  0.29786339709E+04  0.21877846862E+04 0.  0.
        2    1    3    3  502    0 -0.21420019853E+03  0.69362025282E+03  0.10342273716E+03  0.73327146592E+03  0.25500000920E-02 0.  1.
       -2    1    3    3    0  502  0.21420019853E+03 -0.69362025282E+03 -0.21247733993E+04  0.22453625050E+04  0.25500000920E-02 0. -1.
</event>
<event>
 5   0  0.6702421E-05  0.1930028E+04  0.7818609E-02  0.8640052E-01
       -2   -1    0    0    0  501  0.00000000000E+00  0.00000000000E+00  0.78255566863E+03  0.78255566863E+03  0.25500000920E-02 0. -1.
        2   -1    0    0  501    0  0.00000000000E+00  0.00000000000E+00 -0.11900140775E+04  0.11900140775E+04  0.25500000920E-02 0.  1.
    10030    2    1    2    0    0  0.00000000000E+00  0.00000000000E+00 -0.40745840883E+03  0.19725697461E+04  0.19300282506E+04 0.  0.
        4    1    3    3  502    0 -0.50045877022E+03 -0.80722879814E+03 -0.37829604360E+03  0.10223437889E+04  0.12699999809E+01 0.  1.
       -4    1    3    3    0  502  0.50045877022E+03  0.80722879814E+03 -0.29162365226E+02  0.95022595717E+03  0.12699999809E+01 0. -1.
</event>
<event>
 5   0  0.3118614E-05  0.2341714E+04  0.7818609E-02  0.8461653E-01
       -1   -1    0    0    0  501  0.00000000000E+00  0.00000000000E+00  0.70728628284E+03  0.70728628286E+03  0.50400001928E-02 0. -1.
        1   -1    0    0  501    0  0.00000000000E+00  0.00000000000E+00 -0.19382616756E+04  0.19382616756E+04  0.50400001928E-02 0.  1.
    10030    2    1    2    0    0  0.00000000000E+00  0.00000000000E+00 -0.12309753928E+04  0.26455479585E+04  0.23417138132E+04 0.  0.
        3    1    3    3  502    0  0.27683185139E+02  0.64821287332E+03  0.48563163827E+03  0.81042235049E+03  0.10100000352E+00 0. -1.
       -3    1    3    3    0  502 -0.27683185139E+02 -0.64821287332E+03 -0.17166070310E+04  0.18351256080E+04  0.10100000352E+00 0.  1.
</event>
<event>
 5   0  0.6676612E-05  0.2214989E+04  0.7818609E-02  0.8512215E-01
        2   -1    0    0  501    0  0.00000000000E+00  0.00000000000E+00  0.20512028307E+04  0.20512028307E+04  0.25500000920E-02 0.  1.
       -2   -1    0    0    0  501  0.00000000000E+00  0.00000000000E+00 -0.59796328770E+03  0.59796328770E+03  0.25500000920E-02 0. -1.
    10030    2    1    2    0    0  0.00000000000E+00  0.00000000000E+00  0.14532395430E+04  0.26491661184E+04  0.22149889286E+04 0.  0.
        2    1    3    3  502    0  0.37399325778E+03  0.92214920225E+03  0.13080294379E+04  0.16435239939E+04  0.25500000920E-02 0.  1.
       -2    1    3    3    0  502 -0.37399325778E+03 -0.92214920225E+03  0.14521010518E+03  0.10056421246E+04  0.25500000920E-02 0. -1.
</event>
<event>
 5   0  0.6702421E-05  0.2328529E+04  0.7818609E-02  0.8466757E-01
        2   -1    0    0  501    0  0.00000000000E+00  0.00000000000E+00  0.16374707988E+04  0.16374707988E+04  0.25500000920E-02 0. -1.
       -2   -1    0    0    0  501  0.00000000000E+00  0.00000000000E+00 -0.82780859527E+03  0.82780859527E+03  0.25500000920E-02 0.  1.
    10030    2    1    2    0    0  0.00000000000E+00  0.00000000000E+00  0.80966220357E+03  0.24652793941E+04  0.23285294946E+04 0.  0.
        4    1    3    3  502    0 -0.76694279575E+03 -0.61004342416E+03 -0.26070098567E+03  0.10140615603E+04  0.12699999809E+01 0.  1.
       -4    1    3    3    0  502  0.76694279575E+03  0.61004342416E+03  0.10703631892E+04  0.14512178338E+04  0.12699999809E+01 0. -1.
</event>
<event>
 5   0  0.6468758E-05  0.2286927E+04  0.7818609E-02  0.8483093E-01
       -2   -1    0    0    0  501  0.00000000000E+00  0.00000000000E+00  0.50335375278E+03  0.50335375278E+03  0.25500000920E-02 0. -1.
        2   -1    0    0  501    0  0.00000000000E+00  0.00000000000E+00 -0.25975946882E+04  0.25975946882E+04  0.25500000920E-02 0.  1.
    10030    2    1    2    0    0  0.00000000000E+00  0.00000000000E+00 -0.20942409354E+04  0.31009484410E+04  0.22869272262E+04 0.  0.
        3    1    3    3  502    0  0.40562972364E+03  0.63513133357E+03  0.11897817733E+03  0.76294370727E+03  0.10100000352E+00 0. -1.
       -3    1    3    3    0  502 -0.40562972364E+03 -0.63513133357E+03 -0.22132191127E+04  0.23380047337E+04  0.10100000352E+00 0.  1.
</event>
<event>
 5   0  0.3118614E-05  0.2292749E+04  0.7818609E-02  0.8480786E-01
       -1   -1    0    0    0  501  0.00000000000E+00  0.00000000000E+00  0.10289065411E+04  0.10289065411E+04  0.50400001928E-02 0. -1.
        1   -1    0    0  501    0  0.00000000000E+00  0.00000000000E+00 -0.12772532866E+04  0.12772532866E+04  0.50400001928E-02 0.  1.
    10030    2    1    2    0    0  0.00000000000E+00  0.00000000000E+00 -0.24834674557E+03  0.23061598277E+04  0.22927487967E+04 0.  0.
        3    1    3    3  502    0  0.17507570583E+03 -0.68117888489E+03  0.78639423496E+03  0.10550223121E+04  0.10100000352E+00 0. -1.
       -3    1    3    3    0  502 -0.17507570583E+03  0.68117888489E+03 -0.10347409805E+04  0.12511375156E+04  0.10100000352E+00 0.  1.
</event>
<event>
 5   0  0.6676612E-05  0.2267092E+04  0.7818609E-02  0.8491010E-01
       -2   -1    0    0    0  501  0.00000000000E+00  0.00000000000E+00  0.68940386788E+03  0.68940386788E+03  0.25500000920E-02 0. -1.
        2   -1    0    0  501    0  0.00000000000E+00  0.00000000000E+00 -0.18638227411E+04  0.18638227411E+04  0.25500000920E-02 0.  1.
    10030    2    1    2    0    0  0.00000000000E+00  0.00000000000E+00 -0.11744188732E+04  0.25532266090E+04  0.22670920641E+04 0.  0.
        2    1    3    3  502    0 -0.70959205604E+03  0.65641590896E+02 -0.15800003511E+04  0.17332717080E+04  0.25500000920E-02 0.  1.
       -2    1    3    3    0  502  0.70959205604E+03 -0.65641590896E+02  0.40558147784E+03  0.81995490097E+03  0.25500000920E-02 0. -1.
</event>
<event>
 5   0  0.2342500E-05  0.2249821E+04  0.7818609E-02  0.8497973E-01
        3   -1    0    0  501    0  0.00000000000E+00  0.00000000000E+00  0.24408276212E+04  0.24408276233E+04  0.10100000352E+00 0. -1.
       -3   -1    0    0    0  501  0.00000000000E+00  0.00000000000E+00 -0.51844032057E+03  0.51844033041E+03  0.10100000352E+00 0.  1.
    10030    2    1    2    0    0  0.00000000000E+00  0.00000000000E+00  0.19223873006E+04  0.29592679537E+04  0.22498208569E+04 0.  0.
        2    1    3    3  502    0 -0.57122578468E+03 -0.78429108851E+03  0.17099093545E+04  0.19660115486E+04  0.25500000920E-02 0. -1.
       -2    1    3    3    0  502  0.57122578468E+03  0.78429108851E+03  0.21247794606E+03  0.99325640505E+03  0.25500000920E-02 0.  1.
</event>
<event>
 5   0  0.2982385E-05  0.2312870E+04  0.7818609E-02  0.8472864E-01
       -1   -1    0    0    0  501  0.00000000000E+00  0.00000000000E+00  0.10025583874E+04  0.10025583874E+04  0.50400001928E-02 0.  1.
        1   -1    0    0  501    0  0.00000000000E+00  0.00000000000E+00 -0.13339293868E+04  0.13339293868E+04  0.50400001928E-02 0. -1.
    10030    2    1    2    0    0  0.00000000000E+00  0.00000000000E+00 -0.33137099937E+03  0.23364877742E+04  0.23128701606E+04 0.  0.
        4    1    3    3  502    0 -0.58219345976E+03  0.99721286608E+03 -0.22923861369E+03  0.11772572700E+04  0.12699999809E+01 0. -1.
       -4    1    3    3    0  502  0.58219345976E+03 -0.99721286608E+03 -0.10213238568E+03  0.11592305042E+04  0.12699999809E+01 0.  1.
</event>
<event>
 5   0  0.6676612E-05  0.2265888E+04  0.7818609E-02  0.8491494E-01
       -2   -1    0    0    0  501  0.00000000000E+00  0.00000000000E+00  0.14049366132E+04  0.14049366132E+04  0.25500000920E-02 0. -1.
        2   -1    0    0  501    0  0.00000000000E+00  0.00000000000E+00 -0.91360849337E+03  0.91360849337E+03  0.25500000920E-02 0.  1.
    10030    2    1    2    0    0  0.00000000000E+00  0.00000000000E+00  0.49132811985E+03  0.23185451066E+04  0.22658879253E+04 0.  0.
        2    1    3    3  502    0  0.45151116325E+03 -0.44268138226E+03  0.12075811316E+04  0.13631145683E+04  0.25500000920E-02 0. -1.
       -2    1    3    3    0  502 -0.45151116325E+03  0.44268138226E+03 -0.71625301176E+03  0.95543053835E+03  0.25500000920E-02 0.  1.
</event>
<event>
 5   0  0.2944089E-05  0.2296673E+04  0.7818609E-02  0.8479234E-01
        1   -1    0    0  501    0  0.00000000000E+00  0.00000000000E+00  0.64692447570E+03  0.64692447572E+03  0.50400001928E-02 0. -1.
       -1   -1    0    0    0  501  0.00000000000E+00  0.00000000000E+00 -0.20383785089E+04  0.20383785089E+04  0.50400001928E-02 0.  1.
    10030    2    1    2    0    0  0.00000000000E+00  0.00000000000E+00 -0.13914540332E+04  0.26853029846E+04  0.22966732011E+04 0.  0.
        5    1    3    3  502    0  0.89990038982E+03  0.38713566528E+03  0.47875887783E+01  0.97966307776E+03  0.46999998093E+01 0. -1.
       -5    1    3    3    0  502 -0.89990038982E+03 -0.38713566528E+03 -0.13962416219E+04  0.17056399068E+04  0.46999998093E+01 0.  1.
</event>
<event>
 5   0  0.2944089E-05  0.2125078E+04  0.7818609E-02  0.8550276E-01
       -1   -1    0    0    0  501  0.00000000000E+00  0.00000000000E+00  0.80313622833E+03  0.80313622835E+03  0.50400001928E-02 0.  1.
        1   -1    0    0  501    0  0.00000000000E+00  0.00000000000E+00 -0.14057257673E+04  0.14057257674E+04  0.50400001928E-02 0. -1.
    10030    2    1    2    0    0  0.00000000000E+00  0.00000000000E+00 -0.60258953902E+03  0.22088619957E+04  0.21250781547E+04 0.  0.
        5    1    3    3  502    0  0.49162049071E+03 -0.93589403219E+03 -0.19041739124E+03  0.10741830474E+04  0.46999998093E+01 0.  1.
       -5    1    3    3    0  502 -0.49162049071E+03  0.93589403219E+03 -0.41217214778E+03  0.11346789483E+04  0.46999998093E+01 0. -1.
</event>
<event>
 5   0  0.3118614E-05  0.2278817E+04  0.7818609E-02  0.8486320E-01
       -1   -1    0    0    0  501  0.00000000000E+00  0.00000000000E+00  0.97457659389E+03  0.97457659391E+03  0.50400001928E-02 0. -1.
        1   -1    0    0  501    0  0.00000000000E+00  0.00000000000E+00 -0.13321186303E+04  0.13321186303E+04  0.50400001928E-02 0.  1.
    10030    2    1    2    0    0  0.00000000000E+00  0.00000000000E+00 -0.35754203640E+03  0.23066952242E+04  0.22788169188E+04 0.  0.
        3    1    3    3  502    0 -0.88711838352E+03 -0.70507040897E+03 -0.58369155346E+02  0.11346851001E+04  0.10100000352E+00 0. -1.
       -3    1    3    3    0  502  0.88711838352E+03  0.70507040897E+03 -0.29917288105E+03  0.11720101241E+04  0.10100000352E+00 0.  1.
</event>
<event>
 5   0  0.3006265E-05  0.1705193E+04  0.7818609E-02  0.8758408E-01
        1   -1    0    0  501    0  0.00000000000E+00  0.00000000000E+00  0.55127312837E+03  0.55127312839E+03  0.50400001928E-02 0.  1.
       -1   -1    0    0    0  501  0.00000000000E+00  0.00000000000E+00 -0.13186216233E+04  0.13186216233E+04  0.50400001928E-02 0. -1.
    10030    2    1    2    0    0  0.00000000000E+00  0.00000000000E+00 -0.76734849493E+03  0.18698947517E+04  0.17051928541E+04 0.  0.
        2    1    3    3  502    0  0.75677394815E+03  0.20854599498E+03 -0.74856382339E+03  0.10846870693E+04  0.25500000920E-02 0. -1.
       -2    1    3    3    0  502 -0.75677394815E+03 -0.20854599498E+03 -0.18784671540E+02  0.78520768240E+03  0.25500000920E-02 0.  1.
</event>
<event>
 5   0  0.6495405E-05  0.2337743E+04  0.7818609E-02  0.8463187E-01
       -2   -1    0    0    0  501  0.00000000000E+00  0.00000000000E+00  0.12109230869E+04  0.12109230869E+04  0.25500000920E-02 0. -1.
        2   -1    0    0  501    0  0.00000000000E+00  0.00000000000E+00 -0.11282799144E+04  0.11282799144E+04  0.25500000920E-02 0.  1.
    10030    2    1    2    0    0  0.00000000000E+00  0.00000000000E+00  0.82643172442E+02  0.23392030013E+04  0.23377426692E+04 0.  0.
        5    1    3    3  502    0 -0.80295188407E+03 -0.70971225448E+03  0.50831955955E+03  0.11861003654E+04  0.46999998093E+01 0. -1.
       -5    1    3    3    0  502  0.80295188407E+03  0.70971225448E+03 -0.42567638711E+03  0.11531026359E+04  0.46999998093E+01 0.  1.
</event>
<event>
 5   0  0.2982385E-05  0.2083181E+04  0.7818609E-02  0.8568689E-01
        1   -1    0    0  501    0  0.00000000000E+00  0.00000000000E+00  0.10887499773E+04  0.10887499773E+04  0.50400001928E-02 0. -1.
       -1   -1    0    0    0  501  0.00000000000E+00  0.00000000000E+00 -0.99647387604E+03  0.99647387605E+03  0.50400001928E-02 0.  1.
    10030    2    1    2    0    0  0.00000000000E+00  0.00000000000E+00  0.92276101256E+02  0.20852238534E+04  0.20831811347E+04 0.  0.
        4    1    3    3  502    0 -0.64870394320E+03  0.44232249185E+03 -0.63896226600E+03  0.10122946127E+04  0.12699999809E+01 0.  1.
       -4    1    3    3    0  502  0.64870394320E+03 -0.44232249185E+03  0.73123836725E+03  0.10729292406E+04  0.12699999809E+01 0. -1.
</event>
<event>
 5   0  0.2944089E-05  0.2286941E+04  0.7818609E-02  0.8483088E-01
       -1   -1    0    0    0  501  0.00000000000E+00  0.00000000000E+00  0.11009715512E+04  0.11009715512E+04  0.50400001928E-02 0.  1.
        1   -1    0    0  501    0  0.00000000000E+00  0.00000000000E+00 -0.11876101962E+04  0.11876101962E+04  0.50400001928E-02 0. -1.
    10030    2    1    2    0    0  0.00000000000E+00  0.00000000000E+00 -0.86638645067E+02  0.22885817474E+04  0.22869412235E+04 0.  0.
        5    1    3    3  502    0  0.24724042856E+03 -0.10742829883E+04 -0.34733188496E+03  0.11557998515E+04  0.46999998093E+01 0. -1.
       -5    1    3    3    0  502 -0.24724042856E+03  0.10742829883E+04  0.26069323990E+03  0.11327818959E+04  0.46999998093E+01 0.  1.
</event>
<event>
 5   0  0.6676612E-05  0.2287371E+04  0.7818609E-02  0.8482917E-01
       -2   -1    0    0    0  501  0.00000000000E+00  0.00000000000E+00  0.78837663338E+03  0.78837663338E+03  0.25500000920E-02 0. -1.
        2   -1    0    0  501    0  0.00000000000E+00  0.00000000000E+00 -0.16591267688E+04  0.16591267688E+04  0.25500000920E-02 0.  1.
    10030    2    1    2    0    0  0.00000000000E+00  0.00000000000E+00 -0.87075013540E+03  0.24475034022E+04  0.22873712216E+04 0.  0.
        2    1    3    3  502    0 -0.47333637622E+03  0.93512323232E+03  0.54396045711E+02  0.10495054619E+04  0.25500000920E-02 0. -1.
       -2    1    3    3    0  502  0.47333637622E+03 -0.93512323232E+03 -0.92514618111E+03  0.13979979403E+04  0.25500000920E-02 0.  1.
</event>
<event>
 5   0  0.3006265E-05  0.2282229E+04  0.7818609E-02  0.8484961E-01
        1   -1    0    0  501    0  0.00000000000E+00  0.00000000000E+00  0.12065500364E+04  0.12065500364E+04  0.50400001928E-02 0.  1.
       -1   -1    0    0    0  501  0.00000000000E+00  0.00000000000E+00 -0.10792273067E+04  0.10792273067E+04  0.50400001928E-02 0. -1.
    10030    2    1    2    0    0  0.00000000000E+00  0.00000000000E+00  0.12732272976E+03  0.22857773431E+04  0.22822285129E+04 0.  0.
        2    1    3    3  502    0 -0.49213254605E+02  0.66523564461E+03 -0.86361918555E+03  0.10912371442E+04  0.25500000920E-02 0. -1.
       -2    1    3    3    0  502  0.49213254605E+02 -0.66523564461E+03  0.99094191531E+03  0.11945401989E+04  0.25500000920E-02 0.  1.
</event>
<event>
 5   0  0.6495405E-05  0.2347351E+04  0.7818609E-02  0.8459482E-01
        2   -1    0    0  501    0  0.00000000000E+00  0.00000000000E+00  0.13132561705E+04  0.13132561705E+04  0.25500000920E-02 0. -1.
       -2   -1    0    0    0  501  0.00000000000E+00  0.00000000000E+00 -0.10489298744E+04  0.10489298744E+04  0.25500000920E-02 0.  1.
    10030    2    1    2    0    0  0.00000000000E+00  0.00000000000E+00  0.26432629610E+03  0.23621860448E+04  0.23473505319E+04 0.  0.
        5    1    3    3  502    0 -0.35655618312E+03 -0.41607207487E+03 -0.91229981302E+03  0.10642186439E+04  0.46999998093E+01 0.  1.
       -5    1    3    3    0  502  0.35655618312E+03  0.41607207487E+03  0.11766261091E+04  0.12979674009E+04  0.46999998093E+01 0. -1.
</event>
<event>
 5   0  0.2962279E-05  0.2367139E+04  0.7818609E-02  0.8451910E-01
       -1   -1    0    0    0  501  0.00000000000E+00  0.00000000000E+00  0.66560552562E+03  0.66560552564E+03  0.50400001928E-02 0. -1.
        1   -1    0    0  501    0  0.00000000000E+00  0.00000000000E+00 -0.21046058137E+04  0.21046058137E+04  0.50400001928E-02 0.  1.
    10030    2    1    2    0    0  0.00000000000E+00  0.00000000000E+00 -0.14390002881E+04  0.27702113394E+04  0.23671394204E+04 0.  0.
        1    1    3    3  502    0 -0.15868239329E+03  0.99957487335E+03 -0.14153594427E+01  0.10120928972E+04  0.50400001928E-02 0. -1.
       -1    1    3    3    0  502  0.15868239329E+03 -0.99957487335E+03 -0.14375849287E+04  0.17581184421E+04  0.50400001928E-02 0.  1.
</event>
<event>
 5   0  0.6468758E-05  0.2603635E+04  0.7818609E-02  0.8366968E-01
        2   -1    0    0  501    0  0.00000000000E+00  0.00000000000E+00  0.12832519396E+04  0.12832519396E+04  0.25500000920E-02 0.  1.
       -2   -1    0    0    0  501  0.00000000000E+00  0.00000000000E+00 -0.13206515964E+04  0.13206515964E+04  0.25500000920E-02 0. -1.
    10030    2    1    2    0    0  0.00000000000E+00  0.00000000000E+00 -0.37399656886E+02  0.26039035360E+04  0.26036349380E+04 0.  0.
        3    1    3    3  502    0  0.53089517565E+03 -0.11253075743E+03 -0.12021290695E+04  0.13189492669E+04  0.10100000352E+00 0. -1.
       -3    1    3    3    0  502 -0.53089517565E+03  0.11253075743E+03  0.11647294126E+04  0.12849542691E+04  0.10100000352E+00 0.  1.
</event>
<event>
 5   0  0.6495405E-05  0.2299864E+04  0.7818609E-02  0.8477975E-01
        2   -1    0    0  501    0  0.00000000000E+00  0.00000000000E+00  0.10591204646E+04  0.10591204646E+04  0.25500000920E-02 0. -1.
       -2   -1    0    0    0  501  0.00000000000E+00  0.00000000000E+00 -0.12485298103E+04  0.12485298103E+04  0.25500000920E-02 0.  1.
    10030    2    1    2    0    0  0.00000000000E+00  0.00000000000E+00 -0.18940934569E+03  0.23076502749E+04  0.22998638853E+04 0.  0.
        5    1    3    3  502    0 -0.24996586985E+03  0.86699327000E+02 -0.12175651789E+04  0.12459882681E+04  0.46999998093E+01 0.  1.
       -5    1    3    3    0  502  0.24996586985E+03 -0.86699327000E+02  0.10281558332E+04  0.10616620068E+04  0.46999998093E+01 0. -1.
</event>
<event>
 5   0  0.2962279E-05  0.2304444E+04  0.7818609E-02  0.8476171E-01
        1   -1    0    0  501    0  0.00000000000E+00  0.00000000000E+00  0.16480264028E+04  0.16480264029E+04  0.50400001928E-02 0.  1.
       -1   -1    0    0    0  501  0.00000000000E+00  0.00000000000E+00 -0.80557907737E+03  0.80557907738E+03  0.50400001928E-02 0. -1.
    10030    2    1    2    0    0  0.00000000000E+00  0.00000000000E+00  0.84244732548E+03  0.24536054802E+04  0.23044440450E+04 0.  0.
        1    1    3    3  502    0  0.94891070260E+03  0.25682047755E+03 -0.21870100864E+03  0.10070841129E+04  0.50400001928E-02 0. -1.
       -1    1    3    3    0  502 -0.94891070260E+03 -0.25682047755E+03  0.10611483341E+04  0.14465213674E+04  0.50400001928E-02 0.  1.
</event>
<event>
 5   0  0.6676612E-05  0.2318736E+04  0.7818609E-02  0.8470570E-01
        2   -1    0    0  501    0  0.00000000000E+00  0.00000000000E+00  0.21343663780E+04  0.21343663780E+04  0.25500000920E-02 0. -1.
       -2   -1    0    0    0  501  0.00000000000E+00  0.00000000000E+00 -0.62975802591E+03  0.62975802591E+03  0.25500000920E-02 0.  1.
    10030    2    1    2    0    0  0.00000000000E+00  0.00000000000E+00  0.15046083521E+04  0.27641244039E+04  0.23187361702E+04 0.  0.
        2    1    3    3  502    0  0.42495562241E+03 -0.94935761231E+03  0.14181462065E+03  0.10497516581E+04  0.25500000920E-02 0.  1.
       -2    1    3    3    0  502 -0.42495562241E+03  0.94935761231E+03  0.13627937314E+04  0.17143727458E+04  0.25500000920E-02 0. -1.
</event>
<event>
 5   0  0.6495405E-05  0.2295149E+04  0.7818609E-02  0.8479836E-01
       -2   -1    0    0    0  501  0.00000000000E+00  0.00000000000E+00  0.13615431688E+04  0.13615431688E+04  0.25500000920E-02 0. -1.
        2   -1    0    0  501    0  0.00000000000E+00  0.00000000000E+00 -0.96723112126E+03  0.96723112126E+03  0.25500000920E-02 0.  1.
    10030    2    1    2    0    0  0.00000000000E+00  0.00000000000E+00  0.39431204756E+03  0.23287742901E+04  0.22951487323E+04 0.  0.
        5    1    3    3  502    0  0.60760333561E+03 -0.95221393930E+03  0.40263628609E+03  0.11991794147E+04  0.46999998093E+01 0.  1.
       -5    1    3    3    0  502 -0.60760333561E+03  0.95221393930E+03 -0.83242385291E+01  0.11295948754E+04  0.46999998093E+01 0. -1.
</event>
<event>
 5   0  0.3006265E-05  0.2317481E+04  0.7818609E-02  0.8471061E-01
        1   -1    0    0  501    0  0.00000000000E+00  0.00000000000E+00  0.84169519489E+03  0.84169519490E+03  0.50400001928E-02 0.  1.
       -1   -1    0    0    0  501  0.00000000000E+00  0.00000000000E+00 -0.15952081856E+04  0.15952081856E+04  0.50400001928E-02 0. -1.
    10030    2    1    2    0    0  0.00000000000E+00  0.00000000000E+00 -0.75351299069E+03  0.24369033805E+04  0.23174805843E+04 0.  0.
        2    1    3    3  502    0 -0.65820687067E+03 -0.93643662709E+03 -0.18710378470E+03  0.11598093237E+04  0.25500000920E-02 0.  1.
       -2    1    3    3    0  502  0.65820687067E+03  0.93643662709E+03 -0.56640920599E+03  0.12770940568E+04  0.25500000920E-02 0. -1.
</event>
<event>
 5   0  0.6495405E-05  0.2287871E+04  0.7818609E-02  0.8482719E-01
        2   -1    0    0  501    0  0.00000000000E+00  0.00000000000E+00  0.21454630983E+04  0.21454630983E+04  0.25500000920E-02 0. -1.
       -2   -1    0    0    0  501  0.00000000000E+00  0.00000000000E+00 -0.60993281141E+03  0.60993281141E+03  0.25500000920E-02 0.  1.
    10030    2    1    2    0    0  0.00000000000E+00  0.00000000000E+00  0.15355302869E+04  0.27553959097E+04  0.22878709223E+04 0.  0.
        5    1    3    3  502    0  0.46672253444E+03 -0.88661995257E+03  0.14324976869E+04  0.17481408918E+04  0.46999998093E+01 0. -1.
       -5    1    3    3    0  502 -0.46672253444E+03  0.88661995257E+03  0.10303259994E+03  0.10072550179E+04  0.46999998093E+01 0.  1.
</event>
<event>
 5   0  0.2982385E-05  0.2312674E+04  0.7818609E-02  0.8472941E-01
       -1   -1    0    0    0  501  0.00000000000E+00  0.00000000000E+00  0.14906405000E+04  0.14906405000E+04  0.50400001928E-02 0. -1.
        1   -1    0    0  501    0  0.00000000000E+00  0.00000000000E+00 -0.89700717695E+03  0.89700717697E+03  0.50400001928E-02 0.  1.
    10030    2    1    2    0    0  0.00000000000E+00  0.00000000000E+00  0.59363332300E+03  0.23876476769E+04  0.23126739733E+04 0.  0.
        4    1    3    3  502    0  0.70953991774E+03  0.53076816818E+03 -0.47020288980E+03  0.10031221828E+04  0.12699999809E+01 0. -1.
       -4    1    3    3    0  502 -0.70953991774E+03 -0.53076816818E+03  0.10638362128E+04  0.13845254941E+04  0.12699999809E+01 0.  1.
</event>
<event>
 5   0  0.2944089E-05  0.2311827E+04  0.7818609E-02  0.8473272E-01
       -1   -1    0    0    0  501  0.00000000000E+00  0.00000000000E+00  0.91031466363E+03  0.91031466365E+03  0.50400001928E-02 0. -1.
        1   -1    0    0  501    0  0.00000000000E+00  0.00000000000E+00 -0.14677738812E+04  0.14677738812E+04  0.50400001928E-02 0.  1.
    10030    2    1    2    0    0  0.00000000000E+00  0.00000000000E+00 -0.55745921756E+03  0.23780885449E+04  0.23118270584E+04 0.  0.
        5    1    3    3  502    0  0.76251629491E+03 -0.81748648709E+03 -0.58109103409E+03  0.12599222740E+04  0.46999998093E+01 0. -1.
       -5    1    3    3    0  502 -0.76251629491E+03  0.81748648709E+03  0.23631816529E+02  0.11181662709E+04  0.46999998093E+01 0.  1.
</event>
<event>
 5   0  0.2944089E-05  0.2276575E+04  0.7818609E-02  0.8487215E-01
        1   -1    0    0  501    0  0.00000000000E+00  0.00000000000E+00  0.66579623085E+03  0.66579623087E+03  0.50400001928E-02 0.  1.
       -1   -1    0    0    0  501  0.00000000000E+00  0.00000000000E+00 -0.19460892673E+04  0.19460892673E+04  0.50400001928E-02 0. -1.
    10030    2    1    2    0    0  0.00000000000E+00  0.00000000000E+00 -0.12802930364E+04  0.26118854982E+04  0.22765754098E+04 0.  0.
        5    1    3    3  502    0 -0.42501042649E+03  0.95210434886E+03 -0.11640690113E+04  0.15627588767E+04  0.46999998093E+01 0. -1.
       -5    1    3    3    0  502  0.42501042649E+03 -0.95210434886E+03 -0.11622402513E+03  0.10491266214E+04  0.46999998093E+01 0.  1.
</event>
<event>
 5   0  0.2342500E-05  0.2190825E+04  0.7818609E-02  0.8522257E-01
        3   -1    0    0  501    0  0.00000000000E+00  0.00000000000E+00  0.19079436366E+04  0.19079436393E+04  0.10100000352E+00 0. -1.
       -3   -1    0    0    0  501  0.00000000000E+00  0.00000000000E+00 -0.62891171673E+03  0.62891172484E+03  0.10100000352E+00 0.  1.
    10030    2    1    2    0    0  0.00000000000E+00  0.00000000000E+00  0.12790319199E+04  0.25368553641E+04  0.21908246133E+04 0.  0.
        4    1    3    3  502    0  0.34130427034E+03  0.64129254927E+03  0.15888771213E+04  0.17470766606E+04  0.12699999809E+01 0. -1.
       -4    1    3    3    0  502 -0.34130427034E+03 -0.64129254927E+03 -0.30984520142E+03  0.78977870347E+03  0.12699999809E+01 0.  1.
</event>
<event>
 5   0  0.6468758E-05  0.2330867E+04  0.7818609E-02  0.8465849E-01
       -2   -1    0    0    0  501  0.00000000000E+00  0.00000000000E+00  0.99511461606E+03  0.99511461606E+03  0.25500000920E-02 0. -1.
        2   -1    0    0  501    0  0.00000000000E+00  0.00000000000E+00 -0.13649036387E+04  0.13649036387E+04  0.25500000920E-02 0.  1.
    10030    2    1    2    0    0  0.00000000000E+00  0.00000000000E+00 -0.36978902266E+03  0.23600182548E+04  0.23308672724E+04 0.  0.
        3    1    3    3  502    0 -0.56980794406E+03  0.92177392545E+03  0.24928934487E+03  0.11119772706E+04  0.10100000352E+00 0.  1.
       -3    1    3    3    0  502  0.56980794406E+03 -0.92177392545E+03 -0.61907836753E+03  0.12480409841E+04  0.10100000352E+00 0. -1.
</event>
<event>
 5   0  0.2944089E-05  0.2273507E+04  0.7818609E-02  0.8488441E-01
        1   -1    0    0  501    0  0.00000000000E+00  0.00000000000E+00  0.12058382890E+04  0.12058382890E+04  0.50400001928E-02 0. -1.
       -1   -1    0    0    0  501  0.00000000000E+00  0.00000000000E+00 -0.10716270084E+04  0.10716270084E+04  0.50400001928E-02 0.  1.
    10030    2    1    2    0    0  0.00000000000E+00  0.00000000000E+00  0.13421128062E+03  0.22774652974E+04  0.22735073153E+04 0.  0.
        5    1    3    3  502    0  0.93964927803E+03  0.20543731825E+03  0.67399988079E+03  0.11744969931E+04  0.46999998093E+01 0. -1.
       -5    1    3    3    0  502 -0.93964927803E+03 -0.20543731825E+03 -0.53978860017E+03  0.11029683043E+04  0.46999998093E+01 0.  1.
</event>
<event>
 5   0  0.2944089E-05  0.2324447E+04  0.7818609E-02  0.8468344E-01
        1   -1    0    0  501    0  0.00000000000E+00  0.00000000000E+00  0.18773111381E+04  0.18773111381E+04  0.50400001928E-02 0.  1.
       -1   -1    0    0    0  501  0.00000000000E+00  0.00000000000E+00 -0.71952006752E+03  0.71952006754E+03  0.50400001928E-02 0. -1.
    10030    2    1    2    0    0  0.00000000000E+00  0.00000000000E+00  0.11577910705E+04  0.25968312056E+04  0.23244466325E+04 0.  0.
        5    1    3    3  502    0  0.13234909754E+03 -0.82967789116E+03 -0.31823701052E+03  0.89843117241E+03  0.46999998093E+01 0. -1.
       -5    1    3    3    0  502 -0.13234909754E+03  0.82967789116E+03  0.14760280811E+04  0.16984000332E+04  0.46999998093E+01 0.  1.
</event>
<event>
 5   0  0.6468758E-05  0.2294441E+04  0.7818609E-02  0.8480116E-01
        2   -1    0    0  501    0  0.00000000000E+00  0.00000000000E+00  0.92571428463E+03  0.92571428463E+03  0.25500000920E-02 0.  1.
       -2   -1    0    0    0  501  0.00000000000E+00  0.00000000000E+00 -0.14217287523E+04  0.14217287523E+04  0.25500000920E-02 0. -1.
    10030    2    1    2    0    0  0.00000000000E+00  0.00000000000E+00 -0.49601446766E+03  0.23474430369E+04  0.22944407727E+04 0.  0.
        3    1    3    3  502    0 -0.85271276153E+03  0.61594436632E+03 -0.71641299684E+03  0.12726956071E+04  0.10100000352E+00 0. -1.
       -3    1    3    3    0  502  0.85271276153E+03 -0.61594436632E+03  0.22039852918E+03  0.10747474298E+04  0.10100000352E+00 0.  1.
</event>
<event>
 5   0  0.6814789E-05  0.2305094E+04  0.7818609E-02  0.8475915E-01
        2   -1    0    0  501    0  0.00000000000E+00  0.00000000000E+00  0.13842094494E+04  0.13842094494E+04  0.25500000920E-02 0. -1.
       -2   -1    0    0    0  501  0.00000000000E+00  0.00000000000E+00 -0.95965571280E+03  0.95965571281E+03  0.25500000920E-02 0.  1.
    10030    2    1    2    0    0  0.00000000000E+00  0.00000000000E+00  0.42455373655E+03  0.23438651622E+04  0.23050939294E+04 0.  0.
        1    1    3    3  502    0  0.97794466246E+03 -0.15176591011E+03 -0.38838386176E+03  0.10631324839E+04  0.50400001928E-02 0.  1.
       -1    1    3    3    0  502 -0.97794466246E+03  0.15176591011E+03  0.81293759831E+03  0.12807326782E+04  0.50400001928E-02 0. -1.
</event>
<event>
 5   0  0.6702421E-05  0.2010991E+04  0.7818609E-02  0.8601499E-01
       -2   -1    0    0    0  501  0.00000000000E+00  0.00000000000E+00  0.59975573622E+03  0.59975573623E+03  0.25500000920E-02 0.  1.
        2   -1    0    0  501    0  0.00000000000E+00  0.00000000000E+00 -0.16857213763E+04  0.16857213763E+04  0.25500000920E-02 0. -1.
    10030    2    1    2    0    0  0.00000000000E+00  0.00000000000E+00 -0.10859656401E+04  0.22854771125E+04  0.20109908653E+04 0.  0.
        4    1    3    3  502    0  0.74201316823E+03 -0.47727022009E+03 -0.10911555388E+04  0.14032079060E+04  0.12699999809E+01 0. -1.
       -4    1    3    3    0  502 -0.74201316823E+03  0.47727022009E+03  0.51898986936E+01  0.88226920651E+03  0.12699999809E+01 0.  1.
</event>
<event>
 5   0  0.3006265E-05  0.2318021E+04  0.7818609E-02  0.8470849E-01
       -1   -1    0    0    0  501  0.00000000000E+00  0.00000000000E+00  0.11997535672E+04  0.11997535672E+04  0.50400001928E-02 0. -1.
        1   -1    0    0  501    0  0.00000000000E+00  0.00000000000E+00 -0.11196513538E+04  0.11196513538E+04  0.50400001928E-02 0.  1.
    10030    2    1    2    0    0  0.00000000000E+00  0.00000000000E+00  0.80102213419E+02  0.23194049210E+04  0.23180213164E+04 0.  0.
        2    1    3    3  502    0 -0.79825236235E+03  0.54209227877E+03  0.68248950687E+03  0.11818895040E+04  0.25500000920E-02 0. -1.
       -2    1    3    3    0  502  0.79825236235E+03 -0.54209227877E+03 -0.60238729345E+03  0.11375154170E+04  0.25500000920E-02 0.  1.
</event>
<event>
 5   0  0.6495405E-05  0.2281335E+04  0.7818609E-02  0.8485317E-01
       -2   -1    0    0    0  501  0.00000000000E+00  0.00000000000E+00  0.84947160817E+03  0.84947160818E+03  0.25500000920E-02 0.  1.
        2   -1    0    0  501    0  0.00000000000E+00  0.00000000000E+00 -0.15316840930E+04  0.15316840930E+04  0.25500000920E-02 0. -1.
    10030    2    1    2    0    0  0.00000000000E+00  0.00000000000E+00 -0.68221248479E+03  0.23811557011E+04  0.22813348283E+04 0.  0.
        5    1    3    3  502    0  0.79465880389E+03 -0.21200161267E+03  0.48383885930E+03  0.95422713761E+03  0.46999998093E+01 0.  1.
       -5    1    3    3    0  502 -0.79465880389E+03  0.21200161267E+03 -0.11660513441E+04  0.14269285635E+04  0.46999998093E+01 0. -1.
</event>
<event>
 5   0  0.2982385E-05  0.2330017E+04  0.7818609E-02  0.8466179E-01
        1   -1    0    0  501    0  0.00000000000E+00  0.00000000000E+00  0.22556178176E+04  0.22556178176E+04  0.50400001928E-02 0.  1.
       -1   -1    0    0    0  501  0.00000000000E+00  0.00000000000E+00 -0.60171753837E+03  0.60171753839E+03  0.50400001928E-02 0. -1.
    10030    2    1    2    0    0  0.00000000000E+00  0.00000000000E+00  0.16539002792E+04  0.28573353560E+04  0.23300169963E+04 0.  0.
        4    1    3    3  502    0 -0.54754275300E+03 -0.69649578615E+03  0.17546912489E+04  0.19656684457E+04  0.12699999809E+01 0.  1.
       -4    1    3    3    0  502  0.54754275300E+03  0.69649578615E+03 -0.10079096966E+03  0.89166691031E+03  0.12699999809E+01 0. -1.
</event>
<event>
 5   0  0.6814789E-05  0.2299401E+04  0.7818609E-02  0.8478157E-01
        2   -1    0    0  501    0  0.00000000000E+00  0.00000000000E+00  0.10337943107E+04  0.10337943107E+04  0.25500000920E-02 0.  1.
       -2   -1    0    0    0  501  0.00000000000E+00  0.00000000000E+00 -0.12786017744E+04  0.12786017744E+04  0.25500000920E-02 0. -1.
    10030    2    1    2    0    0  0.00000000000E+00  0.00000000000E+00 -0.24480746371E+03  0.23123960851E+04  0.22994010003E+04 0.  0.
        1    1    3    3  502    0  0.10869567932E+04  0.36019834735E+03 -0.18898200043E+02  0.11452401764E+04  0.50400001928E-02 0. -1.
       -1    1    3    3    0  502 -0.10869567932E+04 -0.36019834735E+03 -0.22590926367E+03  0.11671559087E+04  0.50400001928E-02 0.  1.
</event>
<event>
 5   0  0.6495405E-05  0.2220327E+04  0.7818609E-02  0.8510015E-01
       -2   -1    0    0    0  501  0.00000000000E+00  0.00000000000E+00  0.10386396440E+04  0.10386396440E+04  0.25500000920E-02 0. -1.
        2   -1    0    0  501    0  0.00000000000E+00  0.00000000000E+00 -0.11866126773E+04  0.11866126773E+04  0.25500000920E-02 0.  1.
    10030    2    1    2    0    0  0.00000000000E+00  0.00000000000E+00 -0.14797303333E+03  0.22252523212E+04  0.22203269747E+04 0.  0.
        5    1    3    3  502    0 -0.35351898131E+03  0.37918074222E+03  0.90986682898E+03  0.10472026747E+04  0.46999998093E+01 0. -1.
       -5    1    3    3    0  502  0.35351898131E+03 -0.37918074222E+03 -0.10578398623E+04  0.11780496465E+04  0.46999998093E+01 0.  1.
</event>
<event>
 5   0  0.6676612E-05  0.2316492E+04  0.7818609E-02  0.8471447E-01
       -2   -1    0    0    0  501  0.00000000000E+00  0.00000000000E+00  0.13744743009E+04  0.13744743009E+04  0.25500000920E-02 0. -1.
        2   -1    0    0  501    0  0.00000000000E+00  0.00000000000E+00 -0.97603447619E+03  0.97603447620E+03  0.25500000920E-02 0.  1.
    10030    2    1    2    0    0  0.00000000000E+00  0.00000000000E+00  0.39843982475E+03  0.23505087771E+04  0.23164924385E+04 0.  0.
        2    1    3    3  502    0 -0.87313414403E+02 -0.11321947262E+04  0.43070537716E+03  0.12144939902E+04  0.25500000920E-02 0. -1.
       -2    1    3    3    0  502  0.87313414403E+02  0.11321947262E+04 -0.32265552414E+02  0.11360147869E+04  0.25500000920E-02 0.  1.
</event>
<event>
 5   0  0.2962279E-05  0.1993591E+04  0.7818609E-02  0.8609623E-01
       -1   -1    0    0    0  501  0.00000000000E+00  0.00000000000E+00  0.70595176956E+03  0.70595176958E+03  0.50400001928E-02 0.  1.
        1   -1    0    0  501    0  0.00000000000E+00  0.00000000000E+00 -0.14074636507E+04  0.14074636507E+04  0.50400001928E-02 0. -1.
    10030    2    1    2    0    0  0.00000000000E+00  0.00000000000E+00 -0.70151188112E+03  0.21134154203E+04  0.19935911866E+04 0.  0.
        1    1    3    3  502    0 -0.62221197172E+03  0.45206008727E+03 -0.10229788610E+04  0.12798405410E+04  0.50400001928E-02 0. -1.
       -1    1    3    3    0  502  0.62221197172E+03 -0.45206008727E+03  0.32146697986E+03  0.83357487931E+03  0.50400001928E-02 0.  1.
</event>
<event>
 5   0  0.2982385E-05  0.2358354E+04  0.7818609E-02  0.8455262E-01
        1   -1    0    0  501    0  0.00000000000E+00  0.00000000000E+00  0.12281475896E+04  0.12281475896E+04  0.50400001928E-02 0. -1.
       -1   -1    0    0    0  501  0.00000000000E+00  0.00000000000E+00 -0.11321589345E+04  0.11321589345E+04  0.50400001928E-02 0.  1.
    10030    2    1    2    0    0  0.00000000000E+00  0.00000000000E+00  0.95988655039E+02  0.23603065241E+04  0.23583538890E+04 0.  0.
        4    1    3    3  502    0 -0.73245309694E+03 -0.88443119963E+03  0.31607907274E+03  0.11910556995E+04  0.12699999809E+01 0. -1.
       -4    1    3    3    0  502  0.73245309694E+03  0.88443119963E+03 -0.22009041770E+03  0.11692508247E+04  0.12699999809E+01 0.  1.
</event>
<event>
 5   0  0.6676612E-05  0.2277647E+04  0.7818609E-02  0.8486787E-01
       -2   -1    0    0    0  501  0.00000000000E+00  0.00000000000E+00  0.67707105064E+03  0.67707105064E+03  0.25500000920E-02 0. -1.
        2   -1    0    0  501    0  0.00000000000E+00  0.00000000000E+00 -0.19154835088E+04  0.19154835088E+04  0.25500000920E-02 0.  1.
    10030    2    1    2    0    0  0.00000000000E+00  0.00000000000E+00 -0.12384124582E+04  0.25925545595E+04  0.22776465326E+04 0.  0.
        2    1    3    3  502    0  0.55962219521E+03 -0.43233731016E+03 -0.16352754448E+04  0.17816336131E+04  0.25500000920E-02 0.  1.
       -2    1    3    3    0  502 -0.55962219521E+03  0.43233731016E+03  0.39686298657E+03  0.81092094636E+03  0.25500000920E-02 0. -1.
</event>
<event>
 5   0  0.6495405E-05  0.2338649E+04  0.7818609E-02  0.8462837E-01
       -2   -1    0    0    0  501  0.00000000000E+00  0.00000000000E+00  0.79341251519E+03  0.79341251520E+03  0.25500000920E-02 0.  1.
        2   -1    0    0  501    0  0.00000000000E+00  0.00000000000E+00 -0.17233397857E+04  0.17233397857E+04  0.25500000920E-02 0. -1.
    10030    2    1    2    0    0  0.00000000000E+00  0.00000000000E+00 -0.92992727047E+03  0.25167523009E+04  0.23386486302E+04 0.  0.
        5    1    3    3  502    0  0.24019034371E+03  0.44420949561E+03  0.67000354035E+03  0.83901150843E+03  0.46999998093E+01 0.  1.
       -5    1    3    3    0  502 -0.24019034371E+03 -0.44420949561E+03 -0.15999308108E+04  0.16777407924E+04  0.46999998093E+01 0. -1.
</event>
<event>
 5   0  0.2982385E-05  0.2374304E+04  0.7818609E-02  0.8449187E-01
        1   -1    0    0  501    0  0.00000000000E+00  0.00000000000E+00  0.10919946704E+04  0.10919946704E+04  0.50400001928E-02 0. -1.
       -1   -1    0    0    0  501  0.00000000000E+00  0.00000000000E+00 -0.12906009979E+04  0.12906009979E+04  0.50400001928E-02 0.  1.
    10030    2    1    2    0    0  0.00000000000E+00  0.00000000000E+00 -0.19860632753E+03  0.23825956683E+04  0.23743036127E+04 0.  0.
        4    1    3    3  502    0  0.77136749339E+03 -0.88279973979E+03  0.88391791827E+02  0.11756521221E+04  0.12699999809E+01 0.  1.
       -4    1    3    3    0  502 -0.77136749339E+03  0.88279973979E+03 -0.28699811936E+03  0.12069435463E+04  0.12699999809E+01 0. -1.
</event>
<event>
 5   0  0.3006265E-05  0.2481012E+04  0.7818609E-02  0.8409782E-01
        1   -1    0    0  501    0  0.00000000000E+00  0.00000000000E+00  0.18132446553E+04  0.18132446553E+04  0.50400001928E-02 0.  1.
       -1   -1    0    0    0  501  0.00000000000E+00  0.00000000000E+00 -0.84867472397E+03  0.84867472398E+03  0.50400001928E-02 0. -1.
    10030    2    1    2    0    0  0.00000000000E+00  0.00000000000E+00  0.96456993130E+03  0.26619193793E+04  0.24810118156E+04 0.  0.
        2    1    3    3  502    0  0.17657603752E+03  0.59579687281E+03 -0.66964100382E+03  0.91354916927E+03  0.25500000920E-02 0. -1.
       -2    1    3    3    0  502 -0.17657603752E+03 -0.59579687281E+03  0.16342109351E+04  0.17483702100E+04  0.25500000920E-02 0.  1.
</event>
<event>
 5   0  0.6702421E-05  0.2256849E+04  0.7818609E-02  0.8495132E-01
        2   -1    0    0  501    0  0.00000000000E+00  0.00000000000E+00  0.99286597612E+03  0.99286597612E+03  0.25500000920E-02 0. -1.
       -2   -1    0    0    0  501  0.00000000000E+00  0.00000000000E+00 -0.12824917291E+04  0.12824917291E+04  0.25500000920E-02 0.  1.
    10030    2    1    2    0    0  0.00000000000E+00  0.00000000000E+00 -0.28962575303E+03  0.22753577053E+04  0.22568494877E+04 0.  0.
        4    1    3    3  502    0  0.69208994690E+03 -0.88784234164E+03 -0.22348014802E+03  0.11476922530E+04  0.12699999809E+01 0.  1.
       -4    1    3    3    0  502 -0.69208994690E+03  0.88784234164E+03 -0.66145605003E+02  0.11276654522E+04  0.12699999809E+01 0. -1.
</event>
<event>
 5   0  0.2944089E-05  0.2294255E+04  0.7818609E-02  0.8480190E-01
       -1   -1    0    0    0  501  0.00000000000E+00  0.00000000000E+00  0.77929802234E+03  0.77929802236E+03  0.50400001928E-02 0. -1.
        1   -1    0    0  501    0  0.00000000000E+00  0.00000000000E+00 -0.16885724145E+04  0.16885724145E+04  0.50400001928E-02 0.  1.
    10030    2    1    2    0    0  0.00000000000E+00  0.00000000000E+00 -0.90927439217E+03  0.24678704369E+04  0.22942546879E+04 0.  0.
        5    1    3    3  502    0  0.18744822615E+03 -0.98534693098E+03 -0.10533864887E+04  0.14545413698E+04  0.46999998093E+01 0. -1.
       -5    1    3    3    0  502 -0.18744822615E+03  0.98534693098E+03  0.14411209650E+03  0.10133290671E+04  0.46999998093E+01 0.  1.
</event>
<event>
 5   0  0.6702421E-05  0.2201245E+04  0.7818609E-02  0.8517910E-01
       -2   -1    0    0    0  501  0.00000000000E+00  0.00000000000E+00  0.68582203130E+03  0.68582203130E+03  0.25500000920E-02 0.  1.
        2   -1    0    0  501    0  0.00000000000E+00  0.00000000000E+00 -0.17663038789E+04  0.17663038789E+04  0.25500000920E-02 0. -1.
    10030    2    1    2    0    0  0.00000000000E+00  0.00000000000E+00 -0.10804818476E+04  0.24521259102E+04  0.22012452059E+04 0.  0.
        4    1    3    3  502    0 -0.73600047523E+03 -0.59457474547E+03 -0.11665991314E+04  0.15020555828E+04  0.12699999809E+01 0.  1.
       -4    1    3    3    0  502  0.73600047523E+03  0.59457474547E+03  0.86117283848E+02  0.95007032738E+03  0.12699999809E+01 0. -1.
</event>
<event>
 5   0  0.6702421E-05  0.2230418E+04  0.7818609E-02  0.8505873E-01
       -2   -1    0    0    0  501  0.00000000000E+00  0.00000000000E+00  0.20705097033E+04  0.20705097033E+04  0.25500000920E-02 0. -1.
        2   -1    0    0  501    0  0.00000000000E+00  0.00000000000E+00 -0.60066905571E+03  0.60066905571E+03  0.25500000920E-02 0.  1.
    10030    2    1    2    0    0  0.00000000000E+00  0.00000000000E+00  0.14698406476E+04  0.26711787590E+04  0.22304179952E+04 0.  0.
        4    1    3    3  502    0  0.10759099416E+04 -0.29342077456E+03  0.73085161432E+03  0.13333505348E+04  0.12699999809E+01 0. -1.
       -4    1    3    3    0  502 -0.10759099416E+04  0.29342077456E+03  0.73898903330E+03  0.13378282243E+04  0.12699999809E+01 0.  1.
</event>
<event>
 5   0  0.6468758E-05  0.2218447E+04  0.7818609E-02  0.8510789E-01
       -2   -1    0    0    0  501  0.00000000000E+00  0.00000000000E+00  0.29218761113E+04  0.29218761113E+04  0.25500000920E-02 0.  1.
        2   -1    0    0  501    0  0.00000000000E+00  0.00000000000E+00 -0.42109122421E+03  0.42109122422E+03  0.25500000920E-02 0. -1.
    10030    2    1    2    0    0  0.00000000000E+00  0.00000000000E+00  0.25007848871E+04  0.33429673356E+04  0.22184466536E+04 0.  0.
        3    1    3    3  502    0  0.83876259539E+03 -0.23661286533E+03  0.22844215168E+04  0.24450132957E+04  0.10100000352E+00 0.  1.
       -3    1    3    3    0  502 -0.83876259539E+03  0.23661286533E+03  0.21636337029E+03  0.89795403984E+03  0.10100000352E+00 0. -1.
</event>
<event>
 5   0  0.3006265E-05  0.2300393E+04  0.7818609E-02  0.8477766E-01
       -1   -1    0    0    0  501  0.00000000000E+00  0.00000000000E+00  0.78715476278E+03  0.78715476280E+03  0.50400001928E-02 0.  1.
        1   -1    0    0  501    0  0.00000000000E+00  0.00000000000E+00 -0.16806761593E+04  0.16806761593E+04  0.50400001928E-02 0. -1.
    10030    2    1    2    0    0  0.00000000000E+00  0.00000000000E+00 -0.89352139651E+03  0.24678309221E+04  0.23003932216E+04 0.  0.
        2    1    3    3  502    0 -0.61760690136E+03 -0.92911114100E+03 -0.74688497794E+03  0.13425807116E+04  0.25500000920E-02 0. -1.
       -2    1    3    3    0  502  0.61760690136E+03  0.92911114100E+03 -0.14663641856E+03  0.11252502105E+04  0.25500000920E-02 0.  1.
</event>
<event>
 5   0  0.2962279E-05  0.2306467E+04  0.7818609E-02  0.8475376E-01
        1   -1    0    0  501    0  0.00000000000E+00  0.00000000000E+00  0.13291987044E+04  0.13291987044E+04  0.50400001928E-02 0. -1.
       -1   -1    0    0    0  501  0.00000000000E+00  0.00000000000E+00 -0.10005631051E+04  0.10005631051E+04  0.50400001928E-02 0.  1.
    10030    2    1    2    0    0  0.00000000000E+00  0.00000000000E+00  0.32863559923E+03  0.23297618095E+04  0.23064667203E+04 0.  0.
        1    1    3    3  502    0 -0.17434203634E+03 -0.65429097712E+03 -0.77862836981E+03  0.10318691616E+04  0.50400001928E-02 0.  1.
       -1    1    3    3    0  502  0.17434203634E+03  0.65429097712E+03  0.11072639690E+04  0.12978926479E+04  0.50400001928E-02 0. -1.
</event>
<event>
 5   0  0.2944089E-05  0.2304705E+04  0.7818609E-02  0.8476068E-01
       -1   -1    0    0    0  501  0.00000000000E+00  0.00000000000E+00  0.12713158612E+04  0.12713158612E+04  0.50400001928E-02 0.  1.
        1   -1    0    0  501    0  0.00000000000E+00  0.00000000000E+00 -0.10445212871E+04  0.10445212871E+04  0.50400001928E-02 0. -1.
    10030    2    1    2    0    0  0.00000000000E+00  0.00000000000E+00  0.22679457414E+03  0.23158371483E+04  0.23047051695E+04 0.  0.
        5    1    3    3  502    0 -0.94683085019E+03  0.30903753224E+03 -0.46897222921E+03  0.11008859600E+04  0.46999998093E+01 0. -1.
       -5    1    3    3    0  502  0.94683085019E+03 -0.30903753224E+03  0.69576680336E+03  0.12149511883E+04  0.46999998093E+01 0.  1.
</event>
<event>
 5   0  0.6814789E-05  0.2292962E+04  0.7818609E-02  0.8480701E-01
        2   -1    0    0  501    0  0.00000000000E+00  0.00000000000E+00  0.21047884927E+04  0.21047884927E+04  0.25500000920E-02 0.  1.
       -2   -1    0    0    0  501  0.00000000000E+00  0.00000000000E+00 -0.62448943583E+03  0.62448943584E+03  0.25500000920E-02 0. -1.
    10030    2    1    2    0    0  0.00000000000E+00  0.00000000000E+00  0.14802990569E+04  0.27292779285E+04  0.22929615595E+04 0.  0.
        1    1    3    3  502    0 -0.63816436844E+03  0.50546851483E+03  0.17010170626E+04  0.18857919365E+04  0.50400001928E-02 0.  1.
       -1    1    3    3    0  502  0.63816436844E+03 -0.50546851483E+03 -0.22071800573E+03  0.84348599200E+03  0.50400001928E-02 0. -1.
</event>
<event>
 5   0  0.6495405E-05  0.2252942E+04  0.7818609E-02  0.8496710E-01
        2   -1    0    0  501    0  0.00000000000E+00  0.00000000000E+00  0.17336574254E+04  0.17336574254E+04  0.25500000920E-02 0.  1.
       -2   -1    0    0    0  501  0.00000000000E+00  0.00000000000E+00 -0.73194243866E+03  0.73194243867E+03  0.25500000920E-02 0. -1.
    10030    2    1    2    0    0  0.00000000000E+00  0.00000000000E+00  0.10017149868E+04  0.24655998641E+04  0.22529424704E+04 0.  0.
        5    1    3    3  502    0 -0.36921803683E+03  0.39549584458E+03  0.15821337200E+04  0.16720969229E+04  0.46999998093E+01 0.  1.
       -5    1    3    3    0  502  0.36921803683E+03 -0.39549584458E+03 -0.58041873320E+03  0.79350294117E+03  0.46999998093E+01 0. -1.
</event>
<event>
 5   0  0.6702421E-05  0.2419695E+04  0.7818609E-02  0.8432167E-01
        2   -1    0    0  501    0  0.00000000000E+00  0.00000000000E+00  0.29047297266E+04  0.29047297266E+04  0.25500000920E-02 0. -1.
       -2   -1    0    0    0  501  0.00000000000E+00  0.00000000000E+00 -0.50391281141E+03  0.50391281142E+03  0.25500000920E-02 0.  1.
    10030    2    1    2    0    0  0.00000000000E+00  0.00000000000E+00  0.24008169151E+04  0.34086425380E+04  0.24196946278E+04 0.  0.
        4    1    3    3  502    0  0.68010691329E+03 -0.49927923277E+03  0.24219325102E+04  0.25646800702E+04  0.12699999809E+01 0. -1.
       -4    1    3    3    0  502 -0.68010691329E+03  0.49927923277E+03 -0.21115595012E+02  0.84396246778E+03  0.12699999809E+01 0.  1.
</event>
<event>
 5   0  0.2944089E-05  0.2193605E+04  0.7818609E-02  0.8521095E-01
        1   -1    0    0  501    0  0.00000000000E+00  0.00000000000E+00  0.14272467255E+04  0.14272467255E+04  0.50400001928E-02 0.  1.
       -1   -1    0    0    0  501  0.00000000000E+00  0.00000000000E+00 -0.84286433028E+03  0.84286433029E+03  0.50400001928E-02 0. -1.
    10030    2    1    2    0    0  0.00000000000E+00  0.00000000000E+00  0.58438239523E+03  0.22701110558E+04  0.21936046640E+04 0.  0.
        5    1    3    3  502    0  0.34890908855E+02 -0.12675657241E+03 -0.83466997106E+03  0.84497375981E+03  0.46999998093E+01 0. -1.
       -5    1    3    3    0  502 -0.34890908855E+02  0.12675657241E+03  0.14190523663E+04  0.14251372960E+04  0.46999998093E+01 0.  1.
</event>
<event>
 5   0  0.2962279E-05  0.2298095E+04  0.7818609E-02  0.8478672E-01
       -1   -1    0    0    0  501  0.00000000000E+00  0.00000000000E+00  0.30187320662E+04  0.30187320662E+04  0.50400001928E-02 0. -1.
        1   -1    0    0  501    0  0.00000000000E+00  0.00000000000E+00 -0.43737258343E+03  0.43737258345E+03  0.50400001928E-02 0.  1.
    10030    2    1    2    0    0  0.00000000000E+00  0.00000000000E+00  0.25813594828E+04  0.34561046497E+04  0.22980954223E+04 0.  0.
        1    1    3    3  502    0 -0.32084870923E+03 -0.59953350391E+03  0.26836563509E+04  0.27684645070E+04  0.50400001928E-02 0. -1.
       -1    1    3    3    0  502  0.32084870923E+03  0.59953350391E+03 -0.10229686818E+03  0.68764014265E+03  0.50400001928E-02 0.  1.
</event>
<event>
 5   0  0.3006265E-05  0.2296871E+04  0.7818609E-02  0.8479156E-01
       -1   -1    0    0    0  501  0.00000000000E+00  0.00000000000E+00  0.90565548122E+03  0.90565548124E+03  0.50400001928E-02 0. -1.
        1   -1    0    0  501    0  0.00000000000E+00  0.00000000000E+00 -0.14562972821E+04  0.14562972821E+04  0.50400001928E-02 0.  1.
    10030    2    1    2    0    0  0.00000000000E+00  0.00000000000E+00 -0.55064180089E+03  0.23619527634E+04  0.22968705805E+04 0.  0.
        2    1    3    3  502    0  0.50756604399E+03  0.14987066372E+03  0.77278375046E+03  0.93663185395E+03  0.25500000920E-02 0. -1.
       -2    1    3    3    0  502 -0.50756604399E+03 -0.14987066372E+03 -0.13234255513E+04  0.14253209094E+04  0.25500000920E-02 0.  1.
</event>
<event>
 5   0  0.3006265E-05  0.2304874E+04  0.7818609E-02  0.8476002E-01
       -1   -1    0    0    0  501  0.00000000000E+00  0.00000000000E+00  0.53369438612E+03  0.53369438614E+03  0.50400001928E-02 0.  1.
        1   -1    0    0  501    0  0.00000000000E+00  0.00000000000E+00 -0.24885241879E+04  0.24885241879E+04  0.50400001928E-02 0. -1.
    10030    2    1    2    0    0  0.00000000000E+00  0.00000000000E+00 -0.19548298018E+04  0.30222185741E+04  0.23048743036E+04 0.  0.
        2    1    3    3  502    0  0.42289527051E+03 -0.10570683623E+04 -0.12115251650E+04  0.16625363629E+04  0.25500000920E-02 0. -1.
       -2    1    3    3    0  502 -0.42289527051E+03  0.10570683623E+04 -0.74330463677E+03  0.13596822112E+04  0.25500000920E-02 0.  1.
</event>
<event>
 5   0  0.2944089E-05  0.2294426E+04  0.7818609E-02  0.8480122E-01
        1   -1    0    0  501    0  0.00000000000E+00  0.00000000000E+00  0.69560217442E+03  0.69560217444E+03  0.50400001928E-02 0.  1.
       -1   -1    0    0    0  501  0.00000000000E+00  0.00000000000E+00 -0.18920256496E+04  0.18920256496E+04  0.50400001928E-02 0. -1.
    10030    2    1    2    0    0  0.00000000000E+00  0.00000000000E+00 -0.11964234752E+04  0.25876278241E+04  0.22944255542E+04 0.  0.
        5    1    3    3  502    0  0.10975948198E+04  0.61547438276E+02 -0.22831657261E+03  0.11227880579E+04  0.46999998093E+01 0. -1.
       -5    1    3    3    0  502 -0.10975948198E+04 -0.61547438276E+02 -0.96810690259E+03  0.14648397662E+04  0.46999998093E+01 0.  1.
</event>
<event>
 5   0  0.6814789E-05  0.2279204E+04  0.7818609E-02  0.8486166E-01
        2   -1    0    0  501    0  0.00000000000E+00  0.00000000000E+00  0.13628473632E+04  0.13628473632E+04  0.25500000920E-02 0. -1.
       -2   -1    0    0    0  501  0.00000000000E+00  0.00000000000E+00 -0.95292619549E+03  0.95292619549E+03  0.25500000920E-02 0.  1.
    10030    2    1    2    0    0  0.00000000000E+00  0.00000000000E+00  0.40992116768E+03  0.23157735587E+04  0.22792042057E+04 0.  0.
        1    1    3    3  502    0 -0.82675922112E+03 -0.73266031289E+02  0.99838307857E+03  0.12983325817E+04  0.50400001928E-02 0. -1.
       -1    1    3    3    0  502  0.82675922112E+03  0.73266031289E+02 -0.58846191089E+03  0.10174409770E+04  0.50400001928E-02 0.  1.
</event>
<event>
 5   0  0.3006265E-05  0.2309820E+04  0.7818609E-02  0.8474059E-01
       -1   -1    0    0    0  501  0.00000000000E+00  0.00000000000E+00  0.74077752995E+03  0.74077752997E+03  0.50400001928E-02 0.  1.
        1   -1    0    0  501    0  0.00000000000E+00  0.00000000000E+00 -0.18005638954E+04  0.18005638954E+04  0.50400001928E-02 0. -1.
    10030    2    1    2    0    0  0.00000000000E+00  0.00000000000E+00 -0.10597863654E+04  0.25413414253E+04  0.23098201445E+04 0.  0.
        2    1    3    3  502    0  0.41183705410E+03 -0.86177103878E+03 -0.12442474083E+04  0.15685696336E+04  0.25500000920E-02 0. -1.
       -2    1    3    3    0  502 -0.41183705410E+03  0.86177103878E+03  0.18446104290E+03  0.97277179172E+03  0.25500000920E-02 0.  1.
</event>
<event>
 5   0  0.2962279E-05  0.2185593E+04  0.7818609E-02  0.8524449E-01
        1   -1    0    0  501    0  0.00000000000E+00  0.00000000000E+00  0.10182777767E+04  0.10182777767E+04  0.50400001928E-02 0. -1.
       -1   -1    0    0    0  501  0.00000000000E+00  0.00000000000E+00 -0.11727688529E+04  0.11727688529E+04  0.50400001928E-02 0.  1.
    10030    2    1    2    0    0  0.00000000000E+00  0.00000000000E+00 -0.15449107620E+03  0.21910466296E+04  0.21855932468E+04 0.  0.
        1    1    3    3  502    0 -0.60566896265E+03 -0.82342632631E+03 -0.46465336885E+03  0.11228395078E+04  0.50400001928E-02 0.  1.
       -1    1    3    3    0  502  0.60566896265E+03  0.82342632631E+03  0.31016229265E+03  0.10682071218E+04  0.50400001928E-02 0. -1.
</event>
<event>
 5   0  0.6702421E-05  0.2300944E+04  0.7818609E-02  0.8477549E-01
       -2   -1    0    0    0  501  0.00000000000E+00  0.00000000000E+00  0.44675145140E+03  0.44675145141E+03  0.25500000920E-02 0. -1.
        2   -1    0    0  501    0  0.00000000000E+00  0.00000000000E+00 -0.29626901523E+04  0.29626901523E+04  0.25500000920E-02 0.  1.
    10030    2    1    2    0    0  0.00000000000E+00  0.00000000000E+00 -0.25159387008E+04  0.34094416037E+04  0.23009442632E+04 0.  0.
        4    1    3    3  502    0 -0.39201401617E+01  0.45657326602E+03  0.30674841141E+03  0.55006428310E+03  0.12699999809E+01 0. -1.
       -4    1    3    3    0  502  0.39201401617E+01 -0.45657326602E+03 -0.28226871123E+04  0.28593773206E+04  0.12699999809E+01 0.  1.
</event>
<event>
 5   0  0.2944089E-05  0.2274625E+04  0.7818609E-02  0.8487994E-01
        1   -1    0    0  501    0  0.00000000000E+00  0.00000000000E+00  0.13009695721E+04  0.13009695721E+04  0.50400001928E-02 0. -1.
       -1   -1    0    0    0  501  0.00000000000E+00  0.00000000000E+00 -0.99424296210E+03  0.99424296211E+03  0.50400001928E-02 0.  1.
    10030    2    1    2    0    0  0.00000000000E+00  0.00000000000E+00  0.30672660999E+03  0.22952125342E+04  0.22746251040E+04 0.  0.
        5    1    3    3  502    0 -0.64758209950E+03 -0.14029001489E+03  0.10860745832E+04  0.12722515295E+04  0.46999998093E+01 0. -1.
       -5    1    3    3    0  502  0.64758209950E+03  0.14029001489E+03 -0.77934797323E+03  0.10229610048E+04  0.46999998093E+01 0.  1.
</event>
<event>
 5   0  0.2944089E-05  0.2282595E+04  0.7818609E-02  0.8484815E-01
       -1   -1    0    0    0  501  0.00000000000E+00  0.00000000000E+00  0.11231799713E+04  0.11231799713E+04  0.50400001928E-02 0. -1.
        1   -1    0    0  501    0  0.00000000000E+00  0.00000000000E+00 -0.11597077748E+04  0.11597077748E+04  0.50400001928E-02 0.  1.
    10030    2    1    2    0    0  0.00000000000E+00  0.00000000000E+00 -0.36527803483E+02  0.22828877462E+04  0.22825954922E+04 0.  0.
        5    1    3    3  502    0  0.77210303457E+03  0.55766584272E+03  0.61062831909E+03  0.11313811569E+04  0.46999998093E+01 0. -1.
       -5    1    3    3    0  502 -0.77210303457E+03 -0.55766584272E+03 -0.64715612258E+03  0.11515065893E+04  0.46999998093E+01 0.  1.
</event>
<event>
 5   0  0.3006265E-05  0.2307478E+04  0.7818609E-02  0.8474978E-01
        1   -1    0    0  501    0  0.00000000000E+00  0.00000000000E+00  0.14757499930E+04  0.14757499930E+04  0.50400001928E-02 0. -1.
       -1   -1    0    0    0  501  0.00000000000E+00  0.00000000000E+00 -0.90199162835E+03  0.90199162837E+03  0.50400001928E-02 0.  1.
    10030    2    1    2    0    0  0.00000000000E+00  0.00000000000E+00  0.57375836462E+03  0.23777416213E+04  0.23074783979E+04 0.  0.
        2    1    3    3  502    0 -0.70344685705E+03  0.80028169533E+03 -0.16911787985E+03  0.10788369339E+04  0.25500000920E-02 0.  1.
       -2    1    3    3    0  502  0.70344685705E+03 -0.80028169533E+03  0.74287624447E+03  0.12989046875E+04  0.25500000920E-02 0. -1.
</event>
<event>
 5   0  0.6814789E-05  0.2301698E+04  0.7818609E-02  0.8477252E-01
       -2   -1    0    0    0  501  0.00000000000E+00  0.00000000000E+00  0.65055006800E+03  0.65055006801E+03  0.25500000920E-02 0.  1.
        2   -1    0    0  501    0  0.00000000000E+00  0.00000000000E+00 -0.20358970023E+04  0.20358970023E+04  0.25500000920E-02 0. -1.
    10030    2    1    2    0    0  0.00000000000E+00  0.00000000000E+00 -0.13853469343E+04  0.26864470703E+04  0.23016975764E+04 0.  0.
        1    1    3    3  502    0  0.44375582058E+03 -0.35021816026E+03  0.47733049764E+03  0.73987593019E+03  0.50400001928E-02 0.  1.
       -1    1    3    3    0  502 -0.44375582058E+03  0.35021816026E+03 -0.18626774319E+04  0.19465711401E+04  0.50400001928E-02 0. -1.
</event>
<event>
 5   0  0.3006265E-05  0.2316940E+04  0.7818609E-02  0.8471272E-01
       -1   -1    0    0    0  501  0.00000000000E+00  0.00000000000E+00  0.81304554517E+03  0.81304554518E+03  0.50400001928E-02 0.  1.
        1   -1    0    0  501    0  0.00000000000E+00  0.00000000000E+00 -0.16506485982E+04  0.16506485982E+04  0.50400001928E-02 0. -1.
    10030    2    1    2    0    0  0.00000000000E+00  0.00000000000E+00 -0.83760305305E+03  0.24636941434E+04  0.23169397829E+04 0.  0.
        2    1    3    3  502    0  0.29885368637E+02 -0.11166318774E+04 -0.74532233312E+03  0.13428571276E+04  0.25500000920E-02 0. -1.
       -2    1    3    3    0  502 -0.29885368637E+02  0.11166318774E+04 -0.92280719926E+02  0.11208370158E+04  0.25500000920E-02 0.  1.
</event>
<event>
 5   0  0.6814789E-05  0.2225055E+04  0.7818609E-02  0.8508071E-01
        2   -1    0    0  501    0  0.00000000000E+00  0.00000000000E+00  0.17152359911E+04  0.17152359911E+04  0.25500000920E-02 0.  1.
       -2   -1    0    0    0  501  0.00000000000E+00  0.00000000000E+00 -0.72160203259E+03  0.72160203259E+03  0.25500000920E-02 0. -1.
    10030    2    1    2    0    0  0.00000000000E+00  0.00000000000E+00  0.99363395855E+03  0.24368380237E+04  0.22250553050E+04 0.  0.
        1    1    3    3  502    0 -0.45981566456E+03  0.10017215086E+04  0.66233555859E+03  0.12859101129E+04  0.50400001928E-02 0. -1.
       -1    1    3    3    0  502  0.45981566456E+03 -0.10017215086E+04  0.33129839996E+03  0.11509279109E+04  0.50400001928E-02 0.  1.
</event>
<event>
 5   0  0.6468758E-05  0.2318013E+04  0.7818609E-02  0.8470852E-01
       -2   -1    0    0    0  501  0.00000000000E+00  0.00000000000E+00  0.13301618435E+04  0.13301618435E+04  0.25500000920E-02 0. -1.
        2   -1    0    0  501    0  0.00000000000E+00  0.00000000000E+00 -0.10098744017E+04  0.10098744017E+04  0.25500000920E-02 0.  1.
    10030    2    1    2    0    0  0.00000000000E+00  0.00000000000E+00  0.32028744176E+03  0.23400362452E+04  0.23180132837E+04 0.  0.
        3    1    3    3  502    0 -0.59255937561E+03  0.96159480597E+03 -0.10214238299E+03  0.11341182747E+04  0.10100000352E+00 0.  1.
       -3    1    3    3    0  502  0.59255937561E+03 -0.96159480597E+03  0.42242982475E+03  0.12059179705E+04  0.10100000352E+00 0. -1.
</event>
<event>
 5   0  0.6468758E-05  0.2320648E+04  0.7818609E-02  0.8469824E-01
       -2   -1    0    0    0  501  0.00000000000E+00  0.00000000000E+00  0.13634482421E+04  0.13634482421E+04  0.25500000920E-02 0.  1.
        2   -1    0    0  501    0  0.00000000000E+00  0.00000000000E+00 -0.98746078277E+03  0.98746078278E+03  0.25500000920E-02 0. -1.
    10030    2    1    2    0    0  0.00000000000E+00  0.00000000000E+00  0.37598745932E+03  0.23509090249E+04  0.23206478995E+04 0.  0.
        3    1    3    3  502    0 -0.40515526155E+03 -0.91013536077E+03  0.79060733265E+03  0.12718321924E+04  0.10100000352E+00 0.  1.
       -3    1    3    3    0  502  0.40515526155E+03  0.91013536077E+03 -0.41461987333E+03  0.10790768325E+04  0.10100000352E+00 0. -1.
</event>
<event>
 5   0  0.2962279E-05  0.2275837E+04  0.7818609E-02  0.8487510E-01
        1   -1    0    0  501    0  0.00000000000E+00  0.00000000000E+00  0.16495478518E+04  0.16495478518E+04  0.50400001928E-02 0.  1.
       -1   -1    0    0    0  501  0.00000000000E+00  0.00000000000E+00 -0.78497794828E+03  0.78497794829E+03  0.50400001928E-02 0. -1.
    10030    2    1    2    0    0  0.00000000000E+00  0.00000000000E+00  0.86456990351E+03  0.24345258001E+04  0.22758371544E+04 0.  0.
        1    1    3    3  502    0  0.76021486321E+03 -0.56538080601E+03 -0.24196308051E+03  0.97781809474E+03  0.50400001928E-02 0. -1.
       -1    1    3    3    0  502 -0.76021486321E+03  0.56538080601E+03  0.11065329840E+04  0.14567077053E+04  0.50400001928E-02 0.  1.
</event>
<event>
 5   0  0.2944089E-05  0.2295313E+04  0.7818609E-02  0.8479771E-01
       -1   -1    0    0    0  501  0.00000000000E+00  0.00000000000E+00  0.10936345900E+04  0.10936345900E+04  0.50400001928E-02 0. -1.
        1   -1    0    0  501    0  0.00000000000E+00  0.00000000000E+00 -0.12043473079E+04  0.12043473079E+04  0.50400001928E-02 0.  1.
    10030    2    1    2    0    0  0.00000000000E+00  0.00000000000E+00 -0.11071271787E+03  0.22979818979E+04  0.22953133767E+04 0.  0.
        5    1    3    3  502    0 -0.76615084697E+03 -0.84480622562E+03  0.72890596666E+02  0.11428122367E+04  0.46999998093E+01 0. -1.
       -5    1    3    3    0  502  0.76615084697E+03  0.84480622562E+03 -0.18360331454E+03  0.11551696613E+04  0.46999998093E+01 0.  1.
</event>
<event>
 5   0  0.6468758E-05  0.2270245E+04  0.7818609E-02  0.8489746E-01
        2   -1    0    0  501    0  0.00000000000E+00  0.00000000000E+00  0.17340194549E+04  0.17340194549E+04  0.25500000920E-02 0.  1.
       -2   -1    0    0    0  501  0.00000000000E+00  0.00000000000E+00 -0.74307316413E+03  0.74307316413E+03  0.25500000920E-02 0. -1.
    10030    2    1    2    0    0  0.00000000000E+00  0.00000000000E+00  0.99094629075E+03  0.24770926190E+04  0.22702452053E+04 0.  0.
        3    1    3    3  502    0 -0.29776548979E+03  0.69986426371E+03 -0.42393327759E+03  0.87074319324E+03  0.10100000352E+00 0. -1.
       -3    1    3    3    0  502  0.29776548979E+03 -0.69986426371E+03  0.14148795683E+04  0.16063494258E+04  0.10100000352E+00 0.  1.
</event>
<event>
 5   0  0.2944089E-05  0.2316788E+04  0.7818609E-02  0.8471331E-01
       -1   -1    0    0    0  501  0.00000000000E+00  0.00000000000E+00  0.17981616441E+04  0.17981616441E+04  0.50400001928E-02 0.  1.
        1   -1    0    0  501    0  0.00000000000E+00  0.00000000000E+00 -0.74624897937E+03  0.74624897938E+03  0.50400001928E-02 0. -1.
    10030    2    1    2    0    0  0.00000000000E+00  0.00000000000E+00  0.10519126647E+04  0.25444106235E+04  0.23167876827E+04 0.  0.
        5    1    3    3  502    0 -0.37281471514E+03 -0.17400785099E+03 -0.66329341641E+03  0.78054454728E+03  0.46999998093E+01 0. -1.
       -5    1    3    3    0  502  0.37281471514E+03  0.17400785099E+03  0.17152060811E+04  0.17638660762E+04  0.46999998093E+01 0.  1.
</event>
<event>
 5   0  0.6676612E-05  0.2282638E+04  0.7818609E-02  0.8484798E-01
       -2   -1    0    0    0  501  0.00000000000E+00  0.00000000000E+00  0.10999668626E+04  0.10999668626E+04  0.25500000920E-02 0. -1.
        2   -1    0    0  501    0  0.00000000000E+00  0.00000000000E+00 -0.11842258099E+04  0.11842258099E+04  0.25500000920E-02 0.  1.
    10030    2    1    2    0    0  0.00000000000E+00  0.00000000000E+00 -0.84258947330E+02  0.22841926725E+04  0.22826380779E+04 0.  0.
        2    1    3    3  502    0 -0.28358168664E+03 -0.55529221612E+03 -0.99873090603E+03  0.11773833025E+04  0.25500000920E-02 0.  1.
       -2    1    3    3    0  502  0.28358168664E+03  0.55529221612E+03  0.91447195870E+03  0.11068093700E+04  0.25500000920E-02 0. -1.
</event>
<event>
 5   0  0.2962279E-05  0.2276067E+04  0.7818609E-02  0.8487418E-01
       -1   -1    0    0    0  501  0.00000000000E+00  0.00000000000E+00  0.13223962929E+04  0.13223962929E+04  0.50400001928E-02 0.  1.
        1   -1    0    0  501    0  0.00000000000E+00  0.00000000000E+00 -0.97937373520E+03  0.97937373521E+03  0.50400001928E-02 0. -1.
    10030    2    1    2    0    0  0.00000000000E+00  0.00000000000E+00  0.34302255766E+03  0.23017700281E+04  0.22760669558E+04 0.  0.
        1    1    3    3  502    0 -0.43548190858E+02  0.11287593905E+04  0.31652780043E+02  0.11300425235E+04  0.50400001928E-02 0.  1.
       -1    1    3    3    0  502  0.43548190858E+02 -0.11287593905E+04  0.31136977762E+03  0.11717275045E+04  0.50400001928E-02 0. -1.
</event>
<event>
 5   0  0.2962279E-05  0.2311556E+04  0.7818609E-02  0.8473379E-01
        1   -1    0    0  501    0  0.00000000000E+00  0.00000000000E+00  0.11639703656E+04  0.11639703656E+04  0.50400001928E-02 0.  1.
       -1   -1    0    0    0  501  0.00000000000E+00  0.00000000000E+00 -0.11476434895E+04  0.11476434895E+04  0.50400001928E-02 0. -1.
    10030    2    1    2    0    0  0.00000000000E+00  0.00000000000E+00  0.16326876068E+02  0.23116138551E+04  0.23115561962E+04 0.  0.
        1    1    3    3  502    0  0.45529543360E+03  0.78228765696E+03 -0.71057216841E+03  0.11507305143E+04  0.50400001928E-02 0. -1.
       -1    1    3    3    0  502 -0.45529543360E+03 -0.78228765696E+03  0.72689904447E+03  0.11608833408E+04  0.50400001928E-02 0.  1.
</event>
<event>
 5   0  0.2982385E-05  0.2268790E+04  0.7818609E-02  0.8490329E-01
       -1   -1    0    0    0  501  0.00000000000E+00  0.00000000000E+00  0.13410176859E+04  0.13410176859E+04  0.50400001928E-02 0.  1.
        1   -1    0    0  501    0  0.00000000000E+00  0.00000000000E+00 -0.95960894842E+03  0.95960894843E+03  0.50400001928E-02 0. -1.
    10030    2    1    2    0    0  0.00000000000E+00  0.00000000000E+00  0.38140873746E+03  0.23006266343E+04  0.22687904896E+04 0.  0.
        4    1    3    3  502    0 -0.13181529203E+03  0.21181963040E+03  0.13128528337E+04  0.13363483838E+04  0.12699999809E+01 0.  1.
       -4    1    3    3    0  502  0.13181529203E+03 -0.21181963040E+03 -0.93144409626E+03  0.96427825050E+03  0.12699999809E+01 0. -1.
</event>
<event>
 5   0  0.6702421E-05  0.2288529E+04  0.7818609E-02  0.8482458E-01
        2   -1    0    0  501    0  0.00000000000E+00  0.00000000000E+00  0.75320058642E+03  0.75320058643E+03  0.25500000920E-02 0.  1.
       -2   -1    0    0    0  501  0.00000000000E+00  0.00000000000E+00 -0.17383706570E+04  0.17383706570E+04  0.25500000920E-02 0. -1.
    10030    2    1    2    0    0  0.00000000000E+00  0.00000000000E+00 -0.98517007053E+03  0.24915712434E+04  0.22885294827E+04 0.  0.
        4    1    3    3  502    0  0.55556614070E+03  0.33152573788E+03  0.53496109529E+03  0.83949272656E+03  0.12699999809E+01 0.  1.
       -4    1    3    3    0  502 -0.55556614070E+03 -0.33152573788E+03 -0.15201311658E+04  0.16520785168E+04  0.12699999809E+01 0. -1.
</event>
<event>
 5   0  0.3118614E-05  0.2157791E+04  0.7818609E-02  0.8536205E-01
       -1   -1    0    0    0  501  0.00000000000E+00  0.00000000000E+00  0.70036430640E+03  0.70036430642E+03  0.50400001928E-02 0. -1.
        1   -1    0    0  501    0  0.00000000000E+00  0.00000000000E+00 -0.16620141745E+04  0.16620141745E+04  0.50400001928E-02 0.  1.
    10030    2    1    2    0    0  0.00000000000E+00  0.00000000000E+00 -0.96164986811E+03  0.23623784809E+04  0.21577909116E+04 0.  0.
        3    1    3    3  502    0  0.99959801159E+03 -0.40509725371E+03 -0.45154149564E+03  0.11692688751E+04  0.10100000352E+00 0.  1.
       -3    1    3    3    0  502 -0.99959801159E+03  0.40509725371E+03 -0.51010837247E+03  0.11931096059E+04  0.10100000352E+00 0. -1.
</event>
<event>
 5   0  0.2944089E-05  0.2215346E+04  0.7818609E-02  0.8512068E-01
        1   -1    0    0  501    0  0.00000000000E+00  0.00000000000E+00  0.12196974959E+04  0.12196974959E+04  0.50400001928E-02 0.  1.
       -1   -1    0    0    0  501  0.00000000000E+00  0.00000000000E+00 -0.10059373405E+04  0.10059373405E+04  0.50400001928E-02 0. -1.
    10030    2    1    2    0    0  0.00000000000E+00  0.00000000000E+00  0.21376015535E+03  0.22256348364E+04  0.22153458017E+04 0.  0.
        5    1    3    3  502    0 -0.92919667649E+03  0.23771329135E+03  0.66353205898E+03  0.11662808220E+04  0.46999998093E+01 0.  1.
       -5    1    3    3    0  502  0.92919667649E+03 -0.23771329135E+03 -0.44977190364E+03  0.10593540144E+04  0.46999998093E+01 0. -1.
</event>
<event>
 5   0  0.2982385E-05  0.2318217E+04  0.7818609E-02  0.8470773E-01
       -1   -1    0    0    0  501  0.00000000000E+00  0.00000000000E+00  0.24105338792E+04  0.24105338792E+04  0.50400001928E-02 0. -1.
        1   -1    0    0  501    0  0.00000000000E+00  0.00000000000E+00 -0.55735866414E+03  0.55735866416E+03  0.50400001928E-02 0.  1.
    10030    2    1    2    0    0  0.00000000000E+00  0.00000000000E+00  0.18531752151E+04  0.29678925434E+04  0.23182165065E+04 0.  0.
        4    1    3    3  502    0 -0.10478346612E+04 -0.32589758189E+03  0.44865255187E+03  0.11855199012E+04  0.12699999809E+01 0.  1.
       -4    1    3    3    0  502  0.10478346612E+04  0.32589758189E+03  0.14045226632E+04  0.17823726421E+04  0.12699999809E+01 0. -1.
</event>
<event>
 5   0  0.6676612E-05  0.2281015E+04  0.7818609E-02  0.8485444E-01
       -2   -1    0    0    0  501  0.00000000000E+00  0.00000000000E+00  0.67222125873E+03  0.67222125873E+03  0.25500000920E-02 0.  1.
        2   -1    0    0  501    0  0.00000000000E+00  0.00000000000E+00 -0.19350136805E+04  0.19350136805E+04  0.25500000920E-02 0. -1.
    10030    2    1    2    0    0  0.00000000000E+00  0.00000000000E+00 -0.12627924217E+04  0.26072349392E+04  0.22810149775E+04 0.  0.
        2    1    3    3  502    0  0.88523514895E+03  0.60327420887E+03 -0.10787465866E+04  0.15202878800E+04  0.25500000920E-02 0.  1.
       -2    1    3    3    0  502 -0.88523514895E+03 -0.60327420887E+03 -0.18404583514E+03  0.10869470592E+04  0.25500000920E-02 0. -1.
</event>
<event>
 5   0  0.6702421E-05  0.2280435E+04  0.7818609E-02  0.8485675E-01
       -2   -1    0    0    0  501  0.00000000000E+00  0.00000000000E+00  0.16980095326E+04  0.16980095326E+04  0.25500000920E-02 0.  1.
        2   -1    0    0  501    0  0.00000000000E+00  0.00000000000E+00 -0.76565896103E+03  0.76565896104E+03  0.25500000920E-02 0. -1.
    10030    2    1    2    0    0  0.00000000000E+00  0.00000000000E+00  0.93235057159E+03  0.24636684937E+04  0.22804352344E+04 0.  0.
        4    1    3    3  502    0  0.90085085096E+03  0.31089157285E+03 -0.21015217505E+03  0.97588491910E+03  0.12699999809E+01 0.  1.
       -4    1    3    3    0  502 -0.90085085096E+03 -0.31089157285E+03  0.11425027466E+04  0.14877835746E+04  0.12699999809E+01 0. -1.
</event>
<event>
 5   0  0.6702421E-05  0.2372216E+04  0.7818609E-02  0.8449979E-01
        2   -1    0    0  501    0  0.00000000000E+00  0.00000000000E+00  0.21435730783E+04  0.21435730783E+04  0.25500000920E-02 0. -1.
       -2   -1    0    0    0  501  0.00000000000E+00  0.00000000000E+00 -0.65631164193E+03  0.65631164194E+03  0.25500000920E-02 0.  1.
    10030    2    1    2    0    0  0.00000000000E+00  0.00000000000E+00  0.14872614364E+04  0.27998847203E+04  0.23722158137E+04 0.  0.
        4    1    3    3  502    0 -0.58918269289E+03  0.57660402821E+03 -0.26289621634E+03  0.86528867115E+03  0.12699999809E+01 0.  1.
       -4    1    3    3    0  502  0.58918269289E+03 -0.57660402821E+03  0.17501576528E+04  0.19345960491E+04  0.12699999809E+01 0. -1.
</event>
<event>
 5   0  0.2982385E-05  0.1981639E+04  0.7818609E-02  0.8615253E-01
       -1   -1    0    0    0  501  0.00000000000E+00  0.00000000000E+00  0.70520301740E+03  0.70520301741E+03  0.50400001928E-02 0.  1.
        1   -1    0    0  501    0  0.00000000000E+00  0.00000000000E+00 -0.13921144977E+04  0.13921144977E+04  0.50400001928E-02 0. -1.
    10030    2    1    2    0    0  0.00000000000E+00  0.00000000000E+00 -0.68691148027E+03  0.20973175151E+04  0.19816390633E+04 0.  0.
        4    1    3    3  502    0  0.80078489766E+03 -0.20607470312E+03 -0.92121466774E+03  0.12378858237E+04  0.12699999809E+01 0. -1.
       -4    1    3    3    0  502 -0.80078489766E+03  0.20607470312E+03  0.23430318747E+03  0.85943169138E+03  0.12699999809E+01 0.  1.
</event>
<event>
 5   0  0.6676612E-05  0.2247379E+04  0.7818609E-02  0.8498963E-01
       -2   -1    0    0    0  501  0.00000000000E+00  0.00000000000E+00  0.76316817849E+03  0.76316817850E+03  0.25500000920E-02 0. -1.
        2   -1    0    0  501    0  0.00000000000E+00  0.00000000000E+00 -0.16545213956E+04  0.16545213956E+04  0.25500000920E-02 0.  1.
    10030    2    1    2    0    0  0.00000000000E+00  0.00000000000E+00 -0.89135321712E+03  0.24176895741E+04  0.22473789888E+04 0.  0.
        2    1    3    3  502    0  0.89619241493E+03 -0.40899171651E+03  0.13588574889E+03  0.99443451544E+03  0.25500000920E-02 0. -1.
       -2    1    3    3    0  502 -0.89619241493E+03  0.40899171651E+03 -0.10272389660E+04  0.14232550587E+04  0.25500000920E-02 0.  1.
</event>
<event>
 5   0  0.6702421E-05  0.2294044E+04  0.7818609E-02  0.8480273E-01
        2   -1    0    0  501    0  0.00000000000E+00  0.00000000000E+00  0.15649094153E+04  0.15649094153E+04  0.25500000920E-02 0.  1.
       -2   -1    0    0    0  501  0.00000000000E+00  0.00000000000E+00 -0.84072531270E+03  0.84072531270E+03  0.25500000920E-02 0. -1.
    10030    2    1    2    0    0  0.00000000000E+00  0.00000000000E+00  0.72418410265E+03  0.24056347280E+04  0.22940435546E+04 0.  0.
        4    1    3    3  502    0  0.16397482596E+03 -0.26946800706E+03 -0.79434706996E+03  0.85468686127E+03  0.12699999809E+01 0. -1.
       -4    1    3    3    0  502 -0.16397482596E+03  0.26946800706E+03  0.15185311726E+04  0.15509478668E+04  0.12699999809E+01 0.  1.
</event>
<event>
 5   0  0.6495405E-05  0.2262428E+04  0.7818609E-02  0.8492884E-01
       -2   -1    0    0    0  501  0.00000000000E+00  0.00000000000E+00  0.56011424992E+03  0.56011424992E+03  0.25500000920E-02 0.  1.
        2   -1    0    0  501    0  0.00000000000E+00  0.00000000000E+00 -0.22846151608E+04  0.22846151608E+04  0.25500000920E-02 0. -1.
    10030    2    1    2    0    0  0.00000000000E+00  0.00000000000E+00 -0.17245009109E+04  0.28447294108E+04  0.22624283477E+04 0.  0.
        5    1    3    3  502    0  0.45084302641E+03  0.17526312656E+03  0.42350578067E+03  0.64292754977E+03  0.46999998093E+01 0.  1.
       -5    1    3    3    0  502 -0.45084302641E+03 -0.17526312656E+03 -0.21480066916E+04  0.22018018610E+04  0.46999998093E+01 0. -1.
</event>
<event>
 5   0  0.2342500E-05  0.2036798E+04  0.7818609E-02  0.8589607E-01
        4   -1    0    0  501    0  0.00000000000E+00  0.00000000000E+00  0.11823932475E+04  0.11823939295E+04  0.12699999809E+01 0. -1.
       -4   -1    0    0    0  501  0.00000000000E+00  0.00000000000E+00 -0.87714915437E+03  0.87715007377E+03  0.12699999809E+01 0.  1.
    10030    2    1    2    0    0  0.00000000000E+00  0.00000000000E+00  0.30524409308E+03  0.20595440033E+04  0.20367983565E+04 0.  0.
        4    1    3    3  502    0 -0.90216688393E+03 -0.47139036008E+03  0.12030713558E+03  0.10249826232E+04  0.12699999809E+01 0. -1.
       -4    1    3    3    0  502  0.90216688393E+03  0.47139036008E+03  0.18493695750E+03  0.10345613801E+04  0.12699999809E+01 0.  1.
</event>
<event>
 5   0  0.6468758E-05  0.2276545E+04  0.7818609E-02  0.8487227E-01
       -2   -1    0    0    0  501  0.00000000000E+00  0.00000000000E+00  0.10225253986E+04  0.10225253986E+04  0.25500000920E-02 0. -1.
        2   -1    0    0  501    0  0.00000000000E+00  0.00000000000E+00 -0.12671213903E+04  0.12671213903E+04  0.25500000920E-02 0.  1.
    10030    2    1    2    0    0  0.00000000000E+00  0.00000000000E+00 -0.24459599167E+03  0.22896467890E+04  0.22765445787E+04 0.  0.
        3    1    3    3  502    0 -0.82594403623E+03  0.55007164750E+03 -0.68309242332E+03  0.12047313549E+04  0.10100000352E+00 0.  1.
       -3    1    3    3    0  502  0.82594403623E+03 -0.55007164750E+03  0.43849643166E+03  0.10849154341E+04  0.10100000352E+00 0. -1.
</event>
<event>
 5   0  0.2944089E-05  0.2345002E+04  0.7818609E-02  0.8460386E-01
        1   -1    0    0  501    0  0.00000000000E+00  0.00000000000E+00  0.20648100262E+04  0.20648100262E+04  0.50400001928E-02 0.  1.
       -1   -1    0    0    0  501  0.00000000000E+00  0.00000000000E+00 -0.66580399530E+03  0.66580399532E+03  0.50400001928E-02 0. -1.
    10030    2    1    2    0    0  0.00000000000E+00  0.00000000000E+00  0.13990060309E+04  0.27306140216E+04  0.23450021450E+04 0.  0.
        5    1    3    3  502    0  0.10720451093E+04  0.38534411094E+03  0.10225503608E+04  0.15308174714E+04  0.46999998093E+01 0. -1.
       -5    1    3    3    0  502 -0.10720451093E+04 -0.38534411094E+03  0.37645567016E+03  0.11997965502E+04  0.46999998093E+01 0.  1.
</event>
<event>
 5   0  0.3006265E-05  0.1941999E+04  0.7818609E-02  0.8634229E-01
       -1   -1    0    0    0  501  0.00000000000E+00  0.00000000000E+00  0.10287093784E+04  0.10287093784E+04  0.50400001928E-02 0. -1.
        1   -1    0    0  501    0  0.00000000000E+00  0.00000000000E+00 -0.91652703359E+03  0.91652703360E+03  0.50400001928E-02 0.  1.
    10030    2    1    2    0    0  0.00000000000E+00  0.00000000000E+00  0.11218234481E+03  0.19452364120E+04  0.19419989238E+04 0.  0.
        2    1    3    3  502    0 -0.74931731310E+03  0.22462597147E+03  0.63229505542E+03  0.10058480501E+04  0.25500000920E-02 0. -1.
       -2    1    3    3    0  502  0.74931731310E+03 -0.22462597147E+03 -0.52011271061E+03  0.93938836192E+03  0.25500000920E-02 0.  1.
</event>
<event>
 5   0  0.6814789E-05  0.2274303E+04  0.7818609E-02  0.8488122E-01
        2   -1    0    0  501    0  0.00000000000E+00  0.00000000000E+00  0.15580102651E+04  0.15580102651E+04  0.25500000920E-02 0. -1.
       -2   -1    0    0    0  501  0.00000000000E+00  0.00000000000E+00 -0.82997776027E+03  0.82997776027E+03  0.25500000920E-02 0.  1.
    10030    2    1    2    0    0  0.00000000000E+00  0.00000000000E+00  0.72803250483E+03  0.23879880254E+04  0.22743032958E+04 0.  0.
        1    1    3    3  502    0  0.51276818047E+03  0.44827228809E+02  0.14286908694E+04  0.15185843037E+04  0.50400001928E-02 0. -1.
       -1    1    3    3    0  502 -0.51276818047E+03 -0.44827228809E+02 -0.70065836454E+03  0.86940372162E+03  0.50400001928E-02 0.  1.
</event>
<event>
 5   0  0.2982385E-05  0.2231857E+04  0.7818609E-02  0.8505284E-01
       -1   -1    0    0    0  501  0.00000000000E+00  0.00000000000E+00  0.88421598710E+03  0.88421598712E+03  0.50400001928E-02 0.  1.
        1   -1    0    0  501    0  0.00000000000E+00  0.00000000000E+00 -0.14083625323E+04  0.14083625323E+04  0.50400001928E-02 0. -1.
    10030    2    1    2    0    0  0.00000000000E+00  0.00000000000E+00 -0.52414654520E+03  0.22925785194E+04  0.22318572237E+04 0.  0.
        4    1    3    3  502    0 -0.11014450597E+04  0.12722262673E+03 -0.13243248125E+03  0.11166498069E+04  0.12699999809E+01 0.  1.
       -4    1    3    3    0  502  0.11014450597E+04 -0.12722262673E+03 -0.39171406394E+03  0.11759287125E+04  0.12699999809E+01 0. -1.
</event>
<event>
 5   0  0.6468758E-05  0.2310693E+04  0.7818609E-02  0.8473717E-01
        2   -1    0    0  501    0  0.00000000000E+00  0.00000000000E+00  0.20504316852E+04  0.20504316852E+04  0.25500000920E-02 0. -1.
       -2   -1    0    0    0  501  0.00000000000E+00  0.00000000000E+00 -0.65099731275E+03  0.65099731276E+03  0.25500000920E-02 0.  1.
    10030    2    1    2    0    0  0.00000000000E+00  0.00000000000E+00  0.13994343724E+04  0.27014289979E+04  0.23106929844E+04 0.  0.
        3    1    3    3  502    0  0.73735556727E+03  0.84398848236E+03  0.10279316563E+04  0.15207410335E+04  0.10100000352E+00 0.  1.
       -3    1    3    3    0  502 -0.73735556727E+03 -0.84398848236E+03  0.37150271616E+03  0.11806879644E+04  0.10100000352E+00 0. -1.
</event>
<event>
 5   0  0.2944089E-05  0.2289318E+04  0.7818609E-02  0.8482145E-01
        1   -1    0    0  501    0  0.00000000000E+00  0.00000000000E+00  0.87055026571E+03  0.87055026572E+03  0.50400001928E-02 0. -1.
       -1   -1    0    0    0  501  0.00000000000E+00  0.00000000000E+00 -0.15050763379E+04  0.15050763379E+04  0.50400001928E-02 0.  1.
    10030    2    1    2    0    0  0.00000000000E+00  0.00000000000E+00 -0.63452607221E+03  0.23756266037E+04  0.22893183317E+04 0.  0.
        5    1    3    3  502    0 -0.40983442389E+03  0.28066038089E+03  0.75287128654E+03  0.90198213314E+03  0.46999998093E+01 0. -1.
       -5    1    3    3    0  502  0.40983442389E+03 -0.28066038089E+03 -0.13873973587E+04  0.14736444705E+04  0.46999998093E+01 0.  1.
</event>
<event>
 5   0  0.3118614E-05  0.2299907E+04  0.7818609E-02  0.8477958E-01
       -1   -1    0    0    0  501  0.00000000000E+00  0.00000000000E+00  0.94301960969E+03  0.94301960970E+03  0.50400001928E-02 0. -1.
        1   -1    0    0  501    0  0.00000000000E+00  0.00000000000E+00 -0.14022969532E+04  0.14022969532E+04  0.50400001928E-02 0.  1.
    10030    2    1    2    0    0  0.00000000000E+00  0.00000000000E+00 -0.45927734348E+03  0.23453165629E+04  0.22999074116E+04 0.  0.
        3    1    3    3  502    0  0.15259291816E+03  0.11271280028E+04 -0.56909038736E+02  0.11388330792E+04  0.10100000352E+00 0. -1.
       -3    1    3    3    0  502 -0.15259291816E+03 -0.11271280028E+04 -0.40236830475E+03  0.12064834837E+04  0.10100000352E+00 0.  1.
</event>
<event>
 5   0  0.2342500E-05  0.2385660E+04  0.7818609E-02  0.8444892E-01
       -3   -1    0    0    0  501  0.00000000000E+00  0.00000000000E+00  0.22434936148E+04  0.22434936171E+04  0.10100000352E+00 0.  1.
        3   -1    0    0  501    0  0.00000000000E+00  0.00000000000E+00 -0.63420902562E+03  0.63420903366E+03  0.10100000352E+00 0. -1.
    10030    2    1    2    0    0  0.00000000000E+00  0.00000000000E+00  0.16092845892E+04  0.28777026508E+04  0.23856604237E+04 0.  0.
        4    1    3    3  502    0 -0.33812817351E+03 -0.11232245284E+04  0.10658122474E+04  0.15849042124E+04  0.12699999809E+01 0.  1.
       -4    1    3    3    0  502  0.33812817351E+03  0.11232245284E+04  0.54347234180E+03  0.12927984383E+04  0.12699999809E+01 0. -1.
</event>
<event>
 5   0  0.6676612E-05  0.2462306E+04  0.7818609E-02  0.8416539E-01
       -2   -1    0    0    0  501  0.00000000000E+00  0.00000000000E+00  0.13415821197E+04  0.13415821197E+04  0.25500000920E-02 0. -1.
        2   -1    0    0  501    0  0.00000000000E+00  0.00000000000E+00 -0.11298134969E+04  0.11298134969E+04  0.25500000920E-02 0.  1.
    10030    2    1    2    0    0  0.00000000000E+00  0.00000000000E+00  0.21176862280E+03  0.24713956166E+04  0.24623058998E+04 0.  0.
        2    1    3    3  502    0  0.89472864532E+03  0.83914298494E+02 -0.73874262669E+03  0.11633235263E+04  0.25500000920E-02 0.  1.
       -2    1    3    3    0  502 -0.89472864532E+03 -0.83914298494E+02  0.95051124949E+03  0.13080720904E+04  0.25500000920E-02 0. -1.
</event>
<event>
 5   0  0.6495405E-05  0.2278259E+04  0.7818609E-02  0.8486543E-01
        2   -1    0    0  501    0  0.00000000000E+00  0.00000000000E+00  0.11599433327E+04  0.11599433327E+04  0.25500000920E-02 0. -1.
       -2   -1    0    0    0  501  0.00000000000E+00  0.00000000000E+00 -0.11186887473E+04  0.11186887473E+04  0.25500000920E-02 0.  1.
    10030    2    1    2    0    0  0.00000000000E+00  0.00000000000E+00  0.41254585407E+02  0.22786320800E+04  0.22782585926E+04 0.  0.
        5    1    3    3  502    0  0.11099216935E+04  0.21776539330E+03 -0.11447087270E+03  0.11368700906E+04  0.46999998093E+01 0.  1.
       -5    1    3    3    0  502 -0.11099216935E+04 -0.21776539330E+03  0.15572545810E+03  0.11417619894E+04  0.46999998093E+01 0. -1.
</event>
<event>
 5   0  0.2982385E-05  0.2242583E+04  0.7818609E-02  0.8500910E-01
       -1   -1    0    0    0  501  0.00000000000E+00  0.00000000000E+00  0.74069038115E+03  0.74069038116E+03  0.50400001928E-02 0. -1.
        1   -1    0    0  501    0  0.00000000000E+00  0.00000000000E+00 -0.16974625399E+04  0.16974625400E+04  0.50400001928E-02 0.  1.
    10030    2    1    2    0    0  0.00000000000E+00  0.00000000000E+00 -0.95677215880E+03  0.24381529211E+04  0.22425825967E+04 0.  0.
        4    1    3    3  502    0  0.95164592286E+03 -0.14267564891E+02 -0.11229260440E+04  0.14720047687E+04  0.12699999809E+01 0.  1.
       -4    1    3    3    0  502 -0.95164592286E+03  0.14267564891E+02  0.16615388522E+03  0.96614815240E+03  0.12699999809E+01 0. -1.
</event>
<event>
 5   0  0.6702421E-05  0.2292183E+04  0.7818609E-02  0.8481010E-01
       -2   -1    0    0    0  501  0.00000000000E+00  0.00000000000E+00  0.10681525232E+04  0.10681525232E+04  0.25500000920E-02 0. -1.
        2   -1    0    0  501    0  0.00000000000E+00  0.00000000000E+00 -0.12297172840E+04  0.12297172840E+04  0.25500000920E-02 0.  1.
    10030    2    1    2    0    0  0.00000000000E+00  0.00000000000E+00 -0.16156476082E+03  0.22978698073E+04  0.22921829070E+04 0.  0.
        4    1    3    3  502    0 -0.15137326945E+03  0.37174075740E+03 -0.11569535286E+04  0.12246012158E+04  0.12699999809E+01 0.  1.
       -4    1    3    3    0  502  0.15137326945E+03 -0.37174075740E+03  0.99538876781E+03  0.10732685915E+04  0.12699999809E+01 0. -1.
</event>
<event>
 5   0  0.2944089E-05  0.2275839E+04  0.7818609E-02  0.8487509E-01
       -1   -1    0    0    0  501  0.00000000000E+00  0.00000000000E+00  0.97122748347E+03  0.97122748349E+03  0.50400001928E-02 0.  1.
        1   -1    0    0  501    0  0.00000000000E+00  0.00000000000E+00 -0.13332207311E+04  0.13332207311E+04  0.50400001928E-02 0. -1.
    10030    2    1    2    0    0  0.00000000000E+00  0.00000000000E+00 -0.36199324766E+03  0.23044482146E+04  0.22758388481E+04 0.  0.
        5    1    3    3  502    0 -0.88170286242E+03 -0.11453308971E+03  0.53808612411E+03  0.10392673059E+04  0.46999998093E+01 0.  1.
       -5    1    3    3    0  502  0.88170286242E+03  0.11453308971E+03 -0.90007937177E+03  0.12651809087E+04  0.46999998093E+01 0. -1.
</event>
<event>
 5   0  0.6676612E-05  0.2211789E+04  0.7818609E-02  0.8513537E-01
       -2   -1    0    0    0  501  0.00000000000E+00  0.00000000000E+00  0.60842117705E+03  0.60842117705E+03  0.25500000920E-02 0. -1.
        2   -1    0    0  501    0  0.00000000000E+00  0.00000000000E+00 -0.20101241882E+04  0.20101241882E+04  0.25500000920E-02 0.  1.
    10030    2    1    2    0    0  0.00000000000E+00  0.00000000000E+00 -0.14017030112E+04  0.26185453653E+04  0.22117885293E+04 0.  0.
        2    1    3    3  502    0  0.66008032798E+03 -0.52998333503E+03 -0.15433502170E+04  0.17602608520E+04  0.25500000920E-02 0.  1.
       -2    1    3    3    0  502 -0.66008032798E+03  0.52998333503E+03  0.14164720582E+03  0.85828451327E+03  0.25500000920E-02 0. -1.
</event>
<event>
 5   0  0.6468758E-05  0.2295617E+04  0.7818609E-02  0.8479651E-01
       -2   -1    0    0    0  501  0.00000000000E+00  0.00000000000E+00  0.68001416114E+03  0.68001416114E+03  0.25500000920E-02 0.  1.
        2   -1    0    0  501    0  0.00000000000E+00  0.00000000000E+00 -0.19374066265E+04  0.19374066265E+04  0.25500000920E-02 0. -1.
    10030    2    1    2    0    0  0.00000000000E+00  0.00000000000E+00 -0.12573924654E+04  0.26174207877E+04  0.22956166422E+04 0.  0.
        3    1    3    3  502    0 -0.65573314169E+03 -0.83746664739E+03 -0.11205993372E+04  0.15450175479E+04  0.10100000352E+00 0. -1.
       -3    1    3    3    0  502  0.65573314169E+03  0.83746664739E+03 -0.13679312823E+03  0.10724032398E+04  0.10100000352E+00 0.  1.
</event>
<event>
 5   0  0.3006265E-05  0.2301486E+04  0.7818609E-02  0.8477335E-01
        1   -1    0    0  501    0  0.00000000000E+00  0.00000000000E+00  0.14569057312E+04  0.14569057312E+04  0.50400001928E-02 0. -1.
       -1   -1    0    0    0  501  0.00000000000E+00  0.00000000000E+00 -0.90891914148E+03  0.90891914149E+03  0.50400001928E-02 0.  1.
    10030    2    1    2    0    0  0.00000000000E+00  0.00000000000E+00  0.54798658968E+03  0.23658248727E+04  0.23014860472E+04 0.  0.
        2    1    3    3  502    0 -0.44283534741E+03  0.86409452372E+03  0.90887287317E+03  0.13299670637E+04  0.25500000920E-02 0. -1.
       -2    1    3    3    0  502  0.44283534741E+03 -0.86409452372E+03 -0.36088628349E+03  0.10358578090E+04  0.25500000920E-02 0.  1.
</event>
<event>
 5   0  0.2944089E-05  0.2286707E+04  0.7818609E-02  0.8483181E-01
        1   -1    0    0  501    0  0.00000000000E+00  0.00000000000E+00  0.58664356303E+03  0.58664356305E+03  0.50400001928E-02 0. -1.
       -1   -1    0    0    0  501  0.00000000000E+00  0.00000000000E+00 -0.22283676167E+04  0.22283676167E+04  0.50400001928E-02 0.  1.
    10030    2    1    2    0    0  0.00000000000E+00  0.00000000000E+00 -0.16417240537E+04  0.28150111798E+04  0.22867072558E+04 0.  0.
        5    1    3    3  502    0  0.94988831239E+03 -0.63459615205E+03 -0.87906456924E+03  0.14414495097E+04  0.46999998093E+01 0.  1.
       -5    1    3    3    0  502 -0.94988831239E+03  0.63459615205E+03 -0.76265948447E+03  0.13735616701E+04  0.46999998093E+01 0. -1.
</event>
<event>
 5   0  0.6468758E-05  0.2222780E+04  0.7818609E-02  0.8509006E-01
       -2   -1    0    0    0  501  0.00000000000E+00  0.00000000000E+00  0.83177070799E+03  0.83177070799E+03  0.25500000920E-02 0. -1.
        2   -1    0    0  501    0  0.00000000000E+00  0.00000000000E+00 -0.14850104929E+04  0.14850104929E+04  0.25500000920E-02 0.  1.
    10030    2    1    2    0    0  0.00000000000E+00  0.00000000000E+00 -0.65323978496E+03  0.23167812009E+04  0.22227804472E+04 0.  0.
        3    1    3    3  502    0 -0.70203460116E+03  0.53671893953E+03  0.37587751326E+03  0.96031438417E+03  0.10100000352E+00 0. -1.
       -3    1    3    3    0  502  0.70203460116E+03 -0.53671893953E+03 -0.10291172982E+04  0.13564668168E+04  0.10100000352E+00 0.  1.
</event>
<event>
 5   0  0.6468758E-05  0.2304617E+04  0.7818609E-02  0.8476103E-01
       -2   -1    0    0    0  501  0.00000000000E+00  0.00000000000E+00  0.10244138189E+04  0.10244138189E+04  0.25500000920E-02 0. -1.
        2   -1    0    0  501    0  0.00000000000E+00  0.00000000000E+00 -0.12961704177E+04  0.12961704177E+04  0.25500000920E-02 0.  1.
    10030    2    1    2    0    0  0.00000000000E+00  0.00000000000E+00 -0.27175659885E+03  0.23205842366E+04  0.23046170072E+04 0.  0.
        3    1    3    3  502    0  0.90745026874E+03  0.59297444072E+03  0.25763646837E+03  0.11142087944E+04  0.10100000352E+00 0.  1.
       -3    1    3    3    0  502 -0.90745026874E+03 -0.59297444072E+03 -0.52939306722E+03  0.12063754421E+04  0.10100000352E+00 0. -1.
</event>
<event>
 5   0  0.6676612E-05  0.2311142E+04  0.7818609E-02  0.8473541E-01
       -2   -1    0    0    0  501  0.00000000000E+00  0.00000000000E+00  0.12037363203E+04  0.12037363203E+04  0.25500000920E-02 0. -1.
        2   -1    0    0  501    0  0.00000000000E+00  0.00000000000E+00 -0.11093326794E+04  0.11093326794E+04  0.25500000920E-02 0.  1.
    10030    2    1    2    0    0  0.00000000000E+00  0.00000000000E+00  0.94403640891E+02  0.23130689997E+04  0.23111417417E+04 0.  0.
        2    1    3    3  502    0 -0.43532968632E+03  0.42232963262E+03  0.10316224620E+04  0.11967118109E+04  0.25500000920E-02 0. -1.
       -2    1    3    3    0  502  0.43532968632E+03 -0.42232963262E+03 -0.93721882107E+03  0.11163571888E+04  0.25500000920E-02 0.  1.
</event>
<event>
 5   0  0.2962279E-05  0.2309912E+04  0.7818609E-02  0.8474023E-01
       -1   -1    0    0    0  501  0.00000000000E+00  0.00000000000E+00  0.12656570779E+04  0.12656570779E+04  0.50400001928E-02 0. -1.
        1   -1    0    0  501    0  0.00000000000E+00  0.00000000000E+00 -0.10539374174E+04  0.10539374175E+04  0.50400001928E-02 0.  1.
    10030    2    1    2    0    0  0.00000000000E+00  0.00000000000E+00  0.21171966043E+03  0.23195944953E+04  0.23099119914E+04 0.  0.
        1    1    3    3  502    0 -0.86247480023E+03 -0.50573245183E+03  0.68646613059E+03  0.12127917556E+04  0.50400001928E-02 0.  1.
       -1    1    3    3    0  502  0.86247480023E+03  0.50573245183E+03 -0.47474647016E+03  0.11068027398E+04  0.50400001928E-02 0. -1.
</event>
<event>
 5   0  0.6702421E-05  0.2315649E+04  0.7818609E-02  0.8471776E-01
       -2   -1    0    0    0  501  0.00000000000E+00  0.00000000000E+00  0.16129318527E+04  0.16129318527E+04  0.25500000920E-02 0.  1.
        2   -1    0    0  501    0  0.00000000000E+00  0.00000000000E+00 -0.83113119860E+03  0.83113119861E+03  0.25500000920E-02 0. -1.
    10030    2    1    2    0    0  0.00000000000E+00  0.00000000000E+00  0.78180065411E+03  0.24440630513E+04  0.23156493552E+04 0.  0.
        4    1    3    3  502    0 -0.32418839197E+03  0.83045878756E+03 -0.38884892219E+03  0.97260732494E+03  0.12699999809E+01 0. -1.
       -4    1    3    3    0  502  0.32418839197E+03 -0.83045878756E+03  0.11706495763E+04  0.14714557264E+04  0.12699999809E+01 0.  1.
</event>
<event>
 5   0  0.6468758E-05  0.2291125E+04  0.7818609E-02  0.8481429E-01
        2   -1    0    0  501    0  0.00000000000E+00  0.00000000000E+00  0.29746686271E+04  0.29746686271E+04  0.25500000920E-02 0.  1.
       -2   -1    0    0    0  501  0.00000000000E+00  0.00000000000E+00 -0.44116272591E+03  0.44116272592E+03  0.25500000920E-02 0. -1.
    10030    2    1    2    0    0  0.00000000000E+00  0.00000000000E+00  0.25335059012E+04  0.34158313530E+04  0.22911245450E+04 0.  0.
        3    1    3    3  502    0  0.54026458359E+03 -0.51174435759E+03 -0.31736246688E+02  0.74483240220E+03  0.10100000352E+00 0. -1.
       -3    1    3    3    0  502 -0.54026458359E+03  0.51174435759E+03  0.25652421479E+04  0.26709989508E+04  0.10100000352E+00 0.  1.
</event>
<event>
 5   0  0.3006265E-05  0.2303106E+04  0.7818609E-02  0.8476698E-01
       -1   -1    0    0    0  501  0.00000000000E+00  0.00000000000E+00  0.89011391652E+03  0.89011391654E+03  0.50400001928E-02 0.  1.
        1   -1    0    0  501    0  0.00000000000E+00  0.00000000000E+00 -0.14897799439E+04  0.14897799439E+04  0.50400001928E-02 0. -1.
    10030    2    1    2    0    0  0.00000000000E+00  0.00000000000E+00 -0.59966602738E+03  0.23798938604E+04  0.23031056082E+04 0.  0.
        2    1    3    3  502    0  0.10229890946E+03 -0.42276860865E+02 -0.14842698663E+04  0.14883915600E+04  0.25500000920E-02 0. -1.
       -2    1    3    3    0  502 -0.10229890946E+03  0.42276860865E+02  0.88460383893E+03  0.89150230044E+03  0.25500000920E-02 0.  1.
</event>
<event>
 5   0  0.2962279E-05  0.2368919E+04  0.7818609E-02  0.8451232E-01
       -1   -1    0    0    0  501  0.00000000000E+00  0.00000000000E+00  0.12431593094E+04  0.12431593094E+04  0.50400001928E-02 0. -1.
        1   -1    0    0  501    0  0.00000000000E+00  0.00000000000E+00 -0.11285311892E+04  0.11285311893E+04  0.50400001928E-02 0.  1.
    10030    2    1    2    0    0  0.00000000000E+00  0.00000000000E+00  0.11462812018E+03  0.23716904987E+04  0.23689187862E+04 0.  0.
        1    1    3    3  502    0  0.21471959822E+03 -0.50565630119E+03 -0.99327126558E+03  0.11350685476E+04  0.50400001928E-02 0.  1.
       -1    1    3    3    0  502 -0.21471959822E+03  0.50565630119E+03  0.11078993858E+04  0.12366219510E+04  0.50400001928E-02 0. -1.
</event>
<event>
 5   0  0.6814789E-05  0.2286777E+04  0.7818609E-02  0.8483153E-01
       -2   -1    0    0    0  501  0.00000000000E+00  0.00000000000E+00  0.50081048543E+03  0.50081048543E+03  0.25500000920E-02 0. -1.
        2   -1    0    0  501    0  0.00000000000E+00  0.00000000000E+00 -0.26104434371E+04  0.26104434371E+04  0.25500000920E-02 0.  1.
    10030    2    1    2    0    0  0.00000000000E+00  0.00000000000E+00 -0.21096329517E+04  0.31112539226E+04  0.22867771601E+04 0.  0.
        1    1    3    3  502    0  0.15498618441E+02 -0.58387675555E+03  0.28252340320E+03  0.64882335518E+03  0.50400001928E-02 0. -1.
       -1    1    3    3    0  502 -0.15498618441E+02  0.58387675555E+03 -0.23921563549E+04  0.24624305674E+04  0.50400001928E-02 0.  1.
</event>
<event>
 5   0  0.2944089E-05  0.2329079E+04  0.7818609E-02  0.8466543E-01
        1   -1    0    0  501    0  0.00000000000E+00  0.00000000000E+00  0.24211417087E+04  0.24211417087E+04  0.50400001928E-02 0. -1.
       -1   -1    0    0    0  501  0.00000000000E+00  0.00000000000E+00 -0.56012911937E+03  0.56012911939E+03  0.50400001928E-02 0.  1.
    10030    2    1    2    0    0  0.00000000000E+00  0.00000000000E+00  0.18610125894E+04  0.29812708281E+04  0.23290787649E+04 0.  0.
        5    1    3    3  502    0  0.28126797042E+03 -0.69518764887E+03  0.20708986410E+04  0.22025078456E+04  0.46999998093E+01 0. -1.
       -5    1    3    3    0  502 -0.28126797042E+03  0.69518764887E+03 -0.20988605167E+03  0.77876298257E+03  0.46999998093E+01 0.  1.
</event>
<event>
 5   0  0.2962279E-05  0.2248236E+04  0.7818609E-02  0.8498615E-01
        1   -1    0    0  501    0  0.00000000000E+00  0.00000000000E+00  0.18236619806E+04  0.18236619806E+04  0.50400001928E-02 0. -1.
       -1   -1    0    0    0  501  0.00000000000E+00  0.00000000000E+00 -0.69291403271E+03  0.69291403273E+03  0.50400001928E-02 0.  1.
    10030    2    1    2    0    0  0.00000000000E+00  0.00000000000E+00  0.11307479479E+04  0.25165760134E+04  0.22482357326E+04 0.  0.
        1    1    3    3  502    0 -0.12391701345E+03 -0.10662082516E+04  0.93912072792E+03  0.14262199002E+04  0.50400001928E-02 0. -1.
       -1    1    3    3    0  502  0.12391701345E+03  0.10662082516E+04  0.19162721998E+03  0.10903561132E+04  0.50400001928E-02 0.  1.
</event>
<event>
 5   0  0.6468758E-05  0.2259292E+04  0.7818609E-02  0.8494147E-01
        2   -1    0    0  501    0  0.00000000000E+00  0.00000000000E+00  0.16972536849E+04  0.16972536849E+04  0.25500000920E-02 0. -1.
       -2   -1    0    0    0  501  0.00000000000E+00  0.00000000000E+00 -0.75186204084E+03  0.75186204084E+03  0.25500000920E-02 0.  1.
    10030    2    1    2    0    0  0.00000000000E+00  0.00000000000E+00  0.94539164410E+03  0.24491157258E+04  0.22592924728E+04 0.  0.
        3    1    3    3  502    0  0.53217222388E+03 -0.33939546120E+03 -0.54287661094E+03  0.83253323049E+03  0.10100000352E+00 0.  1.
       -3    1    3    3    0  502 -0.53217222388E+03  0.33939546120E+03  0.14882682550E+04  0.16165824953E+04  0.10100000352E+00 0. -1.
</event>
<event>
 5   0  0.2982385E-05  0.1930236E+04  0.7818609E-02  0.8639951E-01
        1   -1    0    0  501    0  0.00000000000E+00  0.00000000000E+00  0.21445397024E+04  0.21445397024E+04  0.50400001928E-02 0. -1.
       -1   -1    0    0    0  501  0.00000000000E+00  0.00000000000E+00 -0.43433680927E+03  0.43433680930E+03  0.50400001928E-02 0.  1.
    10030    2    1    2    0    0  0.00000000000E+00  0.00000000000E+00  0.17102028931E+04  0.25788765117E+04  0.19302357698E+04 0.  0.
        4    1    3    3  502    0  0.19105593024E+03  0.90672505336E+03  0.12155809625E+04  0.15284931731E+04  0.12699999809E+01 0. -1.
       -4    1    3    3    0  502 -0.19105593024E+03 -0.90672505336E+03  0.49462193058E+03  0.10503833386E+04  0.12699999809E+01 0.  1.
</event>
<event>
 5   0  0.2962279E-05  0.2034681E+04  0.7818609E-02  0.8590576E-01
        1   -1    0    0  501    0  0.00000000000E+00  0.00000000000E+00  0.14359227841E+04  0.14359227841E+04  0.50400001928E-02 0. -1.
       -1   -1    0    0    0  501  0.00000000000E+00  0.00000000000E+00 -0.72077774644E+03  0.72077774646E+03  0.50400001928E-02 0.  1.
    10030    2    1    2    0    0  0.00000000000E+00  0.00000000000E+00  0.71514503763E+03  0.21567005305E+04  0.20346805041E+04 0.  0.
        1    1    3    3  502    0  0.10232468980E+03 -0.97207625760E+03  0.58558357697E+02  0.97919950675E+03  0.50400001928E-02 0.  1.
       -1    1    3    3    0  502 -0.10232468980E+03  0.97207625760E+03  0.65658667993E+03  0.11775010238E+04  0.50400001928E-02 0. -1.
</event>
<event>
 5   0  0.3006265E-05  0.2306741E+04  0.7818609E-02  0.8475268E-01
        1   -1    0    0  501    0  0.00000000000E+00  0.00000000000E+00  0.15517859898E+04  0.15517859898E+04  0.50400001928E-02 0. -1.
       -1   -1    0    0    0  501  0.00000000000E+00  0.00000000000E+00 -0.85724657598E+03  0.85724657599E+03  0.50400001928E-02 0.  1.
    10030    2    1    2    0    0  0.00000000000E+00  0.00000000000E+00  0.69453941386E+03  0.24090325658E+04  0.23067407539E+04 0.  0.
        2    1    3    3  502    0 -0.88817128790E+03 -0.44564405902E+03  0.95873900173E+03  0.13808067705E+04  0.25500000920E-02 0. -1.
       -2    1    3    3    0  502  0.88817128790E+03  0.44564405902E+03 -0.26419958787E+03  0.10282257953E+04  0.25500000920E-02 0.  1.
</event>
<event>
 5   0  0.6814789E-05  0.2257106E+04  0.7818609E-02  0.8495028E-01
       -2   -1    0    0    0  501  0.00000000000E+00  0.00000000000E+00  0.10767034808E+04  0.10767034808E+04  0.25500000920E-02 0.  1.
        2   -1    0    0  501    0  0.00000000000E+00  0.00000000000E+00 -0.11828990516E+04  0.11828990516E+04  0.25500000920E-02 0. -1.
    10030    2    1    2    0    0  0.00000000000E+00  0.00000000000E+00 -0.10619557083E+03  0.22596025324E+04  0.22571056920E+04 0.  0.
        1    1    3    3  502    0  0.70460878818E+02 -0.47834515177E+03  0.96776193894E+03  0.10818234561E+04  0.50400001928E-02 0.  1.
       -1    1    3    3    0  502 -0.70460878818E+02  0.47834515177E+03 -0.10739575098E+04  0.11777790763E+04  0.50400001928E-02 0. -1.
</event>
<event>
 5   0  0.2342500E-05  0.2296752E+04  0.7818609E-02  0.8479203E-01
        3   -1    0    0  501    0  0.00000000000E+00  0.00000000000E+00  0.56492029809E+03  0.56492030711E+03  0.10100000352E+00 0. -1.
       -3   -1    0    0    0  501  0.00000000000E+00  0.00000000000E+00 -0.23344314567E+04  0.23344314588E+04  0.10100000352E+00 0.  1.
    10030    2    1    2    0    0  0.00000000000E+00  0.00000000000E+00 -0.17695111586E+04  0.28993517660E+04  0.22967522553E+04 0.  0.
        4    1    3    3  502    0 -0.67643328509E+03  0.59995421008E+03 -0.17785093396E+04  0.19951451394E+04  0.12699999809E+01 0.  1.
       -4    1    3    3    0  502  0.67643328509E+03 -0.59995421008E+03  0.89981810046E+01  0.90420662657E+03  0.12699999809E+01 0. -1.
</event>
<event>
 5   0  0.6468758E-05  0.2246487E+04  0.7818609E-02  0.8499325E-01
        2   -1    0    0  501    0  0.00000000000E+00  0.00000000000E+00  0.18558072754E+04  0.18558072754E+04  0.25500000920E-02 0.  1.
       -2   -1    0    0    0  501  0.00000000000E+00  0.00000000000E+00 -0.67985284224E+03  0.67985284225E+03  0.25500000920E-02 0. -1.
    10030    2    1    2    0    0  0.00000000000E+00  0.00000000000E+00  0.11759544331E+04  0.25356601176E+04  0.22464869026E+04 0.  0.
        3    1    3    3  502    0 -0.42316087131E+03  0.60275351621E+03 -0.36930910171E+03  0.82387265225E+03  0.10100000352E+00 0. -1.
       -3    1    3    3    0  502  0.42316087131E+03 -0.60275351621E+03  0.15452635349E+04  0.17117874654E+04  0.10100000352E+00 0.  1.
</event>
<event>
 5   0  0.6676612E-05  0.2139573E+04  0.7818609E-02  0.8544009E-01
       -2   -1    0    0    0  501  0.00000000000E+00  0.00000000000E+00  0.86972984991E+03  0.86972984991E+03  0.25500000920E-02 0.  1.
        2   -1    0    0  501    0  0.00000000000E+00  0.00000000000E+00 -0.13158605163E+04  0.13158605163E+04  0.25500000920E-02 0. -1.
    10030    2    1    2    0    0  0.00000000000E+00  0.00000000000E+00 -0.44613066641E+03  0.21855903662E+04  0.21395730129E+04 0.  0.
        2    1    3    3  502    0 -0.83522174066E+03 -0.53133433994E+03  0.19128372853E+03  0.10082167434E+04  0.25500000920E-02 0.  1.
       -2    1    3    3    0  502  0.83522174066E+03  0.53133433994E+03 -0.63741439494E+03  0.11773736228E+04  0.25500000920E-02 0. -1.
</event>
<event>
 5   0  0.6702421E-05  0.2339286E+04  0.7818609E-02  0.8462590E-01
       -2   -1    0    0    0  501  0.00000000000E+00  0.00000000000E+00  0.46644192959E+03  0.46644192960E+03  0.25500000920E-02 0.  1.
        2   -1    0    0  501    0  0.00000000000E+00  0.00000000000E+00 -0.29329804659E+04  0.29329804659E+04  0.25500000920E-02 0. -1.
    10030    2    1    2    0    0  0.00000000000E+00  0.00000000000E+00 -0.24665385363E+04  0.33994223955E+04  0.23392862740E+04 0.  0.
        4    1    3    3  502    0 -0.65638304392E+03 -0.75877115720E+03 -0.21069858031E+04  0.23336587490E+04  0.12699999809E+01 0. -1.
       -4    1    3    3    0  502  0.65638304392E+03  0.75877115720E+03 -0.35955273319E+03  0.10657636465E+04  0.12699999809E+01 0.  1.
</event>
<event>
 5   0  0.6468758E-05  0.2307398E+04  0.7818609E-02  0.8475010E-01
       -2   -1    0    0    0  501  0.00000000000E+00  0.00000000000E+00  0.10202052100E+04  0.10202052100E+04  0.25500000920E-02 0. -1.
        2   -1    0    0  501    0  0.00000000000E+00  0.00000000000E+00 -0.13046600682E+04  0.13046600682E+04  0.25500000920E-02 0.  1.
    10030    2    1    2    0    0  0.00000000000E+00  0.00000000000E+00 -0.28445485819E+03  0.23248652782E+04  0.23073976674E+04 0.  0.
        3    1    3    3  502    0 -0.77326083584E+03 -0.81524320794E+03 -0.40587062254E+03  0.11946902447E+04  0.10100000352E+00 0.  1.
       -3    1    3    3    0  502  0.77326083584E+03  0.81524320794E+03  0.12141576435E+03  0.11301750335E+04  0.10100000352E+00 0. -1.
</event>
<event>
 5   0  0.2962279E-05  0.2090485E+04  0.7818609E-02  0.8565446E-01
       -1   -1    0    0    0  501  0.00000000000E+00  0.00000000000E+00  0.93138467910E+03  0.93138467911E+03  0.50400001928E-02 0.  1.
        1   -1    0    0  501    0  0.00000000000E+00  0.00000000000E+00 -0.11730191831E+04  0.11730191831E+04  0.50400001928E-02 0. -1.
    10030    2    1    2    0    0  0.00000000000E+00  0.00000000000E+00 -0.24163450396E+03  0.21044038622E+04  0.20904852024E+04 0.  0.
        1    1    3    3  502    0 -0.26425388056E+03 -0.51711504708E+03  0.75404567370E+03  0.95174732117E+03  0.50400001928E-02 0.  1.
       -1    1    3    3    0  502  0.26425388056E+03  0.51711504708E+03 -0.99568017765E+03  0.11526565410E+04  0.50400001928E-02 0. -1.
</event>
<event>
 5   0  0.2342500E-05  0.2340539E+04  0.7818609E-02  0.8462107E-01
        3   -1    0    0  501    0  0.00000000000E+00  0.00000000000E+00  0.77871232955E+03  0.77871233610E+03  0.10100000352E+00 0. -1.
       -3   -1    0    0    0  501  0.00000000000E+00  0.00000000000E+00 -0.17587119180E+04  0.17587119209E+04  0.10100000352E+00 0.  1.
    10030    2    1    2    0    0  0.00000000000E+00  0.00000000000E+00 -0.97999958849E+03  0.25374242570E+04  0.23405389693E+04 0.  0.
        4    1    3    3  502    0  0.98872484683E+03  0.58742279813E+03 -0.72474784004E+03  0.13593761110E+04  0.12699999809E+01 0.  1.
       -4    1    3    3    0  502 -0.98872484683E+03 -0.58742279813E+03 -0.25525174845E+03  0.11780481461E+04  0.12699999809E+01 0. -1.
</event>
<event>
 5   0  0.2342500E-05  0.2427840E+04  0.7818609E-02  0.8429154E-01
        3   -1    0    0  501    0  0.00000000000E+00  0.00000000000E+00  0.18188032297E+04  0.18188032325E+04  0.10100000352E+00 0.  1.
       -3   -1    0    0    0  501  0.00000000000E+00  0.00000000000E+00 -0.81020418259E+03  0.81020418888E+03  0.10100000352E+00 0. -1.
    10030    2    1    2    0    0  0.00000000000E+00  0.00000000000E+00  0.10085990472E+04  0.26290074214E+04  0.24278401891E+04 0.  0.
        5    1    3    3  502    0  0.82233695094E+03 -0.61390069121E+03  0.12064627487E+04  0.15838833838E+04  0.46999998093E+01 0.  1.
       -5    1    3    3    0  502 -0.82233695094E+03  0.61390069121E+03 -0.19786370156E+03  0.10451240376E+04  0.46999998093E+01 0. -1.
</event>
<event>
 5   0  0.6702421E-05  0.2304423E+04  0.7818609E-02  0.8476179E-01
       -2   -1    0    0    0  501  0.00000000000E+00  0.00000000000E+00  0.74220745645E+03  0.74220745645E+03  0.25500000920E-02 0.  1.
        2   -1    0    0  501    0  0.00000000000E+00  0.00000000000E+00 -0.17887065102E+04  0.17887065102E+04  0.25500000920E-02 0. -1.
    10030    2    1    2    0    0  0.00000000000E+00  0.00000000000E+00 -0.10464990537E+04  0.25309139666E+04  0.23044229727E+04 0.  0.
        4    1    3    3  502    0  0.94573399846E+03 -0.36054021083E+03 -0.11279926587E+04  0.15155101750E+04  0.12699999809E+01 0. -1.
       -4    1    3    3    0  502 -0.94573399846E+03  0.36054021083E+03  0.81493605013E+02  0.10154037916E+04  0.12699999809E+01 0.  1.
</event>
<event>
 5   0  0.6676612E-05  0.2377738E+04  0.7818609E-02  0.8447885E-01
        2   -1    0    0  501    0  0.00000000000E+00  0.00000000000E+00  0.24839143768E+04  0.24839143768E+04  0.25500000920E-02 0. -1.
       -2   -1    0    0    0  501  0.00000000000E+00  0.00000000000E+00 -0.56902503619E+03  0.56902503620E+03  0.25500000920E-02 0.  1.
    10030    2    1    2    0    0  0.00000000000E+00  0.00000000000E+00  0.19148893406E+04  0.30529394130E+04  0.23777379740E+04 0.  0.
        2    1    3    3  502    0 -0.10523397046E+04  0.92303300528E+02  0.25715728940E+03  0.10872297939E+04  0.25500000920E-02 0.  1.
       -2    1    3    3    0  502  0.10523397046E+04 -0.92303300528E+02  0.16577320513E+04  0.19657096192E+04  0.25500000920E-02 0. -1.
</event>
<event>
 5   0  0.3006265E-05  0.2340587E+04  0.7818609E-02  0.8462088E-01
        1   -1    0    0  501    0  0.00000000000E+00  0.00000000000E+00  0.86005006421E+03  0.86005006423E+03  0.50400001928E-02 0.  1.
       -1   -1    0    0    0  501  0.00000000000E+00  0.00000000000E+00 -0.15924503675E+04  0.15924503676E+04  0.50400001928E-02 0. -1.
    10030    2    1    2    0    0  0.00000000000E+00  0.00000000000E+00 -0.73240030333E+03  0.24525004318E+04  0.23405871408E+04 0.  0.
        2    1    3    3  502    0  0.16667695647E+03 -0.66824006114E+03 -0.13576234574E+04  0.15223230404E+04  0.25500000920E-02 0. -1.
       -2    1    3    3    0  502 -0.16667695647E+03  0.66824006114E+03  0.62522315407E+03  0.93017739142E+03  0.25500000920E-02 0.  1.
</event>
<event>
 5   0  0.2342500E-05  0.2301246E+04  0.7818609E-02  0.8477430E-01
       -4   -1    0    0    0  501  0.00000000000E+00  0.00000000000E+00  0.11274466789E+04  0.11274473942E+04  0.12699999809E+01 0.  1.
        4   -1    0    0  501    0  0.00000000000E+00  0.00000000000E+00 -0.11742742679E+04  0.11742749547E+04  0.12699999809E+01 0. -1.
    10030    2    1    2    0    0  0.00000000000E+00  0.00000000000E+00 -0.46827589016E+02  0.23017223488E+04  0.23012459555E+04 0.  0.
        1    1    3    3  502    0  0.65739222717E+03  0.71579448869E+03 -0.63950149035E+03  0.11633952237E+04  0.50400001928E-02 0. -1.
       -1    1    3    3    0  502 -0.65739222717E+03 -0.71579448869E+03  0.59267390133E+03  0.11383271251E+04  0.50400001928E-02 0.  1.
</event>
<event>
 5   0  0.6814789E-05  0.2280472E+04  0.7818609E-02  0.8485661E-01
        2   -1    0    0  501    0  0.00000000000E+00  0.00000000000E+00  0.12135110210E+04  0.12135110210E+04  0.25500000920E-02 0. -1.
       -2   -1    0    0    0  501  0.00000000000E+00  0.00000000000E+00 -0.10713858359E+04  0.10713858359E+04  0.25500000920E-02 0.  1.
    10030    2    1    2    0    0  0.00000000000E+00  0.00000000000E+00  0.14212518509E+03  0.22848968568E+04  0.22804723366E+04 0.  0.
        1    1    3    3  502    0  0.13963415450E+03  0.39513993854E+02  0.12042208175E+04  0.12129331516E+04  0.50400001928E-02 0. -1.
       -1    1    3    3    0  502 -0.13963415450E+03 -0.39513993854E+02 -0.10620956325E+04  0.10719637052E+04  0.50400001928E-02 0.  1.
</event>
<event>
 5   0  0.2982385E-05  0.2306511E+04  0.7818609E-02  0.8475358E-01
        1   -1    0    0  501    0  0.00000000000E+00  0.00000000000E+00  0.20576304693E+04  0.20576304693E+04  0.50400001928E-02 0. -1.
       -1   -1    0    0    0  501  0.00000000000E+00  0.00000000000E+00 -0.64637392570E+03  0.64637392572E+03  0.50400001928E-02 0.  1.
    10030    2    1    2    0    0  0.00000000000E+00  0.00000000000E+00  0.14112565436E+04  0.27040043951E+04  0.23065113779E+04 0.  0.
        4    1    3    3  502    0  0.33815007053E+02  0.10568459182E+04  0.12453232047E+04  0.16336762980E+04  0.12699999809E+01 0. -1.
       -4    1    3    3    0  502 -0.33815007053E+02 -0.10568459182E+04  0.16593333890E+03  0.10703280971E+04  0.12699999809E+01 0.  1.
</event>
<event>
 5   0  0.2944089E-05  0.2296124E+04  0.7818609E-02  0.8479451E-01
       -1   -1    0    0    0  501  0.00000000000E+00  0.00000000000E+00  0.28978731643E+04  0.28978731643E+04  0.50400001928E-02 0. -1.
        1   -1    0    0  501    0  0.00000000000E+00  0.00000000000E+00 -0.45483230206E+03  0.45483230209E+03  0.50400001928E-02 0.  1.
    10030    2    1    2    0    0  0.00000000000E+00  0.00000000000E+00  0.24430408622E+04  0.33527054664E+04  0.22961239709E+04 0.  0.
        5    1    3    3  502    0  0.76793662604E+03  0.39767143701E+03  0.11897488737E+03  0.87295266037E+03  0.46999998093E+01 0.  1.
       -5    1    3    3    0  502 -0.76793662604E+03 -0.39767143701E+03  0.23240659749E+04  0.24797528060E+04  0.46999998093E+01 0. -1.
</event>
<event>
 5   0  0.2962279E-05  0.2272468E+04  0.7818609E-02  0.8488856E-01
       -1   -1    0    0    0  501  0.00000000000E+00  0.00000000000E+00  0.87566563897E+03  0.87566563899E+03  0.50400001928E-02 0.  1.
        1   -1    0    0  501    0  0.00000000000E+00  0.00000000000E+00 -0.14743386840E+04  0.14743386840E+04  0.50400001928E-02 0. -1.
    10030    2    1    2    0    0  0.00000000000E+00  0.00000000000E+00 -0.59867304498E+03  0.23500043229E+04  0.22724680203E+04 0.  0.
        1    1    3    3  502    0 -0.97306848940E+03 -0.11930976019E+03  0.29465766291E+03  0.10236797557E+04  0.50400001928E-02 0.  1.
       -1    1    3    3    0  502  0.97306848940E+03  0.11930976019E+03 -0.89333070789E+03  0.13263245672E+04  0.50400001928E-02 0. -1.
</event>
<event>
 5   0  0.3118614E-05  0.2301245E+04  0.7818609E-02  0.8477430E-01
       -1   -1    0    0    0  501  0.00000000000E+00  0.00000000000E+00  0.72865525321E+03  0.72865525323E+03  0.50400001928E-02 0. -1.
        1   -1    0    0  501    0  0.00000000000E+00  0.00000000000E+00 -0.18169526854E+04  0.18169526854E+04  0.50400001928E-02 0.  1.
    10030    2    1    2    0    0  0.00000000000E+00  0.00000000000E+00 -0.10882974322E+04  0.25456079386E+04  0.23012449840E+04 0.  0.
        3    1    3    3  502    0  0.68268391308E+03  0.55256878461E+03 -0.13664131667E+04  0.16243381850E+04  0.10100000352E+00 0.  1.
       -3    1    3    3    0  502 -0.68268391308E+03 -0.55256878461E+03  0.27811573455E+03  0.92126975361E+03  0.10100000352E+00 0. -1.
</event>
<event>
 5   0  0.6468758E-05  0.2303375E+04  0.7818609E-02  0.8476592E-01
       -2   -1    0    0    0  501  0.00000000000E+00  0.00000000000E+00  0.56716888644E+03  0.56716888645E+03  0.25500000920E-02 0. -1.
        2   -1    0    0  501    0  0.00000000000E+00  0.00000000000E+00 -0.23386042869E+04  0.23386042869E+04  0.25500000920E-02 0.  1.
    10030    2    1    2    0    0  0.00000000000E+00  0.00000000000E+00 -0.17714354004E+04  0.29057731733E+04  0.23033745585E+04 0.  0.
        3    1    3    3  502    0 -0.75692286105E+03  0.85974363129E+03 -0.10365337095E+04  0.15448279743E+04  0.10100000352E+00 0. -1.
       -3    1    3    3    0  502  0.75692286105E+03 -0.85974363129E+03 -0.73490169092E+03  0.13609451990E+04  0.10100000352E+00 0.  1.
</event>
<event>
 5   0  0.6814789E-05  0.2226777E+04  0.7818609E-02  0.8507365E-01
       -2   -1    0    0    0  501  0.00000000000E+00  0.00000000000E+00  0.16347568810E+04  0.16347568810E+04  0.25500000920E-02 0.  1.
        2   -1    0    0  501    0  0.00000000000E+00  0.00000000000E+00 -0.75829890387E+03  0.75829890387E+03  0.25500000920E-02 0. -1.
    10030    2    1    2    0    0  0.00000000000E+00  0.00000000000E+00  0.87645797715E+03  0.23930557849E+04  0.22267773584E+04 0.  0.
        1    1    3    3  502    0  0.93380834743E+03 -0.12075950132E+03 -0.20032300387E+03  0.96265787941E+03  0.50400001928E-02 0. -1.
       -1    1    3    3    0  502 -0.93380834743E+03  0.12075950132E+03  0.10767809810E+04  0.14303979055E+04  0.50400001928E-02 0.  1.
</event>
<event>
 5   0  0.2342500E-05  0.2300021E+04  0.7818609E-02  0.8477913E-01
       -3   -1    0    0    0  501  0.00000000000E+00  0.00000000000E+00  0.72946847402E+03  0.72946848101E+03  0.10100000352E+00 0.  1.
        3   -1    0    0  501    0  0.00000000000E+00  0.00000000000E+00 -0.18129974136E+04  0.18129974164E+04  0.10100000352E+00 0. -1.
    10030    2    1    2    0    0  0.00000000000E+00  0.00000000000E+00 -0.10835289396E+04  0.25424658974E+04  0.23000212774E+04 0.  0.
        1    1    3    3  502    0 -0.87870188011E+02 -0.91047027106E+03  0.22873639046E+03  0.94286670360E+03  0.50400001928E-02 0.  1.
       -1    1    3    3    0  502  0.87870188011E+02  0.91047027106E+03 -0.13122653300E+04  0.15995991938E+04  0.50400001928E-02 0. -1.
</event>
<event>
 5   0  0.6702421E-05  0.1962991E+04  0.7818609E-02  0.8624122E-01
        2   -1    0    0  501    0  0.00000000000E+00  0.00000000000E+00  0.20004124492E+04  0.20004124492E+04  0.25500000920E-02 0. -1.
       -2   -1    0    0    0  501  0.00000000000E+00  0.00000000000E+00 -0.48156727286E+03  0.48156727287E+03  0.25500000920E-02 0.  1.
    10030    2    1    2    0    0  0.00000000000E+00  0.00000000000E+00  0.15188451763E+04  0.24819797220E+04  0.19629907465E+04 0.  0.
        4    1    3    3  502    0 -0.81738551951E+02 -0.64716586181E+02 -0.47454523315E+03  0.48586440352E+03  0.12699999809E+01 0.  1.
       -4    1    3    3    0  502  0.81738551951E+02  0.64716586181E+02  0.19933904095E+04  0.19961153185E+04  0.12699999809E+01 0. -1.
</event>
<event>
 5   0  0.3006265E-05  0.2383947E+04  0.7818609E-02  0.8445538E-01
        1   -1    0    0  501    0  0.00000000000E+00  0.00000000000E+00  0.14410865470E+04  0.14410865470E+04  0.50400001928E-02 0. -1.
       -1   -1    0    0    0  501  0.00000000000E+00  0.00000000000E+00 -0.98592301694E+03  0.98592301695E+03  0.50400001928E-02 0.  1.
    10030    2    1    2    0    0  0.00000000000E+00  0.00000000000E+00  0.45516353009E+03  0.24270095640E+04  0.23839466405E+04 0.  0.
        2    1    3    3  502    0  0.10337590731E+04 -0.56643004095E+03  0.40769442366E+03  0.12472832700E+04  0.25500000920E-02 0. -1.
       -2    1    3    3    0  502 -0.10337590731E+04  0.56643004095E+03  0.47469106435E+02  0.11797262940E+04  0.25500000920E-02 0.  1.
</event>
<event>
 5   0  0.6495405E-05  0.2282605E+04  0.7818609E-02  0.8484812E-01
       -2   -1    0    0    0  501  0.00000000000E+00  0.00000000000E+00  0.71597252491E+03  0.71597252491E+03  0.25500000920E-02 0. -1.
        2   -1    0    0  501    0  0.00000000000E+00  0.00000000000E+00 -0.18193028705E+04  0.18193028705E+04  0.25500000920E-02 0.  1.
    10030    2    1    2    0    0  0.00000000000E+00  0.00000000000E+00 -0.11033303456E+04  0.25352753954E+04  0.22826045385E+04 0.  0.
        5    1    3    3  502    0  0.33543335130E+03  0.10573849453E+04 -0.84963424881E+03  0.13973113120E+04  0.46999998093E+01 0. -1.
       -5    1    3    3    0  502 -0.33543335130E+03 -0.10573849453E+04 -0.25369609680E+03  0.11379640835E+04  0.46999998093E+01 0.  1.
</event>
<event>
 5   0  0.6495405E-05  0.2329481E+04  0.7818609E-02  0.8466387E-01
        2   -1    0    0  501    0  0.00000000000E+00  0.00000000000E+00  0.13451380366E+04  0.13451380366E+04  0.25500000920E-02 0.  1.
       -2   -1    0    0    0  501  0.00000000000E+00  0.00000000000E+00 -0.10085363281E+04  0.10085363281E+04  0.25500000920E-02 0. -1.
    10030    2    1    2    0    0  0.00000000000E+00  0.00000000000E+00  0.33660170853E+03  0.23536743647E+04  0.23294811235E+04 0.  0.
        5    1    3    3  502    0 -0.99061745643E+03  0.46955432826E+03  0.56582602011E+03  0.12336877187E+04  0.46999998093E+01 0.  1.
       -5    1    3    3    0  502  0.99061745643E+03 -0.46955432826E+03 -0.22922431158E+03  0.11199866460E+04  0.46999998093E+01 0. -1.
</event>
<event>
 5   0  0.6468758E-05  0.2318731E+04  0.7818609E-02  0.8470572E-01
        2   -1    0    0  501    0  0.00000000000E+00  0.00000000000E+00  0.10630785364E+04  0.10630785364E+04  0.25500000920E-02 0. -1.
       -2   -1    0    0    0  501  0.00000000000E+00  0.00000000000E+00 -0.12643735187E+04  0.12643735187E+04  0.25500000920E-02 0.  1.
    10030    2    1    2    0    0  0.00000000000E+00  0.00000000000E+00 -0.20129498228E+03  0.23274520551E+04  0.23187309889E+04 0.  0.
        3    1    3    3  502    0 -0.12194280264E+03  0.27890442343E+03 -0.12235465181E+04  0.12608425027E+04  0.10100000352E+00 0.  1.
       -3    1    3    3    0  502  0.12194280264E+03 -0.27890442343E+03  0.10222515358E+04  0.10666095524E+04  0.10100000352E+00 0. -1.
</event>
<event>
 5   0  0.6495405E-05  0.2155955E+04  0.7818609E-02  0.8536987E-01
       -2   -1    0    0    0  501  0.00000000000E+00  0.00000000000E+00  0.16335848547E+04  0.16335848547E+04  0.25500000920E-02 0.  1.
        2   -1    0    0  501    0  0.00000000000E+00  0.00000000000E+00 -0.71134097002E+03  0.71134097002E+03  0.25500000920E-02 0. -1.
    10030    2    1    2    0    0  0.00000000000E+00  0.00000000000E+00  0.92224388467E+03  0.23449258247E+04  0.21559553197E+04 0.  0.
        5    1    3    3  502    0 -0.81420445474E+03  0.66270263554E+03  0.19490281277E+03  0.10677606818E+04  0.46999998093E+01 0. -1.
       -5    1    3    3    0  502  0.81420445474E+03 -0.66270263554E+03  0.72734107189E+03  0.12771651429E+04  0.46999998093E+01 0.  1.
</event>
<event>
 5   0  0.6676612E-05  0.2296295E+04  0.7818609E-02  0.8479384E-01
       -2   -1    0    0    0  501  0.00000000000E+00  0.00000000000E+00  0.16955892047E+04  0.16955892047E+04  0.25500000920E-02 0.  1.
        2   -1    0    0  501    0  0.00000000000E+00  0.00000000000E+00 -0.77745380294E+03  0.77745380294E+03  0.25500000920E-02 0. -1.
    10030    2    1    2    0    0  0.00000000000E+00  0.00000000000E+00  0.91813540174E+03  0.24730430076E+04  0.22962946461E+04 0.  0.
        2    1    3    3  502    0 -0.62763892842E+03 -0.28984190442E+03 -0.52817082730E+03  0.87000194071E+03  0.25500000920E-02 0. -1.
       -2    1    3    3    0  502  0.62763892842E+03  0.28984190442E+03  0.14463062290E+04  0.16030410669E+04  0.25500000920E-02 0.  1.
</event>
<event>
 5   0  0.6495405E-05  0.2243084E+04  0.7818609E-02  0.8500707E-01
       -2   -1    0    0    0  501  0.00000000000E+00  0.00000000000E+00  0.12474442057E+04  0.12474442057E+04  0.25500000920E-02 0. -1.
        2   -1    0    0  501    0  0.00000000000E+00  0.00000000000E+00 -0.10083470346E+04  0.10083470346E+04  0.25500000920E-02 0.  1.
    10030    2    1    2    0    0  0.00000000000E+00  0.00000000000E+00  0.23909717116E+03  0.22557912403E+04  0.22430841853E+04 0.  0.
        5    1    3    3  502    0 -0.96056951066E+03  0.15473452598E+03  0.68056005883E+03  0.11873586830E+04  0.46999998093E+01 0. -1.
       -5    1    3    3    0  502  0.96056951066E+03 -0.15473452598E+03 -0.44146288767E+03  0.10684325573E+04  0.46999998093E+01 0.  1.
</event>
<event>
 5   0  0.6676612E-05  0.2300332E+04  0.7818609E-02  0.8477790E-01
        2   -1    0    0  501    0  0.00000000000E+00  0.00000000000E+00  0.94973909092E+03  0.94973909092E+03  0.25500000920E-02 0.  1.
       -2   -1    0    0    0  501  0.00000000000E+00  0.00000000000E+00 -0.13928901928E+04  0.13928901928E+04  0.25500000920E-02 0. -1.
    10030    2    1    2    0    0  0.00000000000E+00  0.00000000000E+00 -0.44315110191E+03  0.23426292837E+04  0.23003323808E+04 0.  0.
        2    1    3    3  502    0  0.41980659041E+03  0.92131078532E+03  0.33419818408E+03  0.10661798923E+04  0.25500000920E-02 0.  1.
       -2    1    3    3    0  502 -0.41980659041E+03 -0.92131078532E+03 -0.77734928599E+03  0.12764493914E+04  0.25500000920E-02 0. -1.
</event>
<event>
 5   0  0.6702421E-05  0.2298062E+04  0.7818609E-02  0.8478686E-01
        2   -1    0    0  501    0  0.00000000000E+00  0.00000000000E+00  0.18276363620E+04  0.18276363620E+04  0.25500000920E-02 0. -1.
       -2   -1    0    0    0  501  0.00000000000E+00  0.00000000000E+00 -0.72239297913E+03  0.72239297914E+03  0.25500000920E-02 0.  1.
    10030    2    1    2    0    0  0.00000000000E+00  0.00000000000E+00  0.11052433829E+04  0.25500293412E+04  0.22980615104E+04 0.  0.
        4    1    3    3  502    0  0.93346505512E+03 -0.33299359851E+02  0.12951749586E+04  0.15968549223E+04  0.12699999809E+01 0. -1.
       -4    1    3    3    0  502 -0.93346505512E+03  0.33299359851E+02 -0.18993157571E+03  0.95317441890E+03  0.12699999809E+01 0.  1.
</event>
<event>
 5   0  0.6814789E-05  0.2321748E+04  0.7818609E-02  0.8469395E-01
        2   -1    0    0  501    0  0.00000000000E+00  0.00000000000E+00  0.14058992279E+04  0.14058992279E+04  0.25500000920E-02 0.  1.
       -2   -1    0    0    0  501  0.00000000000E+00  0.00000000000E+00 -0.95855289591E+03  0.95855289591E+03  0.25500000920E-02 0. -1.
    10030    2    1    2    0    0  0.00000000000E+00  0.00000000000E+00  0.44734633200E+03  0.23644521238E+04  0.23217482863E+04 0.  0.
        1    1    3    3  502    0 -0.86862567895E+02  0.29753345571E+02 -0.95484926622E+03  0.95925361010E+03  0.50400001928E-02 0. -1.
       -1    1    3    3    0  502  0.86862567895E+02 -0.29753345571E+02  0.14021955982E+04  0.14051985137E+04  0.50400001928E-02 0.  1.
</event>
<event>
 5   0  0.2962279E-05  0.2280884E+04  0.7818609E-02  0.8485497E-01
        1   -1    0    0  501    0  0.00000000000E+00  0.00000000000E+00  0.15557498315E+04  0.15557498315E+04  0.50400001928E-02 0.  1.
       -1   -1    0    0    0  501  0.00000000000E+00  0.00000000000E+00 -0.83600078357E+03  0.83600078358E+03  0.50400001928E-02 0. -1.
    10030    2    1    2    0    0  0.00000000000E+00  0.00000000000E+00  0.71974904794E+03  0.23917506151E+04  0.22808841077E+04 0.  0.
        1    1    3    3  502    0 -0.69212846592E+03 -0.88936470820E+03  0.17645319662E+03  0.11406783631E+04  0.50400001928E-02 0. -1.
       -1    1    3    3    0  502  0.69212846592E+03  0.88936470820E+03  0.54329585133E+03  0.12510722520E+04  0.50400001928E-02 0.  1.
</event>
<event>
 5   0  0.2944089E-05  0.1941882E+04  0.7818609E-02  0.8634285E-01
       -1   -1    0    0    0  501  0.00000000000E+00  0.00000000000E+00  0.79176016513E+03  0.79176016515E+03  0.50400001928E-02 0.  1.
        1   -1    0    0  501    0  0.00000000000E+00  0.00000000000E+00 -0.11906718689E+04  0.11906718689E+04  0.50400001928E-02 0. -1.
    10030    2    1    2    0    0  0.00000000000E+00  0.00000000000E+00 -0.39891170376E+03  0.19824320341E+04  0.19418821340E+04 0.  0.
        5    1    3    3  502    0 -0.96852376963E+03  0.62669887582E+01 -0.26889756199E+03  0.10051893137E+04  0.46999998093E+01 0.  1.
       -5    1    3    3    0  502  0.96852376963E+03 -0.62669887582E+01 -0.13001414177E+03  0.97724272038E+03  0.46999998093E+01 0. -1.
</event>
<event>
 5   0  0.3006265E-05  0.2336740E+04  0.7818609E-02  0.8463574E-01
       -1   -1    0    0    0  501  0.00000000000E+00  0.00000000000E+00  0.59970595788E+03  0.59970595790E+03  0.50400001928E-02 0. -1.
        1   -1    0    0  501    0  0.00000000000E+00  0.00000000000E+00 -0.22762623032E+04  0.22762623032E+04  0.50400001928E-02 0.  1.
    10030    2    1    2    0    0  0.00000000000E+00  0.00000000000E+00 -0.16765563453E+04  0.28759682611E+04  0.23367396645E+04 0.  0.
        2    1    3    3  502    0 -0.63905425978E+03 -0.15632832367E+03 -0.20266219357E+04  0.21307335267E+04  0.25500000920E-02 0.  1.
       -2    1    3    3    0  502  0.63905425978E+03  0.15632832367E+03  0.35006559038E+03  0.74523473436E+03  0.25500000920E-02 0. -1.
</event>
<event>
 5   0  0.2944089E-05  0.2300380E+04  0.7818609E-02  0.8477771E-01
       -1   -1    0    0    0  501  0.00000000000E+00  0.00000000000E+00  0.67579806943E+03  0.67579806945E+03  0.50400001928E-02 0.  1.
        1   -1    0    0  501    0  0.00000000000E+00  0.00000000000E+00 -0.19575921241E+04  0.19575921241E+04  0.50400001928E-02 0. -1.
    10030    2    1    2    0    0  0.00000000000E+00  0.00000000000E+00 -0.12817940547E+04  0.26333901936E+04  0.23003799497E+04 0.  0.
        5    1    3    3  502    0  0.52814878825E+03 -0.39020033568E+02 -0.18097059103E+04  0.18856089937E+04  0.46999998093E+01 0. -1.
       -5    1    3    3    0  502 -0.52814878825E+03  0.39020033568E+02  0.52791185560E+03  0.74778119984E+03  0.46999998093E+01 0.  1.
</event>
<event>
 5   0  0.6814789E-05  0.2273421E+04  0.7818609E-02  0.8488475E-01
       -2   -1    0    0    0  501  0.00000000000E+00  0.00000000000E+00  0.99314630278E+03  0.99314630278E+03  0.25500000920E-02 0.  1.
        2   -1    0    0  501    0  0.00000000000E+00  0.00000000000E+00 -0.13010278504E+04  0.13010278504E+04  0.25500000920E-02 0. -1.
    10030    2    1    2    0    0  0.00000000000E+00  0.00000000000E+00 -0.30788154764E+03  0.22941741532E+04  0.22734212099E+04 0.  0.
        1    1    3    3  502    0  0.72618847434E+03 -0.38029470801E+03  0.64073574226E+03  0.10404403186E+04  0.50400001928E-02 0.  1.
       -1    1    3    3    0  502 -0.72618847434E+03  0.38029470801E+03 -0.94861728990E+03  0.12537338346E+04  0.50400001928E-02 0. -1.
</event>
<event>
 5   0  0.6702421E-05  0.2340075E+04  0.7818609E-02  0.8462286E-01
        2   -1    0    0  501    0  0.00000000000E+00  0.00000000000E+00  0.21835335651E+04  0.21835335651E+04  0.25500000920E-02 0. -1.
       -2   -1    0    0    0  501  0.00000000000E+00  0.00000000000E+00 -0.62695987858E+03  0.62695987858E+03  0.25500000920E-02 0.  1.
    10030    2    1    2    0    0  0.00000000000E+00  0.00000000000E+00  0.15565736865E+04  0.28104934437E+04  0.23400751602E+04 0.  0.
        4    1    3    3  502    0  0.44198577019E+03  0.82623839359E+03 -0.63259517304E+02  0.93916169190E+03  0.12699999809E+01 0.  1.
       -4    1    3    3    0  502 -0.44198577019E+03 -0.82623839359E+03  0.16198332038E+04  0.18713317518E+04  0.12699999809E+01 0. -1.
</event>
<event>
 5   0  0.2982385E-05  0.2264300E+04  0.7818609E-02  0.8492132E-01
        1   -1    0    0  501    0  0.00000000000E+00  0.00000000000E+00  0.14994614256E+04  0.14994614256E+04  0.50400001928E-02 0.  1.
       -1   -1    0    0    0  501  0.00000000000E+00  0.00000000000E+00 -0.85481586274E+03  0.85481586275E+03  0.50400001928E-02 0. -1.
    10030    2    1    2    0    0  0.00000000000E+00  0.00000000000E+00  0.64464556284E+03  0.23542772883E+04  0.22642998142E+04 0.  0.
        4    1    3    3  502    0 -0.82291060151E+03 -0.14785165451E+03  0.11160176648E+04  0.13944672857E+04  0.12699999809E+01 0.  1.
       -4    1    3    3    0  502  0.82291060151E+03  0.14785165451E+03 -0.47137210195E+03  0.95981000266E+03  0.12699999809E+01 0. -1.
</event>
<event>
 5   0  0.3006265E-05  0.2282773E+04  0.7818609E-02  0.8484745E-01
       -1   -1    0    0    0  501  0.00000000000E+00  0.00000000000E+00  0.60246264896E+03  0.60246264898E+03  0.50400001928E-02 0.  1.
        1   -1    0    0  501    0  0.00000000000E+00  0.00000000000E+00 -0.21623964477E+04  0.21623964477E+04  0.50400001928E-02 0. -1.
    10030    2    1    2    0    0  0.00000000000E+00  0.00000000000E+00 -0.15599337987E+04  0.27648590967E+04  0.22827729559E+04 0.  0.
        2    1    3    3  502    0  0.30945516975E+03  0.98648677223E+03 -0.13656649886E+04  0.17128804731E+04  0.25500000920E-02 0. -1.
       -2    1    3    3    0  502 -0.30945516975E+03 -0.98648677223E+03 -0.19426881008E+03  0.10519786236E+04  0.25500000920E-02 0.  1.
</event>
<event>
 5   0  0.3006265E-05  0.2316552E+04  0.7818609E-02  0.8471423E-01
       -1   -1    0    0    0  501  0.00000000000E+00  0.00000000000E+00  0.63854826240E+03  0.63854826242E+03  0.50400001928E-02 0. -1.
        1   -1    0    0  501    0  0.00000000000E+00  0.00000000000E+00 -0.21010207333E+04  0.21010207333E+04  0.50400001928E-02 0.  1.
    10030    2    1    2    0    0  0.00000000000E+00  0.00000000000E+00 -0.14624724709E+04  0.27395689957E+04  0.23165518674E+04 0.  0.
        2    1    3    3  502    0  0.67750068806E+03  0.63777815197E+03 -0.15470074920E+04  0.18052701553E+04  0.25500000920E-02 0.  1.
       -2    1    3    3    0  502 -0.67750068806E+03 -0.63777815197E+03  0.84535021047E+02  0.93429884044E+03  0.25500000920E-02 0. -1.
</event>
<event>
 5   0  0.6676612E-05  0.2260381E+04  0.7818609E-02  0.8493708E-01
        2   -1    0    0  501    0  0.00000000000E+00  0.00000000000E+00  0.13979414009E+04  0.13979414009E+04  0.25500000920E-02 0.  1.
       -2   -1    0    0    0  501  0.00000000000E+00  0.00000000000E+00 -0.91372244801E+03  0.91372244801E+03  0.25500000920E-02 0. -1.
    10030    2    1    2    0    0  0.00000000000E+00  0.00000000000E+00  0.48421895292E+03  0.23116638489E+04  0.22603808874E+04 0.  0.
        2    1    3    3  502    0 -0.33839623052E+03  0.10641913798E+04  0.64046829707E+02  0.11185335481E+04  0.25500000920E-02 0.  1.
       -2    1    3    3    0  502  0.33839623052E+03 -0.10641913798E+04  0.42017212321E+03  0.11931303009E+04  0.25500000920E-02 0. -1.
</event>
<event>
 5   0  0.2962279E-05  0.2284683E+04  0.7818609E-02  0.8483985E-01
       -1   -1    0    0    0  501  0.00000000000E+00  0.00000000000E+00  0.19871714984E+04  0.19871714984E+04  0.50400001928E-02 0.  1.
        1   -1    0    0  501    0  0.00000000000E+00  0.00000000000E+00 -0.65668444511E+03  0.65668444513E+03  0.50400001928E-02 0. -1.
    10030    2    1    2    0    0  0.00000000000E+00  0.00000000000E+00  0.13304870533E+04  0.26438559436E+04  0.22846834466E+04 0.  0.
        1    1    3    3  502    0  0.44066484824E+03 -0.12474068157E+03  0.18762828514E+04  0.19313681898E+04  0.50400001928E-02 0.  1.
       -1    1    3    3    0  502 -0.44066484824E+03  0.12474068157E+03 -0.54579579805E+03  0.71248775379E+03  0.50400001928E-02 0. -1.
</event>
<event>
 5   0  0.3006265E-05  0.2419348E+04  0.7818609E-02  0.8432295E-01
       -1   -1    0    0    0  501  0.00000000000E+00  0.00000000000E+00  0.12501357481E+04  0.12501357481E+04  0.50400001928E-02 0.  1.
        1   -1    0    0  501    0  0.00000000000E+00  0.00000000000E+00 -0.11705218536E+04  0.11705218536E+04  0.50400001928E-02 0. -1.
    10030    2    1    2    0    0  0.00000000000E+00  0.00000000000E+00  0.79613894519E+02  0.24206576018E+04  0.24193480222E+04 0.  0.
        2    1    3    3  502    0  0.41114363107E+03 -0.89018548152E+03 -0.66898453955E+03  0.11870170980E+04  0.25500000920E-02 0. -1.
       -2    1    3    3    0  502 -0.41114363107E+03  0.89018548152E+03  0.74859843407E+03  0.12336405037E+04  0.25500000920E-02 0.  1.
</event>
<event>
 5   0  0.3118614E-05  0.2310667E+04  0.7818609E-02  0.8473727E-01
        1   -1    0    0  501    0  0.00000000000E+00  0.00000000000E+00  0.79663505786E+03  0.79663505787E+03  0.50400001928E-02 0.  1.
       -1   -1    0    0    0  501  0.00000000000E+00  0.00000000000E+00 -0.16755420415E+04  0.16755420415E+04  0.50400001928E-02 0. -1.
    10030    2    1    2    0    0  0.00000000000E+00  0.00000000000E+00 -0.87890698362E+03  0.24721770994E+04  0.23106670303E+04 0.  0.
        3    1    3    3  502    0  0.43528732582E+02  0.25055133465E+03 -0.16452260878E+04  0.16647641310E+04  0.10100000352E+00 0. -1.
       -3    1    3    3    0  502 -0.43528732582E+02 -0.25055133465E+03  0.76631910415E+03  0.80741296834E+03  0.10100000352E+00 0.  1.
</event>
<event>
 5   0  0.2982385E-05  0.2300081E+04  0.7818609E-02  0.8477889E-01
        1   -1    0    0  501    0  0.00000000000E+00  0.00000000000E+00  0.21492501297E+04  0.21492501297E+04  0.50400001928E-02 0. -1.
       -1   -1    0    0    0  501  0.00000000000E+00  0.00000000000E+00 -0.61537408504E+03  0.61537408506E+03  0.50400001928E-02 0.  1.
    10030    2    1    2    0    0  0.00000000000E+00  0.00000000000E+00  0.15338760447E+04  0.27646242148E+04  0.23000807222E+04 0.  0.
        4    1    3    3  502    0 -0.60992486416E+02 -0.59237175367E+03 -0.41562220865E+03  0.72620094407E+03  0.12699999809E+01 0.  1.
       -4    1    3    3    0  502  0.60992486416E+02  0.59237175367E+03  0.19494982533E+04  0.20384232707E+04  0.12699999809E+01 0. -1.
</event>
<event>
 5   0  0.6702421E-05  0.2252022E+04  0.7818609E-02  0.8497082E-01
        2   -1    0    0  501    0  0.00000000000E+00  0.00000000000E+00  0.14222465558E+04  0.14222465558E+04  0.25500000920E-02 0.  1.
       -2   -1    0    0    0  501  0.00000000000E+00  0.00000000000E+00 -0.89147753973E+03  0.89147753973E+03  0.25500000920E-02 0. -1.
    10030    2    1    2    0    0  0.00000000000E+00  0.00000000000E+00  0.53076901609E+03  0.23137240955E+04  0.22520220785E+04 0.  0.
        4    1    3    3  502    0 -0.90173763713E+01 -0.10843649882E+04 -0.46190930971E+02  0.10853865466E+04  0.12699999809E+01 0. -1.
       -4    1    3    3    0  502  0.90173763713E+01  0.10843649882E+04  0.57695994706E+03  0.12283375489E+04  0.12699999809E+01 0.  1.
</event>
<event>
 5   0  0.6676612E-05  0.2433168E+04  0.7818609E-02  0.8427189E-01
       -2   -1    0    0    0  501  0.00000000000E+00  0.00000000000E+00  0.76261817605E+03  0.76261817606E+03  0.25500000920E-02 0.  1.
        2   -1    0    0  501    0  0.00000000000E+00  0.00000000000E+00 -0.19407836599E+04  0.19407836599E+04  0.25500000920E-02 0. -1.
    10030    2    1    2    0    0  0.00000000000E+00  0.00000000000E+00 -0.11781654839E+04  0.27034018360E+04  0.24331682185E+04 0.  0.
        2    1    3    3  502    0 -0.10768669561E+04  0.44588518742E+02 -0.12160669250E+04  0.16249459508E+04  0.25500000920E-02 0.  1.
       -2    1    3    3    0  502  0.10768669561E+04 -0.44588518742E+02  0.37901441096E+02  0.10784558852E+04  0.25500000920E-02 0. -1.
</event>
<event>
 5   0  0.6495405E-05  0.2166934E+04  0.7818609E-02  0.8532318E-01
        2   -1    0    0  501    0  0.00000000000E+00  0.00000000000E+00  0.11539989910E+04  0.11539989910E+04  0.25500000920E-02 0. -1.
       -2   -1    0    0    0  501  0.00000000000E+00  0.00000000000E+00 -0.10172461719E+04  0.10172461719E+04  0.25500000920E-02 0.  1.
    10030    2    1    2    0    0  0.00000000000E+00  0.00000000000E+00  0.13675281909E+03  0.21712451628E+04  0.21669342915E+04 0.  0.
        5    1    3    3  502    0  0.40850650113E+03 -0.57809361729E+03 -0.75350484267E+03  0.10338575481E+04  0.46999998093E+01 0.  1.
       -5    1    3    3    0  502 -0.40850650113E+03  0.57809361729E+03  0.89025766176E+03  0.11373876147E+04  0.46999998093E+01 0. -1.
</event>
<event>
 5   0  0.6468758E-05  0.2291212E+04  0.7818609E-02  0.8481394E-01
        2   -1    0    0  501    0  0.00000000000E+00  0.00000000000E+00  0.12548963440E+04  0.12548963440E+04  0.25500000920E-02 0.  1.
       -2   -1    0    0    0  501  0.00000000000E+00  0.00000000000E+00 -0.10458335288E+04  0.10458335288E+04  0.25500000920E-02 0. -1.
    10030    2    1    2    0    0  0.00000000000E+00  0.00000000000E+00  0.20906281519E+03  0.23007298728E+04  0.22912116199E+04 0.  0.
        3    1    3    3  502    0  0.35310051743E+02  0.82421094409E+03 -0.69365575047E+03  0.10778352334E+04  0.10100000352E+00 0. -1.
       -3    1    3    3    0  502 -0.35310051743E+02 -0.82421094409E+03  0.90271856565E+03  0.12228946394E+04  0.10100000352E+00 0.  1.
</event>
<event>
 5   0  0.6814789E-05  0.2281748E+04  0.7818609E-02  0.8485152E-01
        2   -1    0    0  501    0  0.00000000000E+00  0.00000000000E+00  0.14675621845E+04  0.14675621845E+04  0.25500000920E-02 0. -1.
       -2   -1    0    0    0  501  0.00000000000E+00  0.00000000000E+00 -0.88690895922E+03  0.88690895922E+03  0.25500000920E-02 0.  1.
    10030    2    1    2    0    0  0.00000000000E+00  0.00000000000E+00  0.58065322524E+03  0.23544711437E+04  0.22817484959E+04 0.  0.
        1    1    3    3  502    0  0.28925620290E+03 -0.10075031153E+04  0.75508404976E+03  0.12918527782E+04  0.50400001928E-02 0. -1.
       -1    1    3    3    0  502 -0.28925620290E+03  0.10075031153E+04 -0.17443082453E+03  0.10626183655E+04  0.50400001928E-02 0.  1.
</event>
<event>
 5   0  0.3118614E-05  0.2288637E+04  0.7818609E-02  0.8482415E-01
        1   -1    0    0  501    0  0.00000000000E+00  0.00000000000E+00  0.13969101623E+04  0.13969101623E+04  0.50400001928E-02 0.  1.
       -1   -1    0    0    0  501  0.00000000000E+00  0.00000000000E+00 -0.93740099065E+03  0.93740099066E+03  0.50400001928E-02 0. -1.
    10030    2    1    2    0    0  0.00000000000E+00  0.00000000000E+00  0.45950917165E+03  0.23343111530E+04  0.22886371229E+04 0.  0.
        3    1    3    3  502    0  0.54203350911E+03 -0.41083266386E+03  0.11683815841E+04  0.13519243096E+04  0.10100000352E+00 0.  1.
       -3    1    3    3    0  502 -0.54203350911E+03  0.41083266386E+03 -0.70887241244E+03  0.98238684336E+03  0.10100000352E+00 0. -1.
</event>
<event>
 5   0  0.3118614E-05  0.2322600E+04  0.7818609E-02  0.8469063E-01
       -1   -1    0    0    0  501  0.00000000000E+00  0.00000000000E+00  0.79773790510E+03  0.79773790511E+03  0.50400001928E-02 0. -1.
        1   -1    0    0  501    0  0.00000000000E+00  0.00000000000E+00 -0.16905526809E+04  0.16905526809E+04  0.50400001928E-02 0.  1.
    10030    2    1    2    0    0  0.00000000000E+00  0.00000000000E+00 -0.89281477579E+03  0.24882905860E+04  0.23226002274E+04 0.  0.
        3    1    3    3  502    0 -0.20504626870E+03  0.92064785513E+03  0.27940474213E+03  0.98371920058E+03  0.10100000352E+00 0. -1.
       -3    1    3    3    0  502  0.20504626870E+03 -0.92064785513E+03 -0.11722195179E+04  0.15045713854E+04  0.10100000352E+00 0.  1.
</event>
<event>
 5   0  0.6468758E-05  0.2334829E+04  0.7818609E-02  0.8464314E-01
        2   -1    0    0  501    0  0.00000000000E+00  0.00000000000E+00  0.20772290052E+04  0.20772290052E+04  0.25500000920E-02 0. -1.
       -2   -1    0    0    0  501  0.00000000000E+00  0.00000000000E+00 -0.65609339703E+03  0.65609339703E+03  0.25500000920E-02 0.  1.
    10030    2    1    2    0    0  0.00000000000E+00  0.00000000000E+00  0.14211356082E+04  0.27333224023E+04  0.23348286742E+04 0.  0.
        3    1    3    3  502    0  0.40277510406E+03 -0.10647789602E+04  0.40783104229E+03  0.12092593550E+04  0.10100000352E+00 0. -1.
       -3    1    3    3    0  502 -0.40277510406E+03  0.10647789602E+04  0.10133045659E+04  0.15240630473E+04  0.10100000352E+00 0.  1.
</event>
<event>
 5   0  0.2982385E-05  0.2303975E+04  0.7818609E-02  0.8476355E-01
       -1   -1    0    0    0  501  0.00000000000E+00  0.00000000000E+00  0.90876069519E+03  0.90876069520E+03  0.50400001928E-02 0. -1.
        1   -1    0    0  501    0  0.00000000000E+00  0.00000000000E+00 -0.14603135492E+04  0.14603135492E+04  0.50400001928E-02 0.  1.
    10030    2    1    2    0    0  0.00000000000E+00  0.00000000000E+00 -0.55155285401E+03  0.23690742444E+04  0.23039753091E+04 0.  0.
        4    1    3    3  502    0  0.98604559032E+02  0.37059590578E+03 -0.13927519345E+04  0.14445842822E+04  0.12699999809E+01 0.  1.
       -4    1    3    3    0  502 -0.98604559032E+02 -0.37059590578E+03  0.84119908045E+03  0.92448996224E+03  0.12699999809E+01 0. -1.
</event>
<event>
 5   0  0.6814789E-05  0.2298152E+04  0.7818609E-02  0.8478650E-01
       -2   -1    0    0    0  501  0.00000000000E+00  0.00000000000E+00  0.95296354492E+03  0.95296354492E+03  0.25500000920E-02 0.  1.
        2   -1    0    0  501    0  0.00000000000E+00  0.00000000000E+00 -0.13855470202E+04  0.13855470202E+04  0.25500000920E-02 0. -1.
    10030    2    1    2    0    0  0.00000000000E+00  0.00000000000E+00 -0.43258347533E+03  0.23385105652E+04  0.22981521273E+04 0.  0.
        1    1    3    3  502    0 -0.93999627102E+03 -0.36139087119E+03 -0.77934383573E+03  0.12734100540E+04  0.50400001928E-02 0. -1.
       -1    1    3    3    0  502  0.93999627102E+03  0.36139087119E+03  0.34676036040E+03  0.10651005112E+04  0.50400001928E-02 0.  1.
</event>
<event>
 5   0  0.6468758E-05  0.2129565E+04  0.7818609E-02  0.8548331E-01
        2   -1    0    0  501    0  0.00000000000E+00  0.00000000000E+00  0.13101579959E+04  0.13101579959E+04  0.25500000920E-02 0. -1.
       -2   -1    0    0    0  501  0.00000000000E+00  0.00000000000E+00 -0.86536232320E+03  0.86536232320E+03  0.25500000920E-02 0.  1.
    10030    2    1    2    0    0  0.00000000000E+00  0.00000000000E+00  0.44479567265E+03  0.21755203191E+04  0.21295646194E+04 0.  0.
        3    1    3    3  502    0 -0.25442761047E+03 -0.22221234843E+03  0.12539656948E+04  0.12986692076E+04  0.10100000352E+00 0. -1.
       -3    1    3    3    0  502  0.25442761047E+03  0.22221234843E+03 -0.80917002215E+03  0.87685111148E+03  0.10100000352E+00 0.  1.
</event>
<event>
 5   0  0.2962279E-05  0.2296754E+04  0.7818609E-02  0.8479202E-01
        1   -1    0    0  501    0  0.00000000000E+00  0.00000000000E+00  0.14372834494E+04  0.14372834494E+04  0.50400001928E-02 0. -1.
       -1   -1    0    0    0  501  0.00000000000E+00  0.00000000000E+00 -0.91754341541E+03  0.91754341543E+03  0.50400001928E-02 0.  1.
    10030    2    1    2    0    0  0.00000000000E+00  0.00000000000E+00  0.51974003400E+03  0.23548268648E+04  0.22967542011E+04 0.  0.
        1    1    3    3  502    0  0.43134394818E+03 -0.38783084436E+03  0.12760401962E+04  0.14016950267E+04  0.50400001928E-02 0. -1.
       -1    1    3    3    0  502 -0.43134394818E+03  0.38783084436E+03 -0.75630016223E+03  0.95313183814E+03  0.50400001928E-02 0.  1.
</event>
<event>
 5   0  0.6468758E-05  0.2276380E+04  0.7818609E-02  0.8487293E-01
        2   -1    0    0  501    0  0.00000000000E+00  0.00000000000E+00  0.20039593861E+04  0.20039593861E+04  0.25500000920E-02 0.  1.
       -2   -1    0    0    0  501  0.00000000000E+00  0.00000000000E+00 -0.64645850584E+03  0.64645850584E+03  0.25500000920E-02 0. -1.
    10030    2    1    2    0    0  0.00000000000E+00  0.00000000000E+00  0.13575008803E+04  0.26504178920E+04  0.22763801005E+04 0.  0.
        3    1    3    3  502    0 -0.99480382241E+03 -0.55302589538E+03  0.67633767918E+03  0.13239731691E+04  0.10100000352E+00 0.  1.
       -3    1    3    3    0  502  0.99480382241E+03  0.55302589538E+03  0.68116320110E+03  0.13264447229E+04  0.10100000352E+00 0. -1.
</event>
<event>
 5   0  0.6814789E-05  0.2257710E+04  0.7818609E-02  0.8494784E-01
       -2   -1    0    0    0  501  0.00000000000E+00  0.00000000000E+00  0.53843027656E+03  0.53843027656E+03  0.25500000920E-02 0.  1.
        2   -1    0    0  501    0  0.00000000000E+00  0.00000000000E+00 -0.23667206089E+04  0.23667206089E+04  0.25500000920E-02 0. -1.
    10030    2    1    2    0    0  0.00000000000E+00  0.00000000000E+00 -0.18282903324E+04  0.29051508855E+04  0.22577103729E+04 0.  0.
        1    1    3    3  502    0 -0.10964213834E+04 -0.12004821240E+03 -0.60488508595E+03  0.12579496773E+04  0.50400001928E-02 0. -1.
       -1    1    3    3    0  502  0.10964213834E+04  0.12004821240E+03 -0.12234052464E+04  0.16472012082E+04  0.50400001928E-02 0.  1.
</event>
<event>
 5   0  0.3006265E-05  0.2326251E+04  0.7818609E-02  0.8467642E-01
       -1   -1    0    0    0  501  0.00000000000E+00  0.00000000000E+00  0.16189378097E+04  0.16189378097E+04  0.50400001928E-02 0. -1.
        1   -1    0    0  501    0  0.00000000000E+00  0.00000000000E+00 -0.83564754035E+03  0.83564754037E+03  0.50400001928E-02 0.  1.
    10030    2    1    2    0    0  0.00000000000E+00  0.00000000000E+00  0.78329026936E+03  0.24545853501E+04  0.23262514040E+04 0.  0.
        2    1    3    3  502    0  0.76730230263E+03  0.23446940703E+03 -0.49691175213E+03  0.94374255804E+03  0.25500000920E-02 0.  1.
       -2    1    3    3    0  502 -0.76730230263E+03 -0.23446940703E+03  0.12802020215E+04  0.15108427921E+04  0.25500000920E-02 0. -1.
</event>
<event>
 5   0  0.6702421E-05  0.2275683E+04  0.7818609E-02  0.8487571E-01
       -2   -1    0    0    0  501  0.00000000000E+00  0.00000000000E+00  0.13733690248E+04  0.13733690248E+04  0.25500000920E-02 0. -1.
        2   -1    0    0  501    0  0.00000000000E+00  0.00000000000E+00 -0.94270624143E+03  0.94270624143E+03  0.25500000920E-02 0.  1.
    10030    2    1    2    0    0  0.00000000000E+00  0.00000000000E+00  0.43066278339E+03  0.23160752662E+04  0.22756832394E+04 0.  0.
        4    1    3    3  502    0  0.84644012183E+03  0.81908245470E+02  0.98473385409E+03  0.13011042298E+04  0.12699999809E+01 0. -1.
       -4    1    3    3    0  502 -0.84644012183E+03 -0.81908245470E+02 -0.55407107071E+03  0.10149710364E+04  0.12699999809E+01 0.  1.
</event>
<event>
 5   0  0.6676612E-05  0.2291413E+04  0.7818609E-02  0.8481315E-01
        2   -1    0    0  501    0  0.00000000000E+00  0.00000000000E+00  0.11426777391E+04  0.11426777391E+04  0.25500000920E-02 0. -1.
       -2   -1    0    0    0  501  0.00000000000E+00  0.00000000000E+00 -0.11487430672E+04  0.11487430672E+04  0.25500000920E-02 0.  1.
    10030    2    1    2    0    0  0.00000000000E+00  0.00000000000E+00 -0.60653281609E+01  0.22914208063E+04  0.22914127789E+04 0.  0.
        2    1    3    3  502    0  0.23459413131E+03  0.10499229673E+04  0.39101247922E+03  0.11446673764E+04  0.25500000920E-02 0. -1.
       -2    1    3    3    0  502 -0.23459413131E+03 -0.10499229673E+04 -0.39707780738E+03  0.11467534298E+04  0.25500000920E-02 0.  1.
</event>
<event>
 5   0  0.3118614E-05  0.2302738E+04  0.7818609E-02  0.8476842E-01
       -1   -1    0    0    0  501  0.00000000000E+00  0.00000000000E+00  0.12303824498E+04  0.12303824498E+04  0.50400001928E-02 0.  1.
        1   -1    0    0  501    0  0.00000000000E+00  0.00000000000E+00 -0.10774299486E+04  0.10774299486E+04  0.50400001928E-02 0. -1.
    10030    2    1    2    0    0  0.00000000000E+00  0.00000000000E+00  0.15295250117E+03  0.23078123984E+04  0.23027382827E+04 0.  0.
        3    1    3    3  502    0 -0.10943684309E+04 -0.24441132701E+03 -0.18538809806E+03  0.11365508859E+04  0.10100000352E+00 0. -1.
       -3    1    3    3    0  502  0.10943684309E+04  0.24441132701E+03  0.33834059923E+03  0.11712615124E+04  0.10100000352E+00 0.  1.
</event>
<event>
 5   0  0.2982385E-05  0.2317034E+04  0.7818609E-02  0.8471235E-01
       -1   -1    0    0    0  501  0.00000000000E+00  0.00000000000E+00  0.13553242744E+04  0.13553242745E+04  0.50400001928E-02 0. -1.
        1   -1    0    0  501    0  0.00000000000E+00  0.00000000000E+00 -0.99028807718E+03  0.99028807719E+03  0.50400001928E-02 0.  1.
    10030    2    1    2    0    0  0.00000000000E+00  0.00000000000E+00  0.36503619727E+03  0.23456123516E+04  0.23170338536E+04 0.  0.
        4    1    3    3  502    0 -0.77187643292E+03  0.39299911454E+02  0.10561935867E+04  0.13087720261E+04  0.12699999809E+01 0. -1.
       -4    1    3    3    0  502  0.77187643292E+03 -0.39299911454E+02 -0.69115738947E+03  0.10368403255E+04  0.12699999809E+01 0.  1.
</event>
<event>
 5   0  0.2944089E-05  0.2162164E+04  0.7818609E-02  0.8534343E-01
       -1   -1    0    0    0  501  0.00000000000E+00  0.00000000000E+00  0.88594845801E+03  0.88594845802E+03  0.50400001928E-02 0. -1.
        1   -1    0    0  501    0  0.00000000000E+00  0.00000000000E+00 -0.13191946663E+04  0.13191946664E+04  0.50400001928E-02 0.  1.
    10030    2    1    2    0    0  0.00000000000E+00  0.00000000000E+00 -0.43324620833E+03  0.22051431244E+04  0.21621641755E+04 0.  0.
        5    1    3    3  502    0 -0.62277079595E+03  0.41421103269E+03  0.57947111310E+03  0.94616230363E+03  0.46999998093E+01 0. -1.
       -5    1    3    3    0  502  0.62277079595E+03 -0.41421103269E+03 -0.10127173214E+04  0.12589808208E+04  0.46999998093E+01 0.  1.
</event>
<event>
 5   0  0.2982385E-05  0.2287300E+04  0.7818609E-02  0.8482945E-01
       -1   -1    0    0    0  501  0.00000000000E+00  0.00000000000E+00  0.96138155315E+03  0.96138155316E+03  0.50400001928E-02 0.  1.
        1   -1    0    0  501    0  0.00000000000E+00  0.00000000000E+00 -0.13604750044E+04  0.13604750044E+04  0.50400001928E-02 0. -1.
    10030    2    1    2    0    0  0.00000000000E+00  0.00000000000E+00 -0.39909345121E+03  0.23218565575E+04  0.22873002188E+04 0.  0.
        4    1    3    3  502    0  0.65558828463E+03  0.93159824691E+03 -0.96711397430E+02  0.11432523780E+04  0.12699999809E+01 0. -1.
       -4    1    3    3    0  502 -0.65558828463E+03 -0.93159824691E+03 -0.30238205378E+03  0.11786041795E+04  0.12699999809E+01 0.  1.
</event>
<event>
 5   0  0.2962279E-05  0.2331511E+04  0.7818609E-02  0.8465600E-01
       -1   -1    0    0    0  501  0.00000000000E+00  0.00000000000E+00  0.12847454318E+04  0.12847454318E+04  0.50400001928E-02 0. -1.
        1   -1    0    0  501    0  0.00000000000E+00  0.00000000000E+00 -0.10577858494E+04  0.10577858494E+04  0.50400001928E-02 0.  1.
    10030    2    1    2    0    0  0.00000000000E+00  0.00000000000E+00  0.22695958241E+03  0.23425312812E+04  0.23315107016E+04 0.  0.
        1    1    3    3  502    0  0.35651066670E+03 -0.62808974866E+03 -0.80593523803E+03  0.10821867657E+04  0.50400001928E-02 0.  1.
       -1    1    3    3    0  502 -0.35651066670E+03  0.62808974866E+03  0.10328948204E+04  0.12603445156E+04  0.50400001928E-02 0. -1.
</event>
<event>
 5   0  0.6495405E-05  0.2289077E+04  0.7818609E-02  0.8482240E-01
        2   -1    0    0  501    0  0.00000000000E+00  0.00000000000E+00  0.20167266087E+04  0.20167266087E+04  0.25500000920E-02 0. -1.
       -2   -1    0    0    0  501  0.00000000000E+00  0.00000000000E+00 -0.64955168296E+03  0.64955168296E+03  0.25500000920E-02 0.  1.
    10030    2    1    2    0    0  0.00000000000E+00  0.00000000000E+00  0.13671749257E+04  0.26662782917E+04  0.22890768119E+04 0.  0.
        5    1    3    3  502    0 -0.61698111807E+02  0.14648537981E+03  0.20037969132E+04  0.20100967098E+04  0.46999998093E+01 0. -1.
       -5    1    3    3    0  502  0.61698111807E+02 -0.14648537981E+03 -0.63662198743E+03  0.65618158187E+03  0.46999998093E+01 0.  1.
</event>
<event>
 5   0  0.2982385E-05  0.2288392E+04  0.7818609E-02  0.8482512E-01
       -1   -1    0    0    0  501  0.00000000000E+00  0.00000000000E+00  0.48033740653E+03  0.48033740656E+03  0.50400001928E-02 0. -1.
        1   -1    0    0  501    0  0.00000000000E+00  0.00000000000E+00 -0.27255520872E+04  0.27255520872E+04  0.50400001928E-02 0.  1.
    10030    2    1    2    0    0  0.00000000000E+00  0.00000000000E+00 -0.22452146806E+04  0.32058894937E+04  0.22883921176E+04 0.  0.
        4    1    3    3  502    0  0.50764203228E+03 -0.39511000410E+03  0.20301414553E+03  0.67455815499E+03  0.12699999809E+01 0. -1.
       -4    1    3    3    0  502 -0.50764203228E+03  0.39511000410E+03 -0.24482288262E+04  0.25313313387E+04  0.12699999809E+01 0.  1.
</event>
<event>
 5   0  0.6495405E-05  0.2265546E+04  0.7818609E-02  0.8491631E-01
        2   -1    0    0  501    0  0.00000000000E+00  0.00000000000E+00  0.10707194147E+04  0.10707194147E+04  0.25500000920E-02 0. -1.
       -2   -1    0    0    0  501  0.00000000000E+00  0.00000000000E+00 -0.11984228383E+04  0.11984228383E+04  0.25500000920E-02 0.  1.
    10030    2    1    2    0    0  0.00000000000E+00  0.00000000000E+00 -0.12770342360E+03  0.22691422531E+04  0.22655459387E+04 0.  0.
        5    1    3    3  502    0  0.11160650267E+04 -0.15776287483E+03  0.48853538500E+02  0.11282282689E+04  0.46999998093E+01 0. -1.
       -5    1    3    3    0  502 -0.11160650267E+04  0.15776287483E+03 -0.17655696210E+03  0.11409139842E+04  0.46999998093E+01 0.  1.
</event>
<event>
 5   0  0.6468758E-05  0.2284657E+04  0.7818609E-02  0.8483995E-01
       -2   -1    0    0    0  501  0.00000000000E+00  0.00000000000E+00  0.63787869164E+03  0.63787869165E+03  0.25500000920E-02 0. -1.
        2   -1    0    0  501    0  0.00000000000E+00  0.00000000000E+00 -0.20457090246E+04  0.20457090246E+04  0.25500000920E-02 0.  1.
    10030    2    1    2    0    0  0.00000000000E+00  0.00000000000E+00 -0.14078303330E+04  0.26835877162E+04  0.22846568198E+04 0.  0.
        3    1    3    3  502    0 -0.36595707024E+03 -0.10739986098E+04 -0.85937552471E+03  0.14233495332E+04  0.10100000352E+00 0. -1.
       -3    1    3    3    0  502  0.36595707024E+03  0.10739986098E+04 -0.54845480825E+03  0.12602381830E+04  0.10100000352E+00 0.  1.
</event>
<event>
 5   0  0.6468758E-05  0.2370711E+04  0.7818609E-02  0.8450551E-01
        2   -1    0    0  501    0  0.00000000000E+00  0.00000000000E+00  0.11786194856E+04  0.11786194856E+04  0.25500000920E-02 0.  1.
       -2   -1    0    0    0  501  0.00000000000E+00  0.00000000000E+00 -0.11921298846E+04  0.11921298846E+04  0.25500000920E-02 0. -1.
    10030    2    1    2    0    0  0.00000000000E+00  0.00000000000E+00 -0.13510399017E+02  0.23707493702E+04  0.23707108734E+04 0.  0.
        3    1    3    3  502    0  0.75826593142E+03 -0.67805512433E+03  0.60181160410E+03  0.11819065917E+04  0.10100000352E+00 0. -1.
       -3    1    3    3    0  502 -0.75826593142E+03  0.67805512433E+03 -0.61532200312E+03  0.11888427785E+04  0.10100000352E+00 0.  1.
</event>
<event>
 5   0  0.2944089E-05  0.2322437E+04  0.7818609E-02  0.8469127E-01
       -1   -1    0    0    0  501  0.00000000000E+00  0.00000000000E+00  0.12616782229E+04  0.12616782229E+04  0.50400001928E-02 0.  1.
        1   -1    0    0  501    0  0.00000000000E+00  0.00000000000E+00 -0.10687575041E+04  0.10687575041E+04  0.50400001928E-02 0. -1.
    10030    2    1    2    0    0  0.00000000000E+00  0.00000000000E+00  0.19292071874E+03  0.23304357270E+04  0.23224367104E+04 0.  0.
        5    1    3    3  502    0 -0.50087658475E+03 -0.59813472505E+03  0.95951776729E+03  0.12366644404E+04  0.46999998093E+01 0.  1.
       -5    1    3    3    0  502  0.50087658475E+03  0.59813472505E+03 -0.76659704855E+03  0.10937712866E+04  0.46999998093E+01 0. -1.
</event>
<event>
 5   0  0.6495405E-05  0.1665932E+04  0.7818609E-02  0.8781037E-01
       -2   -1    0    0    0  501  0.00000000000E+00  0.00000000000E+00  0.64264932429E+03  0.64264932429E+03  0.25500000920E-02 0.  1.
        2   -1    0    0  501    0  0.00000000000E+00  0.00000000000E+00 -0.10796439932E+04  0.10796439932E+04  0.25500000920E-02 0. -1.
    10030    2    1    2    0    0  0.00000000000E+00  0.00000000000E+00 -0.43699466891E+03  0.17222933175E+04  0.16659321507E+04 0.  0.
        5    1    3    3  502    0 -0.56671914007E+03  0.17409886703E+03  0.38638639418E+03  0.70767049877E+03  0.46999998093E+01 0.  1.
       -5    1    3    3    0  502  0.56671914007E+03 -0.17409886703E+03 -0.82338106309E+03  0.10146228187E+04  0.46999998093E+01 0. -1.
</event>
<event>
 5   0  0.6468758E-05  0.1852072E+04  0.7818609E-02  0.8679088E-01
       -2   -1    0    0    0  501  0.00000000000E+00  0.00000000000E+00  0.64129270046E+03  0.64129270047E+03  0.25500000920E-02 0.  1.
        2   -1    0    0  501    0  0.00000000000E+00  0.00000000000E+00 -0.13372092266E+04  0.13372092266E+04  0.25500000920E-02 0. -1.
    10030    2    1    2    0    0  0.00000000000E+00  0.00000000000E+00 -0.69591652615E+03  0.19785019271E+04  0.18520718302E+04 0.  0.
        3    1    3    3  502    0 -0.83090853666E+03 -0.75065993039E+02  0.81343864401E+02  0.83824861114E+03  0.10100000352E+00 0.  1.
       -3    1    3    3    0  502  0.83090853666E+03  0.75065993039E+02 -0.77726039056E+03  0.11402533159E+04  0.10100000352E+00 0. -1.
</event>
<event>
 5   0  0.3118614E-05  0.2309044E+04  0.7818609E-02  0.8474364E-01
       -1   -1    0    0    0  501  0.00000000000E+00  0.00000000000E+00  0.60895997887E+03  0.60895997889E+03  0.50400001928E-02 0.  1.
        1   -1    0    0  501    0  0.00000000000E+00  0.00000000000E+00 -0.21888491701E+04  0.21888491701E+04  0.50400001928E-02 0. -1.
    10030    2    1    2    0    0  0.00000000000E+00  0.00000000000E+00 -0.15798891912E+04  0.27978091490E+04  0.23090444295E+04 0.  0.
        3    1    3    3  502    0 -0.74317562518E+03  0.35992462479E+03 -0.17676279793E+04  0.19509906276E+04  0.10100000352E+00 0. -1.
       -3    1    3    3    0  502  0.74317562518E+03 -0.35992462479E+03  0.18773878814E+03  0.84681852138E+03  0.10100000352E+00 0.  1.
</event>
<event>
 5   0  0.3118614E-05  0.2336060E+04  0.7818609E-02  0.8463837E-01
       -1   -1    0    0    0  501  0.00000000000E+00  0.00000000000E+00  0.64100280153E+03  0.64100280155E+03  0.50400001928E-02 0.  1.
        1   -1    0    0  501    0  0.00000000000E+00  0.00000000000E+00 -0.21283741205E+04  0.21283741205E+04  0.50400001928E-02 0. -1.
    10030    2    1    2    0    0  0.00000000000E+00  0.00000000000E+00 -0.14873713190E+04  0.27693769220E+04  0.23360597372E+04 0.  0.
        3    1    3    3  502    0 -0.28102124942E+03  0.70852675324E+03  0.30553091676E+03  0.82117735842E+03  0.10100000352E+00 0.  1.
       -3    1    3    3    0  502  0.28102124942E+03 -0.70852675324E+03 -0.17929022357E+04  0.19481995636E+04  0.10100000352E+00 0. -1.
</event>
<event>
 5   0  0.2982385E-05  0.2251370E+04  0.7818609E-02  0.8497346E-01
        1   -1    0    0  501    0  0.00000000000E+00  0.00000000000E+00  0.20030470411E+04  0.20030470411E+04  0.50400001928E-02 0.  1.
       -1   -1    0    0    0  501  0.00000000000E+00  0.00000000000E+00 -0.63261956514E+03  0.63261956516E+03  0.50400001928E-02 0. -1.
    10030    2    1    2    0    0  0.00000000000E+00  0.00000000000E+00  0.13704274760E+04  0.26356666063E+04  0.22513700257E+04 0.  0.
        4    1    3    3  502    0  0.10248783492E+04  0.13601892953E+03  0.16390836643E+03  0.10467780783E+04  0.12699999809E+01 0. -1.
       -4    1    3    3    0  502 -0.10248783492E+04 -0.13601892953E+03  0.12065191096E+04  0.15888885280E+04  0.12699999809E+01 0.  1.
</event>
<event>
 5   0  0.6814789E-05  0.2332711E+04  0.7818609E-02  0.8465134E-01
       -2   -1    0    0    0  501  0.00000000000E+00  0.00000000000E+00  0.85904217883E+03  0.85904217883E+03  0.25500000920E-02 0. -1.
        2   -1    0    0  501    0  0.00000000000E+00  0.00000000000E+00 -0.15836074386E+04  0.15836074386E+04  0.25500000920E-02 0.  1.
    10030    2    1    2    0    0  0.00000000000E+00  0.00000000000E+00 -0.72456525977E+03  0.24426496174E+04  0.23327113705E+04 0.  0.
        1    1    3    3  502    0 -0.36921725572E+03  0.42472521171E+03 -0.14320327145E+04  0.15386456977E+04  0.50400001928E-02 0.  1.
       -1    1    3    3    0  502  0.36921725572E+03 -0.42472521171E+03  0.70746745477E+03  0.90400391978E+03  0.50400001928E-02 0. -1.
</event>
<event>
 5   0  0.6495405E-05  0.2287879E+04  0.7818609E-02  0.8482716E-01
        2   -1    0    0  501    0  0.00000000000E+00  0.00000000000E+00  0.11441598849E+04  0.11441598849E+04  0.25500000920E-02 0. -1.
       -2   -1    0    0    0  501  0.00000000000E+00  0.00000000000E+00 -0.11437191170E+04  0.11437191170E+04  0.25500000920E-02 0.  1.
    10030    2    1    2    0    0  0.00000000000E+00  0.00000000000E+00  0.44076786803E+00  0.22878790019E+04  0.22878789594E+04 0.  0.
        5    1    3    3  502    0 -0.52349925795E+03 -0.93552333364E+03 -0.39892879661E+03  0.11438626035E+04  0.46999998093E+01 0. -1.
       -5    1    3    3    0  502  0.52349925795E+03  0.93552333364E+03  0.39936956448E+03  0.11440163984E+04  0.46999998093E+01 0.  1.
</event>
<event>
 5   0  0.6676612E-05  0.2292834E+04  0.7818609E-02  0.8480752E-01
       -2   -1    0    0    0  501  0.00000000000E+00  0.00000000000E+00  0.97669773488E+03  0.97669773488E+03  0.25500000920E-02 0.  1.
        2   -1    0    0  501    0  0.00000000000E+00  0.00000000000E+00 -0.13456279786E+04  0.13456279786E+04  0.25500000920E-02 0. -1.
    10030    2    1    2    0    0  0.00000000000E+00  0.00000000000E+00 -0.36893024373E+03  0.23223257135E+04  0.22928338786E+04 0.  0.
        2    1    3    3  502    0  0.61726649659E+03  0.90750837587E+03  0.15097812258E+03  0.11078735368E+04  0.25500000920E-02 0.  1.
       -2    1    3    3    0  502 -0.61726649659E+03 -0.90750837587E+03 -0.51990836631E+03  0.12144521767E+04  0.25500000920E-02 0. -1.
</event>
<event>
 5   0  0.6468758E-05  0.2266675E+04  0.7818609E-02  0.8491178E-01
       -2   -1    0    0    0  501  0.00000000000E+00  0.00000000000E+00  0.90909095444E+03  0.90909095445E+03  0.25500000920E-02 0. -1.
        2   -1    0    0  501    0  0.00000000000E+00  0.00000000000E+00 -0.14128997791E+04  0.14128997791E+04  0.25500000920E-02 0.  1.
    10030    2    1    2    0    0  0.00000000000E+00  0.00000000000E+00 -0.50380882462E+03  0.23219907335E+04  0.22666754586E+04 0.  0.
        3    1    3    3  502    0  0.11760966460E+03  0.82272491003E+03 -0.10412578782E+04  0.13322635963E+04  0.10100000352E+00 0.  1.
       -3    1    3    3    0  502 -0.11760966460E+03 -0.82272491003E+03  0.53744905359E+03  0.98972713725E+03  0.10100000352E+00 0. -1.
</event>
<event>
 5   0  0.3006265E-05  0.2275116E+04  0.7818609E-02  0.8487798E-01
        1   -1    0    0  501    0  0.00000000000E+00  0.00000000000E+00  0.21533294042E+04  0.21533294042E+04  0.50400001928E-02 0.  1.
       -1   -1    0    0    0  501  0.00000000000E+00  0.00000000000E+00 -0.60094765951E+03  0.60094765953E+03  0.50400001928E-02 0. -1.
    10030    2    1    2    0    0  0.00000000000E+00  0.00000000000E+00  0.15523817447E+04  0.27542770637E+04  0.22751160547E+04 0.  0.
        2    1    3    3  502    0  0.47007616454E+03 -0.10349745858E+04  0.72350123173E+03  0.13474412885E+04  0.25500000920E-02 0.  1.
       -2    1    3    3    0  502 -0.47007616454E+03  0.10349745858E+04  0.82888051297E+03  0.14068357752E+04  0.25500000920E-02 0. -1.
</event>
<event>
 5   0  0.2962279E-05  0.2264007E+04  0.7818609E-02  0.8492249E-01
       -1   -1    0    0    0  501  0.00000000000E+00  0.00000000000E+00  0.13257107555E+04  0.13257107555E+04  0.50400001928E-02 0.  1.
        1   -1    0    0  501    0  0.00000000000E+00  0.00000000000E+00 -0.96660006408E+03  0.96660006409E+03  0.50400001928E-02 0. -1.
    10030    2    1    2    0    0  0.00000000000E+00  0.00000000000E+00  0.35911069146E+03  0.22923108196E+04  0.22640071566E+04 0.  0.
        1    1    3    3  502    0 -0.68823092564E+03 -0.40161823820E+03  0.99364255843E+03  0.12736893460E+04  0.50400001928E-02 0.  1.
       -1    1    3    3    0  502  0.68823092564E+03  0.40161823820E+03 -0.63453186697E+03  0.10186214736E+04  0.50400001928E-02 0. -1.
</event>
<event>
 5   0  0.6468758E-05  0.2291930E+04  0.7818609E-02  0.8481110E-01
       -2   -1    0    0    0  501  0.00000000000E+00  0.00000000000E+00  0.57973947021E+03  0.57973947022E+03  0.25500000920E-02 0. -1.
        2   -1    0    0  501    0  0.00000000000E+00  0.00000000000E+00 -0.22652163834E+04  0.22652163834E+04  0.25500000920E-02 0.  1.
    10030    2    1    2    0    0  0.00000000000E+00  0.00000000000E+00 -0.16854769132E+04  0.28449558536E+04  0.22919296202E+04 0.  0.
        3    1    3    3  502    0  0.39642338461E+02 -0.88677089112E+03  0.56921630888E+02  0.88947974153E+03  0.10100000352E+00 0. -1.
       -3    1    3    3    0  502 -0.39642338461E+02  0.88677089112E+03 -0.17423985441E+04  0.19554761121E+04  0.10100000352E+00 0.  1.
</event>
<event>
 5   0  0.6495405E-05  0.2258222E+04  0.7818609E-02  0.8494578E-01
        2   -1    0    0  501    0  0.00000000000E+00  0.00000000000E+00  0.13267266661E+04  0.13267266661E+04  0.25500000920E-02 0. -1.
       -2   -1    0    0    0  501  0.00000000000E+00  0.00000000000E+00 -0.96093022785E+03  0.96093022785E+03  0.25500000920E-02 0.  1.
    10030    2    1    2    0    0  0.00000000000E+00  0.00000000000E+00  0.36579643828E+03  0.22876568940E+04  0.22582220950E+04 0.  0.
        5    1    3    3  502    0  0.54507588211E+03 -0.93459429388E+03 -0.14425931832E+03  0.10915159423E+04  0.46999998093E+01 0.  1.
       -5    1    3    3    0  502 -0.54507588211E+03  0.93459429388E+03  0.51005575661E+03  0.11961409517E+04  0.46999998093E+01 0. -1.
</event>
<event>
 5   0  0.3118614E-05  0.2320754E+04  0.7818609E-02  0.8469783E-01
       -1   -1    0    0    0  501  0.00000000000E+00  0.00000000000E+00  0.97509302987E+03  0.97509302988E+03  0.50400001928E-02 0. -1.
        1   -1    0    0  501    0  0.00000000000E+00  0.00000000000E+00 -0.13808685483E+04  0.13808685483E+04  0.50400001928E-02 0.  1.
    10030    2    1    2    0    0  0.00000000000E+00  0.00000000000E+00 -0.40577551843E+03  0.23559615782E+04  0.23207544434E+04 0.  0.
        3    1    3    3  502    0  0.26876448458E+03  0.18065791551E+03  0.92828907963E+03  0.98315423824E+03  0.10100000352E+00 0. -1.
       -3    1    3    3    0  502 -0.26876448458E+03 -0.18065791551E+03 -0.13340645981E+04  0.13728073399E+04  0.10100000352E+00 0.  1.
</event>
<event>
 5   0  0.3006265E-05  0.2298030E+04  0.7818609E-02  0.8478698E-01
       -1   -1    0    0    0  501  0.00000000000E+00  0.00000000000E+00  0.24186259316E+04  0.24186259316E+04  0.50400001928E-02 0.  1.
        1   -1    0    0  501    0  0.00000000000E+00  0.00000000000E+00 -0.54586155721E+03  0.54586155723E+03  0.50400001928E-02 0. -1.
    10030    2    1    2    0    0  0.00000000000E+00  0.00000000000E+00  0.18727643744E+04  0.29644874888E+04  0.22980295188E+04 0.  0.
        2    1    3    3  502    0  0.70208117738E+02  0.10680895870E+04  0.14752469094E+04  0.18226623355E+04  0.25500000920E-02 0.  1.
       -2    1    3    3    0  502 -0.70208117738E+02 -0.10680895870E+04  0.39751746501E+03  0.11418251533E+04  0.25500000920E-02 0. -1.
</event>
<event>
 5   0  0.3006265E-05  0.2286447E+04  0.7818609E-02  0.8483284E-01
        1   -1    0    0  501    0  0.00000000000E+00  0.00000000000E+00  0.99695570079E+03  0.99695570080E+03  0.50400001928E-02 0.  1.
       -1   -1    0    0    0  501  0.00000000000E+00  0.00000000000E+00 -0.13109509091E+04  0.13109509091E+04  0.50400001928E-02 0. -1.
    10030    2    1    2    0    0  0.00000000000E+00  0.00000000000E+00 -0.31399520832E+03  0.23079066099E+04  0.22864470099E+04 0.  0.
        2    1    3    3  502    0  0.44928897509E+03 -0.54473030575E+03  0.75053393238E+03  0.10304818644E+04  0.25500000920E-02 0.  1.
       -2    1    3    3    0  502 -0.44928897509E+03  0.54473030575E+03 -0.10645291407E+04  0.12774247456E+04  0.25500000920E-02 0. -1.
</event>
<event>
 5   0  0.6702421E-05  0.2319955E+04  0.7818609E-02  0.8470095E-01
       -2   -1    0    0    0  501  0.00000000000E+00  0.00000000000E+00  0.15070680187E+04  0.15070680187E+04  0.25500000920E-02 0.  1.
        2   -1    0    0  501    0  0.00000000000E+00  0.00000000000E+00 -0.89282470659E+03  0.89282470659E+03  0.25500000920E-02 0. -1.
    10030    2    1    2    0    0  0.00000000000E+00  0.00000000000E+00  0.61424331215E+03  0.23998927253E+04  0.23199547941E+04 0.  0.
        4    1    3    3  502    0 -0.16585476659E+03 -0.11329792738E+04  0.11526937208E+03  0.11508425085E+04  0.12699999809E+01 0. -1.
       -4    1    3    3    0  502  0.16585476659E+03  0.11329792738E+04  0.49897394007E+03  0.12490502168E+04  0.12699999809E+01 0.  1.
</event>
<event>
 5   0  0.2944089E-05  0.2276464E+04  0.7818609E-02  0.8487259E-01
        1   -1    0    0  501    0  0.00000000000E+00  0.00000000000E+00  0.26843752540E+04  0.26843752540E+04  0.50400001928E-02 0. -1.
       -1   -1    0    0    0  501  0.00000000000E+00  0.00000000000E+00 -0.48263455627E+03  0.48263455630E+03  0.50400001928E-02 0.  1.
    10030    2    1    2    0    0  0.00000000000E+00  0.00000000000E+00  0.22017406977E+04  0.31670098103E+04  0.22764641527E+04 0.  0.
        5    1    3    3  502    0  0.41941925241E+03 -0.48201858206E+03  0.24113274021E+04  0.24945493286E+04  0.46999998093E+01 0. -1.
       -5    1    3    3    0  502 -0.41941925241E+03  0.48201858206E+03 -0.20958670440E+03  0.67246048167E+03  0.46999998093E+01 0.  1.
</event>
<event>
 5   0  0.6495405E-05  0.2307950E+04  0.7818609E-02  0.8474793E-01
        2   -1    0    0  501    0  0.00000000000E+00  0.00000000000E+00  0.13195907906E+04  0.13195907906E+04  0.25500000920E-02 0.  1.
       -2   -1    0    0    0  501  0.00000000000E+00  0.00000000000E+00 -0.10091447749E+04  0.10091447749E+04  0.25500000920E-02 0. -1.
    10030    2    1    2    0    0  0.00000000000E+00  0.00000000000E+00  0.31044601567E+03  0.23287355654E+04  0.23079498706E+04 0.  0.
        5    1    3    3  502    0 -0.64003392020E+03 -0.81513823685E+03 -0.35683373208E+03  0.10961049979E+04  0.46999998093E+01 0. -1.
       -5    1    3    3    0  502  0.64003392020E+03  0.81513823685E+03  0.66727974776E+03  0.12326305675E+04  0.46999998093E+01 0.  1.
</event>
<event>
 5   0  0.3006265E-05  0.2259917E+04  0.7818609E-02  0.8493895E-01
       -1   -1    0    0    0  501  0.00000000000E+00  0.00000000000E+00  0.57689309997E+03  0.57689309999E+03  0.50400001928E-02 0. -1.
        1   -1    0    0  501    0  0.00000000000E+00  0.00000000000E+00 -0.22132465912E+04  0.22132465912E+04  0.50400001928E-02 0.  1.
    10030    2    1    2    0    0  0.00000000000E+00  0.00000000000E+00 -0.16363534913E+04  0.27901396912E+04  0.22599174207E+04 0.  0.
        2    1    3    3  502    0 -0.36623457631E+03 -0.76002088194E+03  0.10988256829E+03  0.85078415870E+03  0.25500000920E-02 0. -1.
       -2    1    3    3    0  502  0.36623457631E+03  0.76002088194E+03 -0.17462360596E+04  0.19393555325E+04  0.25500000920E-02 0.  1.
</event>
<event>
 5   0  0.6814789E-05  0.2322894E+04  0.7818609E-02  0.8468948E-01
        2   -1    0    0  501    0  0.00000000000E+00  0.00000000000E+00  0.94278755551E+03  0.94278755551E+03  0.25500000920E-02 0. -1.
       -2   -1    0    0    0  501  0.00000000000E+00  0.00000000000E+00 -0.14308204149E+04  0.14308204149E+04  0.25500000920E-02 0.  1.
    10030    2    1    2    0    0  0.00000000000E+00  0.00000000000E+00 -0.48803285937E+03  0.23736079704E+04  0.23228944714E+04 0.  0.
        1    1    3    3  502    0  0.10945712501E+04  0.80073953014E+02 -0.63239544331E+03  0.12666578292E+04  0.50400001928E-02 0. -1.
       -1    1    3    3    0  502 -0.10945712501E+04 -0.80073953014E+02  0.14436258394E+03  0.11069501412E+04  0.50400001928E-02 0.  1.
</event>
<event>
 5   0  0.2944089E-05  0.2305206E+04  0.7818609E-02  0.8475871E-01
        1   -1    0    0  501    0  0.00000000000E+00  0.00000000000E+00  0.55337826821E+03  0.55337826823E+03  0.50400001928E-02 0. -1.
       -1   -1    0    0    0  501  0.00000000000E+00  0.00000000000E+00 -0.24006963294E+04  0.24006963294E+04  0.50400001928E-02 0.  1.
    10030    2    1    2    0    0  0.00000000000E+00  0.00000000000E+00 -0.18473180612E+04  0.29540745977E+04  0.23052055677E+04 0.  0.
        5    1    3    3  502    0  0.13009434436E+03  0.87758431096E+03  0.19245768253E+02  0.88739576901E+03  0.46999998093E+01 0. -1.
       -5    1    3    3    0  502 -0.13009434436E+03 -0.87758431096E+03 -0.18665638295E+04  0.20666788286E+04  0.46999998093E+01 0.  1.
</event>
<event>
 5   0  0.2342500E-05  0.2199831E+04  0.7818609E-02  0.8518498E-01
       -4   -1    0    0    0  501  0.00000000000E+00  0.00000000000E+00  0.12418172123E+04  0.12418178617E+04  0.12699999809E+01 0. -1.
        4   -1    0    0  501    0  0.00000000000E+00  0.00000000000E+00 -0.97422790684E+03  0.97422873462E+03  0.12699999809E+01 0.  1.
    10030    2    1    2    0    0  0.00000000000E+00  0.00000000000E+00  0.26758930547E+03  0.22160465963E+04  0.21998314664E+04 0.  0.
        5    1    3    3  502    0  0.10413736997E+04 -0.21552839870E+03 -0.14913292948E+03  0.10738595783E+04  0.46999998093E+01 0. -1.
       -5    1    3    3    0  502 -0.10413736997E+04  0.21552839870E+03  0.41672223495E+03  0.11421870181E+04  0.46999998093E+01 0.  1.
</event>
<event>
 5   0  0.6676612E-05  0.2282685E+04  0.7818609E-02  0.8484780E-01
        2   -1    0    0  501    0  0.00000000000E+00  0.00000000000E+00  0.24818317865E+04  0.24818317865E+04  0.25500000920E-02 0. -1.
       -2   -1    0    0    0  501  0.00000000000E+00  0.00000000000E+00 -0.52487945809E+03  0.52487945810E+03  0.25500000920E-02 0.  1.
    10030    2    1    2    0    0  0.00000000000E+00  0.00000000000E+00  0.19569523284E+04  0.30067112446E+04  0.22826848431E+04 0.  0.
        2    1    3    3  502    0  0.55331054659E+02 -0.12657171563E+03 -0.51382795804E+03  0.53207245303E+03  0.25500000920E-02 0.  1.
       -2    1    3    3    0  502 -0.55331054659E+02  0.12657171563E+03  0.24707802865E+04  0.24746387916E+04  0.25500000920E-02 0. -1.
</event>
<event>
 5   0  0.6676612E-05  0.2330302E+04  0.7818609E-02  0.8466068E-01
        2   -1    0    0  501    0  0.00000000000E+00  0.00000000000E+00  0.89845025871E+03  0.89845025871E+03  0.25500000920E-02 0.  1.
       -2   -1    0    0    0  501  0.00000000000E+00  0.00000000000E+00 -0.15110209245E+04  0.15110209245E+04  0.25500000920E-02 0. -1.
    10030    2    1    2    0    0  0.00000000000E+00  0.00000000000E+00 -0.61257066577E+03  0.24094711832E+04  0.23303022469E+04 0.  0.
        2    1    3    3  502    0  0.22421653246E+02 -0.71138663621E+03  0.64755382287E+03  0.96223678491E+03  0.25500000920E-02 0.  1.
       -2    1    3    3    0  502 -0.22421653246E+02  0.71138663621E+03 -0.12601244886E+04  0.14472343983E+04  0.25500000920E-02 0. -1.
</event>
<event>
 5   0  0.6702421E-05  0.2198471E+04  0.7818609E-02  0.8519065E-01
       -2   -1    0    0    0  501  0.00000000000E+00  0.00000000000E+00  0.11836581387E+04  0.11836581387E+04  0.25500000920E-02 0. -1.
        2   -1    0    0  501    0  0.00000000000E+00  0.00000000000E+00 -0.10208340614E+04  0.10208340614E+04  0.25500000920E-02 0.  1.
    10030    2    1    2    0    0  0.00000000000E+00  0.00000000000E+00  0.16282407732E+03  0.22044922002E+04  0.21984708732E+04 0.  0.
        4    1    3    3  502    0 -0.30086885624E+03  0.10213432169E+04  0.35538719462E+03  0.11224819403E+04  0.12699999809E+01 0.  1.
       -4    1    3    3    0  502  0.30086885624E+03 -0.10213432169E+04 -0.19256311730E+03  0.10820102598E+04  0.12699999809E+01 0. -1.
</event>
<event>
 5   0  0.6676612E-05  0.2306893E+04  0.7818609E-02  0.8475208E-01
        2   -1    0    0  501    0  0.00000000000E+00  0.00000000000E+00  0.19671557482E+04  0.19671557482E+04  0.25500000920E-02 0. -1.
       -2   -1    0    0    0  501  0.00000000000E+00  0.00000000000E+00 -0.67632607427E+03  0.67632607427E+03  0.25500000920E-02 0.  1.
    10030    2    1    2    0    0  0.00000000000E+00  0.00000000000E+00  0.12908296739E+04  0.26434818224E+04  0.23068929101E+04 0.  0.
        2    1    3    3  502    0  0.79117268886E+03 -0.83739218250E+03  0.71083023611E+03  0.13536836837E+04  0.25500000920E-02 0.  1.
       -2    1    3    3    0  502 -0.79117268886E+03  0.83739218250E+03  0.57999943780E+03  0.12897981388E+04  0.25500000920E-02 0. -1.
</event>
<event>
 5   0  0.6676612E-05  0.2288381E+04  0.7818609E-02  0.8482516E-01
       -2   -1    0    0    0  501  0.00000000000E+00  0.00000000000E+00  0.72861801932E+03  0.72861801933E+03  0.25500000920E-02 0.  1.
        2   -1    0    0  501    0  0.00000000000E+00  0.00000000000E+00 -0.17967877249E+04  0.17967877249E+04  0.25500000920E-02 0. -1.
    10030    2    1    2    0    0  0.00000000000E+00  0.00000000000E+00 -0.10681697055E+04  0.25254057442E+04  0.22883810113E+04 0.  0.
        2    1    3    3  502    0 -0.29868981663E+03  0.35336054154E+03 -0.16889419762E+04  0.17511722582E+04  0.25500000920E-02 0. -1.
       -2    1    3    3    0  502  0.29868981663E+03 -0.35336054154E+03  0.62077227064E+03  0.77423348602E+03  0.25500000920E-02 0.  1.
</event>
<event>
 5   0  0.6468758E-05  0.2282964E+04  0.7818609E-02  0.8484668E-01
       -2   -1    0    0    0  501  0.00000000000E+00  0.00000000000E+00  0.75561566177E+03  0.75561566178E+03  0.25500000920E-02 0. -1.
        2   -1    0    0  501    0  0.00000000000E+00  0.00000000000E+00 -0.17243972554E+04  0.17243972554E+04  0.25500000920E-02 0.  1.
    10030    2    1    2    0    0  0.00000000000E+00  0.00000000000E+00 -0.96878159367E+03  0.24800129172E+04  0.22829643653E+04 0.  0.
        3    1    3    3  502    0  0.22826893312E+03 -0.88088282887E+03  0.26423566914E+03  0.94756623149E+03  0.10100000352E+00 0. -1.
       -3    1    3    3    0  502 -0.22826893312E+03  0.88088282887E+03 -0.12330172628E+04  0.15324466857E+04  0.10100000352E+00 0.  1.
</event>
<event>
 5   0  0.2982385E-05  0.2529126E+04  0.7818609E-02  0.8392682E-01
       -1   -1    0    0    0  501  0.00000000000E+00  0.00000000000E+00  0.85151316562E+03  0.85151316563E+03  0.50400001928E-02 0. -1.
        1   -1    0    0  501    0  0.00000000000E+00  0.00000000000E+00 -0.18779737869E+04  0.18779737869E+04  0.50400001928E-02 0.  1.
    10030    2    1    2    0    0  0.00000000000E+00  0.00000000000E+00 -0.10264606213E+04  0.27294869525E+04  0.25291258603E+04 0.  0.
        4    1    3    3  502    0  0.11904458766E+04  0.67610451343E+02 -0.58693236634E+02  0.11938086393E+04  0.12699999809E+01 0. -1.
       -4    1    3    3    0  502 -0.11904458766E+04 -0.67610451343E+02 -0.96776738465E+03  0.15356783133E+04  0.12699999809E+01 0.  1.
</event>
<event>
 5   0  0.2962279E-05  0.2281955E+04  0.7818609E-02  0.8485070E-01
        1   -1    0    0  501    0  0.00000000000E+00  0.00000000000E+00  0.85830999802E+03  0.85830999804E+03  0.50400001928E-02 0. -1.
       -1   -1    0    0    0  501  0.00000000000E+00  0.00000000000E+00 -0.15167360816E+04  0.15167360816E+04  0.50400001928E-02 0.  1.
    10030    2    1    2    0    0  0.00000000000E+00  0.00000000000E+00 -0.65842608356E+03  0.23750460796E+04  0.22819550769E+04 0.  0.
        1    1    3    3  502    0 -0.23550757939E+03 -0.57571831922E+03 -0.13247449099E+04  0.14635110110E+04  0.50400001928E-02 0.  1.
       -1    1    3    3    0  502  0.23550757939E+03  0.57571831922E+03  0.66631882632E+03  0.91153506864E+03  0.50400001928E-02 0. -1.
</event>
<event>
 5   0  0.3118614E-05  0.2316956E+04  0.7818609E-02  0.8471266E-01
       -1   -1    0    0    0  501  0.00000000000E+00  0.00000000000E+00  0.82281855274E+03  0.82281855275E+03  0.50400001928E-02 0. -1.
        1   -1    0    0  501    0  0.00000000000E+00  0.00000000000E+00 -0.16310654754E+04  0.16310654754E+04  0.50400001928E-02 0.  1.
    10030    2    1    2    0    0  0.00000000000E+00  0.00000000000E+00 -0.80824692263E+03  0.24538840281E+04  0.23169557043E+04 0.  0.
        3    1    3    3  502    0  0.36099299491E+03  0.73921200863E+03 -0.12680002080E+04  0.15114810200E+04  0.10100000352E+00 0.  1.
       -3    1    3    3    0  502 -0.36099299491E+03 -0.73921200863E+03  0.45975328540E+03  0.94240300812E+03  0.10100000352E+00 0. -1.
</event>
<event>
 5   0  0.3006265E-05  0.2401021E+04  0.7818609E-02  0.8439121E-01
        1   -1    0    0  501    0  0.00000000000E+00  0.00000000000E+00  0.14515298542E+04  0.14515298542E+04  0.50400001928E-02 0. -1.
       -1   -1    0    0    0  501  0.00000000000E+00  0.00000000000E+00 -0.99290100837E+03  0.99290100838E+03  0.50400001928E-02 0.  1.
    10030    2    1    2    0    0  0.00000000000E+00  0.00000000000E+00  0.45862884587E+03  0.24444308626E+04  0.24010209961E+04 0.  0.
        2    1    3    3  502    0 -0.19959785965E+03  0.13937512984E+03 -0.96750781633E+03  0.99766532818E+03  0.25500000920E-02 0.  1.
       -2    1    3    3    0  502  0.19959785965E+03 -0.13937512984E+03  0.14261366622E+04  0.14467655344E+04  0.25500000920E-02 0. -1.
</event>
<event>
 5   0  0.2962279E-05  0.2294351E+04  0.7818609E-02  0.8480152E-01
       -1   -1    0    0    0  501  0.00000000000E+00  0.00000000000E+00  0.16382102457E+04  0.16382102457E+04  0.50400001928E-02 0. -1.
        1   -1    0    0  501    0  0.00000000000E+00  0.00000000000E+00 -0.80332278836E+03  0.80332278838E+03  0.50400001928E-02 0.  1.
    10030    2    1    2    0    0  0.00000000000E+00  0.00000000000E+00  0.83488745736E+03  0.24415330341E+04  0.22943509954E+04 0.  0.
        1    1    3    3  502    0 -0.58765770119E+03 -0.67277123455E+02  0.14634243551E+04  0.15784418356E+04  0.50400001928E-02 0. -1.
       -1    1    3    3    0  502  0.58765770119E+03  0.67277123455E+02 -0.62853689776E+03  0.86309119853E+03  0.50400001928E-02 0.  1.
</event>
<event>
 5   0  0.6702421E-05  0.2302935E+04  0.7818609E-02  0.8476765E-01
        2   -1    0    0  501    0  0.00000000000E+00  0.00000000000E+00  0.14020658631E+04  0.14020658631E+04  0.25500000920E-02 0.  1.
       -2   -1    0    0    0  501  0.00000000000E+00  0.00000000000E+00 -0.94565958586E+03  0.94565958587E+03  0.25500000920E-02 0. -1.
    10030    2    1    2    0    0  0.00000000000E+00  0.00000000000E+00  0.45640627721E+03  0.23477254489E+04  0.23029346699E+04 0.  0.
        4    1    3    3  502    0 -0.91460093582E+03 -0.69457645707E+03  0.14325122366E+03  0.11573477664E+04  0.12699999809E+01 0.  1.
       -4    1    3    3    0  502  0.91460093582E+03  0.69457645707E+03  0.31315505355E+03  0.11903776825E+04  0.12699999809E+01 0. -1.
</event>
<event>
 5   0  0.6702421E-05  0.2191439E+04  0.7818609E-02  0.8522000E-01
        2   -1    0    0  501    0  0.00000000000E+00  0.00000000000E+00  0.14375994657E+04  0.14375994657E+04  0.25500000920E-02 0.  1.
       -2   -1    0    0    0  501  0.00000000000E+00  0.00000000000E+00 -0.83514321695E+03  0.83514321695E+03  0.25500000920E-02 0. -1.
    10030    2    1    2    0    0  0.00000000000E+00  0.00000000000E+00  0.60245624879E+03  0.22727426827E+04  0.21914392006E+04 0.  0.
        4    1    3    3  502    0  0.14474108786E+03 -0.13329803372E+03 -0.81666878888E+03  0.84004039899E+03  0.12699999809E+01 0. -1.
       -4    1    3    3    0  502 -0.14474108786E+03  0.13329803372E+03  0.14191250377E+04  0.14327022837E+04  0.12699999809E+01 0.  1.
</event>
<event>
 5   0  0.6676612E-05  0.2282156E+04  0.7818609E-02  0.8484990E-01
        2   -1    0    0  501    0  0.00000000000E+00  0.00000000000E+00  0.11078039154E+04  0.11078039154E+04  0.25500000920E-02 0.  1.
       -2   -1    0    0    0  501  0.00000000000E+00  0.00000000000E+00 -0.11753515561E+04  0.11753515561E+04  0.25500000920E-02 0. -1.
    10030    2    1    2    0    0  0.00000000000E+00  0.00000000000E+00 -0.67547640642E+02  0.22831554715E+04  0.22821560471E+04 0.  0.
        2    1    3    3  502    0 -0.19740474189E+03  0.10461567989E+04  0.37707179376E+03  0.11294227808E+04  0.25500000920E-02 0.  1.
       -2    1    3    3    0  502  0.19740474189E+03 -0.10461567989E+04 -0.44461943440E+03  0.11537326907E+04  0.25500000920E-02 0. -1.
</event>
<event>
 5   0  0.2342500E-05  0.2227008E+04  0.7818609E-02  0.8507270E-01
       -3   -1    0    0    0  501  0.00000000000E+00  0.00000000000E+00  0.91331216162E+03  0.91331216720E+03  0.10100000352E+00 0.  1.
        3   -1    0    0  501    0  0.00000000000E+00  0.00000000000E+00 -0.13575760506E+04  0.13575760544E+04  0.10100000352E+00 0. -1.
    10030    2    1    2    0    0  0.00000000000E+00  0.00000000000E+00 -0.44426388903E+03  0.22708882216E+04  0.22270076138E+04 0.  0.
        4    1    3    3  502    0  0.45416365340E+03 -0.28720122827E+03 -0.12166124326E+04  0.13299987194E+04  0.12699999809E+01 0. -1.
       -4    1    3    3    0  502 -0.45416365340E+03  0.28720122827E+03  0.77234854360E+03  0.94088950217E+03  0.12699999809E+01 0.  1.
</event>
<event>
 5   0  0.2982385E-05  0.2280555E+04  0.7818609E-02  0.8485628E-01
       -1   -1    0    0    0  501  0.00000000000E+00  0.00000000000E+00  0.42439845500E+03  0.42439845503E+03  0.50400001928E-02 0. -1.
        1   -1    0    0  501    0  0.00000000000E+00  0.00000000000E+00 -0.30637071937E+04  0.30637071937E+04  0.50400001928E-02 0.  1.
    10030    2    1    2    0    0  0.00000000000E+00  0.00000000000E+00 -0.26393087387E+04  0.34881056487E+04  0.22805548444E+04 0.  0.
        4    1    3    3  502    0 -0.37374973531E+03  0.97778393251E+03 -0.20112866816E+04  0.22673830756E+04  0.12699999809E+01 0. -1.
       -4    1    3    3    0  502  0.37374973531E+03 -0.97778393251E+03 -0.62802205712E+03  0.12207225731E+04  0.12699999809E+01 0.  1.
</event>
<event>
 5   0  0.3118614E-05  0.2339920E+04  0.7818609E-02  0.8462345E-01
        1   -1    0    0  501    0  0.00000000000E+00  0.00000000000E+00  0.18296017704E+04  0.18296017704E+04  0.50400001928E-02 0.  1.
       -1   -1    0    0    0  501  0.00000000000E+00  0.00000000000E+00 -0.74814444784E+03  0.74814444786E+03  0.50400001928E-02 0. -1.
    10030    2    1    2    0    0  0.00000000000E+00  0.00000000000E+00  0.10814573225E+04  0.25777462182E+04  0.23399200040E+04 0.  0.
        3    1    3    3  502    0 -0.35055832088E+02  0.11392696988E+04  0.83144864443E+03  0.14108406063E+04  0.10100000352E+00 0. -1.
       -3    1    3    3    0  502  0.35055832088E+02 -0.11392696988E+04  0.25000867810E+03  0.11669056119E+04  0.10100000352E+00 0.  1.
</event>
<event>
 5   0  0.2982385E-05  0.2283194E+04  0.7818609E-02  0.8484577E-01
        1   -1    0    0  501    0  0.00000000000E+00  0.00000000000E+00  0.12246260742E+04  0.12246260742E+04  0.50400001928E-02 0.  1.
       -1   -1    0    0    0  501  0.00000000000E+00  0.00000000000E+00 -0.10641975618E+04  0.10641975619E+04  0.50400001928E-02 0. -1.
    10030    2    1    2    0    0  0.00000000000E+00  0.00000000000E+00  0.16042851239E+03  0.22888236361E+04  0.22831943258E+04 0.  0.
        4    1    3    3  502    0 -0.51305177488E+03  0.95735536991E+03 -0.27206508857E+03  0.11197198102E+04  0.12699999809E+01 0. -1.
       -4    1    3    3    0  502  0.51305177488E+03 -0.95735536991E+03  0.43249360096E+03  0.11691038259E+04  0.12699999809E+01 0.  1.
</event>
<event>
 5   0  0.2982385E-05  0.2287624E+04  0.7818609E-02  0.8482817E-01
       -1   -1    0    0    0  501  0.00000000000E+00  0.00000000000E+00  0.14342773015E+04  0.14342773015E+04  0.50400001928E-02 0.  1.
        1   -1    0    0  501    0  0.00000000000E+00  0.00000000000E+00 -0.91217080157E+03  0.91217080159E+03  0.50400001928E-02 0. -1.
    10030    2    1    2    0    0  0.00000000000E+00  0.00000000000E+00  0.52210649990E+03  0.23464481031E+04  0.22876239864E+04 0.  0.
        4    1    3    3  502    0  0.45448000832E+03  0.97178886102E+02  0.13330635500E+04  0.14117563016E+04  0.12699999809E+01 0.  1.
       -4    1    3    3    0  502 -0.45448000832E+03 -0.97178886102E+02 -0.81095705006E+03  0.93469180151E+03  0.12699999809E+01 0. -1.
</event>
<event>
 5   0  0.6814789E-05  0.2309287E+04  0.7818609E-02  0.8474268E-01
        2   -1    0    0  501    0  0.00000000000E+00  0.00000000000E+00  0.15213810705E+04  0.15213810705E+04  0.25500000920E-02 0. -1.
       -2   -1    0    0    0  501  0.00000000000E+00  0.00000000000E+00 -0.87631048682E+03  0.87631048683E+03  0.25500000920E-02 0.  1.
    10030    2    1    2    0    0  0.00000000000E+00  0.00000000000E+00  0.64507058367E+03  0.23976915573E+04  0.23092874975E+04 0.  0.
        1    1    3    3  502    0  0.34915607887E+03 -0.62851076076E+03 -0.61552614151E+03  0.94647143365E+03  0.50400001928E-02 0.  1.
       -1    1    3    3    0  502 -0.34915607887E+03  0.62851076076E+03  0.12605967252E+04  0.14512201237E+04  0.50400001928E-02 0. -1.
</event>
<event>
 5   0  0.6676612E-05  0.2280794E+04  0.7818609E-02  0.8485532E-01
       -2   -1    0    0    0  501  0.00000000000E+00  0.00000000000E+00  0.10302749433E+04  0.10302749433E+04  0.25500000920E-02 0.  1.
        2   -1    0    0  501    0  0.00000000000E+00  0.00000000000E+00 -0.12622896754E+04  0.12622896754E+04  0.25500000920E-02 0. -1.
    10030    2    1    2    0    0  0.00000000000E+00  0.00000000000E+00 -0.23201473206E+03  0.22925646187E+04  0.22807940930E+04 0.  0.
        2    1    3    3  502    0  0.40430832333E+03 -0.96124307077E+03  0.34795021489E+03  0.10993283465E+04  0.25500000920E-02 0.  1.
       -2    1    3    3    0  502 -0.40430832333E+03  0.96124307077E+03 -0.57996494694E+03  0.11932362721E+04  0.25500000920E-02 0. -1.
</event>
<event>
 5   0  0.6468758E-05  0.2308056E+04  0.7818609E-02  0.8474751E-01
        2   -1    0    0  501    0  0.00000000000E+00  0.00000000000E+00  0.13710493378E+04  0.13710493378E+04  0.25500000920E-02 0.  1.
       -2   -1    0    0    0  501  0.00000000000E+00  0.00000000000E+00 -0.97135875285E+03  0.97135875285E+03  0.25500000920E-02 0. -1.
    10030    2    1    2    0    0  0.00000000000E+00  0.00000000000E+00  0.39969058493E+03  0.23424080906E+04  0.23080561300E+04 0.  0.
        3    1    3    3  502    0  0.81961655419E+03 -0.54178219029E+03  0.81423260306E+03  0.12760383927E+04  0.10100000352E+00 0.  1.
       -3    1    3    3    0  502 -0.81961655419E+03  0.54178219029E+03 -0.41454201813E+03  0.10663696979E+04  0.10100000352E+00 0. -1.
</event>
<event>
 5   0  0.6495405E-05  0.2311339E+04  0.7818609E-02  0.8473464E-01
       -2   -1    0    0    0  501  0.00000000000E+00  0.00000000000E+00  0.89452214014E+03  0.89452214014E+03  0.25500000920E-02 0. -1.
        2   -1    0    0  501    0  0.00000000000E+00  0.00000000000E+00 -0.14930559316E+04  0.14930559316E+04  0.25500000920E-02 0.  1.
    10030    2    1    2    0    0  0.00000000000E+00  0.00000000000E+00 -0.59853379151E+03  0.23875780718E+04  0.23113386488E+04 0.  0.
        5    1    3    3  502    0  0.22886496452E+03  0.91741883834E+03  0.38711488664E+03  0.10217223314E+04  0.46999998093E+01 0. -1.
       -5    1    3    3    0  502 -0.22886496452E+03 -0.91741883834E+03 -0.98564867815E+03  0.13658557404E+04  0.46999998093E+01 0.  1.
</event>
<event>
 5   0  0.2944089E-05  0.2363956E+04  0.7818609E-02  0.8453122E-01
        1   -1    0    0  501    0  0.00000000000E+00  0.00000000000E+00  0.99992831003E+03  0.99992831004E+03  0.50400001928E-02 0.  1.
       -1   -1    0    0    0  501  0.00000000000E+00  0.00000000000E+00 -0.13971725159E+04  0.13971725159E+04  0.50400001928E-02 0. -1.
    10030    2    1    2    0    0  0.00000000000E+00  0.00000000000E+00 -0.39724420588E+03  0.23971008260E+04  0.23639563047E+04 0.  0.
        5    1    3    3  502    0 -0.89397983427E+03  0.56131142240E+03  0.34060418025E+03  0.11091905853E+04  0.46999998093E+01 0.  1.
       -5    1    3    3    0  502  0.89397983427E+03 -0.56131142240E+03 -0.73784838613E+03  0.12879102406E+04  0.46999998093E+01 0. -1.
</event>
<event>
 5   0  0.3006265E-05  0.2323338E+04  0.7818609E-02  0.8468776E-01
        1   -1    0    0  501    0  0.00000000000E+00  0.00000000000E+00  0.11571616555E+04  0.11571616556E+04  0.50400001928E-02 0.  1.
       -1   -1    0    0    0  501  0.00000000000E+00  0.00000000000E+00 -0.11661937399E+04  0.11661937399E+04  0.50400001928E-02 0. -1.
    10030    2    1    2    0    0  0.00000000000E+00  0.00000000000E+00 -0.90320843241E+01  0.23233553954E+04  0.23233378392E+04 0.  0.
        2    1    3    3  502    0 -0.11999363431E+03  0.58772036991E+03 -0.99934061464E+03  0.11655450955E+04  0.25500000920E-02 0. -1.
       -2    1    3    3    0  502  0.11999363431E+03 -0.58772036991E+03  0.99030853032E+03  0.11578103000E+04  0.25500000920E-02 0.  1.
</event>
<event>
 5   0  0.2944089E-05  0.2333246E+04  0.7818609E-02  0.8464927E-01
       -1   -1    0    0    0  501  0.00000000000E+00  0.00000000000E+00  0.14181328366E+04  0.14181328366E+04  0.50400001928E-02 0. -1.
        1   -1    0    0  501    0  0.00000000000E+00  0.00000000000E+00 -0.95971900974E+03  0.95971900976E+03  0.50400001928E-02 0.  1.
    10030    2    1    2    0    0  0.00000000000E+00  0.00000000000E+00  0.45841382685E+03  0.23778518464E+04  0.23332458436E+04 0.  0.
        5    1    3    3  502    0 -0.46874086605E+02 -0.11212633165E+02  0.14171081465E+04  0.14179352919E+04  0.46999998093E+01 0. -1.
       -5    1    3    3    0  502  0.46874086605E+02  0.11212633165E+02 -0.95869431962E+03  0.95991655450E+03  0.46999998093E+01 0.  1.
</event>
<event>
 5   0  0.6676612E-05  0.2310265E+04  0.7818609E-02  0.8473885E-01
       -2   -1    0    0    0  501  0.00000000000E+00  0.00000000000E+00  0.10873670812E+04  0.10873670812E+04  0.25500000920E-02 0.  1.
        2   -1    0    0  501    0  0.00000000000E+00  0.00000000000E+00 -0.12271211909E+04  0.12271211909E+04  0.25500000920E-02 0. -1.
    10030    2    1    2    0    0  0.00000000000E+00  0.00000000000E+00 -0.13975410971E+03  0.23144882721E+04  0.23102650823E+04 0.  0.
        2    1    3    3  502    0 -0.41867490864E+03 -0.39046837819E+03 -0.10749941550E+04  0.12179354116E+04  0.25500000920E-02 0. -1.
       -2    1    3    3    0  502  0.41867490864E+03  0.39046837819E+03  0.93524004532E+03  0.10965528605E+04  0.25500000920E-02 0.  1.
</event>
<event>
 5   0  0.6814789E-05  0.2272498E+04  0.7818609E-02  0.8488844E-01
        2   -1    0    0  501    0  0.00000000000E+00  0.00000000000E+00  0.15282851218E+04  0.15282851218E+04  0.25500000920E-02 0. -1.
       -2   -1    0    0    0  501  0.00000000000E+00  0.00000000000E+00 -0.84477791866E+03  0.84477791867E+03  0.25500000920E-02 0.  1.
    10030    2    1    2    0    0  0.00000000000E+00  0.00000000000E+00  0.68350720319E+03  0.23730630405E+04  0.22724977662E+04 0.  0.
        1    1    3    3  502    0  0.10612564986E+04  0.37567091723E+03  0.18110302690E+03  0.11402597512E+04  0.50400001928E-02 0.  1.
       -1    1    3    3    0  502 -0.10612564986E+04 -0.37567091723E+03  0.50240417629E+03  0.12328032893E+04  0.50400001928E-02 0. -1.
</event>
<event>
 5   0  0.6814789E-05  0.2311147E+04  0.7818609E-02  0.8473539E-01
        2   -1    0    0  501    0  0.00000000000E+00  0.00000000000E+00  0.16304425394E+04  0.16304425394E+04  0.25500000920E-02 0. -1.
       -2   -1    0    0    0  501  0.00000000000E+00  0.00000000000E+00 -0.81901089549E+03  0.81901089550E+03  0.25500000920E-02 0.  1.
    10030    2    1    2    0    0  0.00000000000E+00  0.00000000000E+00  0.81143164390E+03  0.24494534349E+04  0.23111470782E+04 0.  0.
        1    1    3    3  502    0 -0.43294381572E+03  0.45823184440E+03  0.14321417452E+04  0.15647513378E+04  0.50400001928E-02 0. -1.
       -1    1    3    3    0  502  0.43294381572E+03 -0.45823184440E+03 -0.62071010127E+03  0.88470209711E+03  0.50400001928E-02 0.  1.
</event>
<event>
 5   0  0.6468758E-05  0.2290674E+04  0.7818609E-02  0.8481607E-01
        2   -1    0    0  501    0  0.00000000000E+00  0.00000000000E+00  0.18038095470E+04  0.18038095470E+04  0.25500000920E-02 0. -1.
       -2   -1    0    0    0  501  0.00000000000E+00  0.00000000000E+00 -0.72723658785E+03  0.72723658785E+03  0.25500000920E-02 0.  1.
    10030    2    1    2    0    0  0.00000000000E+00  0.00000000000E+00  0.10765729592E+04  0.25310461349E+04  0.22906735255E+04 0.  0.
        3    1    3    3  502    0 -0.41567759925E+02 -0.10643295167E+04  0.73069214624E+02  0.10676442850E+04  0.10100000352E+00 0.  1.
       -3    1    3    3    0  502  0.41567759925E+02  0.10643295167E+04  0.10035037446E+04  0.14634018499E+04  0.10100000352E+00 0. -1.
</event>
<event>
 5   0  0.2982385E-05  0.2328172E+04  0.7818609E-02  0.8466895E-01
        1   -1    0    0  501    0  0.00000000000E+00  0.00000000000E+00  0.13941295754E+04  0.13941295754E+04  0.50400001928E-02 0. -1.
       -1   -1    0    0    0  501  0.00000000000E+00  0.00000000000E+00 -0.97200191714E+03  0.97200191715E+03  0.50400001928E-02 0.  1.
    10030    2    1    2    0    0  0.00000000000E+00  0.00000000000E+00  0.42212765822E+03  0.23661314925E+04  0.23281723476E+04 0.  0.
        4    1    3    3  502    0 -0.10416455001E+04 -0.31267673302E+03 -0.21079784125E+03  0.11078038770E+04  0.12699999809E+01 0.  1.
       -4    1    3    3    0  502  0.10416455001E+04  0.31267673302E+03  0.63292549947E+03  0.12583276155E+04  0.12699999809E+01 0. -1.
</event>
<event>
 5   0  0.6468758E-05  0.2279232E+04  0.7818609E-02  0.8486155E-01
       -2   -1    0    0    0  501  0.00000000000E+00  0.00000000000E+00  0.12014236120E+04  0.12014236120E+04  0.25500000920E-02 0. -1.
        2   -1    0    0  501    0  0.00000000000E+00  0.00000000000E+00 -0.10809882573E+04  0.10809882573E+04  0.25500000920E-02 0.  1.
    10030    2    1    2    0    0  0.00000000000E+00  0.00000000000E+00  0.12043535468E+03  0.22824118693E+04  0.22792321659E+04 0.  0.
        3    1    3    3  502    0 -0.17125337253E+03 -0.81785974693E+03  0.83621973004E+03  0.11821530063E+04  0.10100000352E+00 0. -1.
       -3    1    3    3    0  502  0.17125337253E+03  0.81785974693E+03 -0.71578437536E+03  0.11002588629E+04  0.10100000352E+00 0.  1.
</event>
<event>
 5   0  0.3006265E-05  0.2283525E+04  0.7818609E-02  0.8484445E-01
        1   -1    0    0  501    0  0.00000000000E+00  0.00000000000E+00  0.22326506318E+04  0.22326506319E+04  0.50400001928E-02 0. -1.
       -1   -1    0    0    0  501  0.00000000000E+00  0.00000000000E+00 -0.58388977185E+03  0.58388977187E+03  0.50400001928E-02 0.  1.
    10030    2    1    2    0    0  0.00000000000E+00  0.00000000000E+00  0.16487608600E+04  0.28165404037E+04  0.22835252292E+04 0.  0.
        2    1    3    3  502    0 -0.29024955453E+03 -0.32799355062E+03  0.21249182255E+04  0.21695856836E+04  0.25500000920E-02 0. -1.
       -2    1    3    3    0  502  0.29024955453E+03  0.32799355062E+03 -0.47615736554E+03  0.64695472015E+03  0.25500000920E-02 0.  1.
</event>
<event>
 5   0  0.6495405E-05  0.2152423E+04  0.7818609E-02  0.8538496E-01
       -2   -1    0    0    0  501  0.00000000000E+00  0.00000000000E+00  0.68555583969E+03  0.68555583970E+03  0.25500000920E-02 0. -1.
        2   -1    0    0  501    0  0.00000000000E+00  0.00000000000E+00 -0.16894778751E+04  0.16894778751E+04  0.25500000920E-02 0.  1.
    10030    2    1    2    0    0  0.00000000000E+00  0.00000000000E+00 -0.10039220354E+04  0.23750337148E+04  0.21524232143E+04 0.  0.
        5    1    3    3  502    0 -0.25508856984E+03 -0.81053957814E+03  0.22677022978E+03  0.87948360605E+03  0.46999998093E+01 0. -1.
       -5    1    3    3    0  502  0.25508856984E+03  0.81053957814E+03 -0.12306922652E+04  0.14955501088E+04  0.46999998093E+01 0.  1.
</event>
<event>
 5   0  0.6468758E-05  0.2313141E+04  0.7818609E-02  0.8472758E-01
        2   -1    0    0  501    0  0.00000000000E+00  0.00000000000E+00  0.21915206464E+04  0.21915206464E+04  0.25500000920E-02 0. -1.
       -2   -1    0    0    0  501  0.00000000000E+00  0.00000000000E+00 -0.61037743838E+03  0.61037743839E+03  0.25500000920E-02 0.  1.
    10030    2    1    2    0    0  0.00000000000E+00  0.00000000000E+00  0.15811432080E+04  0.28018980848E+04  0.23131405131E+04 0.  0.
        3    1    3    3  502    0  0.78719692401E+03 -0.40100923420E+03  0.16947271422E+04  0.19111743771E+04  0.10100000352E+00 0. -1.
       -3    1    3    3    0  502 -0.78719692401E+03  0.40100923420E+03 -0.11358393418E+03  0.89072370766E+03  0.10100000352E+00 0.  1.
</event>
<event>
 5   0  0.3006265E-05  0.2004782E+04  0.7818609E-02  0.8604388E-01
        1   -1    0    0  501    0  0.00000000000E+00  0.00000000000E+00  0.14497947079E+04  0.14497947079E+04  0.50400001928E-02 0.  1.
       -1   -1    0    0    0  501  0.00000000000E+00  0.00000000000E+00 -0.69305505637E+03  0.69305505638E+03  0.50400001928E-02 0. -1.
    10030    2    1    2    0    0  0.00000000000E+00  0.00000000000E+00  0.75673965155E+03  0.21428497643E+04  0.20047818366E+04 0.  0.
        2    1    3    3  502    0  0.32502700952E+03  0.56051105932E+03 -0.43913866776E+03  0.78272471155E+03  0.25500000920E-02 0. -1.
       -2    1    3    3    0  502 -0.32502700952E+03 -0.56051105932E+03  0.11958783193E+04  0.13601250528E+04  0.25500000920E-02 0.  1.
</event>
<event>
 5   0  0.3006265E-05  0.2295534E+04  0.7818609E-02  0.8479684E-01
        1   -1    0    0  501    0  0.00000000000E+00  0.00000000000E+00  0.15904302564E+04  0.15904302564E+04  0.50400001928E-02 0. -1.
       -1   -1    0    0    0  501  0.00000000000E+00  0.00000000000E+00 -0.82830992456E+03  0.82830992458E+03  0.50400001928E-02 0.  1.
    10030    2    1    2    0    0  0.00000000000E+00  0.00000000000E+00  0.76212033183E+03  0.24187401810E+04  0.22955340692E+04 0.  0.
        2    1    3    3  502    0  0.95613245931E+03 -0.33303698963E+03 -0.18857239984E+03  0.10298846859E+04  0.25500000920E-02 0.  1.
       -2    1    3    3    0  502 -0.95613245931E+03  0.33303698963E+03  0.95069273168E+03  0.13888554951E+04  0.25500000920E-02 0. -1.
</event>
<event>
 5   0  0.2944089E-05  0.1710686E+04  0.7818609E-02  0.8755293E-01
        1   -1    0    0  501    0  0.00000000000E+00  0.00000000000E+00  0.11987148850E+04  0.11987148850E+04  0.50400001928E-02 0. -1.
       -1   -1    0    0    0  501  0.00000000000E+00  0.00000000000E+00 -0.61033020651E+03  0.61033020653E+03  0.50400001928E-02 0.  1.
    10030    2    1    2    0    0  0.00000000000E+00  0.00000000000E+00  0.58838467844E+03  0.18090450915E+04  0.17106862989E+04 0.  0.
        5    1    3    3  502    0 -0.13959886532E+03  0.67101157967E+03  0.83532221785E+03  0.10805228738E+04  0.46999998093E+01 0.  1.
       -5    1    3    3    0  502  0.13959886532E+03 -0.67101157967E+03 -0.24693753941E+03  0.72852221766E+03  0.46999998093E+01 0. -1.
</event>
<event>
 5   0  0.6676612E-05  0.2296286E+04  0.7818609E-02  0.8479387E-01
        2   -1    0    0  501    0  0.00000000000E+00  0.00000000000E+00  0.33355905594E+04  0.33355905594E+04  0.25500000920E-02 0. -1.
       -2   -1    0    0    0  501  0.00000000000E+00  0.00000000000E+00 -0.39520193302E+03  0.39520193303E+03  0.25500000920E-02 0.  1.
    10030    2    1    2    0    0  0.00000000000E+00  0.00000000000E+00  0.29403886263E+04  0.37307924924E+04  0.22962855544E+04 0.  0.
        2    1    3    3  502    0 -0.10619165377E+04 -0.14661527358E+03  0.21382417102E+04  0.23919114497E+04  0.25500000920E-02 0. -1.
       -2    1    3    3    0  502  0.10619165377E+04  0.14661527358E+03  0.80214691611E+03  0.13388810427E+04  0.25500000920E-02 0.  1.
</event>
<event>
 5   0  0.6676612E-05  0.2299048E+04  0.7818609E-02  0.8478296E-01
       -2   -1    0    0    0  501  0.00000000000E+00  0.00000000000E+00  0.84196408258E+03  0.84196408258E+03  0.25500000920E-02 0.  1.
        2   -1    0    0  501    0  0.00000000000E+00  0.00000000000E+00 -0.15694326449E+04  0.15694326449E+04  0.25500000920E-02 0. -1.
    10030    2    1    2    0    0  0.00000000000E+00  0.00000000000E+00 -0.72746856236E+03  0.24113967275E+04  0.22990484267E+04 0.  0.
        2    1    3    3  502    0 -0.15083032605E+03 -0.94806429412E+03 -0.10269554170E+04  0.14057784753E+04  0.25500000920E-02 0.  1.
       -2    1    3    3    0  502  0.15083032605E+03  0.94806429412E+03  0.29948685468E+03  0.10056182522E+04  0.25500000920E-02 0. -1.
</event>
<event>
 5   0  0.3118614E-05  0.2250532E+04  0.7818609E-02  0.8497685E-01
        1   -1    0    0  501    0  0.00000000000E+00  0.00000000000E+00  0.19063926107E+04  0.19063926107E+04  0.50400001928E-02 0. -1.
       -1   -1    0    0    0  501  0.00000000000E+00  0.00000000000E+00 -0.66419897427E+03  0.66419897429E+03  0.50400001928E-02 0.  1.
    10030    2    1    2    0    0  0.00000000000E+00  0.00000000000E+00  0.12421936365E+04  0.25705915850E+04  0.22505323962E+04 0.  0.
        3    1    3    3  502    0  0.74636977571E+03 -0.41576866547E+03 -0.21536997981E+03  0.88108777297E+03  0.10100000352E+00 0.  1.
       -3    1    3    3    0  502 -0.74636977571E+03  0.41576866547E+03  0.14575636163E+04  0.16895038121E+04  0.10100000352E+00 0. -1.
</event>
<event>
 5   0  0.6702421E-05  0.2307719E+04  0.7818609E-02  0.8474884E-01
       -2   -1    0    0    0  501  0.00000000000E+00  0.00000000000E+00  0.41513354203E+03  0.41513354203E+03  0.25500000920E-02 0.  1.
        2   -1    0    0  501    0  0.00000000000E+00  0.00000000000E+00 -0.32071399934E+04  0.32071399934E+04  0.25500000920E-02 0. -1.
    10030    2    1    2    0    0  0.00000000000E+00  0.00000000000E+00 -0.27920064514E+04  0.36222735354E+04  0.23077186876E+04 0.  0.
        4    1    3    3  502    0  0.43165092316E+03 -0.10215761694E+04 -0.89605724535E+03  0.14257842015E+04  0.12699999809E+01 0.  1.
       -4    1    3    3    0  502 -0.43165092316E+03  0.10215761694E+04 -0.18959492060E+04  0.21964893339E+04  0.12699999809E+01 0. -1.
</event>
<event>
 5   0  0.2962279E-05  0.2313435E+04  0.7818609E-02  0.8472643E-01
       -1   -1    0    0    0  501  0.00000000000E+00  0.00000000000E+00  0.10779297482E+04  0.10779297482E+04  0.50400001928E-02 0.  1.
        1   -1    0    0  501    0  0.00000000000E+00  0.00000000000E+00 -0.12412641361E+04  0.12412641361E+04  0.50400001928E-02 0. -1.
    10030    2    1    2    0    0  0.00000000000E+00  0.00000000000E+00 -0.16333438788E+03  0.23191938842E+04  0.23134351408E+04 0.  0.
        1    1    3    3  502    0  0.15612538758E+03  0.43636285438E+03 -0.11441203622E+04  0.12344225697E+04  0.50400001928E-02 0. -1.
       -1    1    3    3    0  502 -0.15612538758E+03 -0.43636285438E+03  0.98078597435E+03  0.10847713145E+04  0.50400001928E-02 0.  1.
</event>
<event>
 5   0  0.6676612E-05  0.2283674E+04  0.7818609E-02  0.8484386E-01
        2   -1    0    0  501    0  0.00000000000E+00  0.00000000000E+00  0.17499874070E+04  0.17499874070E+04  0.25500000920E-02 0. -1.
       -2   -1    0    0    0  501  0.00000000000E+00  0.00000000000E+00 -0.74502929554E+03  0.74502929555E+03  0.25500000920E-02 0.  1.
    10030    2    1    2    0    0  0.00000000000E+00  0.00000000000E+00  0.10049581115E+04  0.24950167026E+04  0.22836741318E+04 0.  0.
        2    1    3    3  502    0 -0.39084593546E+03  0.16496274373E+03 -0.65573128756E+03  0.78099729422E+03  0.25500000920E-02 0.  1.
       -2    1    3    3    0  502  0.39084593546E+03 -0.16496274373E+03  0.16606893990E+04  0.17140194083E+04  0.25500000920E-02 0. -1.
</event>
<event>
 5   0  0.3118614E-05  0.2125494E+04  0.7818609E-02  0.8550095E-01
       -1   -1    0    0    0  501  0.00000000000E+00  0.00000000000E+00  0.57699444712E+03  0.57699444714E+03  0.50400001928E-02 0. -1.
        1   -1    0    0  501    0  0.00000000000E+00  0.00000000000E+00 -0.19574394033E+04  0.19574394033E+04  0.50400001928E-02 0.  1.
    10030    2    1    2    0    0  0.00000000000E+00  0.00000000000E+00 -0.13804449562E+04  0.25344338505E+04  0.21254944520E+04 0.  0.
        3    1    3    3  502    0  0.82339319175E+03 -0.67110014256E+03 -0.65103799911E+03  0.12458740851E+04  0.10100000352E+00 0. -1.
       -3    1    3    3    0  502 -0.82339319175E+03  0.67110014256E+03 -0.72940695711E+03  0.12885597653E+04  0.10100000352E+00 0.  1.
</event>
<event>
 5   0  0.6814789E-05  0.2307156E+04  0.7818609E-02  0.8475105E-01
       -2   -1    0    0    0  501  0.00000000000E+00  0.00000000000E+00  0.92618203392E+03  0.92618203392E+03  0.25500000920E-02 0. -1.
        2   -1    0    0  501    0  0.00000000000E+00  0.00000000000E+00 -0.14368043288E+04  0.14368043288E+04  0.25500000920E-02 0.  1.
    10030    2    1    2    0    0  0.00000000000E+00  0.00000000000E+00 -0.51062229490E+03  0.23629863627E+04  0.23071561331E+04 0.  0.
        1    1    3    3  502    0 -0.57948329577E+03 -0.60322755339E+03 -0.10689259896E+04  0.13573087868E+04  0.50400001928E-02 0.  1.
       -1    1    3    3    0  502  0.57948329577E+03  0.60322755339E+03  0.55830369475E+03  0.10056775760E+04  0.50400001928E-02 0. -1.
</event>
<event>
 5   0  0.6495405E-05  0.2286585E+04  0.7818609E-02  0.8483229E-01
        2   -1    0    0  501    0  0.00000000000E+00  0.00000000000E+00  0.94846634688E+03  0.94846634689E+03  0.25500000920E-02 0.  1.
       -2   -1    0    0    0  501  0.00000000000E+00  0.00000000000E+00 -0.13781379111E+04  0.13781379111E+04  0.25500000920E-02 0. -1.
    10030    2    1    2    0    0  0.00000000000E+00  0.00000000000E+00 -0.42967156423E+03  0.23266042580E+04  0.22865847284E+04 0.  0.
        5    1    3    3  502    0  0.11447962093E+03 -0.10466941301E+04 -0.66807679985E+03  0.12470055678E+04  0.46999998093E+01 0. -1.
       -5    1    3    3    0  502 -0.11447962093E+03  0.10466941301E+04  0.23840523562E+03  0.10795986902E+04  0.46999998093E+01 0.  1.
</event>
<event>
 5   0  0.2962279E-05  0.2326549E+04  0.7818609E-02  0.8467526E-01
       -1   -1    0    0    0  501  0.00000000000E+00  0.00000000000E+00  0.11031400731E+04  0.11031400731E+04  0.50400001928E-02 0.  1.
        1   -1    0    0  501    0  0.00000000000E+00  0.00000000000E+00 -0.12266867249E+04  0.12266867250E+04  0.50400001928E-02 0. -1.
    10030    2    1    2    0    0  0.00000000000E+00  0.00000000000E+00 -0.12354665182E+03  0.23298267981E+04  0.23265487603E+04 0.  0.
        1    1    3    3  502    0 -0.87099259311E+03 -0.46362741831E+03 -0.67878169552E+03  0.11976322768E+04  0.50400001928E-02 0. -1.
       -1    1    3    3    0  502  0.87099259311E+03  0.46362741831E+03  0.55523504370E+03  0.11321945213E+04  0.50400001928E-02 0.  1.
</event>
<event>
 5   0  0.2982385E-05  0.2316685E+04  0.7818609E-02  0.8471371E-01
        1   -1    0    0  501    0  0.00000000000E+00  0.00000000000E+00  0.17892475260E+04  0.17892475260E+04  0.50400001928E-02 0.  1.
       -1   -1    0    0    0  501  0.00000000000E+00  0.00000000000E+00 -0.74990041603E+03  0.74990041605E+03  0.50400001928E-02 0. -1.
    10030    2    1    2    0    0  0.00000000000E+00  0.00000000000E+00  0.10393471099E+04  0.25391479420E+04  0.23166851009E+04 0.  0.
        4    1    3    3  502    0  0.43640672637E+03  0.42949696399E+03 -0.55802603083E+03  0.82844018304E+03  0.12699999809E+01 0. -1.
       -4    1    3    3    0  502 -0.43640672637E+03 -0.42949696399E+03  0.15973731408E+04  0.17107077590E+04  0.12699999809E+01 0.  1.
</event>
<event>
 5   0  0.2982385E-05  0.2358331E+04  0.7818609E-02  0.8455271E-01
       -1   -1    0    0    0  501  0.00000000000E+00  0.00000000000E+00  0.80157897610E+03  0.80157897611E+03  0.50400001928E-02 0. -1.
        1   -1    0    0  501    0  0.00000000000E+00  0.00000000000E+00 -0.17346156242E+04  0.17346156242E+04  0.50400001928E-02 0.  1.
    10030    2    1    2    0    0  0.00000000000E+00  0.00000000000E+00 -0.93303664810E+03  0.25361946003E+04  0.23583311184E+04 0.  0.
        4    1    3    3  502    0 -0.76303647411E+03  0.89870214400E+03 -0.44153712867E+03  0.12589070074E+04  0.12699999809E+01 0. -1.
       -4    1    3    3    0  502  0.76303647411E+03 -0.89870214400E+03 -0.49149951942E+03  0.12772875929E+04  0.12699999809E+01 0.  1.
</event>
<event>
 5   0  0.6676612E-05  0.1891993E+04  0.7818609E-02  0.8658852E-01
        2   -1    0    0  501    0  0.00000000000E+00  0.00000000000E+00  0.27660931616E+04  0.27660931616E+04  0.25500000920E-02 0. -1.
       -2   -1    0    0    0  501  0.00000000000E+00  0.00000000000E+00 -0.32352827703E+03  0.32352827704E+03  0.25500000920E-02 0.  1.
    10030    2    1    2    0    0  0.00000000000E+00  0.00000000000E+00  0.24425648846E+04  0.30896214387E+04  0.18919929754E+04 0.  0.
        2    1    3    3  502    0 -0.36717191186E+03 -0.28900455259E+03  0.25644873890E+04  0.26067094991E+04  0.25500000920E-02 0. -1.
       -2    1    3    3    0  502  0.36717191186E+03  0.28900455259E+03 -0.12192250443E+03  0.48291193956E+03  0.25500000920E-02 0.  1.
</event>
<event>
 5   0  0.6676612E-05  0.2321580E+04  0.7818609E-02  0.8469461E-01
        2   -1    0    0  501    0  0.00000000000E+00  0.00000000000E+00  0.20227030864E+04  0.20227030864E+04  0.25500000920E-02 0.  1.
       -2   -1    0    0    0  501  0.00000000000E+00  0.00000000000E+00 -0.66615488821E+03  0.66615488822E+03  0.25500000920E-02 0. -1.
    10030    2    1    2    0    0  0.00000000000E+00  0.00000000000E+00  0.13565481982E+04  0.26888579746E+04  0.23215801071E+04 0.  0.
        2    1    3    3  502    0 -0.10483317915E+04  0.22200807697E+03  0.16141705654E+03  0.10836708898E+04  0.25500000920E-02 0. -1.
       -2    1    3    3    0  502  0.10483317915E+04 -0.22200807697E+03  0.11951311416E+04  0.16051870848E+04  0.25500000920E-02 0.  1.
</event>
<event>
 5   0  0.6702421E-05  0.2282592E+04  0.7818609E-02  0.8484817E-01
        2   -1    0    0  501    0  0.00000000000E+00  0.00000000000E+00  0.93703984840E+03  0.93703984840E+03  0.25500000920E-02 0. -1.
       -2   -1    0    0    0  501  0.00000000000E+00  0.00000000000E+00 -0.13900755626E+04  0.13900755626E+04  0.25500000920E-02 0.  1.
    10030    2    1    2    0    0  0.00000000000E+00  0.00000000000E+00 -0.45303571420E+03  0.23271154110E+04  0.22825916800E+04 0.  0.
        4    1    3    3  502    0  0.98995602546E+03 -0.36738490987E+03 -0.66805918062E+03  0.12495156206E+04  0.12699999809E+01 0.  1.
       -4    1    3    3    0  502 -0.98995602546E+03  0.36738490987E+03  0.21502346642E+03  0.10775997904E+04  0.12699999809E+01 0. -1.
</event>
<event>
 5   0  0.6495405E-05  0.2199468E+04  0.7818609E-02  0.8518650E-01
        2   -1    0    0  501    0  0.00000000000E+00  0.00000000000E+00  0.24875211977E+04  0.24875211977E+04  0.25500000920E-02 0. -1.
       -2   -1    0    0    0  501  0.00000000000E+00  0.00000000000E+00 -0.48619276137E+03  0.48619276138E+03  0.25500000920E-02 0.  1.
    10030    2    1    2    0    0  0.00000000000E+00  0.00000000000E+00  0.20013284363E+04  0.29737139591E+04  0.21994679357E+04 0.  0.
        5    1    3    3  502    0  0.46322908933E+03 -0.59474967118E+03  0.20831922316E+04  0.22154052280E+04  0.46999998093E+01 0. -1.
       -5    1    3    3    0  502 -0.46322908933E+03  0.59474967118E+03 -0.81863795293E+02  0.75830873103E+03  0.46999998093E+01 0.  1.
</event>
<event>
 5   0  0.6676612E-05  0.2246195E+04  0.7818609E-02  0.8499443E-01
       -2   -1    0    0    0  501  0.00000000000E+00  0.00000000000E+00  0.67193005825E+03  0.67193005826E+03  0.25500000920E-02 0. -1.
        2   -1    0    0  501    0  0.00000000000E+00  0.00000000000E+00 -0.18772008707E+04  0.18772008707E+04  0.25500000920E-02 0.  1.
    10030    2    1    2    0    0  0.00000000000E+00  0.00000000000E+00 -0.12052708125E+04  0.25491309290E+04  0.22461947293E+04 0.  0.
        2    1    3    3  502    0 -0.27642584985E+03  0.31976295267E+03  0.57821917562E+03  0.71623809688E+03  0.25500000920E-02 0. -1.
       -2    1    3    3    0  502  0.27642584985E+03 -0.31976295267E+03 -0.17834899881E+04  0.18328928321E+04  0.25500000920E-02 0.  1.
</event>
<event>
 5   0  0.6814789E-05  0.2181357E+04  0.7818609E-02  0.8526228E-01
       -2   -1    0    0    0  501  0.00000000000E+00  0.00000000000E+00  0.10743490164E+04  0.10743490164E+04  0.25500000920E-02 0. -1.
        2   -1    0    0  501    0  0.00000000000E+00  0.00000000000E+00 -0.11072562405E+04  0.11072562405E+04  0.25500000920E-02 0.  1.
    10030    2    1    2    0    0  0.00000000000E+00  0.00000000000E+00 -0.32907224149E+02  0.21816052569E+04  0.21813570573E+04 0.  0.
        1    1    3    3  502    0 -0.20223540346E+03  0.71687146586E+02 -0.10859402607E+04  0.11069347114E+04  0.50400001928E-02 0.  1.
       -1    1    3    3    0  502  0.20223540346E+03 -0.71687146586E+02  0.10530330365E+04  0.10746705456E+04  0.50400001928E-02 0. -1.
</event>
<event>
 5   0  0.6702421E-05  0.2281086E+04  0.7818609E-02  0.8485416E-01
        2   -1    0    0  501    0  0.00000000000E+00  0.00000000000E+00  0.16363394544E+04  0.16363394544E+04  0.25500000920E-02 0.  1.
       -2   -1    0    0    0  501  0.00000000000E+00  0.00000000000E+00 -0.79496824853E+03  0.79496824853E+03  0.25500000920E-02 0. -1.
    10030    2    1    2    0    0  0.00000000000E+00  0.00000000000E+00  0.84137120584E+03  0.24313077029E+04  0.22810856275E+04 0.  0.
        4    1    3    3  502    0  0.58475882983E+03 -0.27098279836E+03 -0.58227352655E+03  0.86857275959E+03  0.12699999809E+01 0. -1.
       -4    1    3    3    0  502 -0.58475882983E+03  0.27098279836E+03  0.14236447324E+04  0.15627349433E+04  0.12699999809E+01 0.  1.
</event>
<event>
 5   0  0.6702421E-05  0.2246047E+04  0.7818609E-02  0.8499503E-01
        2   -1    0    0  501    0  0.00000000000E+00  0.00000000000E+00  0.13721837738E+04  0.13721837738E+04  0.25500000920E-02 0. -1.
       -2   -1    0    0    0  501  0.00000000000E+00  0.00000000000E+00 -0.91910536924E+03  0.91910536925E+03  0.25500000920E-02 0.  1.
    10030    2    1    2    0    0  0.00000000000E+00  0.00000000000E+00  0.45307840452E+03  0.22912891430E+04  0.22460467262E+04 0.  0.
        4    1    3    3  502    0 -0.44312671344E+03 -0.93988826479E+03  0.66106345053E+03  0.12315671857E+04  0.12699999809E+01 0. -1.
       -4    1    3    3    0  502  0.44312671344E+03  0.93988826479E+03 -0.20798504601E+03  0.10597219573E+04  0.12699999809E+01 0.  1.
</event>
<event>
 5   0  0.6495405E-05  0.2244474E+04  0.7818609E-02  0.8500142E-01
        2   -1    0    0  501    0  0.00000000000E+00  0.00000000000E+00  0.21935296497E+04  0.21935296497E+04  0.25500000920E-02 0.  1.
       -2   -1    0    0    0  501  0.00000000000E+00  0.00000000000E+00 -0.57415033556E+03  0.57415033557E+03  0.25500000920E-02 0. -1.
    10030    2    1    2    0    0  0.00000000000E+00  0.00000000000E+00  0.16193793141E+04  0.27676799853E+04  0.22444739111E+04 0.  0.
        5    1    3    3  502    0  0.10713125356E+04  0.31233857110E+03  0.95625726633E+03  0.14695972174E+04  0.46999998093E+01 0.  1.
       -5    1    3    3    0  502 -0.10713125356E+04 -0.31233857110E+03  0.66312204781E+03  0.12980827679E+04  0.46999998093E+01 0. -1.
</event>
<event>
 5   0  0.2982385E-05  0.2291269E+04  0.7818609E-02  0.8481371E-01
        1   -1    0    0  501    0  0.00000000000E+00  0.00000000000E+00  0.14717185786E+04  0.14717185786E+04  0.50400001928E-02 0.  1.
       -1   -1    0    0    0  501  0.00000000000E+00  0.00000000000E+00 -0.89180023023E+03  0.89180023025E+03  0.50400001928E-02 0. -1.
    10030    2    1    2    0    0  0.00000000000E+00  0.00000000000E+00  0.57991834834E+03  0.23635188088E+04  0.22912694885E+04 0.  0.
        4    1    3    3  502    0  0.16999025504E+02 -0.15219501539E+03 -0.88119365521E+03  0.89440268361E+03  0.12699999809E+01 0. -1.
       -4    1    3    3    0  502 -0.16999025504E+02  0.15219501539E+03  0.14611120035E+04  0.14691161252E+04  0.12699999809E+01 0.  1.
</event>
<event>
 5   0  0.6495405E-05  0.2276169E+04  0.7818609E-02  0.8487377E-01
        2   -1    0    0  501    0  0.00000000000E+00  0.00000000000E+00  0.20840737825E+04  0.20840737825E+04  0.25500000920E-02 0. -1.
       -2   -1    0    0    0  501  0.00000000000E+00  0.00000000000E+00 -0.62149265148E+03  0.62149265148E+03  0.25500000920E-02 0.  1.
    10030    2    1    2    0    0  0.00000000000E+00  0.00000000000E+00  0.14625811310E+04  0.27055664340E+04  0.22761691861E+04 0.  0.
        5    1    3    3  502    0  0.50184432384E+03 -0.16224884222E+03 -0.46744423867E+03  0.70476848570E+03  0.46999998093E+01 0.  1.
       -5    1    3    3    0  502 -0.50184432384E+03  0.16224884222E+03  0.19300253697E+04  0.20007979483E+04  0.46999998093E+01 0. -1.
</event>
<event>
 5   0  0.6468758E-05  0.2264536E+04  0.7818609E-02  0.8492037E-01
        2   -1    0    0  501    0  0.00000000000E+00  0.00000000000E+00  0.15556807406E+04  0.15556807406E+04  0.25500000920E-02 0.  1.
       -2   -1    0    0    0  501  0.00000000000E+00  0.00000000000E+00 -0.82409602999E+03  0.82409602999E+03  0.25500000920E-02 0. -1.
    10030    2    1    2    0    0  0.00000000000E+00  0.00000000000E+00  0.73158471057E+03  0.23797767706E+04  0.22645355570E+04 0.  0.
        3    1    3    3  502    0 -0.11263894704E+04 -0.46916384133E+02  0.25519440003E+03  0.11558886530E+04  0.10100000352E+00 0. -1.
       -3    1    3    3    0  502  0.11263894704E+04  0.46916384133E+02  0.47639031053E+03  0.12238881176E+04  0.10100000352E+00 0.  1.
</event>
<event>
 5   0  0.6495405E-05  0.2320928E+04  0.7818609E-02  0.8469715E-01
       -2   -1    0    0    0  501  0.00000000000E+00  0.00000000000E+00  0.77607650198E+03  0.77607650198E+03  0.25500000920E-02 0.  1.
        2   -1    0    0  501    0  0.00000000000E+00  0.00000000000E+00 -0.17352363557E+04  0.17352363557E+04  0.25500000920E-02 0. -1.
    10030    2    1    2    0    0  0.00000000000E+00  0.00000000000E+00 -0.95915985368E+03  0.25113128576E+04  0.23209275396E+04 0.  0.
        5    1    3    3  502    0 -0.50786286977E+03 -0.97789026316E+03 -0.85774560687E+02  0.11052481289E+04  0.46999998093E+01 0.  1.
       -5    1    3    3    0  502  0.50786286977E+03  0.97789026316E+03 -0.87338529299E+03  0.14060647287E+04  0.46999998093E+01 0. -1.
</event>
<event>
 5   0  0.2962279E-05  0.2298740E+04  0.7818609E-02  0.8478418E-01
       -1   -1    0    0    0  501  0.00000000000E+00  0.00000000000E+00  0.73843789113E+03  0.73843789114E+03  0.50400001928E-02 0.  1.
        1   -1    0    0  501    0  0.00000000000E+00  0.00000000000E+00 -0.17889812012E+04  0.17889812012E+04  0.50400001928E-02 0. -1.
    10030    2    1    2    0    0  0.00000000000E+00  0.00000000000E+00 -0.10505433101E+04  0.25274190923E+04  0.22987400945E+04 0.  0.
        1    1    3    3  502    0 -0.19835520869E+03 -0.38579311299E+03 -0.16955185676E+04  0.17501326601E+04  0.50400001928E-02 0. -1.
       -1    1    3    3    0  502  0.19835520869E+03  0.38579311299E+03  0.64497525755E+03  0.77728643223E+03  0.50400001928E-02 0.  1.
</event>
<event>
 5   0  0.2944089E-05  0.2352122E+04  0.7818609E-02  0.8457649E-01
        1   -1    0    0  501    0  0.00000000000E+00  0.00000000000E+00  0.12208853628E+04  0.12208853628E+04  0.50400001928E-02 0. -1.
       -1   -1    0    0    0  501  0.00000000000E+00  0.00000000000E+00 -0.11328827592E+04  0.11328827592E+04  0.50400001928E-02 0.  1.
    10030    2    1    2    0    0  0.00000000000E+00  0.00000000000E+00  0.88002603676E+02  0.23537681220E+04  0.23521224275E+04 0.  0.
        5    1    3    3  502    0 -0.54159936836E+03 -0.87493349529E+03 -0.52583489853E+03  0.11555790442E+04  0.46999998093E+01 0.  1.
       -5    1    3    3    0  502  0.54159936836E+03  0.87493349529E+03  0.61383750221E+03  0.11981890778E+04  0.46999998093E+01 0. -1.
</event>
<event>
 5   0  0.2944089E-05  0.2274189E+04  0.7818609E-02  0.8488168E-01
       -1   -1    0    0    0  501  0.00000000000E+00  0.00000000000E+00  0.10025592046E+04  0.10025592046E+04  0.50400001928E-02 0.  1.
        1   -1    0    0  501    0  0.00000000000E+00  0.00000000000E+00 -0.12896835255E+04  0.12896835255E+04  0.50400001928E-02 0. -1.
    10030    2    1    2    0    0  0.00000000000E+00  0.00000000000E+00 -0.28712432093E+03  0.22922427301E+04  0.22741891650E+04 0.  0.
        5    1    3    3  502    0 -0.30374861274E+03  0.43650203247E+02  0.96002387596E+03  0.10078871427E+04  0.46999998093E+01 0.  1.
       -5    1    3    3    0  502  0.30374861274E+03 -0.43650203247E+02 -0.12471481969E+04  0.12843555874E+04  0.46999998093E+01 0. -1.
</event>
<event>
 5   0  0.6814789E-05  0.2362819E+04  0.7818609E-02  0.8453556E-01
        2   -1    0    0  501    0  0.00000000000E+00  0.00000000000E+00  0.15830115755E+04  0.15830115755E+04  0.25500000920E-02 0.  1.
       -2   -1    0    0    0  501  0.00000000000E+00  0.00000000000E+00 -0.88169181306E+03  0.88169181306E+03  0.25500000920E-02 0. -1.
    10030    2    1    2    0    0  0.00000000000E+00  0.00000000000E+00  0.70131976248E+03  0.24647033886E+04  0.23628189487E+04 0.  0.
        1    1    3    3  502    0  0.11398187546E+04  0.24606712685E+03  0.54855740303E+03  0.12886625038E+04  0.50400001928E-02 0. -1.
       -1    1    3    3    0  502 -0.11398187546E+04 -0.24606712685E+03  0.15276235944E+03  0.11760408848E+04  0.50400001928E-02 0.  1.
</event>
<event>
 5   0  0.6814789E-05  0.2300839E+04  0.7818609E-02  0.8477590E-01
       -2   -1    0    0    0  501  0.00000000000E+00  0.00000000000E+00  0.10786627307E+04  0.10786627307E+04  0.25500000920E-02 0. -1.
        2   -1    0    0  501    0  0.00000000000E+00  0.00000000000E+00 -0.12269501517E+04  0.12269501517E+04  0.25500000920E-02 0.  1.
    10030    2    1    2    0    0  0.00000000000E+00  0.00000000000E+00 -0.14828742098E+03  0.23056128824E+04  0.23008393260E+04 0.  0.
        1    1    3    3  502    0  0.18505296964E+03  0.96099278697E+03 -0.68014101319E+03  0.11917816646E+04  0.50400001928E-02 0.  1.
       -1    1    3    3    0  502 -0.18505296964E+03 -0.96099278697E+03  0.53185359222E+03  0.11138312178E+04  0.50400001928E-02 0. -1.
</event>
<event>
 5   0  0.2982385E-05  0.2287627E+04  0.7818609E-02  0.8482816E-01
       -1   -1    0    0    0  501  0.00000000000E+00  0.00000000000E+00  0.10263748490E+04  0.10263748490E+04  0.50400001928E-02 0. -1.
        1   -1    0    0  501    0  0.00000000000E+00  0.00000000000E+00 -0.12746896868E+04  0.12746896868E+04  0.50400001928E-02 0.  1.
    10030    2    1    2    0    0  0.00000000000E+00  0.00000000000E+00 -0.24831483782E+03  0.23010645359E+04  0.22876270980E+04 0.  0.
        4    1    3    3  502    0  0.67254956938E+03 -0.36597452786E+03 -0.97888253174E+03  0.12427682415E+04  0.12699999809E+01 0.  1.
       -4    1    3    3    0  502 -0.67254956938E+03  0.36597452786E+03  0.73056769392E+03  0.10582962943E+04  0.12699999809E+01 0. -1.
</event>
<event>
 5   0  0.6676612E-05  0.2295317E+04  0.7818609E-02  0.8479770E-01
        2   -1    0    0  501    0  0.00000000000E+00  0.00000000000E+00  0.20327558788E+04  0.20327558788E+04  0.25500000920E-02 0. -1.
       -2   -1    0    0    0  501  0.00000000000E+00  0.00000000000E+00 -0.64794805411E+03  0.64794805411E+03  0.25500000920E-02 0.  1.
    10030    2    1    2    0    0  0.00000000000E+00  0.00000000000E+00  0.13848078246E+04  0.26807039329E+04  0.22953171599E+04 0.  0.
        2    1    3    3  502    0 -0.86860562349E+03 -0.18035905122E+03  0.15427412232E+04  0.17796223190E+04  0.25500000920E-02 0. -1.
       -2    1    3    3    0  502  0.86860562349E+03  0.18035905122E+03 -0.15793339853E+03  0.90108161389E+03  0.25500000920E-02 0.  1.
</event>
<event>
 5   0  0.2342500E-05  0.2321519E+04  0.7818609E-02  0.8469485E-01
       -3   -1    0    0    0  501  0.00000000000E+00  0.00000000000E+00  0.19495265195E+04  0.19495265221E+04  0.10100000352E+00 0.  1.
        3   -1    0    0  501    0  0.00000000000E+00  0.00000000000E+00 -0.69112286593E+03  0.69112287331E+03  0.10100000352E+00 0. -1.
    10030    2    1    2    0    0  0.00000000000E+00  0.00000000000E+00  0.12584036535E+04  0.26406493954E+04  0.23215187861E+04 0.  0.
        3    1    3    3  502    0 -0.99132304582E+03 -0.52744932452E+03  0.29478250202E+03  0.11609568919E+04  0.10100000352E+00 0. -1.
       -3    1    3    3    0  502  0.99132304582E+03  0.52744932452E+03  0.96362115151E+03  0.14796925035E+04  0.10100000352E+00 0.  1.
</event>
<event>
 5   0  0.6495405E-05  0.2315641E+04  0.7818609E-02  0.8471779E-01
       -2   -1    0    0    0  501  0.00000000000E+00  0.00000000000E+00  0.72026655320E+03  0.72026655321E+03  0.25500000920E-02 0.  1.
        2   -1    0    0  501    0  0.00000000000E+00  0.00000000000E+00 -0.18611840851E+04  0.18611840851E+04  0.25500000920E-02 0. -1.
    10030    2    1    2    0    0  0.00000000000E+00  0.00000000000E+00 -0.11409175319E+04  0.25814506383E+04  0.23156412899E+04 0.  0.
        5    1    3    3  502    0 -0.58897243056E+03  0.64298834029E+03 -0.14196058239E+04  0.16660208027E+04  0.46999998093E+01 0. -1.
       -5    1    3    3    0  502  0.58897243056E+03 -0.64298834029E+03  0.27868829207E+03  0.91542983557E+03  0.46999998093E+01 0.  1.
</event>
<event>
 5   0  0.6495405E-05  0.2306698E+04  0.7818609E-02  0.8475285E-01
       -2   -1    0    0    0  501  0.00000000000E+00  0.00000000000E+00  0.61970717678E+03  0.61970717678E+03  0.25500000920E-02 0.  1.
        2   -1    0    0  501    0  0.00000000000E+00  0.00000000000E+00 -0.21465203971E+04  0.21465203971E+04  0.25500000920E-02 0. -1.
    10030    2    1    2    0    0  0.00000000000E+00  0.00000000000E+00 -0.15268132203E+04  0.27662275739E+04  0.23066981555E+04 0.  0.
        5    1    3    3  502    0 -0.11474978792E+04 -0.76556304333E+02 -0.86781243043E+03  0.14407403496E+04  0.46999998093E+01 0.  1.
       -5    1    3    3    0  502  0.11474978792E+04  0.76556304333E+02 -0.65900078989E+03  0.13254872243E+04  0.46999998093E+01 0. -1.
</event>
<event>
 5   0  0.2962279E-05  0.2296926E+04  0.7818609E-02  0.8479134E-01
        1   -1    0    0  501    0  0.00000000000E+00  0.00000000000E+00  0.17654106665E+04  0.17654106665E+04  0.50400001928E-02 0. -1.
       -1   -1    0    0    0  501  0.00000000000E+00  0.00000000000E+00 -0.74711666011E+03  0.74711666013E+03  0.50400001928E-02 0.  1.
    10030    2    1    2    0    0  0.00000000000E+00  0.00000000000E+00  0.10182940063E+04  0.25125273266E+04  0.22969263992E+04 0.  0.
        1    1    3    3  502    0 -0.25444006334E+03  0.28233280883E+03 -0.67633021655E+03  0.77580546699E+03  0.50400001928E-02 0.  1.
       -1    1    3    3    0  502  0.25444006334E+03 -0.28233280883E+03  0.16946242229E+04  0.17367218596E+04  0.50400001928E-02 0. -1.
</event>
<event>
 5   0  0.2982385E-05  0.2239460E+04  0.7818609E-02  0.8502181E-01
       -1   -1    0    0    0  501  0.00000000000E+00  0.00000000000E+00  0.56367119361E+03  0.56367119364E+03  0.50400001928E-02 0. -1.
        1   -1    0    0  501    0  0.00000000000E+00  0.00000000000E+00 -0.22243380086E+04  0.22243380086E+04  0.50400001928E-02 0.  1.
    10030    2    1    2    0    0  0.00000000000E+00  0.00000000000E+00 -0.16606668149E+04  0.27880092022E+04  0.22394599888E+04 0.  0.
        4    1    3    3  502    0  0.52196028573E+03  0.19261564362E+03 -0.20400801629E+04  0.21145855409E+04  0.12699999809E+01 0.  1.
       -4    1    3    3    0  502 -0.52196028573E+03 -0.19261564362E+03  0.37941334794E+03  0.67342366126E+03  0.12699999809E+01 0. -1.
</event>
<event>
 5   0  0.6468758E-05  0.1924801E+04  0.7818609E-02  0.8642609E-01
       -2   -1    0    0    0  501  0.00000000000E+00  0.00000000000E+00  0.33717764290E+03  0.33717764291E+03  0.25500000920E-02 0. -1.
        2   -1    0    0  501    0  0.00000000000E+00  0.00000000000E+00 -0.27469637187E+04  0.27469637187E+04  0.25500000920E-02 0.  1.
    10030    2    1    2    0    0  0.00000000000E+00  0.00000000000E+00 -0.24097860758E+04  0.30841413617E+04  0.19248010306E+04 0.  0.
        3    1    3    3  502    0  0.79191210043E+03 -0.17270378092E+03 -0.37344124835E+03  0.89241792167E+03  0.10100000352E+00 0. -1.
       -3    1    3    3    0  502 -0.79191210043E+03  0.17270378092E+03 -0.20363448275E+04  0.21917234400E+04  0.10100000352E+00 0.  1.
</event>
<event>
 5   0  0.6814789E-05  0.2307635E+04  0.7818609E-02  0.8474917E-01
       -2   -1    0    0    0  501  0.00000000000E+00  0.00000000000E+00  0.10929788078E+04  0.10929788078E+04  0.25500000920E-02 0. -1.
        2   -1    0    0  501    0  0.00000000000E+00  0.00000000000E+00 -0.12180426931E+04  0.12180426931E+04  0.25500000920E-02 0.  1.
    10030    2    1    2    0    0  0.00000000000E+00  0.00000000000E+00 -0.12506388532E+03  0.23110215009E+04  0.23076350236E+04 0.  0.
        1    1    3    3  502    0  0.88753867657E+03  0.73427093616E+03 -0.12908351224E+03  0.11591122738E+04  0.50400001928E-02 0. -1.
       -1    1    3    3    0  502 -0.88753867657E+03 -0.73427093616E+03  0.40196269145E+01  0.11519092271E+04  0.50400001928E-02 0.  1.
</event>
<event>
 5   0  0.6495405E-05  0.2291897E+04  0.7818609E-02  0.8481123E-01
        2   -1    0    0  501    0  0.00000000000E+00  0.00000000000E+00  0.10155605171E+04  0.10155605171E+04  0.25500000920E-02 0. -1.
       -2   -1    0    0    0  501  0.00000000000E+00  0.00000000000E+00 -0.12930774802E+04  0.12930774802E+04  0.25500000920E-02 0.  1.
    10030    2    1    2    0    0  0.00000000000E+00  0.00000000000E+00 -0.27751696316E+03  0.23086379973E+04  0.22918974099E+04 0.  0.
        5    1    3    3  502    0 -0.42021009943E+03 -0.10121695231E+04 -0.47603648607E+03  0.11948625432E+04  0.46999998093E+01 0. -1.
       -5    1    3    3    0  502  0.42021009943E+03  0.10121695231E+04  0.19851952291E+03  0.11137754541E+04  0.46999998093E+01 0.  1.
</event>
<event>
 5   0  0.6495405E-05  0.2294700E+04  0.7818609E-02  0.8480014E-01
       -2   -1    0    0    0  501  0.00000000000E+00  0.00000000000E+00  0.57996074136E+03  0.57996074137E+03  0.25500000920E-02 0.  1.
        2   -1    0    0  501    0  0.00000000000E+00  0.00000000000E+00 -0.22698295121E+04  0.22698295121E+04  0.25500000920E-02 0. -1.
    10030    2    1    2    0    0  0.00000000000E+00  0.00000000000E+00 -0.16898687708E+04  0.28497902535E+04  0.22946999862E+04 0.  0.
        5    1    3    3  502    0  0.11348067992E+04  0.45846471188E+02 -0.10471071225E+04  0.15447795268E+04  0.46999998093E+01 0.  1.
       -5    1    3    3    0  502 -0.11348067992E+04 -0.45846471188E+02 -0.64276164832E+03  0.13050107268E+04  0.46999998093E+01 0. -1.
</event>
<event>
 5   0  0.6468758E-05  0.2300194E+04  0.7818609E-02  0.8477844E-01
        2   -1    0    0  501    0  0.00000000000E+00  0.00000000000E+00  0.16899872933E+04  0.16899872933E+04  0.25500000920E-02 0.  1.
       -2   -1    0    0    0  501  0.00000000000E+00  0.00000000000E+00 -0.78268258295E+03  0.78268258296E+03  0.25500000920E-02 0. -1.
    10030    2    1    2    0    0  0.00000000000E+00  0.00000000000E+00  0.90730471033E+03  0.24726698762E+04  0.23001944438E+04 0.  0.
        3    1    3    3  502    0 -0.51337931767E+03  0.10053793122E+04  0.69009418198E+03  0.13230932981E+04  0.10100000352E+00 0.  1.
       -3    1    3    3    0  502  0.51337931767E+03 -0.10053793122E+04  0.21721052834E+03  0.11495765782E+04  0.10100000352E+00 0. -1.
</event>
<event>
 5   0  0.6702421E-05  0.2306070E+04  0.7818609E-02  0.8475532E-01
        2   -1    0    0  501    0  0.00000000000E+00  0.00000000000E+00  0.21836264571E+04  0.21836264571E+04  0.25500000920E-02 0.  1.
       -2   -1    0    0    0  501  0.00000000000E+00  0.00000000000E+00 -0.60884463255E+03  0.60884463256E+03  0.25500000920E-02 0. -1.
    10030    2    1    2    0    0  0.00000000000E+00  0.00000000000E+00  0.15747818245E+04  0.27924710896E+04  0.23060695982E+04 0.  0.
        4    1    3    3  502    0  0.95559439905E+02 -0.10347511507E+04  0.18235848083E+03  0.10550344918E+04  0.12699999809E+01 0. -1.
       -4    1    3    3    0  502 -0.95559439905E+02  0.10347511507E+04  0.13924233437E+04  0.17374365978E+04  0.12699999809E+01 0.  1.
</event>
<event>
 5   0  0.2342500E-05  0.2332912E+04  0.7818609E-02  0.8465056E-01
        3   -1    0    0  501    0  0.00000000000E+00  0.00000000000E+00  0.18331887497E+04  0.18331887525E+04  0.10100000352E+00 0. -1.
       -3   -1    0    0    0  501  0.00000000000E+00  0.00000000000E+00 -0.74221463032E+03  0.74221463719E+03  0.10100000352E+00 0.  1.
    10030    2    1    2    0    0  0.00000000000E+00  0.00000000000E+00  0.10909741194E+04  0.25754033897E+04  0.23329119337E+04 0.  0.
        2    1    3    3  502    0 -0.59210148582E+03 -0.82157102693E+02  0.16512427930E+04  0.17561140967E+04  0.25500000920E-02 0. -1.
       -2    1    3    3    0  502  0.59210148582E+03  0.82157102693E+02 -0.56026867361E+03  0.81928929303E+03  0.25500000920E-02 0.  1.
</event>
<event>
 5   0  0.6468758E-05  0.2308641E+04  0.7818609E-02  0.8474522E-01
       -2   -1    0    0    0  501  0.00000000000E+00  0.00000000000E+00  0.53698732715E+03  0.53698732715E+03  0.25500000920E-02 0. -1.
        2   -1    0    0  501    0  0.00000000000E+00  0.00000000000E+00 -0.24813550911E+04  0.24813550911E+04  0.25500000920E-02 0.  1.
    10030    2    1    2    0    0  0.00000000000E+00  0.00000000000E+00 -0.19443677639E+04  0.30183424182E+04  0.23086413650E+04 0.  0.
        3    1    3    3  502    0  0.51979217400E+03  0.93007375463E+03 -0.15528201703E+04  0.18832077912E+04  0.10100000352E+00 0.  1.
       -3    1    3    3    0  502 -0.51979217400E+03 -0.93007375463E+03 -0.39154759357E+03  0.11351346270E+04  0.10100000352E+00 0. -1.
</event>
<event>
 5   0  0.6702421E-05  0.2296934E+04  0.7818609E-02  0.8479131E-01
       -2   -1    0    0    0  501  0.00000000000E+00  0.00000000000E+00  0.71722724001E+03  0.71722724001E+03  0.25500000920E-02 0. -1.
        2   -1    0    0  501    0  0.00000000000E+00  0.00000000000E+00 -0.18389936267E+04  0.18389936267E+04  0.25500000920E-02 0.  1.
    10030    2    1    2    0    0  0.00000000000E+00  0.00000000000E+00 -0.11217663866E+04  0.25562208667E+04  0.22969338896E+04 0.  0.
        4    1    3    3  502    0  0.40429294340E+03  0.21494068712E+03 -0.17330212773E+04  0.17924889521E+04  0.12699999809E+01 0.  1.
       -4    1    3    3    0  502 -0.40429294340E+03 -0.21494068712E+03  0.61125489064E+03  0.76373191454E+03  0.12699999809E+01 0. -1.
</event>
<event>
 5   0  0.6814789E-05  0.2303750E+04  0.7818609E-02  0.8476444E-01
        2   -1    0    0  501    0  0.00000000000E+00  0.00000000000E+00  0.93549163272E+03  0.93549163273E+03  0.25500000920E-02 0. -1.
       -2   -1    0    0    0  501  0.00000000000E+00  0.00000000000E+00 -0.14183082269E+04  0.14183082269E+04  0.25500000920E-02 0.  1.
    10030    2    1    2    0    0  0.00000000000E+00  0.00000000000E+00 -0.48281659420E+03  0.23537998597E+04  0.23037495341E+04 0.  0.
        1    1    3    3  502    0 -0.71425004194E+01 -0.44199274806E+03 -0.13281934052E+04  0.13998236769E+04  0.50400001928E-02 0.  1.
       -1    1    3    3    0  502  0.71425004194E+01  0.44199274806E+03  0.84537681102E+03  0.95397618277E+03  0.50400001928E-02 0. -1.
</event>
<event>
 5   0  0.2982385E-05  0.2223831E+04  0.7818609E-02  0.8508574E-01
        1   -1    0    0  501    0  0.00000000000E+00  0.00000000000E+00  0.20404236986E+04  0.20404236986E+04  0.50400001928E-02 0.  1.
       -1   -1    0    0    0  501  0.00000000000E+00  0.00000000000E+00 -0.60593101591E+03  0.60593101593E+03  0.50400001928E-02 0. -1.
    10030    2    1    2    0    0  0.00000000000E+00  0.00000000000E+00  0.14344926827E+04  0.26463547146E+04  0.22238309330E+04 0.  0.
        4    1    3    3  502    0  0.52761327782E+03  0.85840885594E+03  0.12768148781E+04  0.16264991180E+04  0.12699999809E+01 0.  1.
       -4    1    3    3    0  502 -0.52761327782E+03 -0.85840885594E+03  0.15767780458E+03  0.10198555966E+04  0.12699999809E+01 0. -1.
</event>
<event>
 5   0  0.6468758E-05  0.2368148E+04  0.7818609E-02  0.8451526E-01
       -2   -1    0    0    0  501  0.00000000000E+00  0.00000000000E+00  0.11892427598E+04  0.11892427598E+04  0.25500000920E-02 0. -1.
        2   -1    0    0  501    0  0.00000000000E+00  0.00000000000E+00 -0.11789274050E+04  0.11789274050E+04  0.25500000920E-02 0.  1.
    10030    2    1    2    0    0  0.00000000000E+00  0.00000000000E+00  0.10315354871E+02  0.23681701648E+04  0.23681476987E+04 0.  0.
        3    1    3    3  502    0 -0.58101779194E+03 -0.62671350502E+03  0.82472593134E+03  0.11876549852E+04  0.10100000352E+00 0. -1.
       -3    1    3    3    0  502  0.58101779194E+03  0.62671350502E+03 -0.81441057647E+03  0.11805151796E+04  0.10100000352E+00 0.  1.
</event>
<event>
 5   0  0.6495405E-05  0.2305946E+04  0.7818609E-02  0.8475580E-01
        2   -1    0    0  501    0  0.00000000000E+00  0.00000000000E+00  0.98770517268E+03  0.98770517268E+03  0.25500000920E-02 0.  1.
       -2   -1    0    0    0  501  0.00000000000E+00  0.00000000000E+00 -0.13458942361E+04  0.13458942361E+04  0.25500000920E-02 0. -1.
    10030    2    1    2    0    0  0.00000000000E+00  0.00000000000E+00 -0.35818906341E+03  0.23335994088E+04  0.23059459654E+04 0.  0.
        5    1    3    3  502    0 -0.47369073618E+03  0.61399015557E+03 -0.10425307798E+04  0.12993303435E+04  0.46999998093E+01 0. -1.
       -5    1    3    3    0  502  0.47369073618E+03 -0.61399015557E+03  0.68434171637E+03  0.10342690653E+04  0.46999998093E+01 0.  1.
</event>
<event>
 5   0  0.3118614E-05  0.2245090E+04  0.7818609E-02  0.8499891E-01
        1   -1    0    0  501    0  0.00000000000E+00  0.00000000000E+00  0.16064735863E+04  0.16064735863E+04  0.50400001928E-02 0.  1.
       -1   -1    0    0    0  501  0.00000000000E+00  0.00000000000E+00 -0.78439368892E+03  0.78439368894E+03  0.50400001928E-02 0. -1.
    10030    2    1    2    0    0  0.00000000000E+00  0.00000000000E+00  0.82207989736E+03  0.23908672752E+04  0.22450904147E+04 0.  0.
        3    1    3    3  502    0  0.71302579965E+02 -0.95205753735E+03  0.10398096805E+04  0.14116308987E+04  0.10100000352E+00 0.  1.
       -3    1    3    3    0  502 -0.71302579965E+02  0.95205753735E+03 -0.21772978319E+03  0.97923637648E+03  0.10100000352E+00 0. -1.
</event>
<event>
 5   0  0.2982385E-05  0.1728263E+04  0.7818609E-02  0.8745407E-01
       -1   -1    0    0    0  501  0.00000000000E+00  0.00000000000E+00  0.88062919437E+03  0.88062919438E+03  0.50400001928E-02 0.  1.
        1   -1    0    0  501    0  0.00000000000E+00  0.00000000000E+00 -0.84794277216E+03  0.84794277217E+03  0.50400001928E-02 0. -1.
    10030    2    1    2    0    0  0.00000000000E+00  0.00000000000E+00  0.32686422212E+02  0.17285719666E+04  0.17282628971E+04 0.  0.
        4    1    3    3  502    0  0.77565696248E+03  0.20460932684E+03 -0.30498180547E+03  0.85820988962E+03  0.12699999809E+01 0. -1.
       -4    1    3    3    0  502 -0.77565696248E+03 -0.20460932684E+03  0.33766822768E+03  0.87036207693E+03  0.12699999809E+01 0.  1.
</event>
<event>
 5   0  0.6702421E-05  0.2361118E+04  0.7818609E-02  0.8454205E-01
       -2   -1    0    0    0  501  0.00000000000E+00  0.00000000000E+00  0.21512844967E+04  0.21512844967E+04  0.25500000920E-02 0. -1.
        2   -1    0    0  501    0  0.00000000000E+00  0.00000000000E+00 -0.64785464582E+03  0.64785464583E+03  0.25500000920E-02 0.  1.
    10030    2    1    2    0    0  0.00000000000E+00  0.00000000000E+00  0.15034298509E+04  0.27991391425E+04  0.23611180874E+04 0.  0.
        4    1    3    3  502    0  0.40273383782E+02 -0.10438192186E+04  0.14037882169E+04  0.17498009822E+04  0.12699999809E+01 0. -1.
       -4    1    3    3    0  502 -0.40273383782E+02  0.10438192186E+04  0.99641633935E+02  0.10493381603E+04  0.12699999809E+01 0.  1.
</event>
<event>
 5   0  0.3118614E-05  0.2315862E+04  0.7818609E-02  0.8471693E-01
       -1   -1    0    0    0  501  0.00000000000E+00  0.00000000000E+00  0.10230156670E+04  0.10230156670E+04  0.50400001928E-02 0. -1.
        1   -1    0    0  501    0  0.00000000000E+00  0.00000000000E+00 -0.13106387702E+04  0.13106387702E+04  0.50400001928E-02 0.  1.
    10030    2    1    2    0    0  0.00000000000E+00  0.00000000000E+00 -0.28762310320E+03  0.23336544371E+04  0.23158618228E+04 0.  0.
        3    1    3    3  502    0  0.73100270288E+03 -0.86841634979E+03 -0.37424305354E+03  0.11952279203E+04  0.10100000352E+00 0.  1.
       -3    1    3    3    0  502 -0.73100270288E+03  0.86841634979E+03  0.86619950340E+02  0.11384265168E+04  0.10100000352E+00 0. -1.
</event>
<event>
 5   0  0.6495405E-05  0.2320566E+04  0.7818609E-02  0.8469856E-01
        2   -1    0    0  501    0  0.00000000000E+00  0.00000000000E+00  0.70250999297E+03  0.70250999297E+03  0.25500000920E-02 0.  1.
       -2   -1    0    0    0  501  0.00000000000E+00  0.00000000000E+00 -0.19163518485E+04  0.19163518485E+04  0.25500000920E-02 0. -1.
    10030    2    1    2    0    0  0.00000000000E+00  0.00000000000E+00 -0.12138418555E+04  0.26188618415E+04  0.23205657272E+04 0.  0.
        5    1    3    3  502    0  0.10958092068E+04 -0.19829659431E+03 -0.23929439304E+03  0.11390361072E+04  0.46999998093E+01 0.  1.
       -5    1    3    3    0  502 -0.10958092068E+04  0.19829659431E+03 -0.97454746250E+03  0.14798257342E+04  0.46999998093E+01 0. -1.
</event>
<event>
 5   0  0.6676612E-05  0.2331596E+04  0.7818609E-02  0.8465566E-01
       -2   -1    0    0    0  501  0.00000000000E+00  0.00000000000E+00  0.96637627444E+03  0.96637627444E+03  0.25500000920E-02 0.  1.
        2   -1    0    0  501    0  0.00000000000E+00  0.00000000000E+00 -0.14063726898E+04  0.14063726898E+04  0.25500000920E-02 0. -1.
    10030    2    1    2    0    0  0.00000000000E+00  0.00000000000E+00 -0.43999641538E+03  0.23727489643E+04  0.23315961918E+04 0.  0.
        2    1    3    3  502    0  0.11514603148E+04  0.32220240488E+02 -0.40256984412E+03  0.12202300930E+04  0.25500000920E-02 0. -1.
       -2    1    3    3    0  502 -0.11514603148E+04 -0.32220240488E+02 -0.37426571260E+02  0.11525188713E+04  0.25500000920E-02 0.  1.
</event>
<event>
 5   0  0.6495405E-05  0.2293264E+04  0.7818609E-02  0.8480582E-01
       -2   -1    0    0    0  501  0.00000000000E+00  0.00000000000E+00  0.70472052058E+03  0.70472052058E+03  0.25500000920E-02 0.  1.
        2   -1    0    0  501    0  0.00000000000E+00  0.00000000000E+00 -0.18656538228E+04  0.18656538228E+04  0.25500000920E-02 0. -1.
    10030    2    1    2    0    0  0.00000000000E+00  0.00000000000E+00 -0.11609333022E+04  0.25703743434E+04  0.22932636423E+04 0.  0.
        5    1    3    3  502    0 -0.56386076362E+03 -0.47471878674E+03  0.40398645284E+03  0.84054983869E+03  0.46999998093E+01 0.  1.
       -5    1    3    3    0  502  0.56386076362E+03  0.47471878674E+03 -0.15649197551E+04  0.17298245047E+04  0.46999998093E+01 0. -1.
</event>
<event>
 5   0  0.2944089E-05  0.2122512E+04  0.7818609E-02  0.8551391E-01
       -1   -1    0    0    0  501  0.00000000000E+00  0.00000000000E+00  0.10976967436E+04  0.10976967436E+04  0.50400001928E-02 0.  1.
        1   -1    0    0  501    0  0.00000000000E+00  0.00000000000E+00 -0.10260248633E+04  0.10260248633E+04  0.50400001928E-02 0. -1.
    10030    2    1    2    0    0  0.00000000000E+00  0.00000000000E+00  0.71671880269E+02  0.21237216069E+04  0.21225118622E+04 0.  0.
        5    1    3    3  502    0 -0.10995374230E+03  0.66919437157E+03 -0.78092039332E+03  0.10342967094E+04  0.46999998093E+01 0. -1.
       -5    1    3    3    0  502  0.10995374230E+03 -0.66919437157E+03  0.85259227359E+03  0.10894248975E+04  0.46999998093E+01 0.  1.
</event>
<event>
 5   0  0.2982385E-05  0.2283044E+04  0.7818609E-02  0.8484637E-01
       -1   -1    0    0    0  501  0.00000000000E+00  0.00000000000E+00  0.82374394636E+03  0.82374394638E+03  0.50400001928E-02 0.  1.
        1   -1    0    0  501    0  0.00000000000E+00  0.00000000000E+00 -0.15818896299E+04  0.15818896299E+04  0.50400001928E-02 0. -1.
    10030    2    1    2    0    0  0.00000000000E+00  0.00000000000E+00 -0.75814568353E+03  0.24056335763E+04  0.22830435882E+04 0.  0.
        4    1    3    3  502    0 -0.36579444267E+03 -0.97232971252E+03  0.11944864210E+03  0.10457056159E+04  0.12699999809E+01 0.  1.
       -4    1    3    3    0  502  0.36579444267E+03  0.97232971252E+03 -0.87759432562E+03  0.13599279604E+04  0.12699999809E+01 0. -1.
</event>
<event>
 5   0  0.6468758E-05  0.2188933E+04  0.7818609E-02  0.8523048E-01
        2   -1    0    0  501    0  0.00000000000E+00  0.00000000000E+00  0.22695050502E+04  0.22695050502E+04  0.25500000920E-02 0.  1.
       -2   -1    0    0    0  501  0.00000000000E+00  0.00000000000E+00 -0.52780548716E+03  0.52780548716E+03  0.25500000920E-02 0. -1.
    10030    2    1    2    0    0  0.00000000000E+00  0.00000000000E+00  0.17416995630E+04  0.27973105373E+04  0.21889332732E+04 0.  0.
        3    1    3    3  502    0  0.14692559888E+03 -0.49870865070E+03  0.21016260334E+04  0.21649779316E+04  0.10100000352E+00 0.  1.
       -3    1    3    3    0  502 -0.14692559888E+03  0.49870865070E+03 -0.35992647043E+03  0.63233260568E+03  0.10100000352E+00 0. -1.
</event>
<event>
 5   0  0.3006265E-05  0.2290722E+04  0.7818609E-02  0.8481588E-01
       -1   -1    0    0    0  501  0.00000000000E+00  0.00000000000E+00  0.13529457413E+04  0.13529457413E+04  0.50400001928E-02 0. -1.
        1   -1    0    0  501    0  0.00000000000E+00  0.00000000000E+00 -0.96962653314E+03  0.96962653316E+03  0.50400001928E-02 0.  1.
    10030    2    1    2    0    0  0.00000000000E+00  0.00000000000E+00  0.38331920816E+03  0.23225722745E+04  0.22907222343E+04 0.  0.
        2    1    3    3  502    0 -0.44737499586E+03 -0.23295915216E+03 -0.85095597102E+03  0.98921201879E+03  0.25500000920E-02 0.  1.
       -2    1    3    3    0  502  0.44737499586E+03  0.23295915216E+03  0.12342751792E+04  0.13333602557E+04  0.25500000920E-02 0. -1.
</event>
<event>
 5   0  0.6702421E-05  0.1824108E+04  0.7818609E-02  0.8693583E-01
       -2   -1    0    0    0  501  0.00000000000E+00  0.00000000000E+00  0.76108118668E+03  0.76108118668E+03  0.25500000920E-02 0.  1.
        2   -1    0    0  501    0  0.00000000000E+00  0.00000000000E+00 -0.10929748664E+04  0.10929748664E+04  0.25500000920E-02 0. -1.
    10030    2    1    2    0    0  0.00000000000E+00  0.00000000000E+00 -0.33189367970E+03  0.18540560531E+04  0.18241081199E+04 0.  0.
        4    1    3    3  502    0 -0.26772810245E+03 -0.14325035249E+03 -0.10400910069E+04  0.10835081522E+04  0.12699999809E+01 0. -1.
       -4    1    3    3    0  502  0.26772810245E+03  0.14325035249E+03  0.70819732722E+03  0.77054790085E+03  0.12699999809E+01 0.  1.
</event>
<event>
 5   0  0.2982385E-05  0.2225187E+04  0.7818609E-02  0.8508017E-01
       -1   -1    0    0    0  501  0.00000000000E+00  0.00000000000E+00  0.11238083426E+04  0.11238083426E+04  0.50400001928E-02 0.  1.
        1   -1    0    0  501    0  0.00000000000E+00  0.00000000000E+00 -0.11014901315E+04  0.11014901315E+04  0.50400001928E-02 0. -1.
    10030    2    1    2    0    0  0.00000000000E+00  0.00000000000E+00  0.22318211085E+02  0.22252984741E+04  0.22251865531E+04 0.  0.
        4    1    3    3  502    0  0.67053392097E+03 -0.88057932410E+03  0.12441894497E+03  0.11137851552E+04  0.12699999809E+01 0.  1.
       -4    1    3    3    0  502 -0.67053392097E+03  0.88057932410E+03 -0.10210073388E+03  0.11115133188E+04  0.12699999809E+01 0. -1.
</event>
<event>
 5   0  0.2962279E-05  0.2293722E+04  0.7818609E-02  0.8480400E-01
       -1   -1    0    0    0  501  0.00000000000E+00  0.00000000000E+00  0.54661443296E+03  0.54661443299E+03  0.50400001928E-02 0.  1.
        1   -1    0    0  501    0  0.00000000000E+00  0.00000000000E+00 -0.24062489188E+04  0.24062489188E+04  0.50400001928E-02 0. -1.
    10030    2    1    2    0    0  0.00000000000E+00  0.00000000000E+00 -0.18596344858E+04  0.29528633518E+04  0.22937222049E+04 0.  0.
        1    1    3    3  502    0 -0.11206909479E+04  0.17564073579E+03 -0.11471213621E+04  0.16132840073E+04  0.50400001928E-02 0.  1.
       -1    1    3    3    0  502  0.11206909479E+04 -0.17564073579E+03 -0.71251312378E+03  0.13395793445E+04  0.50400001928E-02 0. -1.
</event>
<event>
 5   0  0.2944089E-05  0.2302918E+04  0.7818609E-02  0.8476772E-01
       -1   -1    0    0    0  501  0.00000000000E+00  0.00000000000E+00  0.10222779660E+04  0.10222779660E+04  0.50400001928E-02 0.  1.
        1   -1    0    0  501    0  0.00000000000E+00  0.00000000000E+00 -0.12969639975E+04  0.12969639976E+04  0.50400001928E-02 0. -1.
    10030    2    1    2    0    0  0.00000000000E+00  0.00000000000E+00 -0.27468603155E+03  0.23192419636E+04  0.23029179034E+04 0.  0.
        5    1    3    3  502    0  0.95314189897E+03  0.53851250993E+03  0.22206259542E+03  0.11170537539E+04  0.46999998093E+01 0.  1.
       -5    1    3    3    0  502 -0.95314189897E+03 -0.53851250993E+03 -0.49674862697E+03  0.12021882096E+04  0.46999998093E+01 0. -1.
</event>
<event>
 5   0  0.3118614E-05  0.2270550E+04  0.7818609E-02  0.8489624E-01
       -1   -1    0    0    0  501  0.00000000000E+00  0.00000000000E+00  0.15695476946E+04  0.15695476946E+04  0.50400001928E-02 0. -1.
        1   -1    0    0  501    0  0.00000000000E+00  0.00000000000E+00 -0.82115963626E+03  0.82115963627E+03  0.50400001928E-02 0.  1.
    10030    2    1    2    0    0  0.00000000000E+00  0.00000000000E+00  0.74838805838E+03  0.23907073309E+04  0.22705499017E+04 0.  0.
        3    1    3    3  502    0  0.10174627645E+04  0.47185140629E+03  0.55950488388E+03  0.12533634557E+04  0.10100000352E+00 0.  1.
       -3    1    3    3    0  502 -0.10174627645E+04 -0.47185140629E+03  0.18888317449E+03  0.11373438752E+04  0.10100000352E+00 0. -1.
</event>
<event>
 5   0  0.6676612E-05  0.2276713E+04  0.7818609E-02  0.8487160E-01
        2   -1    0    0  501    0  0.00000000000E+00  0.00000000000E+00  0.10793668223E+04  0.10793668223E+04  0.25500000920E-02 0.  1.
       -2   -1    0    0    0  501  0.00000000000E+00  0.00000000000E+00 -0.12005699597E+04  0.12005699597E+04  0.25500000920E-02 0. -1.
    10030    2    1    2    0    0  0.00000000000E+00  0.00000000000E+00 -0.12120313747E+03  0.22799367820E+04  0.22767128781E+04 0.  0.
        2    1    3    3  502    0  0.76842019533E+03  0.12345522449E+02  0.78036933293E+03  0.10952617515E+04  0.25500000920E-02 0.  1.
       -2    1    3    3    0  502 -0.76842019533E+03 -0.12345522449E+02 -0.90157247040E+03  0.11846750305E+04  0.25500000920E-02 0. -1.
</event>
<event>
 5   0  0.2982385E-05  0.2254462E+04  0.7818609E-02  0.8496096E-01
        1   -1    0    0  501    0  0.00000000000E+00  0.00000000000E+00  0.83645777656E+03  0.83645777658E+03  0.50400001928E-02 0. -1.
       -1   -1    0    0    0  501  0.00000000000E+00  0.00000000000E+00 -0.15190841147E+04  0.15190841147E+04  0.50400001928E-02 0.  1.
    10030    2    1    2    0    0  0.00000000000E+00  0.00000000000E+00 -0.68262633810E+03  0.23555418912E+04  0.22544619943E+04 0.  0.
        4    1    3    3  502    0  0.31458189464E+03 -0.55550507557E+03  0.62937242766E+03  0.89647025774E+03  0.12699999809E+01 0. -1.
       -4    1    3    3    0  502 -0.31458189464E+03  0.55550507557E+03 -0.13119987658E+04  0.14590716335E+04  0.12699999809E+01 0.  1.
</event>
<event>
 5   0  0.6468758E-05  0.2374954E+04  0.7818609E-02  0.8448940E-01
       -2   -1    0    0    0  501  0.00000000000E+00  0.00000000000E+00  0.85602087938E+03  0.85602087939E+03  0.25500000920E-02 0. -1.
        2   -1    0    0  501    0  0.00000000000E+00  0.00000000000E+00 -0.16472746378E+04  0.16472746378E+04  0.25500000920E-02 0.  1.
    10030    2    1    2    0    0  0.00000000000E+00  0.00000000000E+00 -0.79125375837E+03  0.25032955171E+04  0.23749538808E+04 0.  0.
        3    1    3    3  502    0  0.63102908723E+03  0.99148291298E+03 -0.21654744352E+03  0.11950434641E+04  0.10100000352E+00 0. -1.
       -3    1    3    3    0  502 -0.63102908723E+03 -0.99148291298E+03 -0.57470631485E+03  0.13082520530E+04  0.10100000352E+00 0.  1.
</event>
<event>
 5   0  0.6702421E-05  0.2292237E+04  0.7818609E-02  0.8480988E-01
        2   -1    0    0  501    0  0.00000000000E+00  0.00000000000E+00  0.13087077287E+04  0.13087077287E+04  0.25500000920E-02 0.  1.
       -2   -1    0    0    0  501  0.00000000000E+00  0.00000000000E+00 -0.10037291600E+04  0.10037291600E+04  0.25500000920E-02 0. -1.
    10030    2    1    2    0    0  0.00000000000E+00  0.00000000000E+00  0.30497856872E+03  0.23124368887E+04  0.22922374303E+04 0.  0.
        4    1    3    3  502    0 -0.11014950442E+04  0.29504399193E+03  0.26858689016E+03  0.11715301191E+04  0.12699999809E+01 0.  1.
       -4    1    3    3    0  502  0.11014950442E+04 -0.29504399193E+03  0.36391678569E+02  0.11409067695E+04  0.12699999809E+01 0. -1.
</event>
<event>
 5   0  0.2962279E-05  0.2172337E+04  0.7818609E-02  0.8530031E-01
       -1   -1    0    0    0  501  0.00000000000E+00  0.00000000000E+00  0.93531746049E+03  0.93531746051E+03  0.50400001928E-02 0. -1.
        1   -1    0    0  501    0  0.00000000000E+00  0.00000000000E+00 -0.12613491282E+04  0.12613491283E+04  0.50400001928E-02 0.  1.
    10030    2    1    2    0    0  0.00000000000E+00  0.00000000000E+00 -0.32603166775E+03  0.21966665888E+04  0.21723368647E+04 0.  0.
        1    1    3    3  502    0 -0.52543203022E+02 -0.10187679088E+04 -0.54017169972E+03  0.11543111822E+04  0.50400001928E-02 0.  1.
       -1    1    3    3    0  502  0.52543203022E+02  0.10187679088E+04  0.21414003197E+03  0.10423554065E+04  0.50400001928E-02 0. -1.
</event>
<event>
 5   0  0.6495405E-05  0.2227150E+04  0.7818609E-02  0.8507212E-01
        2   -1    0    0  501    0  0.00000000000E+00  0.00000000000E+00  0.15511347303E+04  0.15511347303E+04  0.25500000920E-02 0. -1.
       -2   -1    0    0    0  501  0.00000000000E+00  0.00000000000E+00 -0.79944625331E+03  0.79944625331E+03  0.25500000920E-02 0.  1.
    10030    2    1    2    0    0  0.00000000000E+00  0.00000000000E+00  0.75168847698E+03  0.23505809836E+04  0.22271496120E+04 0.  0.
        5    1    3    3  502    0 -0.90434678650E+03 -0.54079461323E+03 -0.42903507420E+01  0.10537278686E+04  0.46999998093E+01 0. -1.
       -5    1    3    3    0  502  0.90434678650E+03  0.54079461323E+03  0.75597882772E+03  0.12968531150E+04  0.46999998093E+01 0.  1.
</event>
<event>
 5   0  0.6814789E-05  0.2181883E+04  0.7818609E-02  0.8526007E-01
        2   -1    0    0  501    0  0.00000000000E+00  0.00000000000E+00  0.24332403867E+04  0.24332403867E+04  0.25500000920E-02 0. -1.
       -2   -1    0    0    0  501  0.00000000000E+00  0.00000000000E+00 -0.48912284743E+03  0.48912284744E+03  0.25500000920E-02 0.  1.
    10030    2    1    2    0    0  0.00000000000E+00  0.00000000000E+00  0.19441175393E+04  0.29223632342E+04  0.21818831009E+04 0.  0.
        1    1    3    3  502    0 -0.20694561826E+03  0.97249175654E+03  0.37069990093E+03  0.10611244611E+04  0.50400001928E-02 0.  1.
       -1    1    3    3    0  502  0.20694561826E+03 -0.97249175654E+03  0.15734176384E+04  0.18612387730E+04  0.50400001928E-02 0. -1.
</event>
<event>
 5   0  0.6468758E-05  0.2290063E+04  0.7818609E-02  0.8481850E-01
        2   -1    0    0  501    0  0.00000000000E+00  0.00000000000E+00  0.11510856507E+04  0.11510856507E+04  0.25500000920E-02 0.  1.
       -2   -1    0    0    0  501  0.00000000000E+00  0.00000000000E+00 -0.11390090170E+04  0.11390090170E+04  0.25500000920E-02 0. -1.
    10030    2    1    2    0    0  0.00000000000E+00  0.00000000000E+00  0.12076633746E+02  0.22900946677E+04  0.22900628249E+04 0.  0.
        3    1    3    3  502    0  0.60775416653E+03 -0.75087558339E+03  0.62079694136E+03  0.11482892150E+04  0.10100000352E+00 0.  1.
       -3    1    3    3    0  502 -0.60775416653E+03  0.75087558339E+03 -0.60872030761E+03  0.11418054527E+04  0.10100000352E+00 0. -1.
</event>
<event>
 5   0  0.2962279E-05  0.2238465E+04  0.7818609E-02  0.8502587E-01
       -1   -1    0    0    0  501  0.00000000000E+00  0.00000000000E+00  0.79664432579E+03  0.79664432581E+03  0.50400001928E-02 0.  1.
        1   -1    0    0  501    0  0.00000000000E+00  0.00000000000E+00 -0.15724469301E+04  0.15724469301E+04  0.50400001928E-02 0. -1.
    10030    2    1    2    0    0  0.00000000000E+00  0.00000000000E+00 -0.77580260431E+03  0.23690912559E+04  0.22384645849E+04 0.  0.
        1    1    3    3  502    0  0.78389163266E+03 -0.75021361090E+03 -0.67846637685E+03  0.12796965180E+04  0.50400001928E-02 0. -1.
       -1    1    3    3    0  502 -0.78389163266E+03  0.75021361090E+03 -0.97336227459E+02  0.10893947379E+04  0.50400001928E-02 0.  1.
</event>
<event>
 5   0  0.3006265E-05  0.2263527E+04  0.7818609E-02  0.8492442E-01
        1   -1    0    0  501    0  0.00000000000E+00  0.00000000000E+00  0.76173371223E+03  0.76173371224E+03  0.50400001928E-02 0. -1.
       -1   -1    0    0    0  501  0.00000000000E+00  0.00000000000E+00 -0.16815440877E+04  0.16815440877E+04  0.50400001928E-02 0.  1.
    10030    2    1    2    0    0  0.00000000000E+00  0.00000000000E+00 -0.91981037544E+03  0.24432777999E+04  0.22635271770E+04 0.  0.
        2    1    3    3  502    0  0.10421186957E+04 -0.42724189020E+03 -0.57982103767E+03  0.12667831087E+04  0.25500000920E-02 0.  1.
       -2    1    3    3    0  502 -0.10421186957E+04  0.42724189020E+03 -0.33998933777E+03  0.11764946912E+04  0.25500000920E-02 0. -1.
</event>
<event>
 5   0  0.6814789E-05  0.2294842E+04  0.7818609E-02  0.8479958E-01
        2   -1    0    0  501    0  0.00000000000E+00  0.00000000000E+00  0.16794004708E+04  0.16794004709E+04  0.25500000920E-02 0.  1.
       -2   -1    0    0    0  501  0.00000000000E+00  0.00000000000E+00 -0.78395507820E+03  0.78395507820E+03  0.25500000920E-02 0. -1.
    10030    2    1    2    0    0  0.00000000000E+00  0.00000000000E+00  0.89544539265E+03  0.24633555491E+04  0.22948416307E+04 0.  0.
        1    1    3    3  502    0 -0.62665376703E+03 -0.52030960274E+03  0.13152503750E+04  0.15470295974E+04  0.50400001928E-02 0.  1.
       -1    1    3    3    0  502  0.62665376703E+03  0.52030960274E+03 -0.41980498231E+03  0.91632595163E+03  0.50400001928E-02 0. -1.
</event>
<event>
 5   0  0.6468758E-05  0.2640005E+04  0.7818609E-02  0.8354738E-01
        2   -1    0    0  501    0  0.00000000000E+00  0.00000000000E+00  0.12613763273E+04  0.12613763273E+04  0.25500000920E-02 0.  1.
       -2   -1    0    0    0  501  0.00000000000E+00  0.00000000000E+00 -0.13813531779E+04  0.13813531779E+04  0.25500000920E-02 0. -1.
    10030    2    1    2    0    0  0.00000000000E+00  0.00000000000E+00 -0.11997685067E+03  0.26427295052E+04  0.26400046956E+04 0.  0.
        3    1    3    3  502    0  0.84647145226E+03  0.10120594340E+04 -0.19598663773E+02  0.13195311043E+04  0.10100000352E+00 0.  1.
       -3    1    3    3    0  502 -0.84647145226E+03 -0.10120594340E+04 -0.10037818690E+03  0.13231984009E+04  0.10100000352E+00 0. -1.
</event>
<event>
 5   0  0.2944089E-05  0.2341595E+04  0.7818609E-02  0.8461699E-01
       -1   -1    0    0    0  501  0.00000000000E+00  0.00000000000E+00  0.78888803953E+03  0.78888803954E+03  0.50400001928E-02 0.  1.
        1   -1    0    0  501    0  0.00000000000E+00  0.00000000000E+00 -0.17375940172E+04  0.17375940172E+04  0.50400001928E-02 0. -1.
    10030    2    1    2    0    0  0.00000000000E+00  0.00000000000E+00 -0.94870597767E+03  0.25264820567E+04  0.23415953004E+04 0.  0.
        5    1    3    3  502    0  0.76861115095E+03 -0.84074058840E+03 -0.76614511811E+03  0.13728103548E+04  0.46999998093E+01 0. -1.
       -5    1    3    3    0  502 -0.76861115095E+03  0.84074058840E+03 -0.18256085955E+03  0.11536717019E+04  0.46999998093E+01 0.  1.
</event>
<event>
 5   0  0.6468758E-05  0.1957127E+04  0.7818609E-02  0.8626932E-01
        2   -1    0    0  501    0  0.00000000000E+00  0.00000000000E+00  0.11514611206E+04  0.11514611206E+04  0.25500000920E-02 0. -1.
       -2   -1    0    0    0  501  0.00000000000E+00  0.00000000000E+00 -0.83162755968E+03  0.83162755968E+03  0.25500000920E-02 0.  1.
    10030    2    1    2    0    0  0.00000000000E+00  0.00000000000E+00  0.31983356087E+03  0.19830886802E+04  0.19571272843E+04 0.  0.
        3    1    3    3  502    0 -0.10765935872E+03 -0.29488852655E+03 -0.77922032902E+03  0.84007982476E+03  0.10100000352E+00 0.  1.
       -3    1    3    3    0  502  0.10765935872E+03  0.29488852655E+03  0.10990538899E+04  0.11430088555E+04  0.10100000352E+00 0. -1.
</event>
<event>
 5   0  0.2982385E-05  0.2274972E+04  0.7818609E-02  0.8487855E-01
        1   -1    0    0  501    0  0.00000000000E+00  0.00000000000E+00  0.14102130077E+04  0.14102130077E+04  0.50400001928E-02 0.  1.
       -1   -1    0    0    0  501  0.00000000000E+00  0.00000000000E+00 -0.91750257109E+03  0.91750257111E+03  0.50400001928E-02 0. -1.
    10030    2    1    2    0    0  0.00000000000E+00  0.00000000000E+00  0.49271043657E+03  0.23277155788E+04  0.22749717012E+04 0.  0.
        4    1    3    3  502    0  0.49319276240E+03 -0.64539864370E+03  0.10611171231E+04  0.13363194499E+04  0.12699999809E+01 0.  1.
       -4    1    3    3    0  502 -0.49319276240E+03  0.64539864370E+03 -0.56840668658E+03  0.99139612891E+03  0.12699999809E+01 0. -1.
</event>
<event>
 5   0  0.2982385E-05  0.2280565E+04  0.7818609E-02  0.8485624E-01
        1   -1    0    0  501    0  0.00000000000E+00  0.00000000000E+00  0.91048160310E+03  0.91048160311E+03  0.50400001928E-02 0. -1.
       -1   -1    0    0    0  501  0.00000000000E+00  0.00000000000E+00 -0.14280836525E+04  0.14280836525E+04  0.50400001928E-02 0.  1.
    10030    2    1    2    0    0  0.00000000000E+00  0.00000000000E+00 -0.51760204936E+03  0.23385652556E+04  0.22805647487E+04 0.  0.
        4    1    3    3  502    0  0.46831592619E+03  0.76074682703E+03  0.46787311656E+03  0.10084455403E+04  0.12699999809E+01 0. -1.
       -4    1    3    3    0  502 -0.46831592619E+03 -0.76074682703E+03 -0.98547516592E+03  0.13301197153E+04  0.12699999809E+01 0.  1.
</event>
<event>
 5   0  0.6468758E-05  0.2419562E+04  0.7818609E-02  0.8432216E-01
        2   -1    0    0  501    0  0.00000000000E+00  0.00000000000E+00  0.14405084680E+04  0.14405084680E+04  0.25500000920E-02 0. -1.
       -2   -1    0    0    0  501  0.00000000000E+00  0.00000000000E+00 -0.10160093332E+04  0.10160093332E+04  0.25500000920E-02 0.  1.
    10030    2    1    2    0    0  0.00000000000E+00  0.00000000000E+00  0.42449913483E+03  0.24565178012E+04  0.24195619835E+04 0.  0.
        3    1    3    3  502    0  0.91603390428E+03  0.28016177865E+03 -0.53792803528E+03  0.10986242840E+04  0.10100000352E+00 0.  1.
       -3    1    3    3    0  502 -0.91603390428E+03 -0.28016177865E+03  0.96242717011E+03  0.13578935172E+04  0.10100000352E+00 0. -1.
</event>
<event>
 5   0  0.3118614E-05  0.1829318E+04  0.7818609E-02  0.8690862E-01
       -1   -1    0    0    0  501  0.00000000000E+00  0.00000000000E+00  0.72041499905E+03  0.72041499907E+03  0.50400001928E-02 0.  1.
        1   -1    0    0  501    0  0.00000000000E+00  0.00000000000E+00 -0.11612770328E+04  0.11612770329E+04  0.50400001928E-02 0. -1.
    10030    2    1    2    0    0  0.00000000000E+00  0.00000000000E+00 -0.44086203379E+03  0.18816920319E+04  0.18293183348E+04 0.  0.
        3    1    3    3  502    0  0.67125001677E+03  0.25341880319E+03  0.36308768564E+03  0.80413329274E+03  0.10100000352E+00 0.  1.
       -3    1    3    3    0  502 -0.67125001677E+03 -0.25341880319E+03 -0.80394971943E+03  0.10775587392E+04  0.10100000352E+00 0. -1.
</event>
<event>
 5   0  0.2962279E-05  0.2330209E+04  0.7818609E-02  0.8466105E-01
        1   -1    0    0  501    0  0.00000000000E+00  0.00000000000E+00  0.12340878499E+04  0.12340878499E+04  0.50400001928E-02 0. -1.
       -1   -1    0    0    0  501  0.00000000000E+00  0.00000000000E+00 -0.10999770181E+04  0.10999770181E+04  0.50400001928E-02 0.  1.
    10030    2    1    2    0    0  0.00000000000E+00  0.00000000000E+00  0.13411083186E+03  0.23340648680E+04  0.23302088089E+04 0.  0.
        1    1    3    3  502    0 -0.41346010474E+03  0.10889912511E+04  0.91937418265E+02  0.11684621055E+04  0.50400001928E-02 0. -1.
       -1    1    3    3    0  502  0.41346010474E+03 -0.10889912511E+04  0.42173413592E+02  0.11656027625E+04  0.50400001928E-02 0.  1.
</event>
<event>
 5   0  0.2982385E-05  0.2338247E+04  0.7818609E-02  0.8462992E-01
       -1   -1    0    0    0  501  0.00000000000E+00  0.00000000000E+00  0.77397912237E+03  0.77397912239E+03  0.50400001928E-02 0. -1.
        1   -1    0    0  501    0  0.00000000000E+00  0.00000000000E+00 -0.17660038807E+04  0.17660038807E+04  0.50400001928E-02 0.  1.
    10030    2    1    2    0    0  0.00000000000E+00  0.00000000000E+00 -0.99202475834E+03  0.25399830031E+04  0.23382473212E+04 0.  0.
        4    1    3    3  502    0 -0.10538204097E+04  0.35666230002E+02 -0.10445970282E+04  0.14842486652E+04  0.12699999809E+01 0.  1.
       -4    1    3    3    0  502  0.10538204097E+04 -0.35666230002E+02  0.52572269833E+02  0.10557343379E+04  0.12699999809E+01 0. -1.
</event>
<event>
 5   0  0.6676612E-05  0.2307506E+04  0.7818609E-02  0.8474968E-01
        2   -1    0    0  501    0  0.00000000000E+00  0.00000000000E+00  0.15056026326E+04  0.15056026326E+04  0.25500000920E-02 0. -1.
       -2   -1    0    0    0  501  0.00000000000E+00  0.00000000000E+00 -0.88412803087E+03  0.88412803088E+03  0.25500000920E-02 0.  1.
    10030    2    1    2    0    0  0.00000000000E+00  0.00000000000E+00  0.62147460174E+03  0.23897306635E+04  0.23075055717E+04 0.  0.
        2    1    3    3  502    0  0.75260457981E+03 -0.77888147015E+03  0.72249191067E+03  0.13019464502E+04  0.25500000920E-02 0. -1.
       -2    1    3    3    0  502 -0.75260457981E+03  0.77888147015E+03 -0.10101730892E+03  0.10877842133E+04  0.25500000920E-02 0.  1.
</event>
<event>
 5   0  0.6676612E-05  0.2305950E+04  0.7818609E-02  0.8475579E-01
       -2   -1    0    0    0  501  0.00000000000E+00  0.00000000000E+00  0.13969434958E+04  0.13969434958E+04  0.25500000920E-02 0.  1.
        2   -1    0    0  501    0  0.00000000000E+00  0.00000000000E+00 -0.95161405830E+03  0.95161405831E+03  0.25500000920E-02 0. -1.
    10030    2    1    2    0    0  0.00000000000E+00  0.00000000000E+00  0.44532943747E+03  0.23485575541E+04  0.23059497560E+04 0.  0.
        2    1    3    3  502    0  0.40569356309E+03 -0.10741680468E+04  0.11620187764E+03  0.11540914765E+04  0.25500000920E-02 0.  1.
       -2    1    3    3    0  502 -0.40569356309E+03  0.10741680468E+04  0.32912755983E+03  0.11944660776E+04  0.25500000920E-02 0. -1.
</event>
<event>
 5   0  0.6676612E-05  0.2304530E+04  0.7818609E-02  0.8476137E-01
        2   -1    0    0  501    0  0.00000000000E+00  0.00000000000E+00  0.11561247450E+04  0.11561247450E+04  0.25500000920E-02 0. -1.
       -2   -1    0    0    0  501  0.00000000000E+00  0.00000000000E+00 -0.11484183684E+04  0.11484183684E+04  0.25500000920E-02 0.  1.
    10030    2    1    2    0    0  0.00000000000E+00  0.00000000000E+00  0.77063766421E+01  0.23045431135E+04  0.23045302284E+04 0.  0.
        2    1    3    3  502    0 -0.68062491936E+03 -0.11646905776E+02  0.93355132610E+03  0.11553804610E+04  0.25500000920E-02 0. -1.
       -2    1    3    3    0  502  0.68062491936E+03  0.11646905776E+02 -0.92584494946E+03  0.11491626524E+04  0.25500000920E-02 0.  1.
</event>
<event>
 5   0  0.3006265E-05  0.2303072E+04  0.7818609E-02  0.8476711E-01
       -1   -1    0    0    0  501  0.00000000000E+00  0.00000000000E+00  0.75926474013E+03  0.75926474014E+03  0.50400001928E-02 0. -1.
        1   -1    0    0  501    0  0.00000000000E+00  0.00000000000E+00 -0.17464725718E+04  0.17464725719E+04  0.50400001928E-02 0.  1.
    10030    2    1    2    0    0  0.00000000000E+00  0.00000000000E+00 -0.98720783172E+03  0.25057373120E+04  0.23030718994E+04 0.  0.
        2    1    3    3  502    0 -0.32758416757E+03  0.10508913888E+04 -0.86151927923E+03  0.13978195758E+04  0.25500000920E-02 0. -1.
       -2    1    3    3    0  502  0.32758416757E+03 -0.10508913888E+04 -0.12568855249E+03  0.11079177362E+04  0.25500000920E-02 0.  1.
</event>
<event>
 5   0  0.2982385E-05  0.2301512E+04  0.7818609E-02  0.8477325E-01
       -1   -1    0    0    0  501  0.00000000000E+00  0.00000000000E+00  0.80432205080E+03  0.80432205081E+03  0.50400001928E-02 0. -1.
        1   -1    0    0  501    0  0.00000000000E+00  0.00000000000E+00 -0.16464046164E+04  0.16464046164E+04  0.50400001928E-02 0.  1.
    10030    2    1    2    0    0  0.00000000000E+00  0.00000000000E+00 -0.84208256563E+03  0.24507266672E+04  0.23015121443E+04 0.  0.
        4    1    3    3  502    0 -0.19313975912E+03 -0.11003098219E+04 -0.12699831592E+03  0.11243286245E+04  0.12699999809E+01 0.  1.
       -4    1    3    3    0  502  0.19313975912E+03  0.11003098219E+04 -0.71508424971E+03  0.13263980427E+04  0.12699999809E+01 0. -1.
</event>
<event>
 5   0  0.3118614E-05  0.2341269E+04  0.7818609E-02  0.8461825E-01
       -1   -1    0    0    0  501  0.00000000000E+00  0.00000000000E+00  0.10119520952E+04  0.10119520952E+04  0.50400001928E-02 0.  1.
        1   -1    0    0  501    0  0.00000000000E+00  0.00000000000E+00 -0.13541990328E+04  0.13541990328E+04  0.50400001928E-02 0. -1.
    10030    2    1    2    0    0  0.00000000000E+00  0.00000000000E+00 -0.34224693758E+03  0.23661511280E+04  0.23412685011E+04 0.  0.
        3    1    3    3  502    0 -0.17257086478E+03  0.11148032053E+04 -0.48720554292E+03  0.12287945887E+04  0.10100000352E+00 0. -1.
       -3    1    3    3    0  502  0.17257086478E+03 -0.11148032053E+04  0.14495860535E+03  0.11373565393E+04  0.10100000352E+00 0.  1.
</event>
<event>
 5   0  0.6495405E-05  0.2257696E+04  0.7818609E-02  0.8494790E-01
        2   -1    0    0  501    0  0.00000000000E+00  0.00000000000E+00  0.18008961732E+04  0.18008961732E+04  0.25500000920E-02 0.  1.
       -2   -1    0    0    0  501  0.00000000000E+00  0.00000000000E+00 -0.70759124044E+03  0.70759124044E+03  0.25500000920E-02 0. -1.
    10030    2    1    2    0    0  0.00000000000E+00  0.00000000000E+00  0.10933049328E+04  0.25084874137E+04  0.22576964872E+04 0.  0.
        5    1    3    3  502    0 -0.10173709269E+04  0.39486048579E+03  0.86736462498E+03  0.13940236328E+04  0.46999998093E+01 0. -1.
       -5    1    3    3    0  502  0.10173709269E+04 -0.39486048579E+03  0.22594030781E+03  0.11144637809E+04  0.46999998093E+01 0.  1.
</event>
<event>
 5   0  0.2982385E-05  0.2073854E+04  0.7818609E-02  0.8572849E-01
        1   -1    0    0  501    0  0.00000000000E+00  0.00000000000E+00  0.11825926091E+04  0.11825926091E+04  0.50400001928E-02 0. -1.
       -1   -1    0    0    0  501  0.00000000000E+00  0.00000000000E+00 -0.90920333267E+03  0.90920333268E+03  0.50400001928E-02 0.  1.
    10030    2    1    2    0    0  0.00000000000E+00  0.00000000000E+00  0.27338927640E+03  0.20917959418E+04  0.20738535545E+04 0.  0.
        4    1    3    3  502    0  0.57021337407E+03  0.34691552025E+03  0.93711036821E+03  0.11505090722E+04  0.12699999809E+01 0. -1.
       -4    1    3    3    0  502 -0.57021337407E+03 -0.34691552025E+03 -0.66372109181E+03  0.94128686954E+03  0.12699999809E+01 0.  1.
</event>
<event>
 5   0  0.6495405E-05  0.2287420E+04  0.7818609E-02  0.8482898E-01
       -2   -1    0    0    0  501  0.00000000000E+00  0.00000000000E+00  0.11329182772E+04  0.11329182772E+04  0.25500000920E-02 0. -1.
        2   -1    0    0  501    0  0.00000000000E+00  0.00000000000E+00 -0.11546042642E+04  0.11546042642E+04  0.25500000920E-02 0.  1.
    10030    2    1    2    0    0  0.00000000000E+00  0.00000000000E+00 -0.21685987001E+02  0.22875225415E+04  0.22874197463E+04 0.  0.
        5    1    3    3  502    0  0.92693417493E+03  0.59888720536E+03 -0.31115190069E+03  0.11466082351E+04  0.46999998093E+01 0.  1.
       -5    1    3    3    0  502 -0.92693417493E+03 -0.59888720536E+03  0.28946591369E+03  0.11409143064E+04  0.46999998093E+01 0. -1.
</event>
<event>
 5   0  0.2982385E-05  0.2355113E+04  0.7818609E-02  0.8456502E-01
        1   -1    0    0  501    0  0.00000000000E+00  0.00000000000E+00  0.13219680122E+04  0.13219680122E+04  0.50400001928E-02 0. -1.
       -1   -1    0    0    0  501  0.00000000000E+00  0.00000000000E+00 -0.10489208578E+04  0.10489208578E+04  0.50400001928E-02 0.  1.
    10030    2    1    2    0    0  0.00000000000E+00  0.00000000000E+00  0.27304715444E+03  0.23708888700E+04  0.23551134337E+04 0.  0.
        4    1    3    3  502    0 -0.81934351678E+03  0.42271927313E+03  0.87397588539E+03  0.12703742927E+04  0.12699999809E+01 0. -1.
       -4    1    3    3    0  502  0.81934351678E+03 -0.42271927313E+03 -0.60092873095E+03  0.11005145773E+04  0.12699999809E+01 0.  1.
</event>
<event>
 5   0  0.2944089E-05  0.2263952E+04  0.7818609E-02  0.8492272E-01
       -1   -1    0    0    0  501  0.00000000000E+00  0.00000000000E+00  0.63040957111E+03  0.63040957113E+03  0.50400001928E-02 0.  1.
        1   -1    0    0  501    0  0.00000000000E+00  0.00000000000E+00 -0.20325982696E+04  0.20325982697E+04  0.50400001928E-02 0. -1.
    10030    2    1    2    0    0  0.00000000000E+00  0.00000000000E+00 -0.14021886985E+04  0.26630078408E+04  0.22639517693E+04 0.  0.
        5    1    3    3  502    0  0.30424643460E+03  0.93219745925E+03 -0.35917308560E+02  0.98125946571E+03  0.46999998093E+01 0.  1.
       -5    1    3    3    0  502 -0.30424643460E+03 -0.93219745925E+03 -0.13662713900E+04  0.16817483751E+04  0.46999998093E+01 0. -1.
</event>
<event>
 5   0  0.3118614E-05  0.2289952E+04  0.7818609E-02  0.8481894E-01
        1   -1    0    0  501    0  0.00000000000E+00  0.00000000000E+00  0.15081992306E+04  0.15081992306E+04  0.50400001928E-02 0.  1.
       -1   -1    0    0    0  501  0.00000000000E+00  0.00000000000E+00 -0.86922848311E+03  0.86922848312E+03  0.50400001928E-02 0. -1.
    10030    2    1    2    0    0  0.00000000000E+00  0.00000000000E+00  0.63897074750E+03  0.23774277137E+04  0.22899517283E+04 0.  0.
        3    1    3    3  502    0  0.77443624285E+03 -0.84218456105E+03  0.27371747304E+03  0.11764130203E+04  0.10100000352E+00 0.  1.
       -3    1    3    3    0  502 -0.77443624285E+03  0.84218456105E+03  0.36525327446E+03  0.12010146934E+04  0.10100000352E+00 0. -1.
</event>
<event>
 5   0  0.2962279E-05  0.2237430E+04  0.7818609E-02  0.8503009E-01
        1   -1    0    0  501    0  0.00000000000E+00  0.00000000000E+00  0.17334934436E+04  0.17334934436E+04  0.50400001928E-02 0. -1.
       -1   -1    0    0    0  501  0.00000000000E+00  0.00000000000E+00 -0.72196584766E+03  0.72196584767E+03  0.50400001928E-02 0.  1.
    10030    2    1    2    0    0  0.00000000000E+00  0.00000000000E+00  0.10115275960E+04  0.24554592913E+04  0.22374298322E+04 0.  0.
        1    1    3    3  502    0 -0.95081196197E+03  0.58946161774E+03  0.50996826793E+03  0.12294616790E+04  0.50400001928E-02 0. -1.
       -1    1    3    3    0  502  0.95081196197E+03 -0.58946161774E+03  0.50155932803E+03  0.12259976123E+04  0.50400001928E-02 0.  1.
</event>
<event>
 5   0  0.6702421E-05  0.2254858E+04  0.7818609E-02  0.8495936E-01
       -2   -1    0    0    0  501  0.00000000000E+00  0.00000000000E+00  0.73914153568E+03  0.73914153568E+03  0.25500000920E-02 0.  1.
        2   -1    0    0  501    0  0.00000000000E+00  0.00000000000E+00 -0.17196920885E+04  0.17196920885E+04  0.25500000920E-02 0. -1.
    10030    2    1    2    0    0  0.00000000000E+00  0.00000000000E+00 -0.98055055283E+03  0.24588336242E+04  0.22548577349E+04 0.  0.
        4    1    3    3  502    0 -0.20934275600E+03  0.47258692896E+03 -0.15828773627E+04  0.16651321729E+04  0.12699999809E+01 0. -1.
       -4    1    3    3    0  502  0.20934275600E+03 -0.47258692896E+03  0.60232680991E+03  0.79370145127E+03  0.12699999809E+01 0.  1.
</event>
<event>
 5   0  0.6676612E-05  0.2440637E+04  0.7818609E-02  0.8424444E-01
       -2   -1    0    0    0  501  0.00000000000E+00  0.00000000000E+00  0.11813157577E+04  0.11813157577E+04  0.25500000920E-02 0.  1.
        2   -1    0    0  501    0  0.00000000000E+00  0.00000000000E+00 -0.12606093910E+04  0.12606093910E+04  0.25500000920E-02 0. -1.
    10030    2    1    2    0    0  0.00000000000E+00  0.00000000000E+00 -0.79293633292E+02  0.24419251488E+04  0.24406374069E+04 0.  0.
        2    1    3    3  502    0 -0.16986509626E+03  0.28317762959E+02 -0.12483908998E+04  0.12602126350E+04  0.25500000920E-02 0. -1.
       -2    1    3    3    0  502  0.16986509626E+03 -0.28317762959E+02  0.11690972665E+04  0.11817125138E+04  0.25500000920E-02 0.  1.
</event>
<event>
 5   0  0.3118614E-05  0.2537219E+04  0.7818609E-02  0.8389845E-01
       -1   -1    0    0    0  501  0.00000000000E+00  0.00000000000E+00  0.13053279260E+04  0.13053279260E+04  0.50400001928E-02 0. -1.
        1   -1    0    0  501    0  0.00000000000E+00  0.00000000000E+00 -0.12329243313E+04  0.12329243313E+04  0.50400001928E-02 0.  1.
    10030    2    1    2    0    0  0.00000000000E+00  0.00000000000E+00  0.72403594723E+02  0.25382522574E+04  0.25372193917E+04 0.  0.
        3    1    3    3  502    0  0.12214987540E+04 -0.30318239322E+03  0.19561465126E+03  0.12736733771E+04  0.10100000352E+00 0. -1.
       -3    1    3    3    0  502 -0.12214987540E+04  0.30318239322E+03 -0.12321105653E+03  0.12645788802E+04  0.10100000352E+00 0.  1.
</event>
<event>
 5   0  0.6468758E-05  0.2345742E+04  0.7818609E-02  0.8460101E-01
       -2   -1    0    0    0  501  0.00000000000E+00  0.00000000000E+00  0.78584693614E+03  0.78584693614E+03  0.25500000920E-02 0.  1.
        2   -1    0    0  501    0  0.00000000000E+00  0.00000000000E+00 -0.17505010345E+04  0.17505010345E+04  0.25500000920E-02 0. -1.
    10030    2    1    2    0    0  0.00000000000E+00  0.00000000000E+00 -0.96465409835E+03  0.25363479706E+04  0.23457415669E+04 0.  0.
        3    1    3    3  502    0  0.40282363559E+03 -0.10570763062E+04 -0.81725249384E+03  0.13955568234E+04  0.10100000352E+00 0. -1.
       -3    1    3    3    0  502 -0.40282363559E+03  0.10570763062E+04 -0.14740160452E+03  0.11407911472E+04  0.10100000352E+00 0.  1.
</event>
<event>
 5   0  0.2962279E-05  0.2233447E+04  0.7818609E-02  0.8504634E-01
        1   -1    0    0  501    0  0.00000000000E+00  0.00000000000E+00  0.14656646552E+04  0.14656646553E+04  0.50400001928E-02 0.  1.
       -1   -1    0    0    0  501  0.00000000000E+00  0.00000000000E+00 -0.85085698980E+03  0.85085698981E+03  0.50400001928E-02 0. -1.
    10030    2    1    2    0    0  0.00000000000E+00  0.00000000000E+00  0.61480766545E+03  0.23165216451E+04  0.22334466787E+04 0.  0.
        1    1    3    3  502    0 -0.55227665735E+01  0.43456286177E+02 -0.84996550086E+03  0.85109359206E+03  0.50400001928E-02 0. -1.
       -1    1    3    3    0  502  0.55227665735E+01 -0.43456286177E+02  0.14647731663E+04  0.14654280530E+04  0.50400001928E-02 0.  1.
</event>
<event>
 5   0  0.2982385E-05  0.2328749E+04  0.7818609E-02  0.8466671E-01
       -1   -1    0    0    0  501  0.00000000000E+00  0.00000000000E+00  0.82249084006E+03  0.82249084007E+03  0.50400001928E-02 0. -1.
        1   -1    0    0  501    0  0.00000000000E+00  0.00000000000E+00 -0.16483678996E+04  0.16483678997E+04  0.50400001928E-02 0.  1.
    10030    2    1    2    0    0  0.00000000000E+00  0.00000000000E+00 -0.82587705959E+03  0.24708587397E+04  0.23287485897E+04 0.  0.
        4    1    3    3  502    0 -0.31070483093E+03  0.73564021489E+03 -0.13120349005E+04  0.15359496121E+04  0.12699999809E+01 0.  1.
       -4    1    3    3    0  502  0.31070483093E+03 -0.73564021489E+03  0.48615784095E+03  0.93490912764E+03  0.12699999809E+01 0. -1.
</event>
<event>
 5   0  0.2944089E-05  0.2307037E+04  0.7818609E-02  0.8475152E-01
       -1   -1    0    0    0  501  0.00000000000E+00  0.00000000000E+00  0.18649027803E+04  0.18649027803E+04  0.50400001928E-02 0. -1.
        1   -1    0    0  501    0  0.00000000000E+00  0.00000000000E+00 -0.71349830707E+03  0.71349830708E+03  0.50400001928E-02 0.  1.
    10030    2    1    2    0    0  0.00000000000E+00  0.00000000000E+00  0.11514044732E+04  0.25784010874E+04  0.23070370406E+04 0.  0.
        5    1    3    3  502    0  0.16848647819E+02  0.28918092895E+03  0.18235806005E+04  0.18464500489E+04  0.46999998093E+01 0. -1.
       -5    1    3    3    0  502 -0.16848647819E+02 -0.28918092895E+03 -0.67217612729E+03  0.73195103846E+03  0.46999998093E+01 0.  1.
</event>
<event>
 5   0  0.6468758E-05  0.2335218E+04  0.7818609E-02  0.8464163E-01
       -2   -1    0    0    0  501  0.00000000000E+00  0.00000000000E+00  0.10963275493E+04  0.10963275493E+04  0.25500000920E-02 0. -1.
        2   -1    0    0  501    0  0.00000000000E+00  0.00000000000E+00 -0.12435255257E+04  0.12435255257E+04  0.25500000920E-02 0.  1.
    10030    2    1    2    0    0  0.00000000000E+00  0.00000000000E+00 -0.14719797632E+03  0.23398530750E+04  0.23352184413E+04 0.  0.
        3    1    3    3  502    0  0.17898898085E+03  0.72034898670E+03 -0.97670437507E+03  0.12267400558E+04  0.10100000352E+00 0.  1.
       -3    1    3    3    0  502 -0.17898898085E+03 -0.72034898670E+03  0.82950639874E+03  0.11131130193E+04  0.10100000352E+00 0. -1.
</event>
<event>
 5   0  0.2962279E-05  0.2293440E+04  0.7818609E-02  0.8480512E-01
       -1   -1    0    0    0  501  0.00000000000E+00  0.00000000000E+00  0.83526914048E+03  0.83526914050E+03  0.50400001928E-02 0.  1.
        1   -1    0    0  501    0  0.00000000000E+00  0.00000000000E+00 -0.15743034229E+04  0.15743034229E+04  0.50400001928E-02 0. -1.
    10030    2    1    2    0    0  0.00000000000E+00  0.00000000000E+00 -0.73903428242E+03  0.24095725634E+04  0.22934402691E+04 0.  0.
        1    1    3    3  502    0 -0.73803660852E+03  0.71295155237E+03  0.16822939604E+03  0.10398553175E+04  0.50400001928E-02 0.  1.
       -1    1    3    3    0  502  0.73803660852E+03 -0.71295155237E+03 -0.90726367847E+03  0.13697172459E+04  0.50400001928E-02 0. -1.
</event>
<event>
 5   0  0.6814789E-05  0.2301605E+04  0.7818609E-02  0.8477289E-01
        2   -1    0    0  501    0  0.00000000000E+00  0.00000000000E+00  0.15031338408E+04  0.15031338408E+04  0.25500000920E-02 0. -1.
       -2   -1    0    0    0  501  0.00000000000E+00  0.00000000000E+00 -0.88105664491E+03  0.88105664492E+03  0.25500000920E-02 0.  1.
    10030    2    1    2    0    0  0.00000000000E+00  0.00000000000E+00  0.62207719585E+03  0.23841904857E+04  0.23016047086E+04 0.  0.
        1    1    3    3  502    0  0.92415789650E+03  0.34804242851E+03  0.92312530189E+03  0.13517994203E+04  0.50400001928E-02 0. -1.
       -1    1    3    3    0  502 -0.92415789650E+03 -0.34804242851E+03 -0.30104810604E+03  0.10323910654E+04  0.50400001928E-02 0.  1.
</event>
<event>
 5   0  0.2982385E-05  0.2300511E+04  0.7818609E-02  0.8477720E-01
       -1   -1    0    0    0  501  0.00000000000E+00  0.00000000000E+00  0.42430206240E+03  0.42430206243E+03  0.50400001928E-02 0. -1.
        1   -1    0    0  501    0  0.00000000000E+00  0.00000000000E+00 -0.31182675255E+04  0.31182675255E+04  0.50400001928E-02 0.  1.
    10030    2    1    2    0    0  0.00000000000E+00  0.00000000000E+00 -0.26939654630E+04  0.35425695879E+04  0.23005106757E+04 0.  0.
        4    1    3    3  502    0  0.27725662353E+03 -0.10127356006E+04 -0.62374964923E+03  0.12212984360E+04  0.12699999809E+01 0. -1.
       -4    1    3    3    0  502 -0.27725662353E+03  0.10127356006E+04 -0.20702158138E+04  0.23212711519E+04  0.12699999809E+01 0.  1.
</event>
<event>
 5   0  0.2944089E-05  0.2309246E+04  0.7818609E-02  0.8474285E-01
       -1   -1    0    0    0  501  0.00000000000E+00  0.00000000000E+00  0.82551719796E+03  0.82551719798E+03  0.50400001928E-02 0.  1.
        1   -1    0    0  501    0  0.00000000000E+00  0.00000000000E+00 -0.16149319082E+04  0.16149319083E+04  0.50400001928E-02 0. -1.
    10030    2    1    2    0    0  0.00000000000E+00  0.00000000000E+00 -0.78941471029E+03  0.24404491062E+04  0.23092458196E+04 0.  0.
        5    1    3    3  502    0 -0.43094175901E+03  0.27207802769E+03  0.70020489968E+03  0.86605210255E+03  0.46999998093E+01 0.  1.
       -5    1    3    3    0  502  0.43094175901E+03 -0.27207802769E+03 -0.14896196100E+04  0.15743970037E+04  0.46999998093E+01 0. -1.
</event>
<event>
 5   0  0.3006265E-05  0.2286730E+04  0.7818609E-02  0.8483172E-01
        1   -1    0    0  501    0  0.00000000000E+00  0.00000000000E+00  0.21461730109E+04  0.21461730109E+04  0.50400001928E-02 0. -1.
       -1   -1    0    0    0  501  0.00000000000E+00  0.00000000000E+00 -0.60912307337E+03  0.60912307339E+03  0.50400001928E-02 0.  1.
    10030    2    1    2    0    0  0.00000000000E+00  0.00000000000E+00  0.15370499375E+04  0.27552960843E+04  0.22867299800E+04 0.  0.
        2    1    3    3  502    0 -0.48941488800E+03  0.10309850223E+04  0.68481689222E+03  0.13309512481E+04  0.25500000920E-02 0. -1.
       -2    1    3    3    0  502  0.48941488800E+03 -0.10309850223E+04  0.85223304528E+03  0.14243448362E+04  0.25500000920E-02 0.  1.
</event>
<event>
 5   0  0.3006265E-05  0.2279083E+04  0.7818609E-02  0.8486214E-01
        1   -1    0    0  501    0  0.00000000000E+00  0.00000000000E+00  0.14847084554E+04  0.14847084555E+04  0.50400001928E-02 0.  1.
       -1   -1    0    0    0  501  0.00000000000E+00  0.00000000000E+00 -0.87461922266E+03  0.87461922268E+03  0.50400001928E-02 0. -1.
    10030    2    1    2    0    0  0.00000000000E+00  0.00000000000E+00  0.61008923278E+03  0.23593276781E+04  0.22790827587E+04 0.  0.
        2    1    3    3  502    0 -0.40792259288E+03  0.90981501898E+03 -0.26609673276E+03  0.10319746517E+04  0.25500000920E-02 0. -1.
       -2    1    3    3    0  502  0.40792259288E+03 -0.90981501898E+03  0.87618596554E+03  0.13273530264E+04  0.25500000920E-02 0.  1.
</event>
<event>
 5   0  0.2944089E-05  0.2309748E+04  0.7818609E-02  0.8474088E-01
        1   -1    0    0  501    0  0.00000000000E+00  0.00000000000E+00  0.14627978455E+04  0.14627978455E+04  0.50400001928E-02 0. -1.
       -1   -1    0    0    0  501  0.00000000000E+00  0.00000000000E+00 -0.91176909381E+03  0.91176909382E+03  0.50400001928E-02 0.  1.
    10030    2    1    2    0    0  0.00000000000E+00  0.00000000000E+00  0.55102875165E+03  0.23745669393E+04  0.23097479222E+04 0.  0.
        5    1    3    3  502    0 -0.10044718616E+04 -0.28419194881E+03  0.78332245675E+03  0.13051225789E+04  0.46999998093E+01 0. -1.
       -5    1    3    3    0  502  0.10044718616E+04  0.28419194881E+03 -0.23229370510E+03  0.10694443604E+04  0.46999998093E+01 0.  1.
</event>
<event>
 5   0  0.6676612E-05  0.2295134E+04  0.7818609E-02  0.8479842E-01
       -2   -1    0    0    0  501  0.00000000000E+00  0.00000000000E+00  0.63915455970E+03  0.63915455971E+03  0.25500000920E-02 0.  1.
        2   -1    0    0  501    0  0.00000000000E+00  0.00000000000E+00 -0.20603942212E+04  0.20603942212E+04  0.25500000920E-02 0. -1.
    10030    2    1    2    0    0  0.00000000000E+00  0.00000000000E+00 -0.14212396614E+04  0.26995487809E+04  0.22951342978E+04 0.  0.
        2    1    3    3  502    0  0.98588874522E+03  0.73435916943E+02 -0.13959962060E+04  0.17106065763E+04  0.25500000920E-02 0. -1.
       -2    1    3    3    0  502 -0.98588874522E+03 -0.73435916943E+02 -0.25243455469E+02  0.98894220453E+03  0.25500000920E-02 0.  1.
</event>
<event>
 5   0  0.2962279E-05  0.2264297E+04  0.7818609E-02  0.8492133E-01
       -1   -1    0    0    0  501  0.00000000000E+00  0.00000000000E+00  0.94390832088E+03  0.94390832089E+03  0.50400001928E-02 0. -1.
        1   -1    0    0  501    0  0.00000000000E+00  0.00000000000E+00 -0.13579292458E+04  0.13579292458E+04  0.50400001928E-02 0.  1.
    10030    2    1    2    0    0  0.00000000000E+00  0.00000000000E+00 -0.41402092490E+03  0.23018375667E+04  0.22642974312E+04 0.  0.
        1    1    3    3  502    0 -0.91811974297E+03 -0.54644898442E+03  0.17364428514E+03  0.10824521665E+04  0.50400001928E-02 0. -1.
       -1    1    3    3    0  502  0.91811974297E+03  0.54644898442E+03 -0.58766521003E+03  0.12193854002E+04  0.50400001928E-02 0.  1.
</event>
<event>
 5   0  0.2962279E-05  0.2251772E+04  0.7818609E-02  0.8497183E-01
       -1   -1    0    0    0  501  0.00000000000E+00  0.00000000000E+00  0.15722453074E+04  0.15722453074E+04  0.50400001928E-02 0.  1.
        1   -1    0    0  501    0  0.00000000000E+00  0.00000000000E+00 -0.80624763609E+03  0.80624763610E+03  0.50400001928E-02 0. -1.
    10030    2    1    2    0    0  0.00000000000E+00  0.00000000000E+00  0.76599767131E+03  0.23784929435E+04  0.22517718024E+04 0.  0.
        1    1    3    3  502    0  0.88894017992E+03  0.44682498324E+03  0.93967929077E+03  0.13685263529E+04  0.50400001928E-02 0.  1.
       -1    1    3    3    0  502 -0.88894017992E+03 -0.44682498324E+03 -0.17368161947E+03  0.10099665906E+04  0.50400001928E-02 0. -1.
</event>
<event>
 5   0  0.2962279E-05  0.2292064E+04  0.7818609E-02  0.8481057E-01
        1   -1    0    0  501    0  0.00000000000E+00  0.00000000000E+00  0.14351393614E+04  0.14351393614E+04  0.50400001928E-02 0.  1.
       -1   -1    0    0    0  501  0.00000000000E+00  0.00000000000E+00 -0.91516508829E+03  0.91516508831E+03  0.50400001928E-02 0. -1.
    10030    2    1    2    0    0  0.00000000000E+00  0.00000000000E+00  0.51997427307E+03  0.23503044497E+04  0.22920640832E+04 0.  0.
        1    1    3    3  502    0  0.13784854770E+03  0.10702123738E+04  0.65584396608E+03  0.12627303968E+04  0.50400001928E-02 0. -1.
       -1    1    3    3    0  502 -0.13784854770E+03 -0.10702123738E+04 -0.13586969301E+03  0.10875740529E+04  0.50400001928E-02 0.  1.
</event>
<event>
 5   0  0.6702421E-05  0.2168745E+04  0.7818609E-02  0.8531551E-01
       -2   -1    0    0    0  501  0.00000000000E+00  0.00000000000E+00  0.12388890014E+04  0.12388890014E+04  0.25500000920E-02 0.  1.
        2   -1    0    0  501    0  0.00000000000E+00  0.00000000000E+00 -0.94912764356E+03  0.94912764357E+03  0.25500000920E-02 0. -1.
    10030    2    1    2    0    0  0.00000000000E+00  0.00000000000E+00  0.28976135782E+03  0.21880166450E+04  0.21687450736E+04 0.  0.
        4    1    3    3  502    0  0.10239122777E+04  0.30819589639E+03  0.32670736854E+03  0.11180878232E+04  0.12699999809E+01 0.  1.
       -4    1    3    3    0  502 -0.10239122777E+04 -0.30819589639E+03 -0.36946010724E+02  0.10699288217E+04  0.12699999809E+01 0. -1.
</event>
<event>
 5   0  0.3118614E-05  0.2212062E+04  0.7818609E-02  0.8513424E-01
        1   -1    0    0  501    0  0.00000000000E+00  0.00000000000E+00  0.65402269205E+03  0.65402269207E+03  0.50400001928E-02 0.  1.
       -1   -1    0    0    0  501  0.00000000000E+00  0.00000000000E+00 -0.18704309041E+04  0.18704309041E+04  0.50400001928E-02 0. -1.
    10030    2    1    2    0    0  0.00000000000E+00  0.00000000000E+00 -0.12164082120E+04  0.25244535962E+04  0.22120617127E+04 0.  0.
        3    1    3    3  502    0  0.69666888967E+03 -0.13607063573E+03 -0.15761874659E+04  0.17286496747E+04  0.10100000352E+00 0. -1.
       -3    1    3    3    0  502 -0.69666888967E+03  0.13607063573E+03  0.35977925390E+03  0.79580392150E+03  0.10100000352E+00 0.  1.
</event>
<event>
 5   0  0.6702421E-05  0.2190473E+04  0.7818609E-02  0.8522404E-01
        2   -1    0    0  501    0  0.00000000000E+00  0.00000000000E+00  0.12055817026E+04  0.12055817026E+04  0.25500000920E-02 0. -1.
       -2   -1    0    0    0  501  0.00000000000E+00  0.00000000000E+00 -0.99499137199E+03  0.99499137199E+03  0.25500000920E-02 0.  1.
    10030    2    1    2    0    0  0.00000000000E+00  0.00000000000E+00  0.21059033056E+03  0.22005730745E+04  0.21904733664E+04 0.  0.
        4    1    3    3  502    0  0.61108459582E+03  0.31826952323E+03  0.96058532051E+03  0.11821360512E+04  0.12699999809E+01 0. -1.
       -4    1    3    3    0  502 -0.61108459582E+03 -0.31826952323E+03 -0.74999498995E+03  0.10184370233E+04  0.12699999809E+01 0.  1.
</event>
<event>
 5   0  0.6468758E-05  0.2286944E+04  0.7818609E-02  0.8483087E-01
        2   -1    0    0  501    0  0.00000000000E+00  0.00000000000E+00  0.15405831138E+04  0.15405831138E+04  0.25500000920E-02 0. -1.
       -2   -1    0    0    0  501  0.00000000000E+00  0.00000000000E+00 -0.84872278016E+03  0.84872278016E+03  0.25500000920E-02 0.  1.
    10030    2    1    2    0    0  0.00000000000E+00  0.00000000000E+00  0.69186033360E+03  0.23893058939E+04  0.22869437976E+04 0.  0.
        3    1    3    3  502    0 -0.94172876038E+03  0.31630600203E+02  0.10227491204E+04  0.13906363027E+04  0.10100000352E+00 0. -1.
       -3    1    3    3    0  502  0.94172876038E+03 -0.31630600203E+02 -0.33088878677E+03  0.99866959121E+03  0.10100000352E+00 0.  1.
</event>
<event>
 5   0  0.6814789E-05  0.2284010E+04  0.7818609E-02  0.8484253E-01
        2   -1    0    0  501    0  0.00000000000E+00  0.00000000000E+00  0.12452147384E+04  0.12452147384E+04  0.25500000920E-02 0.  1.
       -2   -1    0    0    0  501  0.00000000000E+00  0.00000000000E+00 -0.10473496945E+04  0.10473496945E+04  0.25500000920E-02 0. -1.
    10030    2    1    2    0    0  0.00000000000E+00  0.00000000000E+00  0.19786504390E+03  0.22925644329E+04  0.22840098738E+04 0.  0.
        1    1    3    3  502    0 -0.64074407031E+03  0.38462072098E+03  0.96569979246E+03  0.12210905584E+04  0.50400001928E-02 0.  1.
       -1    1    3    3    0  502  0.64074407031E+03 -0.38462072098E+03 -0.76783474856E+03  0.10714738745E+04  0.50400001928E-02 0. -1.
</event>
<event>
 5   0  0.6702421E-05  0.2278930E+04  0.7818609E-02  0.8486275E-01
       -2   -1    0    0    0  501  0.00000000000E+00  0.00000000000E+00  0.13482508570E+04  0.13482508570E+04  0.25500000920E-02 0.  1.
        2   -1    0    0  501    0  0.00000000000E+00  0.00000000000E+00 -0.96301084513E+03  0.96301084513E+03  0.25500000920E-02 0. -1.
    10030    2    1    2    0    0  0.00000000000E+00  0.00000000000E+00  0.38524001189E+03  0.23112617022E+04  0.22789297464E+04 0.  0.
        4    1    3    3  502    0 -0.32859254873E+03  0.93632844655E+03  0.76065053874E+03  0.12503099127E+04  0.12699999809E+01 0.  1.
       -4    1    3    3    0  502  0.32859254873E+03 -0.93632844655E+03 -0.37541052685E+03  0.10609517894E+04  0.12699999809E+01 0. -1.
</event>
<event>
 5   0  0.3118614E-05  0.2321020E+04  0.7818609E-02  0.8469679E-01
       -1   -1    0    0    0  501  0.00000000000E+00  0.00000000000E+00  0.12100143129E+04  0.12100143129E+04  0.50400001928E-02 0.  1.
        1   -1    0    0  501    0  0.00000000000E+00  0.00000000000E+00 -0.11130311759E+04  0.11130311760E+04  0.50400001928E-02 0. -1.
    10030    2    1    2    0    0  0.00000000000E+00  0.00000000000E+00  0.96983136983E+02  0.23230454889E+04  0.23210201668E+04 0.  0.
        3    1    3    3  502    0 -0.55308602755E+02 -0.70868697119E+03  0.96661823907E+03  0.11998529472E+04  0.10100000352E+00 0.  1.
       -3    1    3    3    0  502  0.55308602755E+02  0.70868697119E+03 -0.86963510208E+03  0.11231925417E+04  0.10100000352E+00 0. -1.
</event>
<event>
 5   0  0.6468758E-05  0.2363226E+04  0.7818609E-02  0.8453401E-01
       -2   -1    0    0    0  501  0.00000000000E+00  0.00000000000E+00  0.21490998962E+04  0.21490998962E+04  0.25500000920E-02 0. -1.
        2   -1    0    0  501    0  0.00000000000E+00  0.00000000000E+00 -0.64967191083E+03  0.64967191083E+03  0.25500000920E-02 0.  1.
    10030    2    1    2    0    0  0.00000000000E+00  0.00000000000E+00  0.14994279853E+04  0.27987718070E+04  0.23632264691E+04 0.  0.
        3    1    3    3  502    0  0.38995824536E+03 -0.78830302353E+03 -0.18484949992E+03  0.89869819064E+03  0.10100000352E+00 0.  1.
       -3    1    3    3    0  502 -0.38995824536E+03  0.78830302353E+03  0.16842774852E+04  0.19000736163E+04  0.10100000352E+00 0. -1.
</event>
<event>
 5   0  0.3118614E-05  0.2299076E+04  0.7818609E-02  0.8478285E-01
        1   -1    0    0  501    0  0.00000000000E+00  0.00000000000E+00  0.11562787181E+04  0.11562787181E+04  0.50400001928E-02 0.  1.
       -1   -1    0    0    0  501  0.00000000000E+00  0.00000000000E+00 -0.11428368959E+04  0.11428368959E+04  0.50400001928E-02 0. -1.
    10030    2    1    2    0    0  0.00000000000E+00  0.00000000000E+00  0.13441822171E+02  0.22991156140E+04  0.22990763197E+04 0.  0.
        3    1    3    3  502    0 -0.96267924533E+03  0.38684680985E+02  0.63378037973E+03  0.11532239218E+04  0.10100000352E+00 0.  1.
       -3    1    3    3    0  502  0.96267924533E+03 -0.38684680985E+02 -0.62033855756E+03  0.11458916921E+04  0.10100000352E+00 0. -1.
</event>
<event>
 5   0  0.6702421E-05  0.2357511E+04  0.7818609E-02  0.8455584E-01
        2   -1    0    0  501    0  0.00000000000E+00  0.00000000000E+00  0.91356347191E+03  0.91356347191E+03  0.25500000920E-02 0.  1.
       -2   -1    0    0    0  501  0.00000000000E+00  0.00000000000E+00 -0.15209280630E+04  0.15209280630E+04  0.25500000920E-02 0. -1.
    10030    2    1    2    0    0  0.00000000000E+00  0.00000000000E+00 -0.60736459114E+03  0.24344915350E+04  0.23575108244E+04 0.  0.
        4    1    3    3  502    0 -0.21187342796E+03  0.62647348297E+03 -0.13113019181E+04  0.14686298743E+04  0.12699999809E+01 0. -1.
       -4    1    3    3    0  502  0.21187342796E+03 -0.62647348297E+03  0.70393732697E+03  0.96586166066E+03  0.12699999809E+01 0.  1.
</event>
<event>
 5   0  0.6676612E-05  0.2342004E+04  0.7818609E-02  0.8461541E-01
       -2   -1    0    0    0  501  0.00000000000E+00  0.00000000000E+00  0.77039940872E+03  0.77039940872E+03  0.25500000920E-02 0.  1.
        2   -1    0    0  501    0  0.00000000000E+00  0.00000000000E+00 -0.17799156745E+04  0.17799156745E+04  0.25500000920E-02 0. -1.
    10030    2    1    2    0    0  0.00000000000E+00  0.00000000000E+00 -0.10095162658E+04  0.25503150833E+04  0.23420042555E+04 0.  0.
        2    1    3    3  502    0 -0.93555042361E+03  0.69007460977E+03 -0.65794154217E+03  0.13357936349E+04  0.25500000920E-02 0. -1.
       -2    1    3    3    0  502  0.93555042361E+03 -0.69007460977E+03 -0.35157472365E+03  0.12145214483E+04  0.25500000920E-02 0.  1.
</event>
<event>
 5   0  0.6814789E-05  0.2280317E+04  0.7818609E-02  0.8485722E-01
        2   -1    0    0  501    0  0.00000000000E+00  0.00000000000E+00  0.21336651989E+04  0.21336651989E+04  0.25500000920E-02 0. -1.
       -2   -1    0    0    0  501  0.00000000000E+00  0.00000000000E+00 -0.60926220344E+03  0.60926220344E+03  0.25500000920E-02 0.  1.
    10030    2    1    2    0    0  0.00000000000E+00  0.00000000000E+00  0.15244029955E+04  0.27429274024E+04  0.22803171363E+04 0.  0.
        1    1    3    3  502    0  0.53958151086E+03 -0.83535270375E+03  0.91392764664E+02  0.99865658962E+03  0.50400001928E-02 0.  1.
       -1    1    3    3    0  502 -0.53958151086E+03  0.83535270375E+03  0.14330102308E+04  0.17442708128E+04  0.50400001928E-02 0. -1.
</event>
<event>
 5   0  0.6468758E-05  0.2376374E+04  0.7818609E-02  0.8448402E-01
       -2   -1    0    0    0  501  0.00000000000E+00  0.00000000000E+00  0.61480089707E+03  0.61480089708E+03  0.25500000920E-02 0. -1.
        2   -1    0    0  501    0  0.00000000000E+00  0.00000000000E+00 -0.22963333645E+04  0.22963333645E+04  0.25500000920E-02 0.  1.
    10030    2    1    2    0    0  0.00000000000E+00  0.00000000000E+00 -0.16815324674E+04  0.29111342616E+04  0.23763735502E+04 0.  0.
        3    1    3    3  502    0 -0.11252993937E+04 -0.30343100834E+03 -0.55763082670E+03  0.12920221559E+04  0.10100000352E+00 0. -1.
       -3    1    3    3    0  502  0.11252993937E+04  0.30343100834E+03 -0.11239016407E+04  0.16191121056E+04  0.10100000352E+00 0.  1.
</event>
<event>
 5   0  0.6676612E-05  0.2287617E+04  0.7818609E-02  0.8482820E-01
       -2   -1    0    0    0  501  0.00000000000E+00  0.00000000000E+00  0.54713119751E+03  0.54713119752E+03  0.25500000920E-02 0.  1.
        2   -1    0    0  501    0  0.00000000000E+00  0.00000000000E+00 -0.23911960274E+04  0.23911960274E+04  0.25500000920E-02 0. -1.
    10030    2    1    2    0    0  0.00000000000E+00  0.00000000000E+00 -0.18440648299E+04  0.29383272250E+04  0.22876170536E+04 0.  0.
        2    1    3    3  502    0  0.14510984284E+02 -0.81350857148E+03 -0.19546296283E+04  0.21172113140E+04  0.25500000920E-02 0. -1.
       -2    1    3    3    0  502 -0.14510984284E+02  0.81350857148E+03  0.11056479835E+03  0.82111591093E+03  0.25500000920E-02 0.  1.
</event>
<event>
 5   0  0.3006265E-05  0.2329548E+04  0.7818609E-02  0.8466361E-01
        1   -1    0    0  501    0  0.00000000000E+00  0.00000000000E+00  0.94116587747E+03  0.94116587749E+03  0.50400001928E-02 0. -1.
       -1   -1    0    0    0  501  0.00000000000E+00  0.00000000000E+00 -0.14415080246E+04  0.14415080246E+04  0.50400001928E-02 0.  1.
    10030    2    1    2    0    0  0.00000000000E+00  0.00000000000E+00 -0.50034214711E+03  0.23826739021E+04  0.23295477371E+04 0.  0.
        2    1    3    3  502    0  0.80559579453E+02 -0.96527182142E+03  0.41146512513E+03  0.10523987287E+04  0.25500000920E-02 0.  1.
       -2    1    3    3    0  502 -0.80559579453E+02  0.96527182142E+03 -0.91180727224E+03  0.13302751733E+04  0.25500000920E-02 0. -1.
</event>
<event>
 5   0  0.3006265E-05  0.2269654E+04  0.7818609E-02  0.8489983E-01
       -1   -1    0    0    0  501  0.00000000000E+00  0.00000000000E+00  0.11113645546E+04  0.11113645546E+04  0.50400001928E-02 0.  1.
        1   -1    0    0  501    0  0.00000000000E+00  0.00000000000E+00 -0.11587849797E+04  0.11587849797E+04  0.50400001928E-02 0. -1.
    10030    2    1    2    0    0  0.00000000000E+00  0.00000000000E+00 -0.47420425124E+02  0.22701495343E+04  0.22696542052E+04 0.  0.
        2    1    3    3  502    0  0.86267754287E+03 -0.18076086032E+03 -0.73867074499E+03  0.11500093483E+04  0.25500000920E-02 0. -1.
       -2    1    3    3    0  502 -0.86267754287E+03  0.18076086032E+03  0.69125031987E+03  0.11201401860E+04  0.25500000920E-02 0.  1.
</event>
<event>
 5   0  0.2982385E-05  0.2278430E+04  0.7818609E-02  0.8486475E-01
       -1   -1    0    0    0  501  0.00000000000E+00  0.00000000000E+00  0.55072990540E+03  0.55072990542E+03  0.50400001928E-02 0.  1.
        1   -1    0    0  501    0  0.00000000000E+00  0.00000000000E+00 -0.23565291566E+04  0.23565291566E+04  0.50400001928E-02 0. -1.
    10030    2    1    2    0    0  0.00000000000E+00  0.00000000000E+00 -0.18057992512E+04  0.29072590620E+04  0.22784302311E+04 0.  0.
        4    1    3    3  502    0 -0.21312219862E+03  0.56167608413E+03 -0.21379838037E+04  0.22207830720E+04  0.12699999809E+01 0. -1.
       -4    1    3    3    0  502  0.21312219862E+03 -0.56167608413E+03  0.33218455252E+03  0.68647599002E+03  0.12699999809E+01 0.  1.
</event>
<event>
 5   0  0.2944089E-05  0.1887942E+04  0.7818609E-02  0.8660882E-01
        1   -1    0    0  501    0  0.00000000000E+00  0.00000000000E+00  0.72100405066E+03  0.72100405068E+03  0.50400001928E-02 0. -1.
       -1   -1    0    0    0  501  0.00000000000E+00  0.00000000000E+00 -0.12358896099E+04  0.12358896099E+04  0.50400001928E-02 0.  1.
    10030    2    1    2    0    0  0.00000000000E+00  0.00000000000E+00 -0.51488555921E+03  0.19568936606E+04  0.18879421759E+04 0.  0.
        5    1    3    3  502    0  0.74779685609E+03 -0.34227206532E+03 -0.73773293274E+03  0.11048177563E+04  0.46999998093E+01 0. -1.
       -5    1    3    3    0  502 -0.74779685609E+03  0.34227206532E+03  0.22284737353E+03  0.85207590422E+03  0.46999998093E+01 0.  1.
</event>
<event>
 5   0  0.2944089E-05  0.2302592E+04  0.7818609E-02  0.8476900E-01
       -1   -1    0    0    0  501  0.00000000000E+00  0.00000000000E+00  0.13039707029E+04  0.13039707029E+04  0.50400001928E-02 0. -1.
        1   -1    0    0  501    0  0.00000000000E+00  0.00000000000E+00 -0.10164970039E+04  0.10164970039E+04  0.50400001928E-02 0.  1.
    10030    2    1    2    0    0  0.00000000000E+00  0.00000000000E+00  0.28747369901E+03  0.23204677069E+04  0.23025918551E+04 0.  0.
        5    1    3    3  502    0 -0.85838704517E+03  0.51200279943E+03 -0.43208773874E+03  0.10888971898E+04  0.46999998093E+01 0.  1.
       -5    1    3    3    0  502  0.85838704517E+03 -0.51200279943E+03  0.71956143775E+03  0.12315705171E+04  0.46999998093E+01 0. -1.
</event>
<event>
 5   0  0.6468758E-05  0.2286470E+04  0.7818609E-02  0.8483275E-01
        2   -1    0    0  501    0  0.00000000000E+00  0.00000000000E+00  0.12545793592E+04  0.12545793592E+04  0.25500000920E-02 0. -1.
       -2   -1    0    0    0  501  0.00000000000E+00  0.00000000000E+00 -0.10417723607E+04  0.10417723607E+04  0.25500000920E-02 0.  1.
    10030    2    1    2    0    0  0.00000000000E+00  0.00000000000E+00  0.21280699847E+03  0.22963517199E+04  0.22864698561E+04 0.  0.
        3    1    3    3  502    0  0.69211625485E+03  0.13137615030E+02  0.10201645525E+04  0.12328557221E+04  0.10100000352E+00 0. -1.
       -3    1    3    3    0  502 -0.69211625485E+03 -0.13137615030E+02 -0.80735755403E+03  0.10634959978E+04  0.10100000352E+00 0.  1.
</event>
<event>
 5   0  0.6468758E-05  0.2183807E+04  0.7818609E-02  0.8525198E-01
        2   -1    0    0  501    0  0.00000000000E+00  0.00000000000E+00  0.18577554289E+04  0.18577554289E+04  0.25500000920E-02 0. -1.
       -2   -1    0    0    0  501  0.00000000000E+00  0.00000000000E+00 -0.64177108533E+03  0.64177108534E+03  0.25500000920E-02 0.  1.
    10030    2    1    2    0    0  0.00000000000E+00  0.00000000000E+00  0.12159843436E+04  0.24995265142E+04  0.21838074255E+04 0.  0.
        3    1    3    3  502    0 -0.16213458762E+02 -0.10687954411E+04  0.86307308941E+03  0.13738565205E+04  0.10100000352E+00 0. -1.
       -3    1    3    3    0  502  0.16213458762E+02  0.10687954411E+04  0.35291125414E+03  0.11256699937E+04  0.10100000352E+00 0.  1.
</event>
<event>
 5   0  0.2944089E-05  0.2146880E+04  0.7818609E-02  0.8540869E-01
       -1   -1    0    0    0  501  0.00000000000E+00  0.00000000000E+00  0.91622461659E+03  0.91622461660E+03  0.50400001928E-02 0. -1.
        1   -1    0    0  501    0  0.00000000000E+00  0.00000000000E+00 -0.12576320907E+04  0.12576320907E+04  0.50400001928E-02 0.  1.
    10030    2    1    2    0    0  0.00000000000E+00  0.00000000000E+00 -0.34140747409E+03  0.21738567073E+04  0.21468800433E+04 0.  0.
        5    1    3    3  502    0 -0.83178868374E+03 -0.63911579669E+03 -0.40140423979E+03  0.11231602155E+04  0.46999998093E+01 0.  1.
       -5    1    3    3    0  502  0.83178868374E+03  0.63911579669E+03  0.59996765694E+02  0.10506964918E+04  0.46999998093E+01 0. -1.
</event>
<event>
 5   0  0.6814789E-05  0.2304681E+04  0.7818609E-02  0.8476078E-01
       -2   -1    0    0    0  501  0.00000000000E+00  0.00000000000E+00  0.11322273779E+04  0.11322273779E+04  0.25500000920E-02 0. -1.
        2   -1    0    0  501    0  0.00000000000E+00  0.00000000000E+00 -0.11728111123E+04  0.11728111123E+04  0.25500000920E-02 0.  1.
    10030    2    1    2    0    0  0.00000000000E+00  0.00000000000E+00 -0.40583734311E+02  0.23050384902E+04  0.23046811931E+04 0.  0.
        1    1    3    3  502    0  0.74846236708E+03  0.23778790343E+03 -0.86371961520E+03  0.11673690829E+04  0.50400001928E-02 0.  1.
       -1    1    3    3    0  502 -0.74846236708E+03 -0.23778790343E+03  0.82313588088E+03  0.11376694073E+04  0.50400001928E-02 0. -1.
</event>
<event>
 5   0  0.3006265E-05  0.2202300E+04  0.7818609E-02  0.8517471E-01
        1   -1    0    0  501    0  0.00000000000E+00  0.00000000000E+00  0.95638691194E+03  0.95638691196E+03  0.50400001928E-02 0.  1.
       -1   -1    0    0    0  501  0.00000000000E+00  0.00000000000E+00 -0.12678251751E+04  0.12678251751E+04  0.50400001928E-02 0. -1.
    10030    2    1    2    0    0  0.00000000000E+00  0.00000000000E+00 -0.31143826317E+03  0.22242120871E+04  0.22023000741E+04 0.  0.
        2    1    3    3  502    0  0.51374838935E+03 -0.14332634369E+03 -0.11286584505E+04  0.12483387946E+04  0.25500000920E-02 0. -1.
       -2    1    3    3    0  502 -0.51374838935E+03  0.14332634369E+03  0.81722018731E+03  0.97587329244E+03  0.25500000920E-02 0.  1.
</event>
<event>
 5   0  0.6468758E-05  0.2294147E+04  0.7818609E-02  0.8480233E-01
        2   -1    0    0  501    0  0.00000000000E+00  0.00000000000E+00  0.15222570814E+04  0.15222570814E+04  0.25500000920E-02 0. -1.
       -2   -1    0    0    0  501  0.00000000000E+00  0.00000000000E+00 -0.86435937977E+03  0.86435937977E+03  0.25500000920E-02 0.  1.
    10030    2    1    2    0    0  0.00000000000E+00  0.00000000000E+00  0.65789770167E+03  0.23866164612E+04  0.22941466272E+04 0.  0.
        3    1    3    3  502    0  0.88796584051E+02  0.10342850911E+04 -0.17872376510E+03  0.10533625575E+04  0.10100000352E+00 0.  1.
       -3    1    3    3    0  502 -0.88796584051E+02 -0.10342850911E+04  0.83662146677E+03  0.13332539038E+04  0.10100000352E+00 0. -1.
</event>
<event>
 5   0  0.6702421E-05  0.2289274E+04  0.7818609E-02  0.8482162E-01
       -2   -1    0    0    0  501  0.00000000000E+00  0.00000000000E+00  0.14106467448E+04  0.14106467448E+04  0.25500000920E-02 0.  1.
        2   -1    0    0  501    0  0.00000000000E+00  0.00000000000E+00 -0.92878985800E+03  0.92878985800E+03  0.25500000920E-02 0. -1.
    10030    2    1    2    0    0  0.00000000000E+00  0.00000000000E+00  0.48185688678E+03  0.23394366028E+04  0.22892744613E+04 0.  0.
        4    1    3    3  502    0  0.80577434105E+03 -0.51645716403E+03  0.88253321915E+03  0.13018704954E+04  0.12699999809E+01 0.  1.
       -4    1    3    3    0  502 -0.80577434105E+03  0.51645716403E+03 -0.40067633237E+03  0.10375661074E+04  0.12699999809E+01 0. -1.
</event>
<event>
 5   0  0.6495405E-05  0.2234838E+04  0.7818609E-02  0.8504066E-01
        2   -1    0    0  501    0  0.00000000000E+00  0.00000000000E+00  0.21262850790E+04  0.21262850790E+04  0.25500000920E-02 0. -1.
       -2   -1    0    0    0  501  0.00000000000E+00  0.00000000000E+00 -0.58723342768E+03  0.58723342769E+03  0.25500000920E-02 0.  1.
    10030    2    1    2    0    0  0.00000000000E+00  0.00000000000E+00  0.15390516513E+04  0.27135185067E+04  0.22348384060E+04 0.  0.
        5    1    3    3  502    0 -0.45953506452E+03  0.69885787949E+03 -0.13014619569E+03  0.84648386488E+03  0.46999998093E+01 0.  1.
       -5    1    3    3    0  502  0.45953506452E+03 -0.69885787949E+03  0.16691978470E+04  0.18670346418E+04  0.46999998093E+01 0. -1.
</event>
<event>
 5   0  0.2962279E-05  0.2194972E+04  0.7818609E-02  0.8520524E-01
       -1   -1    0    0    0  501  0.00000000000E+00  0.00000000000E+00  0.64901127629E+03  0.64901127631E+03  0.50400001928E-02 0. -1.
        1   -1    0    0  501    0  0.00000000000E+00  0.00000000000E+00 -0.18558622345E+04  0.18558622345E+04  0.50400001928E-02 0.  1.
    10030    2    1    2    0    0  0.00000000000E+00  0.00000000000E+00 -0.12068509582E+04  0.25048735108E+04  0.21949719975E+04 0.  0.
        1    1    3    3  502    0 -0.78585914872E+03 -0.42446592305E+03  0.12437058676E+03  0.90178376806E+03  0.50400001928E-02 0.  1.
       -1    1    3    3    0  502  0.78585914872E+03  0.42446592305E+03 -0.13312215449E+04  0.16030897427E+04  0.50400001928E-02 0. -1.
</event>
<event>
 5   0  0.3118614E-05  0.2286901E+04  0.7818609E-02  0.8483104E-01
       -1   -1    0    0    0  501  0.00000000000E+00  0.00000000000E+00  0.19987137366E+04  0.19987137366E+04  0.50400001928E-02 0. -1.
        1   -1    0    0  501    0  0.00000000000E+00  0.00000000000E+00 -0.65416046586E+03  0.65416046588E+03  0.50400001928E-02 0.  1.
    10030    2    1    2    0    0  0.00000000000E+00  0.00000000000E+00  0.13445532708E+04  0.26528742025E+04  0.22869014051E+04 0.  0.
        3    1    3    3  502    0 -0.15721061033E+03  0.35701444098E+03  0.19191362080E+04  0.19583815467E+04  0.10100000352E+00 0. -1.
       -3    1    3    3    0  502  0.15721061033E+03 -0.35701444098E+03 -0.57458293726E+03  0.69449265588E+03  0.10100000352E+00 0.  1.
</event>
<event>
 5   0  0.2982385E-05  0.2260361E+04  0.7818609E-02  0.8493716E-01
       -1   -1    0    0    0  501  0.00000000000E+00  0.00000000000E+00  0.10814769925E+04  0.10814769925E+04  0.50400001928E-02 0.  1.
        1   -1    0    0  501    0  0.00000000000E+00  0.00000000000E+00 -0.11810769190E+04  0.11810769190E+04  0.50400001928E-02 0. -1.
    10030    2    1    2    0    0  0.00000000000E+00  0.00000000000E+00 -0.99599926562E+02  0.22625539115E+04  0.22603606033E+04 0.  0.
        4    1    3    3  502    0 -0.51257620792E+03 -0.94299544292E+03 -0.40416484806E+03  0.11468764587E+04  0.12699999809E+01 0. -1.
       -4    1    3    3    0  502  0.51257620792E+03  0.94299544292E+03  0.30456492150E+03  0.11156774528E+04  0.12699999809E+01 0.  1.
</event>
<event>
 5   0  0.2944089E-05  0.2272667E+04  0.7818609E-02  0.8488777E-01
       -1   -1    0    0    0  501  0.00000000000E+00  0.00000000000E+00  0.50480436178E+03  0.50480436180E+03  0.50400001928E-02 0. -1.
        1   -1    0    0  501    0  0.00000000000E+00  0.00000000000E+00 -0.25579286078E+04  0.25579286078E+04  0.50400001928E-02 0.  1.
    10030    2    1    2    0    0  0.00000000000E+00  0.00000000000E+00 -0.20531242461E+04  0.30627329696E+04  0.22726667317E+04 0.  0.
        5    1    3    3  502    0  0.33203267616E+03  0.96073758022E+03 -0.17110364546E+04  0.19902085908E+04  0.46999998093E+01 0.  1.
       -5    1    3    3    0  502 -0.33203267616E+03 -0.96073758022E+03 -0.34208779148E+03  0.10725243788E+04  0.46999998093E+01 0. -1.
</event>
<event>
 5   0  0.6468758E-05  0.2351937E+04  0.7818609E-02  0.8457720E-01
        2   -1    0    0  501    0  0.00000000000E+00  0.00000000000E+00  0.18537183674E+04  0.18537183674E+04  0.25500000920E-02 0.  1.
       -2   -1    0    0    0  501  0.00000000000E+00  0.00000000000E+00 -0.74601481987E+03  0.74601481987E+03  0.25500000920E-02 0. -1.
    10030    2    1    2    0    0  0.00000000000E+00  0.00000000000E+00  0.11077035475E+04  0.25997331873E+04  0.23519365416E+04 0.  0.
        3    1    3    3  502    0 -0.27369001075E+03 -0.35048070839E+03 -0.64949661488E+03  0.78713963937E+03  0.10100000352E+00 0. -1.
       -3    1    3    3    0  502  0.27369001075E+03  0.35048070839E+03  0.17572001624E+04  0.18125935479E+04  0.10100000352E+00 0.  1.
</event>
<event>
 5   0  0.3006265E-05  0.2279510E+04  0.7818609E-02  0.8486044E-01
        1   -1    0    0  501    0  0.00000000000E+00  0.00000000000E+00  0.15215584599E+04  0.15215584599E+04  0.50400001928E-02 0.  1.
       -1   -1    0    0    0  501  0.00000000000E+00  0.00000000000E+00 -0.85375700414E+03  0.85375700416E+03  0.50400001928E-02 0. -1.
    10030    2    1    2    0    0  0.00000000000E+00  0.00000000000E+00  0.66780145579E+03  0.23753154641E+04  0.22795097652E+04 0.  0.
        2    1    3    3  502    0 -0.10285765498E+04 -0.36413606806E+03  0.67710087557E+03  0.12841457825E+04  0.25500000920E-02 0.  1.
       -2    1    3    3    0  502  0.10285765498E+04  0.36413606806E+03 -0.92994197829E+01  0.10911696816E+04  0.25500000920E-02 0. -1.
</event>
<event>
 5   0  0.2982385E-05  0.2319810E+04  0.7818609E-02  0.8470151E-01
       -1   -1    0    0    0  501  0.00000000000E+00  0.00000000000E+00  0.10346706188E+04  0.10346706188E+04  0.50400001928E-02 0. -1.
        1   -1    0    0  501    0  0.00000000000E+00  0.00000000000E+00 -0.13002971009E+04  0.13002971009E+04  0.50400001928E-02 0.  1.
    10030    2    1    2    0    0  0.00000000000E+00  0.00000000000E+00 -0.26562648210E+03  0.23349677197E+04  0.23198096526E+04 0.  0.
        4    1    3    3  502    0  0.77925035055E+02 -0.10528878763E+04 -0.61629803918E+03  0.12224852053E+04  0.12699999809E+01 0.  1.
       -4    1    3    3    0  502 -0.77925035055E+02  0.10528878763E+04  0.35067155708E+03  0.11124825145E+04  0.12699999809E+01 0. -1.
</event>
<event>
 5   0  0.3118614E-05  0.2296347E+04  0.7818609E-02  0.8479363E-01
       -1   -1    0    0    0  501  0.00000000000E+00  0.00000000000E+00  0.93022708782E+03  0.93022708784E+03  0.50400001928E-02 0.  1.
        1   -1    0    0  501    0  0.00000000000E+00  0.00000000000E+00 -0.14171830342E+04  0.14171830342E+04  0.50400001928E-02 0. -1.
    10030    2    1    2    0    0  0.00000000000E+00  0.00000000000E+00 -0.48695594639E+03  0.23474101221E+04  0.22963467045E+04 0.  0.
        3    1    3    3  502    0 -0.79237091138E+03  0.71144624366E+03  0.19536367771E+03  0.10826700308E+04  0.10100000352E+00 0. -1.
       -3    1    3    3    0  502  0.79237091138E+03 -0.71144624366E+03 -0.68231962411E+03  0.12647400913E+04  0.10100000352E+00 0.  1.
</event>
<event>
 5   0  0.2982385E-05  0.2277443E+04  0.7818609E-02  0.8486868E-01
       -1   -1    0    0    0  501  0.00000000000E+00  0.00000000000E+00  0.21948804888E+04  0.21948804888E+04  0.50400001928E-02 0.  1.
        1   -1    0    0  501    0  0.00000000000E+00  0.00000000000E+00 -0.59077790380E+03  0.59077790382E+03  0.50400001928E-02 0. -1.
    10030    2    1    2    0    0  0.00000000000E+00  0.00000000000E+00  0.16041025850E+04  0.27856583926E+04  0.22774432105E+04 0.  0.
        4    1    3    3  502    0  0.69674566168E+03  0.39673364751E+03 -0.18698852969E+03  0.82329728973E+03  0.12699999809E+01 0. -1.
       -4    1    3    3    0  502 -0.69674566168E+03 -0.39673364751E+03  0.17910911147E+04  0.19623611029E+04  0.12699999809E+01 0.  1.
</event>
<event>
 5   0  0.6676612E-05  0.2334682E+04  0.7818609E-02  0.8464371E-01
       -2   -1    0    0    0  501  0.00000000000E+00  0.00000000000E+00  0.80846381367E+03  0.80846381368E+03  0.25500000920E-02 0.  1.
        2   -1    0    0  501    0  0.00000000000E+00  0.00000000000E+00 -0.16855239832E+04  0.16855239832E+04  0.25500000920E-02 0. -1.
    10030    2    1    2    0    0  0.00000000000E+00  0.00000000000E+00 -0.87706016956E+03  0.24939877969E+04  0.23346821176E+04 0.  0.
        2    1    3    3  502    0  0.76364781043E+02 -0.36991605323E+03  0.74138097975E+03  0.83205481993E+03  0.25500000920E-02 0.  1.
       -2    1    3    3    0  502 -0.76364781043E+02  0.36991605323E+03 -0.16184411493E+04  0.16619329770E+04  0.25500000920E-02 0. -1.
</event>
<event>
 5   0  0.6495405E-05  0.2324194E+04  0.7818609E-02  0.8468442E-01
        2   -1    0    0  501    0  0.00000000000E+00  0.00000000000E+00  0.11312635515E+04  0.11312635515E+04  0.25500000920E-02 0.  1.
       -2   -1    0    0    0  501  0.00000000000E+00  0.00000000000E+00 -0.11937710932E+04  0.11937710932E+04  0.25500000920E-02 0. -1.
    10030    2    1    2    0    0  0.00000000000E+00  0.00000000000E+00 -0.62507541685E+02  0.23250346447E+04  0.23241942488E+04 0.  0.
        5    1    3    3  502    0 -0.33264770179E+03  0.44536607650E+03  0.98962598640E+03  0.11350714156E+04  0.46999998093E+01 0.  1.
       -5    1    3    3    0  502  0.33264770179E+03 -0.44536607650E+03 -0.10521335281E+04  0.11899632291E+04  0.46999998093E+01 0. -1.
</event>
<event>
 5   0  0.6468758E-05  0.2338337E+04  0.7818609E-02  0.8462957E-01
       -2   -1    0    0    0  501  0.00000000000E+00  0.00000000000E+00  0.11383060700E+04  0.11383060700E+04  0.25500000920E-02 0.  1.
        2   -1    0    0  501    0  0.00000000000E+00  0.00000000000E+00 -0.12008674597E+04  0.12008674597E+04  0.25500000920E-02 0. -1.
    10030    2    1    2    0    0  0.00000000000E+00  0.00000000000E+00 -0.62561389737E+02  0.23391735297E+04  0.23383367753E+04 0.  0.
        3    1    3    3  502    0  0.10273924437E+04 -0.44507427312E+03  0.30548255750E+03  0.11605800038E+04  0.10100000352E+00 0.  1.
       -3    1    3    3    0  502 -0.10273924437E+04  0.44507427312E+03 -0.36804394724E+03  0.11785935259E+04  0.10100000352E+00 0. -1.
</event>
<event>
 5   0  0.6495405E-05  0.2258168E+04  0.7818609E-02  0.8494600E-01
       -2   -1    0    0    0  501  0.00000000000E+00  0.00000000000E+00  0.14085206871E+04  0.14085206871E+04  0.25500000920E-02 0. -1.
        2   -1    0    0  501    0  0.00000000000E+00  0.00000000000E+00 -0.90508474380E+03  0.90508474380E+03  0.25500000920E-02 0.  1.
    10030    2    1    2    0    0  0.00000000000E+00  0.00000000000E+00  0.50343594334E+03  0.23136054309E+04  0.22581679169E+04 0.  0.
        5    1    3    3  502    0 -0.52984622035E+02  0.29464724579E+03  0.13671059907E+04  0.13995089315E+04  0.46999998093E+01 0. -1.
       -5    1    3    3    0  502  0.52984622035E+02 -0.29464724579E+03 -0.86367004734E+03  0.91409649944E+03  0.46999998093E+01 0.  1.
</event>
<event>
 5   0  0.2982385E-05  0.2242974E+04  0.7818609E-02  0.8500751E-01
       -1   -1    0    0    0  501  0.00000000000E+00  0.00000000000E+00  0.10682223285E+04  0.10682223285E+04  0.50400001928E-02 0.  1.
        1   -1    0    0  501    0  0.00000000000E+00  0.00000000000E+00 -0.11774071082E+04  0.11774071082E+04  0.50400001928E-02 0. -1.
    10030    2    1    2    0    0  0.00000000000E+00  0.00000000000E+00 -0.10918477968E+03  0.22456294368E+04  0.22429735289E+04 0.  0.
        4    1    3    3  502    0  0.33865036493E+03  0.59208810145E+03  0.83667436107E+03  0.10794804254E+04  0.12699999809E+01 0.  1.
       -4    1    3    3    0  502 -0.33865036493E+03 -0.59208810145E+03 -0.94585914075E+03  0.11661490113E+04  0.12699999809E+01 0. -1.
</event>
<event>
 5   0  0.2944089E-05  0.2312306E+04  0.7818609E-02  0.8473085E-01
       -1   -1    0    0    0  501  0.00000000000E+00  0.00000000000E+00  0.12578237791E+04  0.12578237791E+04  0.50400001928E-02 0. -1.
        1   -1    0    0  501    0  0.00000000000E+00  0.00000000000E+00 -0.10626999896E+04  0.10626999896E+04  0.50400001928E-02 0.  1.
    10030    2    1    2    0    0  0.00000000000E+00  0.00000000000E+00  0.19512378950E+03  0.23205237687E+04  0.23123056173E+04 0.  0.
        5    1    3    3  502    0 -0.66049456356E+03 -0.36518540075E+03 -0.78136690387E+03  0.10863561911E+04  0.46999998093E+01 0.  1.
       -5    1    3    3    0  502  0.66049456356E+03  0.36518540075E+03  0.97649069337E+03  0.12341675776E+04  0.46999998093E+01 0. -1.
</event>
<event>
 5   0  0.3118614E-05  0.2305480E+04  0.7818609E-02  0.8475764E-01
       -1   -1    0    0    0  501  0.00000000000E+00  0.00000000000E+00  0.76079153833E+03  0.76079153834E+03  0.50400001928E-02 0.  1.
        1   -1    0    0  501    0  0.00000000000E+00  0.00000000000E+00 -0.17466143195E+04  0.17466143195E+04  0.50400001928E-02 0. -1.
    10030    2    1    2    0    0  0.00000000000E+00  0.00000000000E+00 -0.98582278121E+03  0.25074058579E+04  0.23054799024E+04 0.  0.
        3    1    3    3  502    0  0.47847462504E+03  0.86391140613E+03  0.15374788434E+03  0.99945950723E+03  0.10100000352E+00 0.  1.
       -3    1    3    3    0  502 -0.47847462504E+03 -0.86391140613E+03 -0.11395706656E+04  0.15079463507E+04  0.10100000352E+00 0. -1.
</event>
<event>
 5   0  0.2944089E-05  0.2367428E+04  0.7818609E-02  0.8451800E-01
        1   -1    0    0  501    0  0.00000000000E+00  0.00000000000E+00  0.10090114283E+04  0.10090114283E+04  0.50400001928E-02 0.  1.
       -1   -1    0    0    0  501  0.00000000000E+00  0.00000000000E+00 -0.13886649046E+04  0.13886649046E+04  0.50400001928E-02 0. -1.
    10030    2    1    2    0    0  0.00000000000E+00  0.00000000000E+00 -0.37965347629E+03  0.23976763329E+04  0.23674279367E+04 0.  0.
        5    1    3    3  502    0  0.36124322645E+03 -0.92020721465E+03  0.46955144885E+03  0.10944307377E+04  0.46999998093E+01 0.  1.
       -5    1    3    3    0  502 -0.36124322645E+03  0.92020721465E+03 -0.84920492514E+03  0.13032455952E+04  0.46999998093E+01 0. -1.
</event>
<event>
 5   0  0.6676612E-05  0.2248208E+04  0.7818609E-02  0.8498627E-01
        2   -1    0    0  501    0  0.00000000000E+00  0.00000000000E+00  0.29254826250E+04  0.29254826250E+04  0.25500000920E-02 0.  1.
       -2   -1    0    0    0  501  0.00000000000E+00  0.00000000000E+00 -0.43193197590E+03  0.43193197590E+03  0.25500000920E-02 0. -1.
    10030    2    1    2    0    0  0.00000000000E+00  0.00000000000E+00  0.24935506491E+04  0.33574146009E+04  0.22482077223E+04 0.  0.
        2    1    3    3  502    0 -0.85390383217E+03  0.32655726949E+03  0.22235583631E+04  0.24041637214E+04  0.25500000920E-02 0.  1.
       -2    1    3    3    0  502  0.85390383217E+03 -0.32655726949E+03  0.26999228596E+03  0.95325087953E+03  0.25500000920E-02 0. -1.
</event>
<event>
 5   0  0.6468758E-05  0.2285454E+04  0.7818609E-02  0.8483679E-01
       -2   -1    0    0    0  501  0.00000000000E+00  0.00000000000E+00  0.12426498666E+04  0.12426498666E+04  0.25500000920E-02 0. -1.
        2   -1    0    0  501    0  0.00000000000E+00  0.00000000000E+00 -0.10508385841E+04  0.10508385841E+04  0.25500000920E-02 0.  1.
    10030    2    1    2    0    0  0.00000000000E+00  0.00000000000E+00  0.19181128252E+03  0.22934884507E+04  0.22854535011E+04 0.  0.
        3    1    3    3  502    0 -0.10817308810E+04 -0.35087464303E+03 -0.16603202695E+02  0.11373347750E+04  0.10100000352E+00 0. -1.
       -3    1    3    3    0  502  0.10817308810E+04  0.35087464303E+03  0.20841448522E+03  0.11561536757E+04  0.10100000352E+00 0.  1.
</event>
<event>
 5   0  0.6468758E-05  0.2299163E+04  0.7818609E-02  0.8478251E-01
       -2   -1    0    0    0  501  0.00000000000E+00  0.00000000000E+00  0.13595439944E+04  0.13595439944E+04  0.25500000920E-02 0. -1.
        2   -1    0    0  501    0  0.00000000000E+00  0.00000000000E+00 -0.97204453142E+03  0.97204453143E+03  0.25500000920E-02 0.  1.
    10030    2    1    2    0    0  0.00000000000E+00  0.00000000000E+00  0.38749946300E+03  0.23315885259E+04  0.22991627215E+04 0.  0.
        3    1    3    3  502    0  0.60995975300E+03  0.41389009389E+02 -0.79351686981E+03  0.10017150210E+04  0.10100000352E+00 0.  1.
       -3    1    3    3    0  502 -0.60995975300E+03 -0.41389009389E+02  0.11810163328E+04  0.13298735049E+04  0.10100000352E+00 0. -1.
</event>
<event>
 5   0  0.3006265E-05  0.2298229E+04  0.7818609E-02  0.8478620E-01
        1   -1    0    0  501    0  0.00000000000E+00  0.00000000000E+00  0.98244722269E+03  0.98244722270E+03  0.50400001928E-02 0. -1.
       -1   -1    0    0    0  501  0.00000000000E+00  0.00000000000E+00 -0.13440557066E+04  0.13440557066E+04  0.50400001928E-02 0.  1.
    10030    2    1    2    0    0  0.00000000000E+00  0.00000000000E+00 -0.36160848395E+03  0.23265029293E+04  0.22982287059E+04 0.  0.
        2    1    3    3  502    0 -0.11381499179E+04 -0.12239482273E+03 -0.28252966415E+03  0.11790626529E+04  0.25500000920E-02 0. -1.
       -2    1    3    3    0  502  0.11381499179E+04  0.12239482273E+03 -0.79078819793E+02  0.11474402765E+04  0.25500000920E-02 0.  1.
</event>
<event>
 5   0  0.6702421E-05  0.2343693E+04  0.7818609E-02  0.8460890E-01
        2   -1    0    0  501    0  0.00000000000E+00  0.00000000000E+00  0.15709460860E+04  0.15709460860E+04  0.25500000920E-02 0.  1.
       -2   -1    0    0    0  501  0.00000000000E+00  0.00000000000E+00 -0.87413846997E+03  0.87413846997E+03  0.25500000920E-02 0. -1.
    10030    2    1    2    0    0  0.00000000000E+00  0.00000000000E+00  0.69680761600E+03  0.24450845559E+04  0.23436931608E+04 0.  0.
        4    1    3    3  502    0 -0.14142395249E+03  0.11365886378E+04  0.60688921896E+03  0.12962062347E+04  0.12699999809E+01 0.  1.
       -4    1    3    3    0  502  0.14142395249E+03 -0.11365886378E+04  0.89918397044E+02  0.11488783212E+04  0.12699999809E+01 0. -1.
</event>
<event>
 5   0  0.6468758E-05  0.2325673E+04  0.7818609E-02  0.8467867E-01
       -2   -1    0    0    0  501  0.00000000000E+00  0.00000000000E+00  0.13902777491E+04  0.13902777491E+04  0.25500000920E-02 0.  1.
        2   -1    0    0  501    0  0.00000000000E+00  0.00000000000E+00 -0.97260306271E+03  0.97260306271E+03  0.25500000920E-02 0. -1.
    10030    2    1    2    0    0  0.00000000000E+00  0.00000000000E+00  0.41767468643E+03  0.23628808119E+04  0.23256727172E+04 0.  0.
        3    1    3    3  502    0  0.10525461243E+03  0.51040849778E+03 -0.84730947768E+03  0.99475058643E+03  0.10100000352E+00 0. -1.
       -3    1    3    3    0  502 -0.10525461243E+03 -0.51040849778E+03  0.12649841641E+04  0.13681302254E+04  0.10100000352E+00 0.  1.
</event>
<event>
 5   0  0.6468758E-05  0.1827433E+04  0.7818609E-02  0.8691846E-01
       -2   -1    0    0    0  501  0.00000000000E+00  0.00000000000E+00  0.44803776808E+03  0.44803776808E+03  0.25500000920E-02 0.  1.
        2   -1    0    0  501    0  0.00000000000E+00  0.00000000000E+00 -0.18634088106E+04  0.18634088106E+04  0.25500000920E-02 0. -1.
    10030    2    1    2    0    0  0.00000000000E+00  0.00000000000E+00 -0.14153710425E+04  0.23114465787E+04  0.18274326521E+04 0.  0.
        3    1    3    3  502    0 -0.46844667355E+02 -0.83365833278E+03 -0.11770438440E+04  0.14431260719E+04  0.10100000352E+00 0. -1.
       -3    1    3    3    0  502  0.46844667355E+02  0.83365833278E+03 -0.23832719855E+03  0.86832050675E+03  0.10100000352E+00 0.  1.
</event>
<event>
 5   0  0.6468758E-05  0.2209974E+04  0.7818609E-02  0.8514288E-01
        2   -1    0    0  501    0  0.00000000000E+00  0.00000000000E+00  0.13311539174E+04  0.13311539174E+04  0.25500000920E-02 0. -1.
       -2   -1    0    0    0  501  0.00000000000E+00  0.00000000000E+00 -0.91724677289E+03  0.91724677289E+03  0.25500000920E-02 0.  1.
    10030    2    1    2    0    0  0.00000000000E+00  0.00000000000E+00  0.41390714447E+03  0.22484006902E+04  0.22099743301E+04 0.  0.
        3    1    3    3  502    0  0.63003037188E+03  0.72642665514E+03  0.76081131336E+03  0.12261597855E+04  0.10100000352E+00 0. -1.
       -3    1    3    3    0  502 -0.63003037188E+03 -0.72642665514E+03 -0.34690416889E+03  0.10222409048E+04  0.10100000352E+00 0.  1.
</event>
<event>
 5   0  0.6495405E-05  0.2177228E+04  0.7818609E-02  0.8527967E-01
       -2   -1    0    0    0  501  0.00000000000E+00  0.00000000000E+00  0.40028101154E+03  0.40028101154E+03  0.25500000920E-02 0. -1.
        2   -1    0    0  501    0  0.00000000000E+00  0.00000000000E+00 -0.29606211243E+04  0.29606211243E+04  0.25500000920E-02 0.  1.
    10030    2    1    2    0    0  0.00000000000E+00  0.00000000000E+00 -0.25603401128E+04  0.33609021358E+04  0.21772279793E+04 0.  0.
        5    1    3    3  502    0  0.71795072693E+03  0.44941399247E+03 -0.22455849373E+03  0.87628465126E+03  0.46999998093E+01 0. -1.
       -5    1    3    3    0  502 -0.71795072693E+03 -0.44941399247E+03 -0.23357816190E+04  0.24846174846E+04  0.46999998093E+01 0.  1.
</event>
<event>
 5   0  0.3118614E-05  0.2391112E+04  0.7818609E-02  0.8442839E-01
       -1   -1    0    0    0  501  0.00000000000E+00  0.00000000000E+00  0.71191857968E+03  0.71191857970E+03  0.50400001928E-02 0.  1.
        1   -1    0    0  501    0  0.00000000000E+00  0.00000000000E+00 -0.20077496457E+04  0.20077496457E+04  0.50400001928E-02 0. -1.
    10030    2    1    2    0    0  0.00000000000E+00  0.00000000000E+00 -0.12958310660E+04  0.27196682254E+04  0.23911121062E+04 0.  0.
        3    1    3    3  502    0 -0.22711020297E+03 -0.52207540880E+03 -0.18436613794E+04  0.19295670677E+04  0.10100000352E+00 0. -1.
       -3    1    3    3    0  502  0.22711020297E+03  0.52207540880E+03  0.54783031343E+03  0.79010115762E+03  0.10100000352E+00 0.  1.
</event>
<event>
 5   0  0.3006265E-05  0.2283317E+04  0.7818609E-02  0.8484528E-01
       -1   -1    0    0    0  501  0.00000000000E+00  0.00000000000E+00  0.60122571257E+03  0.60122571259E+03  0.50400001928E-02 0. -1.
        1   -1    0    0  501    0  0.00000000000E+00  0.00000000000E+00 -0.21678782706E+04  0.21678782706E+04  0.50400001928E-02 0.  1.
    10030    2    1    2    0    0  0.00000000000E+00  0.00000000000E+00 -0.15666525580E+04  0.27691039832E+04  0.22833170240E+04 0.  0.
        2    1    3    3  502    0  0.10654466269E+04 -0.30930074721E+03 -0.11099621629E+04  0.15693500151E+04  0.25500000920E-02 0.  1.
       -2    1    3    3    0  502 -0.10654466269E+04  0.30930074721E+03 -0.45669039515E+03  0.11997539681E+04  0.25500000920E-02 0. -1.
</event>
<event>
 5   0  0.2982385E-05  0.2298571E+04  0.7818609E-02  0.8478485E-01
       -1   -1    0    0    0  501  0.00000000000E+00  0.00000000000E+00  0.96739980366E+03  0.96739980367E+03  0.50400001928E-02 0.  1.
        1   -1    0    0  501    0  0.00000000000E+00  0.00000000000E+00 -0.13653685334E+04  0.13653685334E+04  0.50400001928E-02 0. -1.
    10030    2    1    2    0    0  0.00000000000E+00  0.00000000000E+00 -0.39796872976E+03  0.23327683371E+04  0.22985710789E+04 0.  0.
        4    1    3    3  502    0 -0.14858376345E+03 -0.24411447455E+02  0.95734502304E+03  0.96911514257E+03  0.12699999809E+01 0.  1.
       -4    1    3    3    0  502  0.14858376345E+03  0.24411447455E+02 -0.13553137528E+04  0.13636531945E+04  0.12699999809E+01 0. -1.
</event>
<event>
 5   0  0.6468758E-05  0.2295121E+04  0.7818609E-02  0.8479847E-01
       -2   -1    0    0    0  501  0.00000000000E+00  0.00000000000E+00  0.13812739578E+04  0.13812739578E+04  0.25500000920E-02 0.  1.
        2   -1    0    0  501    0  0.00000000000E+00  0.00000000000E+00 -0.95339138471E+03  0.95339138471E+03  0.25500000920E-02 0. -1.
    10030    2    1    2    0    0  0.00000000000E+00  0.00000000000E+00  0.42788257306E+03  0.23346653425E+04  0.22951206428E+04 0.  0.
        3    1    3    3  502    0 -0.30078175623E+03  0.56636392400E+03 -0.75411580912E+03  0.98991334119E+03  0.10100000352E+00 0. -1.
       -3    1    3    3    0  502  0.30078175623E+03 -0.56636392400E+03  0.11819983822E+04  0.13447520013E+04  0.10100000352E+00 0.  1.
</event>
<event>
 5   0  0.6468758E-05  0.2253656E+04  0.7818609E-02  0.8496421E-01
       -2   -1    0    0    0  501  0.00000000000E+00  0.00000000000E+00  0.61379312238E+03  0.61379312238E+03  0.25500000920E-02 0.  1.
        2   -1    0    0  501    0  0.00000000000E+00  0.00000000000E+00 -0.20686801074E+04  0.20686801074E+04  0.25500000920E-02 0. -1.
    10030    2    1    2    0    0  0.00000000000E+00  0.00000000000E+00 -0.14548869850E+04  0.26824732298E+04  0.22536562491E+04 0.  0.
        3    1    3    3  502    0 -0.35933393809E+03  0.10051675902E+04 -0.11570307004E+04  0.15742308647E+04  0.10100000352E+00 0. -1.
       -3    1    3    3    0  502  0.35933393809E+03 -0.10051675902E+04 -0.29785628463E+03  0.11082423651E+04  0.10100000352E+00 0.  1.
</event>
<event>
 5   0  0.6814789E-05  0.2252828E+04  0.7818609E-02  0.8496756E-01
       -2   -1    0    0    0  501  0.00000000000E+00  0.00000000000E+00  0.16802734877E+04  0.16802734877E+04  0.25500000920E-02 0.  1.
        2   -1    0    0  501    0  0.00000000000E+00  0.00000000000E+00 -0.75512023219E+03  0.75512023219E+03  0.25500000920E-02 0. -1.
    10030    2    1    2    0    0  0.00000000000E+00  0.00000000000E+00  0.92515325555E+03  0.24353937199E+04  0.22528280060E+04 0.  0.
        1    1    3    3  502    0 -0.97634779065E+02 -0.11220663435E+04  0.47943101766E+03  0.12240994771E+04  0.50400001928E-02 0.  1.
       -1    1    3    3    0  502  0.97634779065E+02  0.11220663435E+04  0.44572223789E+03  0.12112942428E+04  0.50400001928E-02 0. -1.
</event>
<event>
 5   0  0.2962279E-05  0.2297026E+04  0.7818609E-02  0.8479095E-01
       -1   -1    0    0    0  501  0.00000000000E+00  0.00000000000E+00  0.92616216757E+03  0.92616216759E+03  0.50400001928E-02 0. -1.
        1   -1    0    0  501    0  0.00000000000E+00  0.00000000000E+00 -0.14242448358E+04  0.14242448358E+04  0.50400001928E-02 0.  1.
    10030    2    1    2    0    0  0.00000000000E+00  0.00000000000E+00 -0.49808266823E+03  0.23504070034E+04  0.22970256283E+04 0.  0.
        1    1    3    3  502    0 -0.73156988106E+03  0.86075327607E+02  0.65261673608E+03  0.98413010174E+03  0.50400001928E-02 0. -1.
       -1    1    3    3    0  502  0.73156988106E+03 -0.86075327607E+02 -0.11506994043E+04  0.13662769017E+04  0.50400001928E-02 0.  1.
</event>
<event>
 5   0  0.6676612E-05  0.2318366E+04  0.7818609E-02  0.8470715E-01
       -2   -1    0    0    0  501  0.00000000000E+00  0.00000000000E+00  0.13946267747E+04  0.13946267747E+04  0.25500000920E-02 0.  1.
        2   -1    0    0  501    0  0.00000000000E+00  0.00000000000E+00 -0.96348723113E+03  0.96348723114E+03  0.25500000920E-02 0. -1.
    10030    2    1    2    0    0  0.00000000000E+00  0.00000000000E+00  0.43113954358E+03  0.23581140059E+04  0.23183658811E+04 0.  0.
        2    1    3    3  502    0  0.65223057476E+03 -0.87772541766E+03  0.60673896496E+03  0.12505753888E+04  0.25500000920E-02 0.  1.
       -2    1    3    3    0  502 -0.65223057476E+03  0.87772541766E+03 -0.17559942138E+03  0.11075386171E+04  0.25500000920E-02 0. -1.
</event>
<event>
 5   0  0.6468758E-05  0.2142560E+04  0.7818609E-02  0.8542724E-01
       -2   -1    0    0    0  501  0.00000000000E+00  0.00000000000E+00  0.92251911826E+03  0.92251911827E+03  0.25500000920E-02 0. -1.
        2   -1    0    0  501    0  0.00000000000E+00  0.00000000000E+00 -0.12440296042E+04  0.12440296042E+04  0.25500000920E-02 0.  1.
    10030    2    1    2    0    0  0.00000000000E+00  0.00000000000E+00 -0.32151048598E+03  0.21665487225E+04  0.21425602382E+04 0.  0.
        3    1    3    3  502    0 -0.58515388174E+03  0.14390371559E+03 -0.10564078018E+04  0.12161869916E+04  0.10100000352E+00 0.  1.
       -3    1    3    3    0  502  0.58515388174E+03 -0.14390371559E+03  0.73489731578E+03  0.95036173093E+03  0.10100000352E+00 0. -1.
</event>
<event>
 5   0  0.2962279E-05  0.2309049E+04  0.7818609E-02  0.8474362E-01
       -1   -1    0    0    0  501  0.00000000000E+00  0.00000000000E+00  0.11657230563E+04  0.11657230563E+04  0.50400001928E-02 0.  1.
        1   -1    0    0  501    0  0.00000000000E+00  0.00000000000E+00 -0.11434338370E+04  0.11434338370E+04  0.50400001928E-02 0. -1.
    10030    2    1    2    0    0  0.00000000000E+00  0.00000000000E+00  0.22289219241E+02  0.23091568933E+04  0.23090493170E+04 0.  0.
        1    1    3    3  502    0 -0.55619931059E+03 -0.31253052858E+03 -0.95113417412E+03  0.11452900164E+04  0.50400001928E-02 0. -1.
       -1    1    3    3    0  502  0.55619931059E+03  0.31253052858E+03  0.97342339337E+03  0.11638668769E+04  0.50400001928E-02 0.  1.
</event>
<event>
 5   0  0.6702421E-05  0.2352038E+04  0.7818609E-02  0.8457681E-01
        2   -1    0    0  501    0  0.00000000000E+00  0.00000000000E+00  0.11884068667E+04  0.11884068667E+04  0.25500000920E-02 0.  1.
       -2   -1    0    0    0  501  0.00000000000E+00  0.00000000000E+00 -0.11637599233E+04  0.11637599233E+04  0.25500000920E-02 0. -1.
    10030    2    1    2    0    0  0.00000000000E+00  0.00000000000E+00  0.24646943337E+02  0.23521667900E+04  0.23520376562E+04 0.  0.
        4    1    3    3  502    0  0.35927409157E+03  0.11026814191E+04  0.20735850143E+03  0.11781270500E+04  0.12699999809E+01 0.  1.
       -4    1    3    3    0  502 -0.35927409157E+03 -0.11026814191E+04 -0.18271155809E+03  0.11740397400E+04  0.12699999809E+01 0. -1.
</event>
<event>
 5   0  0.2944089E-05  0.2307859E+04  0.7818609E-02  0.8474829E-01
       -1   -1    0    0    0  501  0.00000000000E+00  0.00000000000E+00  0.17717781354E+04  0.17717781354E+04  0.50400001928E-02 0. -1.
        1   -1    0    0  501    0  0.00000000000E+00  0.00000000000E+00 -0.75153533096E+03  0.75153533098E+03  0.50400001928E-02 0.  1.
    10030    2    1    2    0    0  0.00000000000E+00  0.00000000000E+00  0.10202428044E+04  0.25233134663E+04  0.23078594995E+04 0.  0.
        5    1    3    3  502    0 -0.50353704071E+03 -0.96476950792E+03  0.90634187955E+02  0.10920468858E+04  0.46999998093E+01 0.  1.
       -5    1    3    3    0  502  0.50353704071E+03  0.96476950792E+03  0.92960861644E+03  0.14312665805E+04  0.46999998093E+01 0. -1.
</event>
<event>
 5   0  0.6495405E-05  0.2410130E+04  0.7818609E-02  0.8435721E-01
       -2   -1    0    0    0  501  0.00000000000E+00  0.00000000000E+00  0.10757584102E+04  0.10757584102E+04  0.25500000920E-02 0.  1.
        2   -1    0    0  501    0  0.00000000000E+00  0.00000000000E+00 -0.13499141528E+04  0.13499141528E+04  0.25500000920E-02 0. -1.
    10030    2    1    2    0    0  0.00000000000E+00  0.00000000000E+00 -0.27415574266E+03  0.24256725630E+04  0.24101298744E+04 0.  0.
        5    1    3    3  502    0  0.56992448588E+03  0.12257817096E+03  0.92438942853E+03  0.10928665212E+04  0.46999998093E+01 0.  1.
       -5    1    3    3    0  502 -0.56992448588E+03 -0.12257817096E+03 -0.11985451712E+04  0.13328060418E+04  0.46999998093E+01 0. -1.
</event>
<event>
 5   0  0.6702421E-05  0.2028679E+04  0.7818609E-02  0.8593329E-01
       -2   -1    0    0    0  501  0.00000000000E+00  0.00000000000E+00  0.36536894852E+03  0.36536894853E+03  0.25500000920E-02 0.  1.
        2   -1    0    0  501    0  0.00000000000E+00  0.00000000000E+00 -0.28160143294E+04  0.28160143294E+04  0.25500000920E-02 0. -1.
    10030    2    1    2    0    0  0.00000000000E+00  0.00000000000E+00 -0.24506453809E+04  0.31813832779E+04  0.20286785793E+04 0.  0.
        4    1    3    3  502    0  0.67784078242E+03 -0.52544537036E+03 -0.37599597196E+03  0.93644836877E+03  0.12699999809E+01 0.  1.
       -4    1    3    3    0  502 -0.67784078242E+03  0.52544537036E+03 -0.20746494089E+04  0.22449349092E+04  0.12699999809E+01 0. -1.
</event>
<event>
 5   0  0.6468758E-05  0.2298881E+04  0.7818609E-02  0.8478362E-01
       -2   -1    0    0    0  501  0.00000000000E+00  0.00000000000E+00  0.10761898162E+04  0.10761898162E+04  0.25500000920E-02 0. -1.
        2   -1    0    0  501    0  0.00000000000E+00  0.00000000000E+00 -0.12276769149E+04  0.12276769149E+04  0.25500000920E-02 0.  1.
    10030    2    1    2    0    0  0.00000000000E+00  0.00000000000E+00 -0.15148709868E+03  0.23038667311E+04  0.22988809394E+04 0.  0.
        3    1    3    3  502    0 -0.68761963514E+03 -0.58319420646E+03  0.63873823659E+03  0.11049537502E+04  0.10100000352E+00 0. -1.
       -3    1    3    3    0  502  0.68761963514E+03  0.58319420646E+03 -0.79022533527E+03  0.11989129809E+04  0.10100000352E+00 0.  1.
</event>
<event>
 5   0  0.6468758E-05  0.2303445E+04  0.7818609E-02  0.8476564E-01
       -2   -1    0    0    0  501  0.00000000000E+00  0.00000000000E+00  0.91400060636E+03  0.91400060636E+03  0.25500000920E-02 0.  1.
        2   -1    0    0  501    0  0.00000000000E+00  0.00000000000E+00 -0.14512739679E+04  0.14512739679E+04  0.25500000920E-02 0. -1.
    10030    2    1    2    0    0  0.00000000000E+00  0.00000000000E+00 -0.53727336151E+03  0.23652745742E+04  0.23034454946E+04 0.  0.
        3    1    3    3  502    0 -0.55594512265E+03 -0.25848929198E+03 -0.12697805531E+04  0.14100476434E+04  0.10100000352E+00 0. -1.
       -3    1    3    3    0  502  0.55594512265E+03  0.25848929198E+03  0.73250719158E+03  0.95522693083E+03  0.10100000352E+00 0.  1.
</event>
<event>
 5   0  0.6702421E-05  0.2304496E+04  0.7818609E-02  0.8476150E-01
        2   -1    0    0  501    0  0.00000000000E+00  0.00000000000E+00  0.19010572245E+04  0.19010572245E+04  0.25500000920E-02 0.  1.
       -2   -1    0    0    0  501  0.00000000000E+00  0.00000000000E+00 -0.69838820789E+03  0.69838820789E+03  0.25500000920E-02 0. -1.
    10030    2    1    2    0    0  0.00000000000E+00  0.00000000000E+00  0.12026690166E+04  0.25994454324E+04  0.23044964293E+04 0.  0.
        4    1    3    3  502    0  0.50855403546E+03  0.87385347162E+03  0.12247226666E+04  0.15881417821E+04  0.12699999809E+01 0.  1.
       -4    1    3    3    0  502 -0.50855403546E+03 -0.87385347162E+03 -0.22053649992E+02  0.10113036504E+04  0.12699999809E+01 0. -1.
</event>
<event>
 5   0  0.6468758E-05  0.1761301E+04  0.7818609E-02  0.8727154E-01
        2   -1    0    0  501    0  0.00000000000E+00  0.00000000000E+00  0.24234323951E+04  0.24234323951E+04  0.25500000920E-02 0. -1.
       -2   -1    0    0    0  501  0.00000000000E+00  0.00000000000E+00 -0.32001934750E+03  0.32001934751E+03  0.25500000920E-02 0.  1.
    10030    2    1    2    0    0  0.00000000000E+00  0.00000000000E+00  0.21034130476E+04  0.27434517426E+04  0.17613009440E+04 0.  0.
        3    1    3    3  502    0 -0.45779884720E+03  0.79234586321E+02  0.22170031765E+04  0.22651624664E+04  0.10100000352E+00 0. -1.
       -3    1    3    3    0  502  0.45779884720E+03 -0.79234586321E+02 -0.11359012893E+03  0.47828927623E+03  0.10100000352E+00 0.  1.
</event>
<event>
 5   0  0.2944089E-05  0.1818737E+04  0.7818609E-02  0.8696398E-01
        1   -1    0    0  501    0  0.00000000000E+00  0.00000000000E+00  0.14911382156E+04  0.14911382156E+04  0.50400001928E-02 0.  1.
       -1   -1    0    0    0  501  0.00000000000E+00  0.00000000000E+00 -0.55457709263E+03  0.55457709266E+03  0.50400001928E-02 0. -1.
    10030    2    1    2    0    0  0.00000000000E+00  0.00000000000E+00  0.93656112298E+03  0.20457153083E+04  0.18187370303E+04 0.  0.
        5    1    3    3  502    0  0.55839797841E+03 -0.44327319501E+03  0.11031995714E+04  0.13135337118E+04  0.46999998093E+01 0.  1.
       -5    1    3    3    0  502 -0.55839797841E+03  0.44327319501E+03 -0.16663844843E+03  0.73218159646E+03  0.46999998093E+01 0. -1.
</event>
<event>
 5   0  0.6814789E-05  0.2308132E+04  0.7818609E-02  0.8474722E-01
       -2   -1    0    0    0  501  0.00000000000E+00  0.00000000000E+00  0.90619686054E+03  0.90619686055E+03  0.25500000920E-02 0.  1.
        2   -1    0    0  501    0  0.00000000000E+00  0.00000000000E+00 -0.14697340353E+04  0.14697340353E+04  0.25500000920E-02 0. -1.
    10030    2    1    2    0    0  0.00000000000E+00  0.00000000000E+00 -0.56353717477E+03  0.23759308959E+04  0.23081320314E+04 0.  0.
        1    1    3    3  502    0  0.80209911878E+03 -0.45760187838E+03  0.43073804841E+03  0.10189689602E+04  0.50400001928E-02 0.  1.
       -1    1    3    3    0  502 -0.80209911878E+03  0.45760187838E+03 -0.99427522317E+03  0.13569619357E+04  0.50400001928E-02 0. -1.
</event>
<event>
 5   0  0.3118614E-05  0.2258360E+04  0.7818609E-02  0.8494523E-01
       -1   -1    0    0    0  501  0.00000000000E+00  0.00000000000E+00  0.11971412454E+04  0.11971412454E+04  0.50400001928E-02 0.  1.
        1   -1    0    0  501    0  0.00000000000E+00  0.00000000000E+00 -0.10650765500E+04  0.10650765500E+04  0.50400001928E-02 0. -1.
    10030    2    1    2    0    0  0.00000000000E+00  0.00000000000E+00  0.13206469538E+03  0.22622177954E+04  0.22583596415E+04 0.  0.
        3    1    3    3  502    0  0.11180240797E+04  0.71932358271E+02  0.20732277579E+03  0.11393572093E+04  0.10100000352E+00 0.  1.
       -3    1    3    3    0  502 -0.11180240797E+04 -0.71932358271E+02 -0.75258080414E+02  0.11228605861E+04  0.10100000352E+00 0. -1.
</event>
<event>
 5   0  0.6702421E-05  0.2308379E+04  0.7818609E-02  0.8474625E-01
        2   -1    0    0  501    0  0.00000000000E+00  0.00000000000E+00  0.11690012402E+04  0.11690012402E+04  0.25500000920E-02 0. -1.
       -2   -1    0    0    0  501  0.00000000000E+00  0.00000000000E+00 -0.11395652722E+04  0.11395652722E+04  0.25500000920E-02 0.  1.
    10030    2    1    2    0    0  0.00000000000E+00  0.00000000000E+00  0.29435967953E+02  0.23085665124E+04  0.23083788394E+04 0.  0.
        4    1    3    3  502    0 -0.25661773152E+02  0.73504653005E+03 -0.87484838862E+03  0.11429406126E+04  0.12699999809E+01 0.  1.
       -4    1    3    3    0  502  0.25661773152E+02 -0.73504653005E+03  0.90428435658E+03  0.11656258998E+04  0.12699999809E+01 0. -1.
</event>
<event>
 5   0  0.6702421E-05  0.2269293E+04  0.7818609E-02  0.8490128E-01
       -2   -1    0    0    0  501  0.00000000000E+00  0.00000000000E+00  0.55654799704E+03  0.55654799704E+03  0.25500000920E-02 0.  1.
        2   -1    0    0  501    0  0.00000000000E+00  0.00000000000E+00 -0.23132274693E+04  0.23132274693E+04  0.25500000920E-02 0. -1.
    10030    2    1    2    0    0  0.00000000000E+00  0.00000000000E+00 -0.17566794723E+04  0.28697754664E+04  0.22692925019E+04 0.  0.
        4    1    3    3  502    0 -0.12265287370E+03 -0.11240767360E+04 -0.75951820421E+03  0.13621533508E+04  0.12699999809E+01 0. -1.
       -4    1    3    3    0  502  0.12265287370E+03  0.11240767360E+04 -0.99716126809E+03  0.15076221155E+04  0.12699999809E+01 0.  1.
</event>
<event>
 5   0  0.2342500E-05  0.2284507E+04  0.7818609E-02  0.8484055E-01
       -3   -1    0    0    0  501  0.00000000000E+00  0.00000000000E+00  0.12202807654E+04  0.12202807696E+04  0.10100000352E+00 0. -1.
        3   -1    0    0  501    0  0.00000000000E+00  0.00000000000E+00 -0.10692152663E+04  0.10692152710E+04  0.10100000352E+00 0.  1.
    10030    2    1    2    0    0  0.00000000000E+00  0.00000000000E+00  0.15106549914E+03  0.22894960406E+04  0.22845068034E+04 0.  0.
        3    1    3    3  502    0  0.10213038612E+03 -0.49671255756E+03  0.11012859325E+04  0.12124292540E+04  0.10100000352E+00 0. -1.
       -3    1    3    3    0  502 -0.10213038612E+03  0.49671255756E+03 -0.95022043336E+03  0.10770667866E+04  0.10100000352E+00 0.  1.
</event>
<event>
 5   0  0.6702421E-05  0.2070724E+04  0.7818609E-02  0.8574250E-01
        2   -1    0    0  501    0  0.00000000000E+00  0.00000000000E+00  0.16120041216E+04  0.16120041216E+04  0.25500000920E-02 0.  1.
       -2   -1    0    0    0  501  0.00000000000E+00  0.00000000000E+00 -0.66499498547E+03  0.66499498548E+03  0.25500000920E-02 0. -1.
    10030    2    1    2    0    0  0.00000000000E+00  0.00000000000E+00  0.94700913615E+03  0.22769991071E+04  0.20707241800E+04 0.  0.
        4    1    3    3  502    0  0.67382868783E+03  0.51731477576E+03 -0.17732752456E+03  0.86781699777E+03  0.12699999809E+01 0. -1.
       -4    1    3    3    0  502 -0.67382868783E+03 -0.51731477576E+03  0.11243366607E+04  0.14091821093E+04  0.12699999809E+01 0.  1.
</event>
<event>
 5   0  0.6814789E-05  0.2337306E+04  0.7818609E-02  0.8463355E-01
       -2   -1    0    0    0  501  0.00000000000E+00  0.00000000000E+00  0.12120617628E+04  0.12120617628E+04  0.25500000920E-02 0. -1.
        2   -1    0    0  501    0  0.00000000000E+00  0.00000000000E+00 -0.11267992841E+04  0.11267992841E+04  0.25500000920E-02 0.  1.
    10030    2    1    2    0    0  0.00000000000E+00  0.00000000000E+00  0.85262478733E+02  0.23388610469E+04  0.23373064211E+04 0.  0.
        1    1    3    3  502    0 -0.16158540769E+03 -0.26272500300E+02  0.12005310613E+04  0.12116414145E+04  0.50400001928E-02 0. -1.
       -1    1    3    3    0  502  0.16158540769E+03  0.26272500300E+02 -0.11152685826E+04  0.11272196323E+04  0.50400001928E-02 0.  1.
</event>
<event>
 5   0  0.2982385E-05  0.2193115E+04  0.7818609E-02  0.8521299E-01
        1   -1    0    0  501    0  0.00000000000E+00  0.00000000000E+00  0.25741988495E+04  0.25741988495E+04  0.50400001928E-02 0.  1.
       -1   -1    0    0    0  501  0.00000000000E+00  0.00000000000E+00 -0.46711154768E+03  0.46711154771E+03  0.50400001928E-02 0. -1.
    10030    2    1    2    0    0  0.00000000000E+00  0.00000000000E+00  0.21070873018E+04  0.30413103972E+04  0.21931146880E+04 0.  0.
        4    1    3    3  502    0 -0.63532032027E+03 -0.27422545211E+03 -0.12609813790E+03  0.70337320195E+03  0.12699999809E+01 0. -1.
       -4    1    3    3    0  502  0.63532032027E+03  0.27422545211E+03  0.22331854397E+04  0.23379371952E+04  0.12699999809E+01 0.  1.
</event>
<event>
 5   0  0.2944089E-05  0.2108795E+04  0.7818609E-02  0.8557379E-01
       -1   -1    0    0    0  501  0.00000000000E+00  0.00000000000E+00  0.57476814623E+03  0.57476814626E+03  0.50400001928E-02 0.  1.
        1   -1    0    0  501    0  0.00000000000E+00  0.00000000000E+00 -0.19342654285E+04  0.19342654285E+04  0.50400001928E-02 0. -1.
    10030    2    1    2    0    0  0.00000000000E+00  0.00000000000E+00 -0.13594972823E+04  0.25090335748E+04  0.21087950632E+04 0.  0.
        5    1    3    3  502    0 -0.52671874260E+03 -0.21214130322E+03  0.37729254571E+03  0.68176852478E+03  0.46999998093E+01 0.  1.
       -5    1    3    3    0  502  0.52671874260E+03  0.21214130322E+03 -0.17367898280E+04  0.18272650500E+04  0.46999998093E+01 0. -1.
</event>
<event>
 5   0  0.6702421E-05  0.2130611E+04  0.7818609E-02  0.8547877E-01
        2   -1    0    0  501    0  0.00000000000E+00  0.00000000000E+00  0.15273484231E+04  0.15273484231E+04  0.25500000920E-02 0. -1.
       -2   -1    0    0    0  501  0.00000000000E+00  0.00000000000E+00 -0.74303682212E+03  0.74303682212E+03  0.25500000920E-02 0.  1.
    10030    2    1    2    0    0  0.00000000000E+00  0.00000000000E+00  0.78431160100E+03  0.22703852452E+04  0.21306112912E+04 0.  0.
        4    1    3    3  502    0  0.21629241247E+03 -0.62876703016E+03  0.12790703012E+04  0.14415799785E+04  0.12699999809E+01 0. -1.
       -4    1    3    3    0  502 -0.21629241247E+03  0.62876703016E+03 -0.49475870022E+03  0.82880526679E+03  0.12699999809E+01 0.  1.
</event>
<event>
 5   0  0.6814789E-05  0.2471187E+04  0.7818609E-02  0.8413323E-01
       -2   -1    0    0    0  501  0.00000000000E+00  0.00000000000E+00  0.12342764827E+04  0.12342764827E+04  0.25500000920E-02 0.  1.
        2   -1    0    0  501    0  0.00000000000E+00  0.00000000000E+00 -0.12369118614E+04  0.12369118614E+04  0.25500000920E-02 0. -1.
    10030    2    1    2    0    0  0.00000000000E+00  0.00000000000E+00 -0.26353787790E+01  0.24711883441E+04  0.24711869389E+04 0.  0.
        1    1    3    3  502    0 -0.12056217392E+04 -0.89903252926E+02  0.25379977917E+03  0.12353221041E+04  0.50400001928E-02 0.  1.
       -1    1    3    3    0  502  0.12056217392E+04  0.89903252926E+02 -0.25643515795E+03  0.12358662400E+04  0.50400001928E-02 0. -1.
</event>
<event>
 5   0  0.6676612E-05  0.2277953E+04  0.7818609E-02  0.8486665E-01
        2   -1    0    0  501    0  0.00000000000E+00  0.00000000000E+00  0.81025209204E+03  0.81025209205E+03  0.25500000920E-02 0.  1.
       -2   -1    0    0    0  501  0.00000000000E+00  0.00000000000E+00 -0.16010668470E+04  0.16010668470E+04  0.25500000920E-02 0. -1.
    10030    2    1    2    0    0  0.00000000000E+00  0.00000000000E+00 -0.79081475494E+03  0.24113189390E+04  0.22779532588E+04 0.  0.
        2    1    3    3  502    0  0.45059802696E+03 -0.26867977158E+03 -0.14655554459E+04  0.15566246068E+04  0.25500000920E-02 0. -1.
       -2    1    3    3    0  502 -0.45059802696E+03  0.26867977158E+03  0.67474069093E+03  0.85469433224E+03  0.25500000920E-02 0.  1.
</event>
<event>
 5   0  0.6495405E-05  0.2272859E+04  0.7818609E-02  0.8488700E-01
        2   -1    0    0  501    0  0.00000000000E+00  0.00000000000E+00  0.15565995049E+04  0.15565995049E+04  0.25500000920E-02 0. -1.
       -2   -1    0    0    0  501  0.00000000000E+00  0.00000000000E+00 -0.82967519375E+03  0.82967519376E+03  0.25500000920E-02 0.  1.
    10030    2    1    2    0    0  0.00000000000E+00  0.00000000000E+00  0.72692431111E+03  0.23862746986E+04  0.22728589889E+04 0.  0.
        5    1    3    3  502    0 -0.11328099315E+04 -0.62890471689E+02  0.29512702299E+03  0.11723206055E+04  0.46999998093E+01 0.  1.
       -5    1    3    3    0  502  0.11328099315E+04  0.62890471689E+02  0.43179728813E+03  0.12139540932E+04  0.46999998093E+01 0. -1.
</event>
<event>
 5   0  0.6676612E-05  0.2354270E+04  0.7818609E-02  0.8456826E-01
       -2   -1    0    0    0  501  0.00000000000E+00  0.00000000000E+00  0.15245543304E+04  0.15245543304E+04  0.25500000920E-02 0. -1.
        2   -1    0    0  501    0  0.00000000000E+00  0.00000000000E+00 -0.90888613925E+03  0.90888613925E+03  0.25500000920E-02 0.  1.
    10030    2    1    2    0    0  0.00000000000E+00  0.00000000000E+00  0.61566819119E+03  0.24334404697E+04  0.23542695678E+04 0.  0.
        2    1    3    3  502    0 -0.44111594519E+03  0.53218525578E+03  0.12926830844E+04  0.14658901665E+04  0.25500000920E-02 0. -1.
       -2    1    3    3    0  502  0.44111594519E+03 -0.53218525578E+03 -0.67701489321E+03  0.96755030319E+03  0.25500000920E-02 0.  1.
</event>
<event>
 5   0  0.3118614E-05  0.2419126E+04  0.7818609E-02  0.8432378E-01
       -1   -1    0    0    0  501  0.00000000000E+00  0.00000000000E+00  0.74121460960E+03  0.74121460961E+03  0.50400001928E-02 0.  1.
        1   -1    0    0  501    0  0.00000000000E+00  0.00000000000E+00 -0.19738449421E+04  0.19738449421E+04  0.50400001928E-02 0. -1.
    10030    2    1    2    0    0  0.00000000000E+00  0.00000000000E+00 -0.12326303325E+04  0.27150595518E+04  0.24191260473E+04 0.  0.
        3    1    3    3  502    0  0.71267915347E+03  0.97029439175E+03 -0.74748829259E+03  0.14170820513E+04  0.10100000352E+00 0.  1.
       -3    1    3    3    0  502 -0.71267915347E+03 -0.97029439175E+03 -0.48514203994E+03  0.12979775004E+04  0.10100000352E+00 0. -1.
</event>
<event>
 5   0  0.6814789E-05  0.2341563E+04  0.7818609E-02  0.8461711E-01
       -2   -1    0    0    0  501  0.00000000000E+00  0.00000000000E+00  0.93303159575E+03  0.93303159575E+03  0.25500000920E-02 0. -1.
        2   -1    0    0  501    0  0.00000000000E+00  0.00000000000E+00 -0.14691138950E+04  0.14691138950E+04  0.25500000920E-02 0.  1.
    10030    2    1    2    0    0  0.00000000000E+00  0.00000000000E+00 -0.53608229925E+03  0.24021454908E+04  0.23415633084E+04 0.  0.
        1    1    3    3  502    0 -0.35404705017E+03  0.65987452567E+03 -0.11912956436E+04  0.14071137174E+04  0.50400001928E-02 0.  1.
       -1    1    3    3    0  502  0.35404705017E+03 -0.65987452567E+03  0.65521334431E+03  0.99503177334E+03  0.50400001928E-02 0. -1.
</event>
<event>
 5   0  0.3006265E-05  0.2236137E+04  0.7818609E-02  0.8503536E-01
       -1   -1    0    0    0  501  0.00000000000E+00  0.00000000000E+00  0.89309432684E+03  0.89309432685E+03  0.50400001928E-02 0. -1.
        1   -1    0    0  501    0  0.00000000000E+00  0.00000000000E+00 -0.13997146232E+04  0.13997146232E+04  0.50400001928E-02 0.  1.
    10030    2    1    2    0    0  0.00000000000E+00  0.00000000000E+00 -0.50662029639E+03  0.22928089501E+04  0.22361370166E+04 0.  0.
        2    1    3    3  502    0  0.39481517626E+02  0.10715674153E+04 -0.57797623894E+03  0.12181428687E+04  0.25500000920E-02 0. -1.
       -2    1    3    3    0  502 -0.39481517626E+02 -0.10715674153E+04  0.71355942551E+02  0.10746660814E+04  0.25500000920E-02 0.  1.
</event>
<event>
 5   0  0.2982385E-05  0.2298959E+04  0.7818609E-02  0.8478332E-01
       -1   -1    0    0    0  501  0.00000000000E+00  0.00000000000E+00  0.99061517982E+03  0.99061517983E+03  0.50400001928E-02 0. -1.
        1   -1    0    0  501    0  0.00000000000E+00  0.00000000000E+00 -0.13338207107E+04  0.13338207107E+04  0.50400001928E-02 0.  1.
    10030    2    1    2    0    0  0.00000000000E+00  0.00000000000E+00 -0.34320553085E+03  0.23244358905E+04  0.22989589324E+04 0.  0.
        4    1    3    3  502    0  0.84634220336E+03  0.53136925576E+02  0.61300124311E+03  0.10463702954E+04  0.12699999809E+01 0. -1.
       -4    1    3    3    0  502 -0.84634220336E+03 -0.53136925576E+02 -0.95620677396E+03  0.12780655952E+04  0.12699999809E+01 0.  1.
</event>
<event>
 5   0  0.6468758E-05  0.2311948E+04  0.7818609E-02  0.8473225E-01
        2   -1    0    0  501    0  0.00000000000E+00  0.00000000000E+00  0.12677045591E+04  0.12677045591E+04  0.25500000920E-02 0. -1.
       -2   -1    0    0    0  501  0.00000000000E+00  0.00000000000E+00 -0.10540908663E+04  0.10540908663E+04  0.25500000920E-02 0.  1.
    10030    2    1    2    0    0  0.00000000000E+00  0.00000000000E+00  0.21361369277E+03  0.23217954254E+04  0.23119479206E+04 0.  0.
        3    1    3    3  502    0 -0.44639862066E+02 -0.85964161684E+03  0.88164966475E+03  0.12321860932E+04  0.10100000352E+00 0. -1.
       -3    1    3    3    0  502  0.44639862066E+02  0.85964161684E+03 -0.66803597198E+03  0.10896093322E+04  0.10100000352E+00 0.  1.
</event>
<event>
 5   0  0.6495405E-05  0.2304000E+04  0.7818609E-02  0.8476346E-01
        2   -1    0    0  501    0  0.00000000000E+00  0.00000000000E+00  0.98330640695E+03  0.98330640695E+03  0.25500000920E-02 0.  1.
       -2   -1    0    0    0  501  0.00000000000E+00  0.00000000000E+00 -0.13496338097E+04  0.13496338097E+04  0.25500000920E-02 0. -1.
    10030    2    1    2    0    0  0.00000000000E+00  0.00000000000E+00 -0.36632740275E+03  0.23329402167E+04  0.23039996286E+04 0.  0.
        5    1    3    3  502    0  0.12328853054E+03 -0.10466609545E+04  0.28784837031E+03  0.10925099495E+04  0.46999998093E+01 0.  1.
       -5    1    3    3    0  502 -0.12328853054E+03  0.10466609545E+04 -0.65417577306E+03  0.12404302671E+04  0.46999998093E+01 0. -1.
</event>
<event>
 5   0  0.2342500E-05  0.1696351E+04  0.7818609E-02  0.8763448E-01
        3   -1    0    0  501    0  0.00000000000E+00  0.00000000000E+00  0.91317180797E+03  0.91317181356E+03  0.10100000352E+00 0.  1.
       -3   -1    0    0    0  501  0.00000000000E+00  0.00000000000E+00 -0.78780542265E+03  0.78780542912E+03  0.10100000352E+00 0. -1.
    10030    2    1    2    0    0  0.00000000000E+00  0.00000000000E+00  0.12536638532E+03  0.17009772427E+04  0.16963510396E+04 0.  0.
        5    1    3    3  502    0 -0.69956639953E+03  0.13136929816E+03 -0.39979972596E+03  0.81640244410E+03  0.46999998093E+01 0. -1.
       -5    1    3    3    0  502  0.69956639953E+03 -0.13136929816E+03  0.52516611128E+03  0.88457479858E+03  0.46999998093E+01 0.  1.
</event>
<event>
 5   0  0.6495405E-05  0.2153380E+04  0.7818609E-02  0.8538087E-01
        2   -1    0    0  501    0  0.00000000000E+00  0.00000000000E+00  0.10152775077E+04  0.10152775077E+04  0.25500000920E-02 0.  1.
       -2   -1    0    0    0  501  0.00000000000E+00  0.00000000000E+00 -0.11418171612E+04  0.11418171612E+04  0.25500000920E-02 0. -1.
    10030    2    1    2    0    0  0.00000000000E+00  0.00000000000E+00 -0.12653965350E+03  0.21570946689E+04  0.21533799309E+04 0.  0.
        5    1    3    3  502    0  0.81005535620E+03  0.29743555931E+03 -0.70826067987E+03  0.11163838375E+04  0.46999998093E+01 0. -1.
       -5    1    3    3    0  502 -0.81005535620E+03 -0.29743555931E+03  0.58172102637E+03  0.10407108314E+04  0.46999998093E+01 0.  1.
</event>
<event>
 5   0  0.6814789E-05  0.2270636E+04  0.7818609E-02  0.8489590E-01
       -2   -1    0    0    0  501  0.00000000000E+00  0.00000000000E+00  0.65071519055E+03  0.65071519055E+03  0.25500000920E-02 0. -1.
        2   -1    0    0  501    0  0.00000000000E+00  0.00000000000E+00 -0.19808162094E+04  0.19808162094E+04  0.25500000920E-02 0.  1.
    10030    2    1    2    0    0  0.00000000000E+00  0.00000000000E+00 -0.13301010188E+04  0.26315313999E+04  0.22706362079E+04 0.  0.
        1    1    3    3  502    0  0.26146914854E+02 -0.99838385036E+03 -0.39337436249E+02  0.99950057916E+03  0.50400001928E-02 0. -1.
       -1    1    3    3    0  502 -0.26146914854E+02  0.99838385036E+03 -0.12907635826E+04  0.16320308208E+04  0.50400001928E-02 0.  1.
</event>
<event>
 5   0  0.2982385E-05  0.2296725E+04  0.7818609E-02  0.8479213E-01
       -1   -1    0    0    0  501  0.00000000000E+00  0.00000000000E+00  0.75175482939E+03  0.75175482940E+03  0.50400001928E-02 0.  1.
        1   -1    0    0  501    0  0.00000000000E+00  0.00000000000E+00 -0.17542111772E+04  0.17542111772E+04  0.50400001928E-02 0. -1.
    10030    2    1    2    0    0  0.00000000000E+00  0.00000000000E+00 -0.10024563478E+04  0.25059660066E+04  0.22967252550E+04 0.  0.
        4    1    3    3  502    0 -0.53309650277E+03 -0.56778056675E+03 -0.14220116074E+04  0.16213220771E+04  0.12699999809E+01 0. -1.
       -4    1    3    3    0  502  0.53309650277E+03  0.56778056675E+03  0.41955525959E+03  0.88464392950E+03  0.12699999809E+01 0.  1.
</event>
<event>
 5   0  0.2944089E-05  0.2302945E+04  0.7818609E-02  0.8476761E-01
        1   -1    0    0  501    0  0.00000000000E+00  0.00000000000E+00  0.12638697042E+04  0.12638697042E+04  0.50400001928E-02 0. -1.
       -1   -1    0    0    0  501  0.00000000000E+00  0.00000000000E+00 -0.10490709661E+04  0.10490709661E+04  0.50400001928E-02 0.  1.
    10030    2    1    2    0    0  0.00000000000E+00  0.00000000000E+00  0.21479873814E+03  0.23129406704E+04  0.23029450811E+04 0.  0.
        5    1    3    3  502    0 -0.41902026696E+03 -0.81457375885E+03 -0.59330963203E+03  0.10913967208E+04  0.46999998093E+01 0.  1.
       -5    1    3    3    0  502  0.41902026696E+03  0.81457375885E+03  0.80810837017E+03  0.12215439495E+04  0.46999998093E+01 0. -1.
</event>
<event>
 5   0  0.6495405E-05  0.2129773E+04  0.7818609E-02  0.8548240E-01
        2   -1    0    0  501    0  0.00000000000E+00  0.00000000000E+00  0.11387762899E+04  0.11387762899E+04  0.25500000920E-02 0. -1.
       -2   -1    0    0    0  501  0.00000000000E+00  0.00000000000E+00 -0.99579114863E+03  0.99579114863E+03  0.25500000920E-02 0.  1.
    10030    2    1    2    0    0  0.00000000000E+00  0.00000000000E+00  0.14298514130E+03  0.21345674386E+04  0.21297730863E+04 0.  0.
        5    1    3    3  502    0  0.14519265451E+03  0.10544138108E+04  0.38374751986E+02  0.10650653045E+04  0.46999998093E+01 0.  1.
       -5    1    3    3    0  502 -0.14519265451E+03 -0.10544138108E+04  0.10461038932E+03  0.10695021341E+04  0.46999998093E+01 0. -1.
</event>
<event>
 5   0  0.6676612E-05  0.2320205E+04  0.7818609E-02  0.8469997E-01
        2   -1    0    0  501    0  0.00000000000E+00  0.00000000000E+00  0.17531453711E+04  0.17531453711E+04  0.25500000920E-02 0.  1.
       -2   -1    0    0    0  501  0.00000000000E+00  0.00000000000E+00 -0.76767050399E+03  0.76767050400E+03  0.25500000920E-02 0. -1.
    10030    2    1    2    0    0  0.00000000000E+00  0.00000000000E+00  0.98547486713E+03  0.25208158751E+04  0.23202051553E+04 0.  0.
        2    1    3    3  502    0  0.13458776165E+03  0.51588291914E+03 -0.62668222680E+03  0.82278774009E+03  0.25500000920E-02 0. -1.
       -2    1    3    3    0  502 -0.13458776165E+03 -0.51588291914E+03  0.16121570939E+04  0.16980281350E+04  0.25500000920E-02 0.  1.
</event>
<event>
 5   0  0.6468758E-05  0.2315974E+04  0.7818609E-02  0.8471649E-01
        2   -1    0    0  501    0  0.00000000000E+00  0.00000000000E+00  0.14813677574E+04  0.14813677574E+04  0.25500000920E-02 0.  1.
       -2   -1    0    0    0  501  0.00000000000E+00  0.00000000000E+00 -0.90520012050E+03  0.90520012051E+03  0.25500000920E-02 0. -1.
    10030    2    1    2    0    0  0.00000000000E+00  0.00000000000E+00  0.57616763692E+03  0.23865678779E+04  0.23159743285E+04 0.  0.
        3    1    3    3  502    0  0.51605634532E+03 -0.38543264607E+03  0.12797375068E+04  0.14326899779E+04  0.10100000352E+00 0.  1.
       -3    1    3    3    0  502 -0.51605634532E+03  0.38543264607E+03 -0.70356986988E+03  0.95387790005E+03  0.10100000352E+00 0. -1.
</event>
<event>
 5   0  0.2962279E-05  0.2331642E+04  0.7818609E-02  0.8465549E-01
        1   -1    0    0  501    0  0.00000000000E+00  0.00000000000E+00  0.24924899077E+04  0.24924899077E+04  0.50400001928E-02 0. -1.
       -1   -1    0    0    0  501  0.00000000000E+00  0.00000000000E+00 -0.54529358230E+03  0.54529358232E+03  0.50400001928E-02 0.  1.
    10030    2    1    2    0    0  0.00000000000E+00  0.00000000000E+00  0.19471963254E+04  0.30377834900E+04  0.23316421257E+04 0.  0.
        1    1    3    3  502    0  0.83107887975E+03  0.70078528510E+03  0.15222620738E+04  0.18705811775E+04  0.50400001928E-02 0. -1.
       -1    1    3    3    0  502 -0.83107887975E+03 -0.70078528510E+03  0.42493425159E+03  0.11672023125E+04  0.50400001928E-02 0.  1.
</event>
<event>
 5   0  0.6468758E-05  0.2296223E+04  0.7818609E-02  0.8479412E-01
       -2   -1    0    0    0  501  0.00000000000E+00  0.00000000000E+00  0.78164280852E+03  0.78164280852E+03  0.25500000920E-02 0.  1.
        2   -1    0    0  501    0  0.00000000000E+00  0.00000000000E+00 -0.16863972257E+04  0.16863972258E+04  0.25500000920E-02 0. -1.
    10030    2    1    2    0    0  0.00000000000E+00  0.00000000000E+00 -0.90475441723E+03  0.24680400343E+04  0.22962232155E+04 0.  0.
        3    1    3    3  502    0  0.51612440411E+03 -0.35445247665E+03  0.58199359189E+03  0.85483186062E+03  0.10100000352E+00 0.  1.
       -3    1    3    3    0  502 -0.51612440411E+03  0.35445247665E+03 -0.14867480091E+04  0.16132081737E+04  0.10100000352E+00 0. -1.
</event>
<event>
 5   0  0.6495405E-05  0.1966311E+04  0.7818609E-02  0.8622536E-01
        2   -1    0    0  501    0  0.00000000000E+00  0.00000000000E+00  0.13720184181E+04  0.13720184181E+04  0.25500000920E-02 0. -1.
       -2   -1    0    0    0  501  0.00000000000E+00  0.00000000000E+00 -0.70450537772E+03  0.70450537773E+03  0.25500000920E-02 0.  1.
    10030    2    1    2    0    0  0.00000000000E+00  0.00000000000E+00  0.66751304034E+03  0.20765237958E+04  0.19663106101E+04 0.  0.
        5    1    3    3  502    0  0.50388535701E+03  0.75475176294E+03 -0.65622811865E+02  0.90987862932E+03  0.46999998093E+01 0.  1.
       -5    1    3    3    0  502 -0.50388535701E+03 -0.75475176294E+03  0.73313585221E+03  0.11666451665E+04  0.46999998093E+01 0. -1.
</event>
<event>
 5   0  0.2962279E-05  0.2239783E+04  0.7818609E-02  0.8502050E-01
       -1   -1    0    0    0  501  0.00000000000E+00  0.00000000000E+00  0.11262375128E+04  0.11262375128E+04  0.50400001928E-02 0.  1.
        1   -1    0    0  501    0  0.00000000000E+00  0.00000000000E+00 -0.11135809267E+04  0.11135809267E+04  0.50400001928E-02 0. -1.
    10030    2    1    2    0    0  0.00000000000E+00  0.00000000000E+00  0.12656586072E+02  0.22398184396E+04  0.22397826799E+04 0.  0.
        1    1    3    3  502    0  0.20102113812E+03 -0.10415965534E+04  0.36525425872E+03  0.11219374098E+04  0.50400001928E-02 0.  1.
       -1    1    3    3    0  502 -0.20102113812E+03  0.10415965534E+04 -0.35259767264E+03  0.11178810298E+04  0.50400001928E-02 0. -1.
</event>
<event>
 5   0  0.3006265E-05  0.2327794E+04  0.7818609E-02  0.8467042E-01
       -1   -1    0    0    0  501  0.00000000000E+00  0.00000000000E+00  0.81453376019E+03  0.81453376021E+03  0.50400001928E-02 0. -1.
        1   -1    0    0  501    0  0.00000000000E+00  0.00000000000E+00 -0.16631068313E+04  0.16631068313E+04  0.50400001928E-02 0.  1.
    10030    2    1    2    0    0  0.00000000000E+00  0.00000000000E+00 -0.84857307106E+03  0.24776405915E+04  0.23277943731E+04 0.  0.
        2    1    3    3  502    0  0.96338894351E+03 -0.62239112569E+03 -0.63493469982E+03  0.13109656910E+04  0.25500000920E-02 0.  1.
       -2    1    3    3    0  502 -0.96338894351E+03  0.62239112569E+03 -0.21363837124E+03  0.11666749005E+04  0.25500000920E-02 0. -1.
</event>
<event>
 5   0  0.6702421E-05  0.2216613E+04  0.7818609E-02  0.8511545E-01
        2   -1    0    0  501    0  0.00000000000E+00  0.00000000000E+00  0.25033079402E+04  0.25033079402E+04  0.25500000920E-02 0. -1.
       -2   -1    0    0    0  501  0.00000000000E+00  0.00000000000E+00 -0.49068815962E+03  0.49068815963E+03  0.25500000920E-02 0.  1.
    10030    2    1    2    0    0  0.00000000000E+00  0.00000000000E+00  0.20126197805E+04  0.29939960998E+04  0.22166132420E+04 0.  0.
        4    1    3    3  502    0 -0.10184201355E+04 -0.35715627703E+03  0.13469501095E+04  0.17259827314E+04  0.12699999809E+01 0.  1.
       -4    1    3    3    0  502  0.10184201355E+04  0.35715627703E+03  0.66566967108E+03  0.12680133684E+04  0.12699999809E+01 0. -1.
</event>
<event>
 5   0  0.6702421E-05  0.2363769E+04  0.7818609E-02  0.8453194E-01
       -2   -1    0    0    0  501  0.00000000000E+00  0.00000000000E+00  0.87478271214E+03  0.87478271215E+03  0.25500000920E-02 0. -1.
        2   -1    0    0  501    0  0.00000000000E+00  0.00000000000E+00 -0.15967973123E+04  0.15967973123E+04  0.25500000920E-02 0.  1.
    10030    2    1    2    0    0  0.00000000000E+00  0.00000000000E+00 -0.72201460014E+03  0.24715800244E+04  0.23637687565E+04 0.  0.
        4    1    3    3  502    0  0.10485723966E+04 -0.35166333401E+03  0.74747286723E+02  0.11084944480E+04  0.12699999809E+01 0. -1.
       -4    1    3    3    0  502 -0.10485723966E+04  0.35166333401E+03 -0.79676188687E+03  0.13630855764E+04  0.12699999809E+01 0.  1.
</event>
<event>
 5   0  0.6676612E-05  0.2254328E+04  0.7818609E-02  0.8496150E-01
        2   -1    0    0  501    0  0.00000000000E+00  0.00000000000E+00  0.24361639272E+04  0.24361639272E+04  0.25500000920E-02 0.  1.
       -2   -1    0    0    0  501  0.00000000000E+00  0.00000000000E+00 -0.52151604343E+03  0.52151604343E+03  0.25500000920E-02 0. -1.
    10030    2    1    2    0    0  0.00000000000E+00  0.00000000000E+00  0.19146478838E+04  0.29576799707E+04  0.22543279020E+04 0.  0.
        2    1    3    3  502    0 -0.61685052723E+03 -0.58719472590E+03 -0.11423491998E+02  0.85172337953E+03  0.25500000920E-02 0. -1.
       -2    1    3    3    0  502  0.61685052723E+03  0.58719472590E+03  0.19260713758E+04  0.21059565911E+04  0.25500000920E-02 0.  1.
</event>
<event>
 5   0  0.6814789E-05  0.2310138E+04  0.7818609E-02  0.8473935E-01
        2   -1    0    0  501    0  0.00000000000E+00  0.00000000000E+00  0.27151006283E+04  0.27151006283E+04  0.25500000920E-02 0.  1.
       -2   -1    0    0    0  501  0.00000000000E+00  0.00000000000E+00 -0.49139388889E+03  0.49139388890E+03  0.25500000920E-02 0. -1.
    10030    2    1    2    0    0  0.00000000000E+00  0.00000000000E+00  0.22237067394E+04  0.32064945172E+04  0.23101375340E+04 0.  0.
        1    1    3    3  502    0 -0.77195356270E+03 -0.80058066314E+03  0.15449084565E+04  0.19035713383E+04  0.50400001928E-02 0.  1.
       -1    1    3    3    0  502  0.77195356270E+03  0.80058066314E+03  0.67879828293E+03  0.13029231789E+04  0.50400001928E-02 0. -1.
</event>
<event>
 5   0  0.6702421E-05  0.2310723E+04  0.7818609E-02  0.8473705E-01
       -2   -1    0    0    0  501  0.00000000000E+00  0.00000000000E+00  0.99272364008E+03  0.99272364008E+03  0.25500000920E-02 0. -1.
        2   -1    0    0  501    0  0.00000000000E+00  0.00000000000E+00 -0.13446446863E+04  0.13446446863E+04  0.25500000920E-02 0.  1.
    10030    2    1    2    0    0  0.00000000000E+00  0.00000000000E+00 -0.35192104621E+03  0.23373683264E+04  0.23107233219E+04 0.  0.
        4    1    3    3  502    0 -0.30957609035E+03  0.56255803555E+03  0.79560965676E+03  0.10224017009E+04  0.12699999809E+01 0. -1.
       -4    1    3    3    0  502  0.30957609035E+03 -0.56255803555E+03 -0.11475307030E+04  0.13149666255E+04  0.12699999809E+01 0.  1.
</event>
<event>
 5   0  0.6468758E-05  0.2331076E+04  0.7818609E-02  0.8465768E-01
       -2   -1    0    0    0  501  0.00000000000E+00  0.00000000000E+00  0.15077762096E+04  0.15077762096E+04  0.25500000920E-02 0.  1.
        2   -1    0    0  501    0  0.00000000000E+00  0.00000000000E+00 -0.90098178224E+03  0.90098178224E+03  0.25500000920E-02 0. -1.
    10030    2    1    2    0    0  0.00000000000E+00  0.00000000000E+00  0.60679442733E+03  0.24087579918E+04  0.23310760575E+04 0.  0.
        3    1    3    3  502    0 -0.31886238166E+03  0.71722719812E+03  0.11937313389E+04  0.14286646184E+04  0.10100000352E+00 0.  1.
       -3    1    3    3    0  502  0.31886238166E+03 -0.71722719812E+03 -0.58693691161E+03  0.98009337339E+03  0.10100000352E+00 0. -1.
</event>
<event>
 5   0  0.3118614E-05  0.2282552E+04  0.7818609E-02  0.8484833E-01
       -1   -1    0    0    0  501  0.00000000000E+00  0.00000000000E+00  0.11716878133E+04  0.11716878133E+04  0.50400001928E-02 0.  1.
        1   -1    0    0  501    0  0.00000000000E+00  0.00000000000E+00 -0.11116533477E+04  0.11116533477E+04  0.50400001928E-02 0. -1.
    10030    2    1    2    0    0  0.00000000000E+00  0.00000000000E+00  0.60034465629E+02  0.22833411610E+04  0.22825518002E+04 0.  0.
        3    1    3    3  502    0  0.86117917735E+02 -0.28849089587E+03 -0.10712119474E+04  0.11127166482E+04  0.10100000352E+00 0. -1.
       -3    1    3    3    0  502 -0.86117917735E+02  0.28849089587E+03  0.11312464130E+04  0.11706245128E+04  0.10100000352E+00 0.  1.
</event>
<event>
 5   0  0.3118614E-05  0.2260400E+04  0.7818609E-02  0.8493701E-01
        1   -1    0    0  501    0  0.00000000000E+00  0.00000000000E+00  0.15689899804E+04  0.15689899804E+04  0.50400001928E-02 0. -1.
       -1   -1    0    0    0  501  0.00000000000E+00  0.00000000000E+00 -0.81412367290E+03  0.81412367291E+03  0.50400001928E-02 0.  1.
    10030    2    1    2    0    0  0.00000000000E+00  0.00000000000E+00  0.75486630749E+03  0.23831136533E+04  0.22603998634E+04 0.  0.
        3    1    3    3  502    0 -0.63069109143E+03  0.92594019348E+03  0.22029329357E+03  0.11417817831E+04  0.10100000352E+00 0. -1.
       -3    1    3    3    0  502  0.63069109143E+03 -0.92594019348E+03  0.53457301391E+03  0.12413318703E+04  0.10100000352E+00 0.  1.
</event>
<event>
 5   0  0.2982385E-05  0.2318375E+04  0.7818609E-02  0.8470711E-01
        1   -1    0    0  501    0  0.00000000000E+00  0.00000000000E+00  0.12850385537E+04  0.12850385537E+04  0.50400001928E-02 0. -1.
       -1   -1    0    0    0  501  0.00000000000E+00  0.00000000000E+00 -0.10456617156E+04  0.10456617156E+04  0.50400001928E-02 0.  1.
    10030    2    1    2    0    0  0.00000000000E+00  0.00000000000E+00  0.23937683814E+03  0.23307002693E+04  0.23183749642E+04 0.  0.
        4    1    3    3  502    0  0.66335678997E+03  0.83549051361E+03  0.57556073101E+03  0.12121709438E+04  0.12699999809E+01 0. -1.
       -4    1    3    3    0  502 -0.66335678997E+03 -0.83549051361E+03 -0.33618389287E+03  0.11185293254E+04  0.12699999809E+01 0.  1.
</event>
<event>
 5   0  0.2962279E-05  0.2247970E+04  0.7818609E-02  0.8498723E-01
       -1   -1    0    0    0  501  0.00000000000E+00  0.00000000000E+00  0.90077612739E+03  0.90077612740E+03  0.50400001928E-02 0.  1.
        1   -1    0    0  501    0  0.00000000000E+00  0.00000000000E+00 -0.14025036216E+04  0.14025036216E+04  0.50400001928E-02 0. -1.
    10030    2    1    2    0    0  0.00000000000E+00  0.00000000000E+00 -0.50172749420E+03  0.23032797490E+04  0.22479695558E+04 0.  0.
        1    1    3    3  502    0  0.37511806818E+03 -0.99731758424E+03  0.11568964751E+03  0.10717929014E+04  0.50400001928E-02 0.  1.
       -1    1    3    3    0  502 -0.37511806818E+03  0.99731758424E+03 -0.61741714170E+03  0.12314868476E+04  0.50400001928E-02 0. -1.
</event>
<event>
 5   0  0.6814789E-05  0.2218120E+04  0.7818609E-02  0.8510924E-01
       -2   -1    0    0    0  501  0.00000000000E+00  0.00000000000E+00  0.97961935998E+03  0.97961935999E+03  0.25500000920E-02 0. -1.
        2   -1    0    0  501    0  0.00000000000E+00  0.00000000000E+00 -0.12556035662E+04  0.12556035662E+04  0.25500000920E-02 0.  1.
    10030    2    1    2    0    0  0.00000000000E+00  0.00000000000E+00 -0.27598420622E+03  0.22352229262E+04  0.22181195296E+04 0.  0.
        1    1    3    3  502    0  0.80448803779E+03 -0.73247785882E+03 -0.35479925386E+03  0.11443807615E+04  0.50400001928E-02 0.  1.
       -1    1    3    3    0  502 -0.80448803779E+03  0.73247785882E+03  0.78815047642E+02  0.10908421647E+04  0.50400001928E-02 0. -1.
</event>
<event>
 5   0  0.6702421E-05  0.2279947E+04  0.7818609E-02  0.8485870E-01
        2   -1    0    0  501    0  0.00000000000E+00  0.00000000000E+00  0.14061426469E+04  0.14061426469E+04  0.25500000920E-02 0. -1.
       -2   -1    0    0    0  501  0.00000000000E+00  0.00000000000E+00 -0.92418767445E+03  0.92418767445E+03  0.25500000920E-02 0.  1.
    10030    2    1    2    0    0  0.00000000000E+00  0.00000000000E+00  0.48195497244E+03  0.23303303214E+04  0.22799471071E+04 0.  0.
        4    1    3    3  502    0  0.46860206031E+03  0.74319366649E+03 -0.50144413578E+03  0.10116187775E+04  0.12699999809E+01 0.  1.
       -4    1    3    3    0  502 -0.46860206031E+03 -0.74319366649E+03  0.98339910823E+03  0.13187115438E+04  0.12699999809E+01 0. -1.
</event>
<event>
 5   0  0.6676612E-05  0.2313150E+04  0.7818609E-02  0.8472754E-01
        2   -1    0    0  501    0  0.00000000000E+00  0.00000000000E+00  0.15480169193E+04  0.15480169193E+04  0.25500000920E-02 0.  1.
       -2   -1    0    0    0  501  0.00000000000E+00  0.00000000000E+00 -0.86411577828E+03  0.86411577828E+03  0.25500000920E-02 0. -1.
    10030    2    1    2    0    0  0.00000000000E+00  0.00000000000E+00  0.68390114099E+03  0.24121326975E+04  0.23131500989E+04 0.  0.
        2    1    3    3  502    0  0.97076700916E+03 -0.62841263549E+03  0.32176189277E+03  0.12003423437E+04  0.25500000920E-02 0.  1.
       -2    1    3    3    0  502 -0.97076700916E+03  0.62841263549E+03  0.36213924821E+03  0.12117903538E+04  0.25500000920E-02 0. -1.
</event>
<event>
 5   0  0.2944089E-05  0.2257175E+04  0.7818609E-02  0.8495000E-01
        1   -1    0    0  501    0  0.00000000000E+00  0.00000000000E+00  0.12331576227E+04  0.12331576227E+04  0.50400001928E-02 0. -1.
       -1   -1    0    0    0  501  0.00000000000E+00  0.00000000000E+00 -0.10328848794E+04  0.10328848794E+04  0.50400001928E-02 0.  1.
    10030    2    1    2    0    0  0.00000000000E+00  0.00000000000E+00  0.20027274326E+03  0.22660425021E+04  0.22571751039E+04 0.  0.
        5    1    3    3  502    0 -0.13100442206E+03  0.16092918172E+03  0.12138309160E+04  0.12314495291E+04  0.46999998093E+01 0. -1.
       -5    1    3    3    0  502  0.13100442206E+03 -0.16092918172E+03 -0.10135581727E+04  0.10345929729E+04  0.46999998093E+01 0.  1.
</event>
<event>
 5   0  0.3118614E-05  0.2270179E+04  0.7818609E-02  0.8489773E-01
        1   -1    0    0  501    0  0.00000000000E+00  0.00000000000E+00  0.81335411382E+03  0.81335411383E+03  0.50400001928E-02 0. -1.
       -1   -1    0    0    0  501  0.00000000000E+00  0.00000000000E+00 -0.15840923916E+04  0.15840923916E+04  0.50400001928E-02 0.  1.
    10030    2    1    2    0    0  0.00000000000E+00  0.00000000000E+00 -0.77073827781E+03  0.23974465055E+04  0.22701789035E+04 0.  0.
        3    1    3    3  502    0  0.11254363010E+04  0.12485491733E+03 -0.30199761716E+03  0.11719207264E+04  0.10100000352E+00 0.  1.
       -3    1    3    3    0  502 -0.11254363010E+04 -0.12485491733E+03 -0.46874066065E+03  0.12255257791E+04  0.10100000352E+00 0. -1.
</event>
<event>
 5   0  0.6814789E-05  0.2315378E+04  0.7818609E-02  0.8471882E-01
       -2   -1    0    0    0  501  0.00000000000E+00  0.00000000000E+00  0.10265156671E+04  0.10265156671E+04  0.25500000920E-02 0. -1.
        2   -1    0    0  501    0  0.00000000000E+00  0.00000000000E+00 -0.13056241841E+04  0.13056241841E+04  0.25500000920E-02 0.  1.
    10030    2    1    2    0    0  0.00000000000E+00  0.00000000000E+00 -0.27910851697E+03  0.23321398512E+04  0.23153778787E+04 0.  0.
        1    1    3    3  502    0  0.17762925886E+03 -0.44408844505E+03 -0.12014526100E+04  0.12931570186E+04  0.50400001928E-02 0.  1.
       -1    1    3    3    0  502 -0.17762925886E+03  0.44408844505E+03  0.92234409299E+03  0.10389828326E+04  0.50400001928E-02 0. -1.
</event>
<event>
 5   0  0.2982385E-05  0.1700707E+04  0.7818609E-02  0.8760961E-01
        1   -1    0    0  501    0  0.00000000000E+00  0.00000000000E+00  0.70972614957E+03  0.70972614959E+03  0.50400001928E-02 0. -1.
       -1   -1    0    0    0  501  0.00000000000E+00  0.00000000000E+00 -0.10188447610E+04  0.10188447610E+04  0.50400001928E-02 0.  1.
    10030    2    1    2    0    0  0.00000000000E+00  0.00000000000E+00 -0.30911861145E+03  0.17285709106E+04  0.17007066405E+04 0.  0.
        4    1    3    3  502    0 -0.76945325920E+03 -0.32155543301E+03  0.14426381521E+02  0.83406591345E+03  0.12699999809E+01 0. -1.
       -4    1    3    3    0  502  0.76945325920E+03  0.32155543301E+03 -0.32354499297E+03  0.89450499717E+03  0.12699999809E+01 0.  1.
</event>
<event>
 5   0  0.3118614E-05  0.2295198E+04  0.7818609E-02  0.8479817E-01
        1   -1    0    0  501    0  0.00000000000E+00  0.00000000000E+00  0.13345541573E+04  0.13345541573E+04  0.50400001928E-02 0. -1.
       -1   -1    0    0    0  501  0.00000000000E+00  0.00000000000E+00 -0.98683424174E+03  0.98683424176E+03  0.50400001928E-02 0.  1.
    10030    2    1    2    0    0  0.00000000000E+00  0.00000000000E+00  0.34771991555E+03  0.23213883991E+04  0.22951982397E+04 0.  0.
        3    1    3    3  502    0  0.31992599145E+03 -0.68815035517E+03 -0.69682332551E+03  0.10302748704E+04  0.10100000352E+00 0.  1.
       -3    1    3    3    0  502 -0.31992599145E+03  0.68815035517E+03  0.10445432411E+04  0.12911135287E+04  0.10100000352E+00 0. -1.
</event>
<event>
 5   0  0.2962279E-05  0.2274568E+04  0.7818609E-02  0.8488017E-01
       -1   -1    0    0    0  501  0.00000000000E+00  0.00000000000E+00  0.18056884932E+04  0.18056884932E+04  0.50400001928E-02 0.  1.
        1   -1    0    0  501    0  0.00000000000E+00  0.00000000000E+00 -0.71629995357E+03  0.71629995358E+03  0.50400001928E-02 0. -1.
    10030    2    1    2    0    0  0.00000000000E+00  0.00000000000E+00  0.10893885396E+04  0.25219884468E+04  0.22745677250E+04 0.  0.
        1    1    3    3  502    0  0.73001362706E+03  0.67134087115E+03 -0.72443617504E+02  0.99441768825E+03  0.50400001928E-02 0.  1.
       -1    1    3    3    0  502 -0.73001362706E+03 -0.67134087115E+03  0.11618321571E+04  0.15275707585E+04  0.50400001928E-02 0. -1.
</event>
<event>
 5   0  0.2944089E-05  0.2201297E+04  0.7818609E-02  0.8517889E-01
       -1   -1    0    0    0  501  0.00000000000E+00  0.00000000000E+00  0.11460759796E+04  0.11460759796E+04  0.50400001928E-02 0.  1.
        1   -1    0    0  501    0  0.00000000000E+00  0.00000000000E+00 -0.10570215334E+04  0.10570215334E+04  0.50400001928E-02 0. -1.
    10030    2    1    2    0    0  0.00000000000E+00  0.00000000000E+00  0.89054446183E+02  0.22030975130E+04  0.22012968808E+04 0.  0.
        5    1    3    3  502    0  0.21319301688E+03 -0.79941664317E+03  0.77099056902E+03  0.11309141344E+04  0.46999998093E+01 0.  1.
       -5    1    3    3    0  502 -0.21319301688E+03  0.79941664317E+03 -0.68193612283E+03  0.10721833786E+04  0.46999998093E+01 0. -1.
</event>
<event>
 5   0  0.3118614E-05  0.2233158E+04  0.7818609E-02  0.8504752E-01
        1   -1    0    0  501    0  0.00000000000E+00  0.00000000000E+00  0.25224018246E+04  0.25224018246E+04  0.50400001928E-02 0. -1.
       -1   -1    0    0    0  501  0.00000000000E+00  0.00000000000E+00 -0.49427054131E+03  0.49427054133E+03  0.50400001928E-02 0.  1.
    10030    2    1    2    0    0  0.00000000000E+00  0.00000000000E+00  0.20281312833E+04  0.30166723659E+04  0.22331582257E+04 0.  0.
        3    1    3    3  502    0 -0.10605917184E+04  0.27547314162E+03  0.72431230659E+03  0.13135328593E+04  0.10100000352E+00 0.  1.
       -3    1    3    3    0  502  0.10605917184E+04 -0.27547314162E+03  0.13038189767E+04  0.17031395066E+04  0.10100000352E+00 0. -1.
</event>
<event>
 5   0  0.6702421E-05  0.2266346E+04  0.7818609E-02  0.8491310E-01
       -2   -1    0    0    0  501  0.00000000000E+00  0.00000000000E+00  0.90271825619E+03  0.90271825620E+03  0.25500000920E-02 0. -1.
        2   -1    0    0  501    0  0.00000000000E+00  0.00000000000E+00 -0.14224598598E+04  0.14224598598E+04  0.25500000920E-02 0.  1.
    10030    2    1    2    0    0  0.00000000000E+00  0.00000000000E+00 -0.51974160357E+03  0.23251781160E+04  0.22663455024E+04 0.  0.
        4    1    3    3  502    0 -0.34572715649E+03  0.40496945757E+03 -0.12861128334E+04  0.13919825292E+04  0.12699999809E+01 0.  1.
       -4    1    3    3    0  502  0.34572715649E+03 -0.40496945757E+03  0.76637122988E+03  0.93319558678E+03  0.12699999809E+01 0. -1.
</event>
<event>
 5   0  0.6814789E-05  0.2370254E+04  0.7818609E-02  0.8450725E-01
        2   -1    0    0  501    0  0.00000000000E+00  0.00000000000E+00  0.13896394519E+04  0.13896394519E+04  0.25500000920E-02 0.  1.
       -2   -1    0    0    0  501  0.00000000000E+00  0.00000000000E+00 -0.10107128106E+04  0.10107128106E+04  0.25500000920E-02 0. -1.
    10030    2    1    2    0    0  0.00000000000E+00  0.00000000000E+00  0.37892664133E+03  0.24003522626E+04  0.23702543292E+04 0.  0.
        1    1    3    3  502    0  0.13562780857E+03 -0.83864314138E+03 -0.64735216174E+03  0.10680739873E+04  0.50400001928E-02 0. -1.
       -1    1    3    3    0  502 -0.13562780857E+03  0.83864314138E+03  0.10262788031E+04  0.13322782753E+04  0.50400001928E-02 0.  1.
</event>
<event>
 5   0  0.2982385E-05  0.2297942E+04  0.7818609E-02  0.8478733E-01
        1   -1    0    0  501    0  0.00000000000E+00  0.00000000000E+00  0.10391330765E+04  0.10391330765E+04  0.50400001928E-02 0.  1.
       -1   -1    0    0    0  501  0.00000000000E+00  0.00000000000E+00 -0.12704190607E+04  0.12704190607E+04  0.50400001928E-02 0. -1.
    10030    2    1    2    0    0  0.00000000000E+00  0.00000000000E+00 -0.23128598416E+03  0.23095521372E+04  0.22979420941E+04 0.  0.
        4    1    3    3  502    0  0.35683457481E+03 -0.52029290222E+03  0.84946752923E+03  0.10581267949E+04  0.12699999809E+01 0.  1.
       -4    1    3    3    0  502 -0.35683457481E+03  0.52029290222E+03 -0.10807535134E+04  0.12514253424E+04  0.12699999809E+01 0. -1.
</event>
<event>
 5   0  0.6495405E-05  0.2281686E+04  0.7818609E-02  0.8485177E-01
        2   -1    0    0  501    0  0.00000000000E+00  0.00000000000E+00  0.71625486220E+03  0.71625486220E+03  0.25500000920E-02 0. -1.
       -2   -1    0    0    0  501  0.00000000000E+00  0.00000000000E+00 -0.18171222853E+04  0.18171222853E+04  0.25500000920E-02 0.  1.
    10030    2    1    2    0    0  0.00000000000E+00  0.00000000000E+00 -0.11008674231E+04  0.25333771475E+04  0.22816859311E+04 0.  0.
        5    1    3    3  502    0 -0.84371350500E+03 -0.40195008793E+03 -0.12768885137E+04  0.15823661770E+04  0.46999998093E+01 0.  1.
       -5    1    3    3    0  502  0.84371350500E+03  0.40195008793E+03  0.17602109058E+03  0.95101097052E+03  0.46999998093E+01 0. -1.
</event>
<event>
 5   0  0.2982385E-05  0.2143135E+04  0.7818609E-02  0.8542476E-01
        1   -1    0    0  501    0  0.00000000000E+00  0.00000000000E+00  0.87672073190E+03  0.87672073192E+03  0.50400001928E-02 0.  1.
       -1   -1    0    0    0  501  0.00000000000E+00  0.00000000000E+00 -0.13097184876E+04  0.13097184876E+04  0.50400001928E-02 0. -1.
    10030    2    1    2    0    0  0.00000000000E+00  0.00000000000E+00 -0.43299775573E+03  0.21864392196E+04  0.21431354144E+04 0.  0.
        4    1    3    3  502    0  0.10371277748E+04 -0.19543400718E+03 -0.27203912812E+02  0.10557320390E+04  0.12699999809E+01 0. -1.
       -4    1    3    3    0  502 -0.10371277748E+04  0.19543400718E+03 -0.40579384292E+03  0.11307071806E+04  0.12699999809E+01 0.  1.
</event>
<event>
 5   0  0.2962279E-05  0.2339419E+04  0.7818609E-02  0.8462539E-01
        1   -1    0    0  501    0  0.00000000000E+00  0.00000000000E+00  0.22536279786E+04  0.22536279786E+04  0.50400001928E-02 0.  1.
       -1   -1    0    0    0  501  0.00000000000E+00  0.00000000000E+00 -0.60711917891E+03  0.60711917893E+03  0.50400001928E-02 0. -1.
    10030    2    1    2    0    0  0.00000000000E+00  0.00000000000E+00  0.16465087997E+04  0.28607471575E+04  0.23394193878E+04 0.  0.
        1    1    3    3  502    0  0.24618732656E+03  0.75577214049E+03 -0.22612971156E+03  0.82639843573E+03  0.50400001928E-02 0. -1.
       -1    1    3    3    0  502 -0.24618732656E+03 -0.75577214049E+03  0.18726385112E+04  0.20343487218E+04  0.50400001928E-02 0.  1.
</event>
<event>
 5   0  0.2962279E-05  0.2300133E+04  0.7818609E-02  0.8477869E-01
       -1   -1    0    0    0  501  0.00000000000E+00  0.00000000000E+00  0.71263848341E+03  0.71263848343E+03  0.50400001928E-02 0.  1.
        1   -1    0    0  501    0  0.00000000000E+00  0.00000000000E+00 -0.18559947197E+04  0.18559947197E+04  0.50400001928E-02 0. -1.
    10030    2    1    2    0    0  0.00000000000E+00  0.00000000000E+00 -0.11433562363E+04  0.25686332031E+04  0.23001332677E+04 0.  0.
        1    1    3    3  502    0  0.46344423904E+03  0.10886852171E+03  0.59744002590E+03  0.76391590001E+03  0.50400001928E-02 0.  1.
       -1    1    3    3    0  502 -0.46344423904E+03 -0.10886852171E+03 -0.17407962622E+04  0.18047173031E+04  0.50400001928E-02 0. -1.
</event>
<event>
 5   0  0.3118614E-05  0.2292393E+04  0.7818609E-02  0.8480926E-01
        1   -1    0    0  501    0  0.00000000000E+00  0.00000000000E+00  0.11918133239E+04  0.11918133239E+04  0.50400001928E-02 0. -1.
       -1   -1    0    0    0  501  0.00000000000E+00  0.00000000000E+00 -0.11023261031E+04  0.11023261031E+04  0.50400001928E-02 0.  1.
    10030    2    1    2    0    0  0.00000000000E+00  0.00000000000E+00  0.89487220796E+02  0.22941394270E+04  0.22923934540E+04 0.  0.
        3    1    3    3  502    0 -0.97387664851E+03  0.39258078947E+03  0.50467119147E+03  0.11650100534E+04  0.10100000352E+00 0. -1.
       -3    1    3    3    0  502  0.97387664851E+03 -0.39258078947E+03 -0.41518397068E+03  0.11291293737E+04  0.10100000352E+00 0.  1.
</event>
<event>
 5   0  0.6495405E-05  0.2353071E+04  0.7818609E-02  0.8457285E-01
       -2   -1    0    0    0  501  0.00000000000E+00  0.00000000000E+00  0.69295633951E+03  0.69295633951E+03  0.25500000920E-02 0. -1.
        2   -1    0    0  501    0  0.00000000000E+00  0.00000000000E+00 -0.19975807958E+04  0.19975807958E+04  0.25500000920E-02 0.  1.
    10030    2    1    2    0    0  0.00000000000E+00  0.00000000000E+00 -0.13046244563E+04  0.26905371353E+04  0.23530714194E+04 0.  0.
        5    1    3    3  502    0  0.84412266057E+02 -0.36928416217E+03 -0.19259338307E+04  0.19628396352E+04  0.46999998093E+01 0.  1.
       -5    1    3    3    0  502 -0.84412266057E+02  0.36928416217E+03  0.62130937438E+03  0.72769750019E+03  0.46999998093E+01 0. -1.
</event>
<event>
 5   0  0.6814789E-05  0.2306289E+04  0.7818609E-02  0.8475445E-01
       -2   -1    0    0    0  501  0.00000000000E+00  0.00000000000E+00  0.10175297313E+04  0.10175297313E+04  0.25500000920E-02 0. -1.
        2   -1    0    0  501    0  0.00000000000E+00  0.00000000000E+00 -0.13068342122E+04  0.13068342122E+04  0.25500000920E-02 0.  1.
    10030    2    1    2    0    0  0.00000000000E+00  0.00000000000E+00 -0.28930448095E+03  0.23243639435E+04  0.23062893703E+04 0.  0.
        1    1    3    3  502    0  0.81149485237E+03 -0.33263479136E+02  0.68036710203E+03  0.10594950439E+04  0.50400001928E-02 0. -1.
       -1    1    3    3    0  502 -0.81149485237E+03  0.33263479136E+02 -0.96967158298E+03  0.12648688997E+04  0.50400001928E-02 0.  1.
</event>
<event>
 5   0  0.2982385E-05  0.1939298E+04  0.7818609E-02  0.8635539E-01
       -1   -1    0    0    0  501  0.00000000000E+00  0.00000000000E+00  0.60781734942E+03  0.60781734944E+03  0.50400001928E-02 0. -1.
        1   -1    0    0  501    0  0.00000000000E+00  0.00000000000E+00 -0.15468783640E+04  0.15468783640E+04  0.50400001928E-02 0.  1.
    10030    2    1    2    0    0  0.00000000000E+00  0.00000000000E+00 -0.93906101460E+03  0.21546957135E+04  0.19392983341E+04 0.  0.
        4    1    3    3  502    0 -0.68758251559E+03 -0.22041064428E+03  0.24955339344E+03  0.76395620093E+03  0.12699999809E+01 0. -1.
       -4    1    3    3    0  502  0.68758251559E+03  0.22041064428E+03 -0.11886144080E+04  0.13907395125E+04  0.12699999809E+01 0.  1.
</event>
<event>
 5   0  0.3118614E-05  0.2364723E+04  0.7818609E-02  0.8452830E-01
        1   -1    0    0  501    0  0.00000000000E+00  0.00000000000E+00  0.11191148930E+04  0.11191148931E+04  0.50400001928E-02 0. -1.
       -1   -1    0    0    0  501  0.00000000000E+00  0.00000000000E+00 -0.12491829187E+04  0.12491829187E+04  0.50400001928E-02 0.  1.
    10030    2    1    2    0    0  0.00000000000E+00  0.00000000000E+00 -0.13006802563E+03  0.23682978117E+04  0.23647234159E+04 0.  0.
        3    1    3    3  502    0 -0.51897502876E+03 -0.64867392305E+03  0.77758560837E+03  0.11378718414E+04  0.10100000352E+00 0. -1.
       -3    1    3    3    0  502  0.51897502876E+03  0.64867392305E+03 -0.90765363401E+03  0.12304259703E+04  0.10100000352E+00 0.  1.
</event>
<event>
 5   0  0.6495405E-05  0.2264281E+04  0.7818609E-02  0.8492139E-01
        2   -1    0    0  501    0  0.00000000000E+00  0.00000000000E+00  0.18935980374E+04  0.18935980374E+04  0.25500000920E-02 0. -1.
       -2   -1    0    0    0  501  0.00000000000E+00  0.00000000000E+00 -0.67688200192E+03  0.67688200193E+03  0.25500000920E-02 0.  1.
    10030    2    1    2    0    0  0.00000000000E+00  0.00000000000E+00  0.12167160354E+04  0.25704800393E+04  0.22642812814E+04 0.  0.
        5    1    3    3  502    0  0.68408619968E+03  0.56926024792E+03 -0.18605090663E+03  0.90921294992E+03  0.46999998093E+01 0.  1.
       -5    1    3    3    0  502 -0.68408619968E+03 -0.56926024792E+03  0.14027669421E+04  0.16612670894E+04  0.46999998093E+01 0. -1.
</event>
<event>
 5   0  0.3118614E-05  0.2281835E+04  0.7818609E-02  0.8485118E-01
        1   -1    0    0  501    0  0.00000000000E+00  0.00000000000E+00  0.94719149938E+03  0.94719149939E+03  0.50400001928E-02 0.  1.
       -1   -1    0    0    0  501  0.00000000000E+00  0.00000000000E+00 -0.13742655227E+04  0.13742655227E+04  0.50400001928E-02 0. -1.
    10030    2    1    2    0    0  0.00000000000E+00  0.00000000000E+00 -0.42707402330E+03  0.23214570221E+04  0.22818348941E+04 0.  0.
        3    1    3    3  502    0 -0.33305644362E+03 -0.53540678620E+03  0.75381827133E+03  0.98276600355E+03  0.10100000352E+00 0.  1.
       -3    1    3    3    0  502  0.33305644362E+03  0.53540678620E+03 -0.11808922946E+04  0.13386910185E+04  0.10100000352E+00 0. -1.
</event>
<event>
 5   0  0.3118614E-05  0.2322741E+04  0.7818609E-02  0.8469008E-01
        1   -1    0    0  501    0  0.00000000000E+00  0.00000000000E+00  0.17729666301E+04  0.17729666301E+04  0.50400001928E-02 0.  1.
       -1   -1    0    0    0  501  0.00000000000E+00  0.00000000000E+00 -0.76074820988E+03  0.76074820989E+03  0.50400001928E-02 0. -1.
    10030    2    1    2    0    0  0.00000000000E+00  0.00000000000E+00  0.10122184202E+04  0.25337148400E+04  0.23227407863E+04 0.  0.
        3    1    3    3  502    0 -0.76943837063E+03 -0.17696253750E+03 -0.42297430662E+03  0.89568879648E+03  0.10100000352E+00 0. -1.
       -3    1    3    3    0  502  0.76943837063E+03  0.17696253750E+03  0.14351927268E+04  0.16380260435E+04  0.10100000352E+00 0.  1.
</event>
<event>
 5   0  0.6702421E-05  0.1813663E+04  0.7818609E-02  0.8699067E-01
       -2   -1    0    0    0  501  0.00000000000E+00  0.00000000000E+00  0.73968094946E+03  0.73968094947E+03  0.25500000920E-02 0.  1.
        2   -1    0    0  501    0  0.00000000000E+00  0.00000000000E+00 -0.11117538836E+04  0.11117538836E+04  0.25500000920E-02 0. -1.
    10030    2    1    2    0    0  0.00000000000E+00  0.00000000000E+00 -0.37207293411E+03  0.18514348330E+04  0.18136627781E+04 0.  0.
        4    1    3    3  502    0 -0.71787712279E+03  0.11502928421E+03  0.36724979558E+03  0.81452644211E+03  0.12699999809E+01 0.  1.
       -4    1    3    3    0  502  0.71787712279E+03 -0.11502928421E+03 -0.73932272970E+03  0.10369083909E+04  0.12699999809E+01 0. -1.
</event>
<event>
 5   0  0.6676612E-05  0.2282009E+04  0.7818609E-02  0.8485049E-01
       -2   -1    0    0    0  501  0.00000000000E+00  0.00000000000E+00  0.49319536223E+03  0.49319536224E+03  0.25500000920E-02 0.  1.
        2   -1    0    0  501    0  0.00000000000E+00  0.00000000000E+00 -0.26397070042E+04  0.26397070042E+04  0.25500000920E-02 0. -1.
    10030    2    1    2    0    0  0.00000000000E+00  0.00000000000E+00 -0.21465116420E+04  0.31329023665E+04  0.22820089852E+04 0.  0.
        2    1    3    3  502    0  0.75580543670E+03  0.57360533134E+02 -0.22441131207E+04  0.23686654022E+04  0.25500000920E-02 0. -1.
       -2    1    3    3    0  502 -0.75580543670E+03 -0.57360533134E+02  0.97601478730E+02  0.76423696427E+03  0.25500000920E-02 0.  1.
</event>
<event>
 5   0  0.3006265E-05  0.2266126E+04  0.7818609E-02  0.8491398E-01
        1   -1    0    0  501    0  0.00000000000E+00  0.00000000000E+00  0.13423484141E+04  0.13423484141E+04  0.50400001928E-02 0. -1.
       -1   -1    0    0    0  501  0.00000000000E+00  0.00000000000E+00 -0.95640701840E+03  0.95640701842E+03  0.50400001928E-02 0.  1.
    10030    2    1    2    0    0  0.00000000000E+00  0.00000000000E+00  0.38594139567E+03  0.22987554325E+04  0.22661257197E+04 0.  0.
        2    1    3    3  502    0 -0.68083307018E+03  0.82506670746E+03  0.57193077049E+03  0.12130018745E+04  0.25500000920E-02 0. -1.
       -2    1    3    3    0  502  0.68083307018E+03 -0.82506670746E+03 -0.18598937483E+03  0.10857535580E+04  0.25500000920E-02 0.  1.
</event>
<event>
 5   0  0.6676612E-05  0.2298518E+04  0.7818609E-02  0.8478506E-01
       -2   -1    0    0    0  501  0.00000000000E+00  0.00000000000E+00  0.50584227787E+03  0.50584227788E+03  0.25500000920E-02 0. -1.
        2   -1    0    0  501    0  0.00000000000E+00  0.00000000000E+00 -0.26110835559E+04  0.26110835559E+04  0.25500000920E-02 0.  1.
    10030    2    1    2    0    0  0.00000000000E+00  0.00000000000E+00 -0.21052412780E+04  0.31169258338E+04  0.22985181780E+04 0.  0.
        2    1    3    3  502    0 -0.16746555419E+02  0.83709913304E+03  0.14952582833E+02  0.83740013458E+03  0.25500000920E-02 0. -1.
       -2    1    3    3    0  502  0.16746555419E+02 -0.83709913304E+03 -0.21201938609E+04  0.22795256992E+04  0.25500000920E-02 0.  1.
</event>
<event>
 5   0  0.3006265E-05  0.2292316E+04  0.7818609E-02  0.8480957E-01
        1   -1    0    0  501    0  0.00000000000E+00  0.00000000000E+00  0.10851769550E+04  0.10851769550E+04  0.50400001928E-02 0. -1.
       -1   -1    0    0    0  501  0.00000000000E+00  0.00000000000E+00 -0.12105660583E+04  0.12105660583E+04  0.50400001928E-02 0.  1.
    10030    2    1    2    0    0  0.00000000000E+00  0.00000000000E+00 -0.12538910333E+03  0.22957430133E+04  0.22923161989E+04 0.  0.
        2    1    3    3  502    0 -0.95913804660E+03  0.30799953490E+03  0.48481171967E+03  0.11179677587E+04  0.25500000920E-02 0. -1.
       -2    1    3    3    0  502  0.95913804660E+03 -0.30799953490E+03 -0.61020082301E+03  0.11777752546E+04  0.25500000920E-02 0.  1.
</event>
<event>
 5   0  0.2342500E-05  0.2327868E+04  0.7818609E-02  0.8467014E-01
       -3   -1    0    0    0  501  0.00000000000E+00  0.00000000000E+00  0.92398153952E+03  0.92398154504E+03  0.10100000352E+00 0. -1.
        3   -1    0    0  501    0  0.00000000000E+00  0.00000000000E+00 -0.14662002928E+04  0.14662002963E+04  0.10100000352E+00 0.  1.
    10030    2    1    2    0    0  0.00000000000E+00  0.00000000000E+00 -0.54221875330E+03  0.23901818413E+04  0.23278677063E+04 0.  0.
        3    1    3    3  502    0  0.13663351735E+03  0.40637798497E+02 -0.14572036807E+04  0.14641593922E+04  0.10100000352E+00 0.  1.
       -3    1    3    3    0  502 -0.13663351735E+03 -0.40637798497E+02  0.91498492737E+03  0.92602244910E+03  0.10100000352E+00 0. -1.
</event>
<event>
 5   0  0.2962279E-05  0.2342667E+04  0.7818609E-02  0.8461286E-01
       -1   -1    0    0    0  501  0.00000000000E+00  0.00000000000E+00  0.10269969689E+04  0.10269969689E+04  0.50400001928E-02 0. -1.
        1   -1    0    0  501    0  0.00000000000E+00  0.00000000000E+00 -0.13359555813E+04  0.13359555813E+04  0.50400001928E-02 0.  1.
    10030    2    1    2    0    0  0.00000000000E+00  0.00000000000E+00 -0.30895861239E+03  0.23629525503E+04  0.23426671404E+04 0.  0.
        1    1    3    3  502    0 -0.46096319682E+03  0.10725987036E+04 -0.25052613769E+03  0.11940345027E+04  0.50400001928E-02 0.  1.
       -1    1    3    3    0  502  0.46096319682E+03 -0.10725987036E+04 -0.58432474702E+02  0.11689180476E+04  0.50400001928E-02 0. -1.
</event>
<event>
 5   0  0.6676612E-05  0.2150559E+04  0.7818609E-02  0.8539293E-01
       -2   -1    0    0    0  501  0.00000000000E+00  0.00000000000E+00  0.54456410880E+03  0.54456410881E+03  0.25500000920E-02 0.  1.
        2   -1    0    0  501    0  0.00000000000E+00  0.00000000000E+00 -0.21232144900E+04  0.21232144900E+04  0.25500000920E-02 0. -1.
    10030    2    1    2    0    0  0.00000000000E+00  0.00000000000E+00 -0.15786503812E+04  0.26677785988E+04  0.21505593752E+04 0.  0.
        2    1    3    3  502    0 -0.84704394420E+03  0.63493132328E+03 -0.55525024746E+03  0.11953761191E+04  0.25500000920E-02 0. -1.
       -2    1    3    3    0  502  0.84704394420E+03 -0.63493132328E+03 -0.10234001337E+04  0.14724024798E+04  0.25500000920E-02 0.  1.
</event>
<event>
 5   0  0.6702421E-05  0.2369706E+04  0.7818609E-02  0.8450933E-01
        2   -1    0    0  501    0  0.00000000000E+00  0.00000000000E+00  0.24575133583E+04  0.24575133583E+04  0.25500000920E-02 0.  1.
       -2   -1    0    0    0  501  0.00000000000E+00  0.00000000000E+00 -0.57125906909E+03  0.57125906910E+03  0.25500000920E-02 0. -1.
    10030    2    1    2    0    0  0.00000000000E+00  0.00000000000E+00  0.18862542892E+04  0.30287724274E+04  0.23697061365E+04 0.  0.
        4    1    3    3  502    0  0.10697087511E+04 -0.16522956862E+03  0.15591466617E+04  0.18980299123E+04  0.12699999809E+01 0.  1.
       -4    1    3    3    0  502 -0.10697087511E+04  0.16522956862E+03  0.32710762751E+03  0.11307425151E+04  0.12699999809E+01 0. -1.
</event>
<event>
 5   0  0.6814789E-05  0.2353399E+04  0.7818609E-02  0.8457159E-01
       -2   -1    0    0    0  501  0.00000000000E+00  0.00000000000E+00  0.11147322472E+04  0.11147322472E+04  0.25500000920E-02 0. -1.
        2   -1    0    0  501    0  0.00000000000E+00  0.00000000000E+00 -0.12421113259E+04  0.12421113259E+04  0.25500000920E-02 0.  1.
    10030    2    1    2    0    0  0.00000000000E+00  0.00000000000E+00 -0.12737907871E+03  0.23568435731E+04  0.23533988608E+04 0.  0.
        1    1    3    3  502    0 -0.26089944962E+02  0.23215933777E+03 -0.12186524700E+04  0.12408434575E+04  0.50400001928E-02 0.  1.
       -1    1    3    3    0  502  0.26089944962E+02 -0.23215933777E+03  0.10912733913E+04  0.11160001156E+04  0.50400001928E-02 0. -1.
</event>
<event>
 5   0  0.6814789E-05  0.2181566E+04  0.7818609E-02  0.8526140E-01
       -2   -1    0    0    0  501  0.00000000000E+00  0.00000000000E+00  0.79608618514E+03  0.79608618514E+03  0.25500000920E-02 0. -1.
        2   -1    0    0  501    0  0.00000000000E+00  0.00000000000E+00 -0.14945711561E+04  0.14945711561E+04  0.25500000920E-02 0.  1.
    10030    2    1    2    0    0  0.00000000000E+00  0.00000000000E+00 -0.69848497094E+03  0.22906573412E+04  0.21815659056E+04 0.  0.
        1    1    3    3  502    0 -0.26979798809E+03 -0.56377934922E+03 -0.12879087240E+04  0.14315540473E+04  0.50400001928E-02 0.  1.
       -1    1    3    3    0  502  0.26979798809E+03  0.56377934922E+03  0.58942375304E+03  0.85910329394E+03  0.50400001928E-02 0. -1.
</event>
<event>
 5   0  0.3006265E-05  0.2309340E+04  0.7818609E-02  0.8474247E-01
        1   -1    0    0  501    0  0.00000000000E+00  0.00000000000E+00  0.13760681972E+04  0.13760681972E+04  0.50400001928E-02 0. -1.
       -1   -1    0    0    0  501  0.00000000000E+00  0.00000000000E+00 -0.96889335378E+03  0.96889335379E+03  0.50400001928E-02 0.  1.
    10030    2    1    2    0    0  0.00000000000E+00  0.00000000000E+00  0.40717484345E+03  0.23449615510E+04  0.23093404519E+04 0.  0.
        2    1    3    3  502    0 -0.94471424822E+03  0.62062990210E+03  0.44301426233E+03  0.12140544151E+04  0.25500000920E-02 0. -1.
       -2    1    3    3    0  502  0.94471424822E+03 -0.62062990210E+03 -0.35839418878E+02  0.11309071359E+04  0.25500000920E-02 0.  1.
</event>
<event>
 5   0  0.6495405E-05  0.2297592E+04  0.7818609E-02  0.8478871E-01
       -2   -1    0    0    0  501  0.00000000000E+00  0.00000000000E+00  0.98635805779E+03  0.98635805779E+03  0.25500000920E-02 0.  1.
        2   -1    0    0  501    0  0.00000000000E+00  0.00000000000E+00 -0.13379853601E+04  0.13379853601E+04  0.25500000920E-02 0. -1.
    10030    2    1    2    0    0  0.00000000000E+00  0.00000000000E+00 -0.35162730235E+03  0.23243434179E+04  0.22975923409E+04 0.  0.
        5    1    3    3  502    0  0.31193007518E+03 -0.71164996333E+03  0.68018497409E+03  0.10326760049E+04  0.46999998093E+01 0.  1.
       -5    1    3    3    0  502 -0.31193007518E+03  0.71164996333E+03 -0.10318122764E+04  0.12916674130E+04  0.46999998093E+01 0. -1.
</event>
<event>
 5   0  0.6814789E-05  0.2293953E+04  0.7818609E-02  0.8480309E-01
       -2   -1    0    0    0  501  0.00000000000E+00  0.00000000000E+00  0.15891378350E+04  0.15891378350E+04  0.25500000920E-02 0.  1.
        2   -1    0    0  501    0  0.00000000000E+00  0.00000000000E+00 -0.82784185238E+03  0.82784185239E+03  0.25500000920E-02 0. -1.
    10030    2    1    2    0    0  0.00000000000E+00  0.00000000000E+00  0.76129598263E+03  0.24169796874E+04  0.22939527537E+04 0.  0.
        1    1    3    3  502    0 -0.11905057708E+03  0.10734085080E+04  0.78759506438E+03  0.13366693123E+04  0.50400001928E-02 0.  1.
       -1    1    3    3    0  502  0.11905057708E+03 -0.10734085080E+04 -0.26299081749E+02  0.10803103751E+04  0.50400001928E-02 0. -1.
</event>
<event>
 5   0  0.6495405E-05  0.2307614E+04  0.7818609E-02  0.8474925E-01
        2   -1    0    0  501    0  0.00000000000E+00  0.00000000000E+00  0.15911087624E+04  0.15911087624E+04  0.25500000920E-02 0.  1.
       -2   -1    0    0    0  501  0.00000000000E+00  0.00000000000E+00 -0.83669368697E+03  0.83669368698E+03  0.25500000920E-02 0. -1.
    10030    2    1    2    0    0  0.00000000000E+00  0.00000000000E+00  0.75441507539E+03  0.24278024493E+04  0.23076140550E+04 0.  0.
        5    1    3    3  502    0  0.85642638796E+03  0.59068255436E+03 -0.14765084776E+03  0.10508067857E+04  0.46999998093E+01 0.  1.
       -5    1    3    3    0  502 -0.85642638796E+03 -0.59068255436E+03  0.90206592315E+03  0.13769956637E+04  0.46999998093E+01 0. -1.
</event>
<event>
 5   0  0.6702421E-05  0.2335650E+04  0.7818609E-02  0.8463996E-01
       -2   -1    0    0    0  501  0.00000000000E+00  0.00000000000E+00  0.15190194535E+04  0.15190194535E+04  0.25500000920E-02 0. -1.
        2   -1    0    0  501    0  0.00000000000E+00  0.00000000000E+00 -0.89782588383E+03  0.89782588384E+03  0.25500000920E-02 0.  1.
    10030    2    1    2    0    0  0.00000000000E+00  0.00000000000E+00  0.62119356969E+03  0.24168453374E+04  0.23356497883E+04 0.  0.
        4    1    3    3  502    0  0.13241342591E+03  0.11490864112E+03  0.15053235669E+04  0.15154992462E+04  0.12699999809E+01 0. -1.
       -4    1    3    3    0  502 -0.13241342591E+03 -0.11490864112E+03 -0.88412999723E+03  0.90134609117E+03  0.12699999809E+01 0.  1.
</event>
<event>
 5   0  0.2962279E-05  0.2290978E+04  0.7818609E-02  0.8481487E-01
        1   -1    0    0  501    0  0.00000000000E+00  0.00000000000E+00  0.10670328868E+04  0.10670328868E+04  0.50400001928E-02 0.  1.
       -1   -1    0    0    0  501  0.00000000000E+00  0.00000000000E+00 -0.12297138380E+04  0.12297138380E+04  0.50400001928E-02 0. -1.
    10030    2    1    2    0    0  0.00000000000E+00  0.00000000000E+00 -0.16268095120E+03  0.22967467248E+04  0.22909780501E+04 0.  0.
        1    1    3    3  502    0 -0.10895459665E+04 -0.22431014028E+03 -0.35537772808E+03  0.11677837050E+04  0.50400001928E-02 0. -1.
       -1    1    3    3    0  502  0.10895459665E+04  0.22431014028E+03  0.19269677688E+03  0.11289630198E+04  0.50400001928E-02 0.  1.
</event>
<event>
 5   0  0.6468758E-05  0.2298455E+04  0.7818609E-02  0.8478531E-01
        2   -1    0    0  501    0  0.00000000000E+00  0.00000000000E+00  0.12834800959E+04  0.12834800959E+04  0.25500000920E-02 0. -1.
       -2   -1    0    0    0  501  0.00000000000E+00  0.00000000000E+00 -0.10290175737E+04  0.10290175737E+04  0.25500000920E-02 0.  1.
    10030    2    1    2    0    0  0.00000000000E+00  0.00000000000E+00  0.25446252218E+03  0.23124976696E+04  0.22984547628E+04 0.  0.
        3    1    3    3  502    0  0.29076644279E+03  0.86618544356E+03 -0.57409376512E+03  0.10790764608E+04  0.10100000352E+00 0.  1.
       -3    1    3    3    0  502 -0.29076644279E+03 -0.86618544356E+03  0.82855628730E+03  0.12334212088E+04  0.10100000352E+00 0. -1.
</event>
<event>
 5   0  0.6814789E-05  0.2231674E+04  0.7818609E-02  0.8505359E-01
        2   -1    0    0  501    0  0.00000000000E+00  0.00000000000E+00  0.81177771536E+03  0.81177771536E+03  0.25500000920E-02 0.  1.
       -2   -1    0    0    0  501  0.00000000000E+00  0.00000000000E+00 -0.15337846618E+04  0.15337846618E+04  0.25500000920E-02 0. -1.
    10030    2    1    2    0    0  0.00000000000E+00  0.00000000000E+00 -0.72200694649E+03  0.23455623772E+04  0.22316739983E+04 0.  0.
        1    1    3    3  502    0 -0.99729200277E+03 -0.32801084016E+03  0.36322701688E+02  0.10504769339E+04  0.50400001928E-02 0.  1.
       -1    1    3    3    0  502  0.99729200277E+03  0.32801084016E+03 -0.75832964818E+03  0.12950854433E+04  0.50400001928E-02 0. -1.
</event>
<event>
 5   0  0.2982385E-05  0.2266290E+04  0.7818609E-02  0.8491332E-01
        1   -1    0    0  501    0  0.00000000000E+00  0.00000000000E+00  0.13886018142E+04  0.13886018142E+04  0.50400001928E-02 0.  1.
       -1   -1    0    0    0  501  0.00000000000E+00  0.00000000000E+00 -0.92468358951E+03  0.92468358952E+03  0.50400001928E-02 0. -1.
    10030    2    1    2    0    0  0.00000000000E+00  0.00000000000E+00  0.46391822471E+03  0.23132854038E+04  0.22662897520E+04 0.  0.
        4    1    3    3  502    0  0.88977207459E+03  0.35012271940E+03 -0.38870883679E+03  0.10321707398E+04  0.12699999809E+01 0. -1.
       -4    1    3    3    0  502 -0.88977207459E+03 -0.35012271940E+03  0.85262706150E+03  0.12811146640E+04  0.12699999809E+01 0.  1.
</event>
<event>
 5   0  0.6468758E-05  0.2281536E+04  0.7818609E-02  0.8485237E-01
       -2   -1    0    0    0  501  0.00000000000E+00  0.00000000000E+00  0.10099520520E+04  0.10099520520E+04  0.25500000920E-02 0. -1.
        2   -1    0    0  501    0  0.00000000000E+00  0.00000000000E+00 -0.12885282123E+04  0.12885282123E+04  0.25500000920E-02 0.  1.
    10030    2    1    2    0    0  0.00000000000E+00  0.00000000000E+00 -0.27857616025E+03  0.22984802644E+04  0.22815360722E+04 0.  0.
        3    1    3    3  502    0 -0.50614466053E+03 -0.66291738346E+03  0.64476551306E+03  0.10542127165E+04  0.10100000352E+00 0. -1.
       -3    1    3    3    0  502  0.50614466053E+03  0.66291738346E+03 -0.92334167331E+03  0.12442675478E+04  0.10100000352E+00 0.  1.
</event>
<event>
 5   0  0.6814789E-05  0.2264056E+04  0.7818609E-02  0.8492230E-01
        2   -1    0    0  501    0  0.00000000000E+00  0.00000000000E+00  0.12108416712E+04  0.12108416712E+04  0.25500000920E-02 0. -1.
       -2   -1    0    0    0  501  0.00000000000E+00  0.00000000000E+00 -0.10583439647E+04  0.10583439647E+04  0.25500000920E-02 0.  1.
    10030    2    1    2    0    0  0.00000000000E+00  0.00000000000E+00  0.15249770649E+03  0.22691856360E+04  0.22640556309E+04 0.  0.
        1    1    3    3  502    0 -0.72249883550E+03  0.83641380395E+03 -0.16903890980E+03  0.11181085689E+04  0.50400001928E-02 0.  1.
       -1    1    3    3    0  502  0.72249883550E+03 -0.83641380395E+03  0.32153661629E+03  0.11510770671E+04  0.50400001928E-02 0. -1.
</event>
<event>
 5   0  0.3006265E-05  0.2209680E+04  0.7818609E-02  0.8514410E-01
       -1   -1    0    0    0  501  0.00000000000E+00  0.00000000000E+00  0.59313615271E+03  0.59313615273E+03  0.50400001928E-02 0. -1.
        1   -1    0    0  501    0  0.00000000000E+00  0.00000000000E+00 -0.20579954064E+04  0.20579954064E+04  0.50400001928E-02 0.  1.
    10030    2    1    2    0    0  0.00000000000E+00  0.00000000000E+00 -0.14648592537E+04  0.26511315591E+04  0.22096800471E+04 0.  0.
        2    1    3    3  502    0 -0.10704512132E+04 -0.12044414680E+03 -0.10270457616E+04  0.14883533145E+04  0.25500000920E-02 0. -1.
       -2    1    3    3    0  502  0.10704512132E+04  0.12044414680E+03 -0.43781349207E+03  0.11627782446E+04  0.25500000920E-02 0.  1.
</event>
<event>
 5   0  0.6495405E-05  0.2220622E+04  0.7818609E-02  0.8509894E-01
       -2   -1    0    0    0  501  0.00000000000E+00  0.00000000000E+00  0.87604910732E+03  0.87604910732E+03  0.25500000920E-02 0. -1.
        2   -1    0    0  501    0  0.00000000000E+00  0.00000000000E+00 -0.14072161747E+04  0.14072161747E+04  0.25500000920E-02 0.  1.
    10030    2    1    2    0    0  0.00000000000E+00  0.00000000000E+00 -0.53116706743E+03  0.22832652821E+04  0.22206219612E+04 0.  0.
        5    1    3    3  502    0  0.27345576807E+03  0.10585966138E+04 -0.46433288840E+03  0.11878686666E+04  0.46999998093E+01 0.  1.
       -5    1    3    3    0  502 -0.27345576807E+03 -0.10585966138E+04 -0.66834179033E+02  0.10953966155E+04  0.46999998093E+01 0. -1.
</event>
<event>
 5   0  0.2962279E-05  0.2176469E+04  0.7818609E-02  0.8528287E-01
       -1   -1    0    0    0  501  0.00000000000E+00  0.00000000000E+00  0.10819824804E+04  0.10819824804E+04  0.50400001928E-02 0.  1.
        1   -1    0    0  501    0  0.00000000000E+00  0.00000000000E+00 -0.10945225464E+04  0.10945225465E+04  0.50400001928E-02 0. -1.
    10030    2    1    2    0    0  0.00000000000E+00  0.00000000000E+00 -0.12540066038E+02  0.21765050269E+04  0.21764689014E+04 0.  0.
        1    1    3    3  502    0  0.37369279089E+03 -0.68043923366E+02  0.10135399817E+04  0.10823768160E+04  0.50400001928E-02 0.  1.
       -1    1    3    3    0  502 -0.37369279089E+03  0.68043923366E+02 -0.10260800477E+04  0.10941282108E+04  0.50400001928E-02 0. -1.
</event>
<event>
 5   0  0.6814789E-05  0.2220600E+04  0.7818609E-02  0.8509902E-01
        2   -1    0    0  501    0  0.00000000000E+00  0.00000000000E+00  0.17007956979E+04  0.17007956979E+04  0.25500000920E-02 0. -1.
       -2   -1    0    0    0  501  0.00000000000E+00  0.00000000000E+00 -0.72481752799E+03  0.72481752799E+03  0.25500000920E-02 0.  1.
    10030    2    1    2    0    0  0.00000000000E+00  0.00000000000E+00  0.97597816987E+03  0.24256132258E+04  0.22206003993E+04 0.  0.
        1    1    3    3  502    0 -0.77334435313E+03  0.56847740617E+03 -0.12169799120E+03  0.96749080147E+03  0.50400001928E-02 0.  1.
       -1    1    3    3    0  502  0.77334435313E+03 -0.56847740617E+03  0.10976761611E+04  0.14581224244E+04  0.50400001928E-02 0. -1.
</event>
<event>
 5   0  0.6676612E-05  0.2328790E+04  0.7818609E-02  0.8466655E-01
       -2   -1    0    0    0  501  0.00000000000E+00  0.00000000000E+00  0.80113668472E+03  0.80113668473E+03  0.25500000920E-02 0. -1.
        2   -1    0    0  501    0  0.00000000000E+00  0.00000000000E+00 -0.16923653643E+04  0.16923653643E+04  0.25500000920E-02 0.  1.
    10030    2    1    2    0    0  0.00000000000E+00  0.00000000000E+00 -0.89122867961E+03  0.24935020491E+04  0.23287902244E+04 0.  0.
        2    1    3    3  502    0 -0.25656345352E+03 -0.10844107538E+04 -0.84024256538E+02  0.11175113263E+04  0.25500000920E-02 0. -1.
       -2    1    3    3    0  502  0.25656345352E+03  0.10844107538E+04 -0.80720442308E+03  0.13759907228E+04  0.25500000920E-02 0.  1.
</event>
<event>
 5   0  0.2944089E-05  0.2429809E+04  0.7818609E-02  0.8428427E-01
       -1   -1    0    0    0  501  0.00000000000E+00  0.00000000000E+00  0.12796498933E+04  0.12796498933E+04  0.50400001928E-02 0.  1.
        1   -1    0    0  501    0  0.00000000000E+00  0.00000000000E+00 -0.11534346839E+04  0.11534346839E+04  0.50400001928E-02 0. -1.
    10030    2    1    2    0    0  0.00000000000E+00  0.00000000000E+00  0.12621520939E+03  0.24330845771E+04  0.24298086921E+04 0.  0.
        5    1    3    3  502    0  0.10176138293E+03  0.74974013078E+03  0.10149178288E+04  0.12659170320E+04  0.46999998093E+01 0.  1.
       -5    1    3    3    0  502 -0.10176138293E+03 -0.74974013078E+03 -0.88870261937E+03  0.11671675451E+04  0.46999998093E+01 0. -1.
</event>
<event>
 5   0  0.3118614E-05  0.2306385E+04  0.7818609E-02  0.8475408E-01
        1   -1    0    0  501    0  0.00000000000E+00  0.00000000000E+00  0.10412495413E+04  0.10412495413E+04  0.50400001928E-02 0.  1.
       -1   -1    0    0    0  501  0.00000000000E+00  0.00000000000E+00 -0.12771700474E+04  0.12771700474E+04  0.50400001928E-02 0. -1.
    10030    2    1    2    0    0  0.00000000000E+00  0.00000000000E+00 -0.23592050605E+03  0.23184195887E+04  0.23063848127E+04 0.  0.
        3    1    3    3  502    0 -0.73114724512E+03  0.88691647776E+03 -0.21148110111E+03  0.11687264004E+04  0.10100000352E+00 0. -1.
       -3    1    3    3    0  502  0.73114724512E+03 -0.88691647776E+03 -0.24439404943E+02  0.11496931883E+04  0.10100000352E+00 0.  1.
</event>
<event>
 5   0  0.6468758E-05  0.2297024E+04  0.7818609E-02  0.8479095E-01
        2   -1    0    0  501    0  0.00000000000E+00  0.00000000000E+00  0.83392221201E+03  0.83392221201E+03  0.25500000920E-02 0.  1.
       -2   -1    0    0    0  501  0.00000000000E+00  0.00000000000E+00 -0.15817783350E+04  0.15817783350E+04  0.25500000920E-02 0. -1.
    10030    2    1    2    0    0  0.00000000000E+00  0.00000000000E+00 -0.74785612302E+03  0.24157005470E+04  0.22970242385E+04 0.  0.
        3    1    3    3  502    0 -0.54809489994E+03  0.18666246375E+03 -0.14170555020E+04  0.15307831985E+04  0.10100000352E+00 0. -1.
       -3    1    3    3    0  502  0.54809489994E+03 -0.18666246375E+03  0.66919937901E+03  0.88491734856E+03  0.10100000352E+00 0.  1.
</event>
<event>
 5   0  0.6495405E-05  0.2279268E+04  0.7818609E-02  0.8486141E-01
        2   -1    0    0  501    0  0.00000000000E+00  0.00000000000E+00  0.79859440921E+03  0.79859440922E+03  0.25500000920E-02 0. -1.
       -2   -1    0    0    0  501  0.00000000000E+00  0.00000000000E+00 -0.16263147031E+04  0.16263147031E+04  0.25500000920E-02 0.  1.
    10030    2    1    2    0    0  0.00000000000E+00  0.00000000000E+00 -0.82772029388E+03  0.24249091123E+04  0.22792681540E+04 0.  0.
        5    1    3    3  502    0  0.29288199741E+03  0.68820802482E+03  0.50092743764E+03  0.90020027639E+03  0.46999998093E+01 0. -1.
       -5    1    3    3    0  502 -0.29288199741E+03 -0.68820802482E+03 -0.13286477315E+04  0.15247088359E+04  0.46999998093E+01 0.  1.
</event>
<event>
 5   0  0.2944089E-05  0.2303295E+04  0.7818609E-02  0.8476623E-01
       -1   -1    0    0    0  501  0.00000000000E+00  0.00000000000E+00  0.12446809134E+04  0.12446809134E+04  0.50400001928E-02 0. -1.
        1   -1    0    0  501    0  0.00000000000E+00  0.00000000000E+00 -0.10655678304E+04  0.10655678304E+04  0.50400001928E-02 0.  1.
    10030    2    1    2    0    0  0.00000000000E+00  0.00000000000E+00  0.17911308295E+03  0.23102487438E+04  0.23032949794E+04 0.  0.
        5    1    3    3  502    0  0.85579236696E+03  0.31386223569E+03  0.79551365118E+03  0.12098570732E+04  0.46999998093E+01 0. -1.
       -5    1    3    3    0  502 -0.85579236696E+03 -0.31386223569E+03 -0.61640056822E+03  0.11003916707E+04  0.46999998093E+01 0.  1.
</event>
<event>
 5   0  0.6814789E-05  0.2314334E+04  0.7818609E-02  0.8472291E-01
        2   -1    0    0  501    0  0.00000000000E+00  0.00000000000E+00  0.13681424058E+04  0.13681424058E+04  0.25500000920E-02 0.  1.
       -2   -1    0    0    0  501  0.00000000000E+00  0.00000000000E+00 -0.97872553766E+03  0.97872553766E+03  0.25500000920E-02 0. -1.
    10030    2    1    2    0    0  0.00000000000E+00  0.00000000000E+00  0.38941686813E+03  0.23468679435E+04  0.23143343853E+04 0.  0.
        1    1    3    3  502    0 -0.24577153405E+03  0.79196979168E+03  0.10131577566E+04  0.13092396411E+04  0.50400001928E-02 0.  1.
       -1    1    3    3    0  502  0.24577153405E+03 -0.79196979168E+03 -0.62374088851E+03  0.10376283024E+04  0.50400001928E-02 0. -1.
</event>
<event>
 5   0  0.2962279E-05  0.2281981E+04  0.7818609E-02  0.8485060E-01
       -1   -1    0    0    0  501  0.00000000000E+00  0.00000000000E+00  0.13898671388E+04  0.13898671388E+04  0.50400001928E-02 0.  1.
        1   -1    0    0  501    0  0.00000000000E+00  0.00000000000E+00 -0.93667907625E+03  0.93667907627E+03  0.50400001928E-02 0. -1.
    10030    2    1    2    0    0  0.00000000000E+00  0.00000000000E+00  0.45318806251E+03  0.23265462150E+04  0.22819811285E+04 0.  0.
        1    1    3    3  502    0  0.18576185175E+03 -0.10641453419E+04  0.60111898509E+03  0.12362268434E+04  0.50400001928E-02 0.  1.
       -1    1    3    3    0  502 -0.18576185175E+03  0.10641453419E+04 -0.14793092259E+03  0.10903193716E+04  0.50400001928E-02 0. -1.
</event>
<event>
 5   0  0.6468758E-05  0.2280768E+04  0.7818609E-02  0.8485543E-01
        2   -1    0    0  501    0  0.00000000000E+00  0.00000000000E+00  0.95548111991E+03  0.95548111991E+03  0.25500000920E-02 0. -1.
       -2   -1    0    0    0  501  0.00000000000E+00  0.00000000000E+00 -0.13610689974E+04  0.13610689974E+04  0.25500000920E-02 0.  1.
    10030    2    1    2    0    0  0.00000000000E+00  0.00000000000E+00 -0.40558787754E+03  0.23165501174E+04  0.22807680548E+04 0.  0.
        3    1    3    3  502    0  0.11016908544E+04  0.26373733962E+03 -0.69604678663E+02  0.11349559218E+04  0.10100000352E+00 0.  1.
       -3    1    3    3    0  502 -0.11016908544E+04 -0.26373733962E+03 -0.33598319887E+03  0.11815941956E+04  0.10100000352E+00 0. -1.
</event>
<event>
 5   0  0.6702421E-05  0.2412095E+04  0.7818609E-02  0.8434989E-01
        2   -1    0    0  501    0  0.00000000000E+00  0.00000000000E+00  0.55126481368E+03  0.55126481369E+03  0.25500000920E-02 0. -1.
       -2   -1    0    0    0  501  0.00000000000E+00  0.00000000000E+00 -0.26385697617E+04  0.26385697617E+04  0.25500000920E-02 0.  1.
    10030    2    1    2    0    0  0.00000000000E+00  0.00000000000E+00 -0.20873049480E+04  0.31898345754E+04  0.24120950795E+04 0.  0.
        4    1    3    3  502    0 -0.57331651186E+03 -0.97370982883E+02 -0.24409182066E+04  0.25092341930E+04  0.12699999809E+01 0.  1.
       -4    1    3    3    0  502  0.57331651186E+03  0.97370982883E+02  0.35361325853E+03  0.68060038244E+03  0.12699999809E+01 0. -1.
</event>
<event>
 5   0  0.6676612E-05  0.2238841E+04  0.7818609E-02  0.8502434E-01
        2   -1    0    0  501    0  0.00000000000E+00  0.00000000000E+00  0.17838821352E+04  0.17838821353E+04  0.25500000920E-02 0.  1.
       -2   -1    0    0    0  501  0.00000000000E+00  0.00000000000E+00 -0.70245767642E+03  0.70245767643E+03  0.25500000920E-02 0. -1.
    10030    2    1    2    0    0  0.00000000000E+00  0.00000000000E+00  0.10814244588E+04  0.24863398117E+04  0.22388405032E+04 0.  0.
        2    1    3    3  502    0 -0.11889452832E+03  0.14345572123E+03 -0.68511657698E+03  0.71000012456E+03  0.25500000920E-02 0. -1.
       -2    1    3    3    0  502  0.11889452832E+03 -0.14345572123E+03  0.17665410358E+04  0.17763396871E+04  0.25500000920E-02 0.  1.
</event>
<event>
 5   0  0.6676612E-05  0.2225791E+04  0.7818609E-02  0.8507769E-01
       -2   -1    0    0    0  501  0.00000000000E+00  0.00000000000E+00  0.93203628523E+03  0.93203628524E+03  0.25500000920E-02 0. -1.
        2   -1    0    0  501    0  0.00000000000E+00  0.00000000000E+00 -0.13288504837E+04  0.13288504837E+04  0.25500000920E-02 0.  1.
    10030    2    1    2    0    0  0.00000000000E+00  0.00000000000E+00 -0.39681419846E+03  0.22608867689E+04  0.22257914264E+04 0.  0.
        2    1    3    3  502    0 -0.66278305085E+03 -0.39533950049E+02  0.70881186200E+03  0.97121499237E+03  0.25500000920E-02 0. -1.
       -2    1    3    3    0  502  0.66278305085E+03  0.39533950049E+02 -0.11056260605E+04  0.12896717766E+04  0.25500000920E-02 0.  1.
</event>
<event>
 5   0  0.6814789E-05  0.2332364E+04  0.7818609E-02  0.8465269E-01
       -2   -1    0    0    0  501  0.00000000000E+00  0.00000000000E+00  0.14604571226E+04  0.14604571226E+04  0.25500000920E-02 0. -1.
        2   -1    0    0  501    0  0.00000000000E+00  0.00000000000E+00 -0.93120177638E+03  0.93120177638E+03  0.25500000920E-02 0.  1.
    10030    2    1    2    0    0  0.00000000000E+00  0.00000000000E+00  0.52925534618E+03  0.23916588989E+04  0.23323638368E+04 0.  0.
        1    1    3    3  502    0 -0.20034295835E+03 -0.71290209212E+03  0.11884268942E+04  0.14002589677E+04  0.50400001928E-02 0. -1.
       -1    1    3    3    0  502  0.20034295835E+03  0.71290209212E+03 -0.65917154798E+03  0.99139993121E+03  0.50400001928E-02 0.  1.
</event>
<event>
 5   0  0.2944089E-05  0.2301482E+04  0.7818609E-02  0.8477337E-01
        1   -1    0    0  501    0  0.00000000000E+00  0.00000000000E+00  0.96745979677E+03  0.96745979678E+03  0.50400001928E-02 0. -1.
       -1   -1    0    0    0  501  0.00000000000E+00  0.00000000000E+00 -0.13687434863E+04  0.13687434863E+04  0.50400001928E-02 0.  1.
    10030    2    1    2    0    0  0.00000000000E+00  0.00000000000E+00 -0.40128368951E+03  0.23362032831E+04  0.23014815186E+04 0.  0.
        5    1    3    3  502    0 -0.73778973845E+03 -0.73094786429E+03 -0.70366183668E+03  0.12545041048E+04  0.46999998093E+01 0.  1.
       -5    1    3    3    0  502  0.73778973845E+03  0.73094786429E+03  0.30237814717E+03  0.10816991783E+04  0.46999998093E+01 0. -1.
</event>
<event>
 5   0  0.2962279E-05  0.2274137E+04  0.7818609E-02  0.8488189E-01
       -1   -1    0    0    0  501  0.00000000000E+00  0.00000000000E+00  0.62701909283E+03  0.62701909285E+03  0.50400001928E-02 0. -1.
        1   -1    0    0  501    0  0.00000000000E+00  0.00000000000E+00 -0.20620175360E+04  0.20620175360E+04  0.50400001928E-02 0.  1.
    10030    2    1    2    0    0  0.00000000000E+00  0.00000000000E+00 -0.14349984432E+04  0.26890366289E+04  0.22741366404E+04 0.  0.
        1    1    3    3  502    0  0.43055484221E+03 -0.65418474925E+03 -0.16922720141E+04  0.18647036569E+04  0.50400001928E-02 0.  1.
       -1    1    3    3    0  502 -0.43055484221E+03  0.65418474925E+03  0.25727357095E+03  0.82433297194E+03  0.50400001928E-02 0. -1.
</event>
<event>
 5   0  0.6814789E-05  0.2159744E+04  0.7818609E-02  0.8535373E-01
       -2   -1    0    0    0  501  0.00000000000E+00  0.00000000000E+00  0.12988706869E+04  0.12988706869E+04  0.25500000920E-02 0. -1.
        2   -1    0    0  501    0  0.00000000000E+00  0.00000000000E+00 -0.89779763458E+03  0.89779763458E+03  0.25500000920E-02 0.  1.
    10030    2    1    2    0    0  0.00000000000E+00  0.00000000000E+00  0.40107305231E+03  0.21966683215E+04  0.21597435314E+04 0.  0.
        1    1    3    3  502    0  0.83602419588E+03  0.68249977210E+03  0.23832869263E+03  0.11052343465E+04  0.50400001928E-02 0.  1.
       -1    1    3    3    0  502 -0.83602419588E+03 -0.68249977210E+03  0.16274435968E+03  0.10914339749E+04  0.50400001928E-02 0. -1.
</event>
<event>
 5   0  0.3006265E-05  0.2315727E+04  0.7818609E-02  0.8471746E-01
       -1   -1    0    0    0  501  0.00000000000E+00  0.00000000000E+00  0.10826533249E+04  0.10826533250E+04  0.50400001928E-02 0. -1.
        1   -1    0    0  501    0  0.00000000000E+00  0.00000000000E+00 -0.12382980474E+04  0.12382980474E+04  0.50400001928E-02 0.  1.
    10030    2    1    2    0    0  0.00000000000E+00  0.00000000000E+00 -0.15564472249E+03  0.23209513724E+04  0.23157266664E+04 0.  0.
        2    1    3    3  502    0 -0.73406339599E+03  0.10637074304E+03  0.81327509224E+03  0.11007180293E+04  0.25500000920E-02 0. -1.
       -2    1    3    3    0  502  0.73406339599E+03 -0.10637074304E+03 -0.96891981472E+03  0.12202333431E+04  0.25500000920E-02 0.  1.
</event>
<event>
 5   0  0.3118614E-05  0.2258008E+04  0.7818609E-02  0.8494665E-01
        1   -1    0    0  501    0  0.00000000000E+00  0.00000000000E+00  0.11291100913E+04  0.11291100913E+04  0.50400001928E-02 0.  1.
       -1   -1    0    0    0  501  0.00000000000E+00  0.00000000000E+00 -0.11288975286E+04  0.11288975286E+04  0.50400001928E-02 0. -1.
    10030    2    1    2    0    0  0.00000000000E+00  0.00000000000E+00  0.21256270657E+00  0.22580076199E+04  0.22580076099E+04 0.  0.
        3    1    3    3  502    0  0.62253926452E+03 -0.87444862400E+03  0.35001205525E+03  0.11290367491E+04  0.10100000352E+00 0. -1.
       -3    1    3    3    0  502 -0.62253926452E+03  0.87444862400E+03 -0.34979949255E+03  0.11289708708E+04  0.10100000352E+00 0.  1.
</event>
<event>
 5   0  0.2982385E-05  0.1892671E+04  0.7818609E-02  0.8658513E-01
        1   -1    0    0  501    0  0.00000000000E+00  0.00000000000E+00  0.14895327821E+04  0.14895327821E+04  0.50400001928E-02 0.  1.
       -1   -1    0    0    0  501  0.00000000000E+00  0.00000000000E+00 -0.60122964817E+03  0.60122964819E+03  0.50400001928E-02 0. -1.
    10030    2    1    2    0    0  0.00000000000E+00  0.00000000000E+00  0.88830313395E+03  0.20907624303E+04  0.18926714142E+04 0.  0.
        4    1    3    3  502    0 -0.28976795361E+02 -0.23314515189E+03  0.14568040459E+04  0.14756273099E+04  0.12699999809E+01 0.  1.
       -4    1    3    3    0  502  0.28976795361E+02  0.23314515189E+03 -0.56850091200E+03  0.61513512041E+03  0.12699999809E+01 0. -1.
</event>
<event>
 5   0  0.6814789E-05  0.2254357E+04  0.7818609E-02  0.8496138E-01
        2   -1    0    0  501    0  0.00000000000E+00  0.00000000000E+00  0.21698753209E+04  0.21698753209E+04  0.25500000920E-02 0.  1.
       -2   -1    0    0    0  501  0.00000000000E+00  0.00000000000E+00 -0.58553207817E+03  0.58553207817E+03  0.25500000920E-02 0. -1.
    10030    2    1    2    0    0  0.00000000000E+00  0.00000000000E+00  0.15843432427E+04  0.27554073991E+04  0.22543572086E+04 0.  0.
        1    1    3    3  502    0 -0.95406523823E+03  0.41980363254E+03  0.13165419651E+04  0.16792136001E+04  0.50400001928E-02 0.  1.
       -1    1    3    3    0  502  0.95406523823E+03 -0.41980363254E+03  0.26780127762E+03  0.10761937990E+04  0.50400001928E-02 0. -1.
</event>
<event>
 5   0  0.3006265E-05  0.2243512E+04  0.7818609E-02  0.8500533E-01
       -1   -1    0    0    0  501  0.00000000000E+00  0.00000000000E+00  0.11051009551E+04  0.11051009551E+04  0.50400001928E-02 0.  1.
        1   -1    0    0  501    0  0.00000000000E+00  0.00000000000E+00 -0.11386619759E+04  0.11386619760E+04  0.50400001928E-02 0. -1.
    10030    2    1    2    0    0  0.00000000000E+00  0.00000000000E+00 -0.33561020826E+02  0.22437629311E+04  0.22435119230E+04 0.  0.
        2    1    3    3  502    0  0.55225370820E+03  0.28318026929E+03 -0.95131601354E+03  0.11358597540E+04  0.25500000920E-02 0. -1.
       -2    1    3    3    0  502 -0.55225370820E+03 -0.28318026929E+03  0.91775499272E+03  0.11079031771E+04  0.25500000920E-02 0.  1.
</event>
<event>
 5   0  0.2944089E-05  0.2283906E+04  0.7818609E-02  0.8484294E-01
        1   -1    0    0  501    0  0.00000000000E+00  0.00000000000E+00  0.23248154255E+04  0.23248154255E+04  0.50400001928E-02 0.  1.
       -1   -1    0    0    0  501  0.00000000000E+00  0.00000000000E+00 -0.56092909240E+03  0.56092909242E+03  0.50400001928E-02 0. -1.
    10030    2    1    2    0    0  0.00000000000E+00  0.00000000000E+00  0.17638863331E+04  0.28857445180E+04  0.22839059584E+04 0.  0.
        5    1    3    3  502    0 -0.82510147118E+03 -0.65633377312E+03  0.32762515169E+03  0.11040501753E+04  0.46999998093E+01 0. -1.
       -5    1    3    3    0  502  0.82510147118E+03  0.65633377312E+03  0.14362611814E+04  0.17816943427E+04  0.46999998093E+01 0.  1.
</event>
<event>
 5   0  0.2944089E-05  0.2293520E+04  0.7818609E-02  0.8480481E-01
       -1   -1    0    0    0  501  0.00000000000E+00  0.00000000000E+00  0.86217176982E+03  0.86217176983E+03  0.50400001928E-02 0. -1.
        1   -1    0    0  501    0  0.00000000000E+00  0.00000000000E+00 -0.15252855649E+04  0.15252855649E+04  0.50400001928E-02 0.  1.
    10030    2    1    2    0    0  0.00000000000E+00  0.00000000000E+00 -0.66311379506E+03  0.23874573347E+04  0.22935197012E+04 0.  0.
        5    1    3    3  502    0  0.78663315607E+03  0.78002123829E+03 -0.64002348318E+03  0.12794049411E+04  0.46999998093E+01 0.  1.
       -5    1    3    3    0  502 -0.78663315607E+03 -0.78002123829E+03 -0.23090311872E+02  0.11080523936E+04  0.46999998093E+01 0. -1.
</event>
<event>
 5   0  0.6814789E-05  0.2292255E+04  0.7818609E-02  0.8480981E-01
       -2   -1    0    0    0  501  0.00000000000E+00  0.00000000000E+00  0.60374054362E+03  0.60374054362E+03  0.25500000920E-02 0. -1.
        2   -1    0    0  501    0  0.00000000000E+00  0.00000000000E+00 -0.21757822194E+04  0.21757822194E+04  0.25500000920E-02 0.  1.
    10030    2    1    2    0    0  0.00000000000E+00  0.00000000000E+00 -0.15720416758E+04  0.27795227630E+04  0.22922547327E+04 0.  0.
        1    1    3    3  502    0  0.90336826905E+03  0.28294078044E+03 -0.25474107165E+01  0.94664470848E+03  0.50400001928E-02 0. -1.
       -1    1    3    3    0  502 -0.90336826905E+03 -0.28294078044E+03 -0.15694942651E+04  0.18328780546E+04  0.50400001928E-02 0.  1.
</event>
<event>
 5   0  0.2944089E-05  0.2140275E+04  0.7818609E-02  0.8543707E-01
       -1   -1    0    0    0  501  0.00000000000E+00  0.00000000000E+00  0.58985840784E+03  0.58985840786E+03  0.50400001928E-02 0.  1.
        1   -1    0    0  501    0  0.00000000000E+00  0.00000000000E+00 -0.19414727655E+04  0.19414727655E+04  0.50400001928E-02 0. -1.
    10030    2    1    2    0    0  0.00000000000E+00  0.00000000000E+00 -0.13516143577E+04  0.25313311734E+04  0.21402747808E+04 0.  0.
        5    1    3    3  502    0  0.31643096329E+03 -0.43880485683E+03  0.41619880773E+03  0.68258464271E+03  0.46999998093E+01 0.  1.
       -5    1    3    3    0  502 -0.31643096329E+03  0.43880485683E+03 -0.17678131654E+04  0.18487465307E+04  0.46999998093E+01 0. -1.
</event>
<event>
 5   0  0.6676612E-05  0.2330866E+04  0.7818609E-02  0.8465849E-01
       -2   -1    0    0    0  501  0.00000000000E+00  0.00000000000E+00  0.12891880280E+04  0.12891880280E+04  0.25500000920E-02 0. -1.
        2   -1    0    0  501    0  0.00000000000E+00  0.00000000000E+00 -0.10535581567E+04  0.10535581567E+04  0.25500000920E-02 0.  1.
    10030    2    1    2    0    0  0.00000000000E+00  0.00000000000E+00  0.23562987127E+03  0.23427461847E+04  0.23308664161E+04 0.  0.
        2    1    3    3  502    0  0.11296763265E+04 -0.28615126943E+03  0.13142687945E+03  0.11727421611E+04  0.25500000920E-02 0.  1.
       -2    1    3    3    0  502 -0.11296763265E+04  0.28615126943E+03  0.10420299183E+03  0.11700040236E+04  0.25500000920E-02 0. -1.
</event>
<event>
 5   0  0.3006265E-05  0.2310156E+04  0.7818609E-02  0.8473928E-01
       -1   -1    0    0    0  501  0.00000000000E+00  0.00000000000E+00  0.11070183923E+04  0.11070183923E+04  0.50400001928E-02 0.  1.
        1   -1    0    0  501    0  0.00000000000E+00  0.00000000000E+00 -0.12052235620E+04  0.12052235620E+04  0.50400001928E-02 0. -1.
    10030    2    1    2    0    0  0.00000000000E+00  0.00000000000E+00 -0.98205169732E+02  0.23122419543E+04  0.23101555359E+04 0.  0.
        2    1    3    3  502    0 -0.80526479209E+03  0.70604904546E+03 -0.48221502877E+03  0.11745160595E+04  0.25500000920E-02 0. -1.
       -2    1    3    3    0  502  0.80526479209E+03 -0.70604904546E+03  0.38400985904E+03  0.11377258949E+04  0.25500000920E-02 0.  1.
</event>
<event>
 5   0  0.6495405E-05  0.2290610E+04  0.7818609E-02  0.8481633E-01
        2   -1    0    0  501    0  0.00000000000E+00  0.00000000000E+00  0.10866558080E+04  0.10866558080E+04  0.25500000920E-02 0. -1.
       -2   -1    0    0    0  501  0.00000000000E+00  0.00000000000E+00 -0.12071198304E+04  0.12071198304E+04  0.25500000920E-02 0.  1.
    10030    2    1    2    0    0  0.00000000000E+00  0.00000000000E+00 -0.12046402244E+03  0.22937756384E+04  0.22906102023E+04 0.  0.
        5    1    3    3  502    0  0.93422675872E+02 -0.48380242698E+03  0.97507732969E+03  0.10925156629E+04  0.46999998093E+01 0. -1.
       -5    1    3    3    0  502 -0.93422675872E+02  0.48380242698E+03 -0.10955413521E+04  0.12012599756E+04  0.46999998093E+01 0.  1.
</event>
<event>
 5   0  0.6702421E-05  0.1996253E+04  0.7818609E-02  0.8608374E-01
        2   -1    0    0  501    0  0.00000000000E+00  0.00000000000E+00  0.17128395423E+04  0.17128395423E+04  0.25500000920E-02 0. -1.
       -2   -1    0    0    0  501  0.00000000000E+00  0.00000000000E+00 -0.58164046884E+03  0.58164046884E+03  0.25500000920E-02 0.  1.
    10030    2    1    2    0    0  0.00000000000E+00  0.00000000000E+00  0.11311990735E+04  0.22944800112E+04  0.19962532850E+04 0.  0.
        4    1    3    3  502    0  0.33843241196E+03  0.80243252563E+03  0.50764758017E+01  0.87089714615E+03  0.12699999809E+01 0.  1.
       -4    1    3    3    0  502 -0.33843241196E+03 -0.80243252563E+03  0.11261225977E+04  0.14235828650E+04  0.12699999809E+01 0. -1.
</event>
<event>
 5   0  0.6702421E-05  0.2314438E+04  0.7818609E-02  0.8472250E-01
       -2   -1    0    0    0  501  0.00000000000E+00  0.00000000000E+00  0.13676475485E+04  0.13676475485E+04  0.25500000920E-02 0.  1.
        2   -1    0    0  501    0  0.00000000000E+00  0.00000000000E+00 -0.97916756026E+03  0.97916756026E+03  0.25500000920E-02 0. -1.
    10030    2    1    2    0    0  0.00000000000E+00  0.00000000000E+00  0.38847998827E+03  0.23468151088E+04  0.23144382588E+04 0.  0.
        4    1    3    3  502    0 -0.70147128088E+02 -0.92353549510E+03  0.89771465185E+03  0.12898572166E+04  0.12699999809E+01 0.  1.
       -4    1    3    3    0  502  0.70147128088E+02  0.92353549510E+03 -0.50923466357E+03  0.10569578922E+04  0.12699999809E+01 0. -1.
</event>
<event>
 5   0  0.2944089E-05  0.2295610E+04  0.7818609E-02  0.8479654E-01
        1   -1    0    0  501    0  0.00000000000E+00  0.00000000000E+00  0.10117385734E+04  0.10117385734E+04  0.50400001928E-02 0. -1.
       -1   -1    0    0    0  501  0.00000000000E+00  0.00000000000E+00 -0.13021710645E+04  0.13021710646E+04  0.50400001928E-02 0.  1.
    10030    2    1    2    0    0  0.00000000000E+00  0.00000000000E+00 -0.29043249115E+03  0.23139096380E+04  0.22956103286E+04 0.  0.
        5    1    3    3  502    0 -0.11002043312E+03  0.13891652012E+03  0.99785727619E+03  0.10134808972E+04  0.46999998093E+01 0. -1.
       -5    1    3    3    0  502  0.11002043312E+03 -0.13891652012E+03 -0.12882897673E+04  0.13004287408E+04  0.46999998093E+01 0.  1.
</event>
<event>
 5   0  0.2342500E-05  0.2350486E+04  0.7818609E-02  0.8458277E-01
        3   -1    0    0  501    0  0.00000000000E+00  0.00000000000E+00  0.12284726898E+04  0.12284726940E+04  0.10100000352E+00 0.  1.
       -3   -1    0    0    0  501  0.00000000000E+00  0.00000000000E+00 -0.11243192794E+04  0.11243192840E+04  0.10100000352E+00 0. -1.
    10030    2    1    2    0    0  0.00000000000E+00  0.00000000000E+00  0.10415341041E+03  0.23527919780E+04  0.23504855155E+04 0.  0.
        2    1    3    3  502    0 -0.10613170059E+04 -0.48020638893E+03 -0.10365094330E+03  0.11695022364E+04  0.25500000920E-02 0. -1.
       -2    1    3    3    0  502  0.10613170059E+04  0.48020638893E+03  0.20780435372E+03  0.11832897415E+04  0.25500000920E-02 0.  1.
</event>
<event>
 5   0  0.2944089E-05  0.2253238E+04  0.7818609E-02  0.8496590E-01
       -1   -1    0    0    0  501  0.00000000000E+00  0.00000000000E+00  0.86600602330E+03  0.86600602332E+03  0.50400001928E-02 0. -1.
        1   -1    0    0  501    0  0.00000000000E+00  0.00000000000E+00 -0.14656601796E+04  0.14656601796E+04  0.50400001928E-02 0.  1.
    10030    2    1    2    0    0  0.00000000000E+00  0.00000000000E+00 -0.59965415628E+03  0.23316662029E+04  0.22532381531E+04 0.  0.
        5    1    3    3  502    0  0.61987747632E+03 -0.44275222024E+03  0.55910673923E+03  0.94493388659E+03  0.46999998093E+01 0. -1.
       -5    1    3    3    0  502 -0.61987747632E+03  0.44275222024E+03 -0.11587608955E+04  0.13867323163E+04  0.46999998093E+01 0.  1.
</event>
<event>
 5   0  0.6702421E-05  0.2287097E+04  0.7818609E-02  0.8483026E-01
        2   -1    0    0  501    0  0.00000000000E+00  0.00000000000E+00  0.14516562932E+04  0.14516562932E+04  0.25500000920E-02 0. -1.
       -2   -1    0    0    0  501  0.00000000000E+00  0.00000000000E+00 -0.90083560443E+03  0.90083560443E+03  0.25500000920E-02 0.  1.
    10030    2    1    2    0    0  0.00000000000E+00  0.00000000000E+00  0.55082068873E+03  0.23524918976E+04  0.22870974394E+04 0.  0.
        4    1    3    3  502    0 -0.75449994428E+03 -0.37618617912E+03 -0.51928382314E+03  0.99017347428E+03  0.12699999809E+01 0.  1.
       -4    1    3    3    0  502  0.75449994428E+03  0.37618617912E+03  0.10701045119E+04  0.13623184233E+04  0.12699999809E+01 0. -1.
</event>
<event>
 5   0  0.6495405E-05  0.2230819E+04  0.7818609E-02  0.8505709E-01
       -2   -1    0    0    0  501  0.00000000000E+00  0.00000000000E+00  0.14400107410E+04  0.14400107410E+04  0.25500000920E-02 0.  1.
        2   -1    0    0  501    0  0.00000000000E+00  0.00000000000E+00 -0.86397846416E+03  0.86397846417E+03  0.25500000920E-02 0. -1.
    10030    2    1    2    0    0  0.00000000000E+00  0.00000000000E+00  0.57603227688E+03  0.23039892052E+04  0.22308189245E+04 0.  0.
        5    1    3    3  502    0 -0.21480631534E+03  0.96199841691E+03 -0.25115426408E+03  0.10171938171E+04  0.46999998093E+01 0. -1.
       -5    1    3    3    0  502  0.21480631534E+03 -0.96199841691E+03  0.82718654096E+03  0.12867953881E+04  0.46999998093E+01 0.  1.
</event>
<event>
 5   0  0.3118614E-05  0.2280760E+04  0.7818609E-02  0.8485546E-01
        1   -1    0    0  501    0  0.00000000000E+00  0.00000000000E+00  0.14931256281E+04  0.14931256281E+04  0.50400001928E-02 0. -1.
       -1   -1    0    0    0  501  0.00000000000E+00  0.00000000000E+00 -0.87096949383E+03  0.87096949384E+03  0.50400001928E-02 0.  1.
    10030    2    1    2    0    0  0.00000000000E+00  0.00000000000E+00  0.62215613430E+03  0.23640951220E+04  0.22807602878E+04 0.  0.
        3    1    3    3  502    0 -0.24282009481E+03 -0.10423295549E+04 -0.97078980583E+02  0.10746333505E+04  0.10100000352E+00 0. -1.
       -3    1    3    3    0  502  0.24282009481E+03  0.10423295549E+04  0.71923511488E+03  0.12894617715E+04  0.10100000352E+00 0.  1.
</event>
<event>
 5   0  0.6702421E-05  0.2290170E+04  0.7818609E-02  0.8481807E-01
       -2   -1    0    0    0  501  0.00000000000E+00  0.00000000000E+00  0.70003423522E+03  0.70003423522E+03  0.25500000920E-02 0.  1.
        2   -1    0    0  501    0  0.00000000000E+00  0.00000000000E+00 -0.18730799421E+04  0.18730799421E+04  0.25500000920E-02 0. -1.
    10030    2    1    2    0    0  0.00000000000E+00  0.00000000000E+00 -0.11730457069E+04  0.25731141773E+04  0.22901703734E+04 0.  0.
        4    1    3    3  502    0  0.10565063875E+04  0.59943599556E+02 -0.10780916902E+04  0.15106562439E+04  0.12699999809E+01 0. -1.
       -4    1    3    3    0  502 -0.10565063875E+04 -0.59943599556E+02 -0.94954016721E+02  0.10624579334E+04  0.12699999809E+01 0.  1.
</event>
<event>
 5   0  0.6814789E-05  0.2385914E+04  0.7818609E-02  0.8444796E-01
       -2   -1    0    0    0  501  0.00000000000E+00  0.00000000000E+00  0.65724507654E+03  0.65724507655E+03  0.25500000920E-02 0.  1.
        2   -1    0    0  501    0  0.00000000000E+00  0.00000000000E+00 -0.21653211422E+04  0.21653211422E+04  0.25500000920E-02 0. -1.
    10030    2    1    2    0    0  0.00000000000E+00  0.00000000000E+00 -0.15080760656E+04  0.28225662187E+04  0.23859142146E+04 0.  0.
        1    1    3    3  502    0  0.63114969391E+03  0.14414332766E+03  0.43134954696E+03  0.77793937213E+03  0.50400001928E-02 0.  1.
       -1    1    3    3    0  502 -0.63114969391E+03 -0.14414332766E+03 -0.19394256126E+04  0.20446268466E+04  0.50400001928E-02 0. -1.
</event>
<event>
 5   0  0.3118614E-05  0.2287414E+04  0.7818609E-02  0.8482900E-01
       -1   -1    0    0    0  501  0.00000000000E+00  0.00000000000E+00  0.18362098646E+04  0.18362098646E+04  0.50400001928E-02 0.  1.
        1   -1    0    0  501    0  0.00000000000E+00  0.00000000000E+00 -0.71237268969E+03  0.71237268971E+03  0.50400001928E-02 0. -1.
    10030    2    1    2    0    0  0.00000000000E+00  0.00000000000E+00  0.11238371749E+04  0.25485825543E+04  0.22874140510E+04 0.  0.
        3    1    3    3  502    0 -0.89236226101E+03 -0.63699808887E+03  0.92464891462E+03  0.14342428649E+04  0.10100000352E+00 0. -1.
       -3    1    3    3    0  502  0.89236226101E+03  0.63699808887E+03  0.19918826029E+03  0.11143396894E+04  0.10100000352E+00 0.  1.
</event>
<event>
 5   0  0.6468758E-05  0.2352987E+04  0.7818609E-02  0.8457317E-01
       -2   -1    0    0    0  501  0.00000000000E+00  0.00000000000E+00  0.87261368855E+03  0.87261368856E+03  0.25500000920E-02 0. -1.
        2   -1    0    0  501    0  0.00000000000E+00  0.00000000000E+00 -0.15861965577E+04  0.15861965577E+04  0.25500000920E-02 0.  1.
    10030    2    1    2    0    0  0.00000000000E+00  0.00000000000E+00 -0.71358286918E+03  0.24588102463E+04  0.23529868925E+04 0.  0.
        3    1    3    3  502    0  0.51308903782E+03  0.72485559707E+03  0.44957437000E+03  0.99538591596E+03  0.10100000352E+00 0. -1.
       -3    1    3    3    0  502 -0.51308903782E+03 -0.72485559707E+03 -0.11631572392E+04  0.14634243303E+04  0.10100000352E+00 0.  1.
</event>
<event>
 5   0  0.3118614E-05  0.2536441E+04  0.7818609E-02  0.8390117E-01
       -1   -1    0    0    0  501  0.00000000000E+00  0.00000000000E+00  0.10555721365E+04  0.10555721365E+04  0.50400001928E-02 0.  1.
        1   -1    0    0  501    0  0.00000000000E+00  0.00000000000E+00 -0.15237080011E+04  0.15237080011E+04  0.50400001928E-02 0. -1.
    10030    2    1    2    0    0  0.00000000000E+00  0.00000000000E+00 -0.46813586460E+03  0.25792801376E+04  0.25364413733E+04 0.  0.
        3    1    3    3  502    0  0.32078030086E+03  0.11537073541E+04 -0.65878577653E+03  0.13667257844E+04  0.10100000352E+00 0.  1.
       -3    1    3    3    0  502 -0.32078030086E+03 -0.11537073541E+04  0.19064991193E+03  0.12125543532E+04  0.10100000352E+00 0. -1.
</event>
<event>
 5   0  0.2944089E-05  0.2292019E+04  0.7818609E-02  0.8481075E-01
       -1   -1    0    0    0  501  0.00000000000E+00  0.00000000000E+00  0.58653588795E+03  0.58653588798E+03  0.50400001928E-02 0. -1.
        1   -1    0    0  501    0  0.00000000000E+00  0.00000000000E+00 -0.22391422564E+04  0.22391422564E+04  0.50400001928E-02 0.  1.
    10030    2    1    2    0    0  0.00000000000E+00  0.00000000000E+00 -0.16526063685E+04  0.28256781444E+04  0.22920185790E+04 0.  0.
        5    1    3    3  502    0  0.87245103875E+03  0.36404228960E+03 -0.16249070453E+04  0.18799049443E+04  0.46999998093E+01 0.  1.
       -5    1    3    3    0  502 -0.87245103875E+03 -0.36404228960E+03 -0.27699323203E+02  0.94577320016E+03  0.46999998093E+01 0. -1.
</event>
<event>
 5   0  0.2962279E-05  0.2246531E+04  0.7818609E-02  0.8499307E-01
       -1   -1    0    0    0  501  0.00000000000E+00  0.00000000000E+00  0.53374021080E+03  0.53374021082E+03  0.50400001928E-02 0. -1.
        1   -1    0    0  501    0  0.00000000000E+00  0.00000000000E+00 -0.23639318629E+04  0.23639318629E+04  0.50400001928E-02 0.  1.
    10030    2    1    2    0    0  0.00000000000E+00  0.00000000000E+00 -0.18301916521E+04  0.28976720737E+04  0.22465310956E+04 0.  0.
        1    1    3    3  502    0 -0.92643101296E+03  0.33075027081E+03 -0.16145372136E+04  0.18906085205E+04  0.50400001928E-02 0.  1.
       -1    1    3    3    0  502  0.92643101296E+03 -0.33075027081E+03 -0.21565443845E+03  0.10070635532E+04  0.50400001928E-02 0. -1.
</event>
<event>
 5   0  0.2962279E-05  0.2284774E+04  0.7818609E-02  0.8483949E-01
       -1   -1    0    0    0  501  0.00000000000E+00  0.00000000000E+00  0.61361402326E+03  0.61361402328E+03  0.50400001928E-02 0.  1.
        1   -1    0    0  501    0  0.00000000000E+00  0.00000000000E+00 -0.21268230625E+04  0.21268230625E+04  0.50400001928E-02 0. -1.
    10030    2    1    2    0    0  0.00000000000E+00  0.00000000000E+00 -0.15132090393E+04  0.27404370858E+04  0.22847743488E+04 0.  0.
        1    1    3    3  502    0 -0.81072499323E+03 -0.55937630728E+03 -0.62514702681E+02  0.98695742354E+03  0.50400001928E-02 0.  1.
       -1    1    3    3    0  502  0.81072499323E+03  0.55937630728E+03 -0.14506943366E+04  0.17534796623E+04  0.50400001928E-02 0. -1.
</event>
<event>
 5   0  0.6468758E-05  0.2298618E+04  0.7818609E-02  0.8478466E-01
        2   -1    0    0  501    0  0.00000000000E+00  0.00000000000E+00  0.86366566901E+03  0.86366566901E+03  0.25500000920E-02 0. -1.
       -2   -1    0    0    0  501  0.00000000000E+00  0.00000000000E+00 -0.15294243625E+04  0.15294243625E+04  0.25500000920E-02 0.  1.
    10030    2    1    2    0    0  0.00000000000E+00  0.00000000000E+00 -0.66575869351E+03  0.23930900315E+04  0.22986181199E+04 0.  0.
        3    1    3    3  502    0  0.29292571421E+03  0.73894100717E+03  0.53134106443E+03  0.95611851936E+03  0.10100000352E+00 0. -1.
       -3    1    3    3    0  502 -0.29292571421E+03 -0.73894100717E+03 -0.11970997579E+04  0.14369715122E+04  0.10100000352E+00 0.  1.
</event>
<event>
 5   0  0.2962279E-05  0.2282201E+04  0.7818609E-02  0.8484972E-01
       -1   -1    0    0    0  501  0.00000000000E+00  0.00000000000E+00  0.99767260846E+03  0.99767260847E+03  0.50400001928E-02 0. -1.
        1   -1    0    0  501    0  0.00000000000E+00  0.00000000000E+00 -0.13051482693E+04  0.13051482693E+04  0.50400001928E-02 0.  1.
    10030    2    1    2    0    0  0.00000000000E+00  0.00000000000E+00 -0.30747566083E+03  0.23028208778E+04  0.22822012867E+04 0.  0.
        1    1    3    3  502    0  0.67072803656E+03 -0.84406722959E+03  0.22351858970E+03  0.11010386674E+04  0.50400001928E-02 0. -1.
       -1    1    3    3    0  502 -0.67072803656E+03  0.84406722959E+03 -0.53099425053E+03  0.12017822104E+04  0.50400001928E-02 0.  1.
</event>
<event>
 5   0  0.3006265E-05  0.2300062E+04  0.7818609E-02  0.8477897E-01
       -1   -1    0    0    0  501  0.00000000000E+00  0.00000000000E+00  0.89830589629E+03  0.89830589631E+03  0.50400001928E-02 0. -1.
        1   -1    0    0  501    0  0.00000000000E+00  0.00000000000E+00 -0.14722949006E+04  0.14722949006E+04  0.50400001928E-02 0.  1.
    10030    2    1    2    0    0  0.00000000000E+00  0.00000000000E+00 -0.57398900427E+03  0.23706007969E+04  0.23000619038E+04 0.  0.
        2    1    3    3  502    0 -0.13489321060E+03  0.82019637644E+03  0.53214553602E+03  0.98696359897E+03  0.25500000920E-02 0. -1.
       -2    1    3    3    0  502  0.13489321060E+03 -0.82019637644E+03 -0.11061345403E+04  0.13836371979E+04  0.25500000920E-02 0.  1.
</event>
<event>
 5   0  0.2944089E-05  0.2311338E+04  0.7818609E-02  0.8473464E-01
       -1   -1    0    0    0  501  0.00000000000E+00  0.00000000000E+00  0.14030543115E+04  0.14030543115E+04  0.50400001928E-02 0. -1.
        1   -1    0    0  501    0  0.00000000000E+00  0.00000000000E+00 -0.95190239590E+03  0.95190239592E+03  0.50400001928E-02 0.  1.
    10030    2    1    2    0    0  0.00000000000E+00  0.00000000000E+00  0.45115191561E+03  0.23549567074E+04  0.23113379335E+04 0.  0.
        5    1    3    3  502    0  0.20250526425E+03  0.95803392200E+03 -0.39977497282E+03  0.10576764612E+04  0.46999998093E+01 0.  1.
       -5    1    3    3    0  502 -0.20250526425E+03 -0.95803392200E+03  0.85092688844E+03  0.12972802462E+04  0.46999998093E+01 0. -1.
</event>
<event>
 5   0  0.6702421E-05  0.2284831E+04  0.7818609E-02  0.8483926E-01
        2   -1    0    0  501    0  0.00000000000E+00  0.00000000000E+00  0.14786473852E+04  0.14786473852E+04  0.25500000920E-02 0.  1.
       -2   -1    0    0    0  501  0.00000000000E+00  0.00000000000E+00 -0.88263976683E+03  0.88263976683E+03  0.25500000920E-02 0. -1.
    10030    2    1    2    0    0  0.00000000000E+00  0.00000000000E+00  0.59600761834E+03  0.23612871520E+04  0.22848308325E+04 0.  0.
        4    1    3    3  502    0  0.88435446533E+03  0.71140050894E+03  0.16350324736E+03  0.11466945667E+04  0.12699999809E+01 0.  1.
       -4    1    3    3    0  502 -0.88435446533E+03 -0.71140050894E+03  0.43250437098E+03  0.12145925853E+04  0.12699999809E+01 0. -1.
</event>
<event>
 5   0  0.6468758E-05  0.2052671E+04  0.7818609E-02  0.8582383E-01
        2   -1    0    0  501    0  0.00000000000E+00  0.00000000000E+00  0.11124532925E+04  0.11124532925E+04  0.25500000920E-02 0. -1.
       -2   -1    0    0    0  501  0.00000000000E+00  0.00000000000E+00 -0.94688463158E+03  0.94688463158E+03  0.25500000920E-02 0.  1.
    10030    2    1    2    0    0  0.00000000000E+00  0.00000000000E+00  0.16556866094E+03  0.20593379241E+04  0.20526713581E+04 0.  0.
        3    1    3    3  502    0 -0.97711076582E+03  0.27910726755E+03  0.22719138231E+03  0.10412791412E+04  0.10100000352E+00 0. -1.
       -3    1    3    3    0  502  0.97711076582E+03 -0.27910726755E+03 -0.61622721369E+02  0.10180587829E+04  0.10100000352E+00 0.  1.
</event>
<event>
 5   0  0.2982385E-05  0.2351429E+04  0.7818609E-02  0.8457915E-01
       -1   -1    0    0    0  501  0.00000000000E+00  0.00000000000E+00  0.10438905717E+04  0.10438905717E+04  0.50400001928E-02 0.  1.
        1   -1    0    0  501    0  0.00000000000E+00  0.00000000000E+00 -0.13241850925E+04  0.13241850925E+04  0.50400001928E-02 0. -1.
    10030    2    1    2    0    0  0.00000000000E+00  0.00000000000E+00 -0.28029452083E+03  0.23680756642E+04  0.23514287854E+04 0.  0.
        4    1    3    3  502    0 -0.24320159479E+03  0.21847479381E+03 -0.12774893640E+04  0.13186580069E+04  0.12699999809E+01 0. -1.
       -4    1    3    3    0  502  0.24320159479E+03 -0.21847479381E+03  0.99719484315E+03  0.10494176572E+04  0.12699999809E+01 0.  1.
</event>
<event>
 5   0  0.3006265E-05  0.2277999E+04  0.7818609E-02  0.8486646E-01
       -1   -1    0    0    0  501  0.00000000000E+00  0.00000000000E+00  0.12652944055E+04  0.12652944055E+04  0.50400001928E-02 0. -1.
        1   -1    0    0  501    0  0.00000000000E+00  0.00000000000E+00 -0.10253111087E+04  0.10253111087E+04  0.50400001928E-02 0.  1.
    10030    2    1    2    0    0  0.00000000000E+00  0.00000000000E+00  0.23998329681E+03  0.22906055142E+04  0.22779994818E+04 0.  0.
        2    1    3    3  502    0  0.44432240835E+03 -0.10395298207E+04 -0.19613818541E+02  0.11306765022E+04  0.25500000920E-02 0.  1.
       -2    1    3    3    0  502 -0.44432240835E+03  0.10395298207E+04  0.25959711535E+03  0.11599290121E+04  0.25500000920E-02 0. -1.
</event>
<event>
 5   0  0.2982385E-05  0.2355390E+04  0.7818609E-02  0.8456396E-01
       -1   -1    0    0    0  501  0.00000000000E+00  0.00000000000E+00  0.89655990627E+03  0.89655990628E+03  0.50400001928E-02 0.  1.
        1   -1    0    0  501    0  0.00000000000E+00  0.00000000000E+00 -0.15469856775E+04  0.15469856775E+04  0.50400001928E-02 0. -1.
    10030    2    1    2    0    0  0.00000000000E+00  0.00000000000E+00 -0.65042577127E+03  0.24435455838E+04  0.23553898481E+04 0.  0.
        4    1    3    3  502    0  0.81532178310E+03  0.62833404860E+02 -0.12044384826E+04  0.14558060716E+04  0.12699999809E+01 0. -1.
       -4    1    3    3    0  502 -0.81532178310E+03 -0.62833404860E+02  0.55401271137E+03  0.98773951223E+03  0.12699999809E+01 0.  1.
</event>
<event>
 5   0  0.2962279E-05  0.2318073E+04  0.7818609E-02  0.8470829E-01
       -1   -1    0    0    0  501  0.00000000000E+00  0.00000000000E+00  0.72760293416E+03  0.72760293418E+03  0.50400001928E-02 0.  1.
        1   -1    0    0  501    0  0.00000000000E+00  0.00000000000E+00 -0.18462890828E+04  0.18462890828E+04  0.50400001928E-02 0. -1.
    10030    2    1    2    0    0  0.00000000000E+00  0.00000000000E+00 -0.11186861486E+04  0.25738920170E+04  0.23180727806E+04 0.  0.
        1    1    3    3  502    0  0.81035448862E+03 -0.12096291513E+03  0.35092001686E+03  0.89131996630E+03  0.50400001928E-02 0.  1.
       -1    1    3    3    0  502 -0.81035448862E+03  0.12096291513E+03 -0.14696061655E+04  0.16825720507E+04  0.50400001928E-02 0. -1.
</event>
<event>
 5   0  0.2342500E-05  0.2292929E+04  0.7818609E-02  0.8480714E-01
        3   -1    0    0  501    0  0.00000000000E+00  0.00000000000E+00  0.12965154375E+04  0.12965154415E+04  0.10100000352E+00 0. -1.
       -3   -1    0    0    0  501  0.00000000000E+00  0.00000000000E+00 -0.10137791644E+04  0.10137791694E+04  0.10100000352E+00 0.  1.
    10030    2    1    2    0    0  0.00000000000E+00  0.00000000000E+00  0.28273627317E+03  0.23102946109E+04  0.22929285617E+04 0.  0.
        3    1    3    3  502    0 -0.48802719154E+03 -0.99577838784E+03 -0.15175652084E+03  0.11192744030E+04  0.10100000352E+00 0.  1.
       -3    1    3    3    0  502  0.48802719154E+03  0.99577838784E+03  0.43449279401E+03  0.11910202079E+04  0.10100000352E+00 0. -1.
</event>
<event>
 5   0  0.2982385E-05  0.2304687E+04  0.7818609E-02  0.8476075E-01
        1   -1    0    0  501    0  0.00000000000E+00  0.00000000000E+00  0.15400752606E+04  0.15400752606E+04  0.50400001928E-02 0.  1.
       -1   -1    0    0    0  501  0.00000000000E+00  0.00000000000E+00 -0.86222767786E+03  0.86222767787E+03  0.50400001928E-02 0. -1.
    10030    2    1    2    0    0  0.00000000000E+00  0.00000000000E+00  0.67784758273E+03  0.24023029385E+04  0.23046869772E+04 0.  0.
        4    1    3    3  502    0  0.68211215326E+02  0.62290014243E+03  0.13469609911E+04  0.14855850301E+04  0.12699999809E+01 0.  1.
       -4    1    3    3    0  502 -0.68211215326E+02 -0.62290014243E+03 -0.66911340835E+03  0.91671790834E+03  0.12699999809E+01 0. -1.
</event>
<event>
 5   0  0.6702421E-05  0.2518696E+04  0.7818609E-02  0.8396355E-01
       -2   -1    0    0    0  501  0.00000000000E+00  0.00000000000E+00  0.11232785222E+04  0.11232785222E+04  0.25500000920E-02 0. -1.
        2   -1    0    0  501    0  0.00000000000E+00  0.00000000000E+00 -0.14119005130E+04  0.14119005130E+04  0.25500000920E-02 0.  1.
    10030    2    1    2    0    0  0.00000000000E+00  0.00000000000E+00 -0.28862199080E+03  0.25351790351E+04  0.25186961084E+04 0.  0.
        4    1    3    3  502    0 -0.11085562050E+04 -0.50023719771E+03 -0.47328592264E+03  0.13050422564E+04  0.12699999809E+01 0.  1.
       -4    1    3    3    0  502  0.11085562050E+04  0.50023719771E+03  0.18466393184E+03  0.12301367787E+04  0.12699999809E+01 0. -1.
</event>
<event>
 5   0  0.6702421E-05  0.2195895E+04  0.7818609E-02  0.8520139E-01
       -2   -1    0    0    0  501  0.00000000000E+00  0.00000000000E+00  0.57993831732E+03  0.57993831733E+03  0.25500000920E-02 0. -1.
        2   -1    0    0  501    0  0.00000000000E+00  0.00000000000E+00 -0.20786495424E+04  0.20786495424E+04  0.25500000920E-02 0.  1.
    10030    2    1    2    0    0  0.00000000000E+00  0.00000000000E+00 -0.14987112251E+04  0.26585878597E+04  0.21958948225E+04 0.  0.
        4    1    3    3  502    0  0.69142685520E+03  0.64587778564E+03 -0.14237295275E+04  0.17094550566E+04  0.12699999809E+01 0.  1.
       -4    1    3    3    0  502 -0.69142685520E+03 -0.64587778564E+03 -0.74981697526E+02  0.94913280311E+03  0.12699999809E+01 0. -1.
</event>
<event>
 5   0  0.2962279E-05  0.2286376E+04  0.7818609E-02  0.8483312E-01
        1   -1    0    0  501    0  0.00000000000E+00  0.00000000000E+00  0.10966711422E+04  0.10966711422E+04  0.50400001928E-02 0.  1.
       -1   -1    0    0    0  501  0.00000000000E+00  0.00000000000E+00 -0.11916781207E+04  0.11916781207E+04  0.50400001928E-02 0. -1.
    10030    2    1    2    0    0  0.00000000000E+00  0.00000000000E+00 -0.95006978497E+02  0.22883492629E+04  0.22863761770E+04 0.  0.
        1    1    3    3  502    0  0.50855926312E+02  0.70400855537E+03  0.85253037214E+03  0.11068073033E+04  0.50400001928E-02 0.  1.
       -1    1    3    3    0  502 -0.50855926312E+02 -0.70400855537E+03 -0.94753735064E+03  0.11815419595E+04  0.50400001928E-02 0. -1.
</event>
<event>
 5   0  0.2982385E-05  0.2283270E+04  0.7818609E-02  0.8484547E-01
        1   -1    0    0  501    0  0.00000000000E+00  0.00000000000E+00  0.13284990697E+04  0.13284990697E+04  0.50400001928E-02 0.  1.
       -1   -1    0    0    0  501  0.00000000000E+00  0.00000000000E+00 -0.98105501799E+03  0.98105501800E+03  0.50400001928E-02 0. -1.
    10030    2    1    2    0    0  0.00000000000E+00  0.00000000000E+00  0.34744405174E+03  0.23095540877E+04  0.22832701800E+04 0.  0.
        4    1    3    3  502    0  0.68632364955E+03 -0.83106192186E+03  0.55438513287E+03  0.12120431339E+04  0.12699999809E+01 0. -1.
       -4    1    3    3    0  502 -0.68632364955E+03  0.83106192186E+03 -0.20694108113E+03  0.10975109539E+04  0.12699999809E+01 0.  1.
</event>
<event>
 5   0  0.6702421E-05  0.2376210E+04  0.7818609E-02  0.8448464E-01
       -2   -1    0    0    0  501  0.00000000000E+00  0.00000000000E+00  0.10990642771E+04  0.10990642771E+04  0.25500000920E-02 0. -1.
        2   -1    0    0  501    0  0.00000000000E+00  0.00000000000E+00 -0.12843597041E+04  0.12843597041E+04  0.25500000920E-02 0.  1.
    10030    2    1    2    0    0  0.00000000000E+00  0.00000000000E+00 -0.18529542698E+03  0.23834239812E+04  0.23762103187E+04 0.  0.
        4    1    3    3  502    0 -0.63400368216E+03  0.17592740907E+03 -0.10849341057E+04  0.12688556848E+04  0.12699999809E+01 0.  1.
       -4    1    3    3    0  502  0.63400368216E+03 -0.17592740907E+03  0.89963867868E+03  0.11145682964E+04  0.12699999809E+01 0. -1.
</event>
<event>
 5   0  0.6702421E-05  0.2312525E+04  0.7818609E-02  0.8472999E-01
       -2   -1    0    0    0  501  0.00000000000E+00  0.00000000000E+00  0.83720963281E+03  0.83720963281E+03  0.25500000920E-02 0. -1.
        2   -1    0    0  501    0  0.00000000000E+00  0.00000000000E+00 -0.15969033622E+04  0.15969033622E+04  0.25500000920E-02 0.  1.
    10030    2    1    2    0    0  0.00000000000E+00  0.00000000000E+00 -0.75969372937E+03  0.24341129950E+04  0.23125249209E+04 0.  0.
        4    1    3    3  502    0 -0.21750064288E+03 -0.82866360405E+03  0.43747939992E+03  0.96196659848E+03  0.12699999809E+01 0.  1.
       -4    1    3    3    0  502  0.21750064288E+03  0.82866360405E+03 -0.11971731293E+04  0.14721463965E+04  0.12699999809E+01 0. -1.
</event>
<event>
 5   0  0.6495405E-05  0.2291816E+04  0.7818609E-02  0.8481155E-01
        2   -1    0    0  501    0  0.00000000000E+00  0.00000000000E+00  0.13699046866E+04  0.13699046866E+04  0.25500000920E-02 0. -1.
       -2   -1    0    0    0  501  0.00000000000E+00  0.00000000000E+00 -0.95853748187E+03  0.95853748187E+03  0.25500000920E-02 0.  1.
    10030    2    1    2    0    0  0.00000000000E+00  0.00000000000E+00  0.41136720474E+03  0.23284421685E+04  0.22918158641E+04 0.  0.
        5    1    3    3  502    0  0.91935626434E+02 -0.33466785152E+03 -0.90384439584E+03  0.96820014054E+03  0.46999998093E+01 0.  1.
       -5    1    3    3    0  502 -0.91935626434E+02  0.33466785152E+03  0.13152116006E+04  0.13602420279E+04  0.46999998093E+01 0. -1.
</event>
<event>
 5   0  0.6814789E-05  0.2302272E+04  0.7818609E-02  0.8477026E-01
        2   -1    0    0  501    0  0.00000000000E+00  0.00000000000E+00  0.12486497770E+04  0.12486497770E+04  0.25500000920E-02 0. -1.
       -2   -1    0    0    0  501  0.00000000000E+00  0.00000000000E+00 -0.10612378639E+04  0.10612378639E+04  0.25500000920E-02 0.  1.
    10030    2    1    2    0    0  0.00000000000E+00  0.00000000000E+00  0.18741191305E+03  0.23098876409E+04  0.23022722881E+04 0.  0.
        1    1    3    3  502    0 -0.23973960731E+03  0.20016132435E+03  0.12053305567E+04  0.12451350874E+04  0.50400001928E-02 0. -1.
       -1    1    3    3    0  502  0.23973960731E+03 -0.20016132435E+03 -0.10179186436E+04  0.10647525535E+04  0.50400001928E-02 0.  1.
</event>
<event>
 5   0  0.2944089E-05  0.2274052E+04  0.7818609E-02  0.8488223E-01
        1   -1    0    0  501    0  0.00000000000E+00  0.00000000000E+00  0.10895759249E+04  0.10895759249E+04  0.50400001928E-02 0.  1.
       -1   -1    0    0    0  501  0.00000000000E+00  0.00000000000E+00 -0.11865423069E+04  0.11865423069E+04  0.50400001928E-02 0. -1.
    10030    2    1    2    0    0  0.00000000000E+00  0.00000000000E+00 -0.96966381982E+02  0.22761182318E+04  0.22740518301E+04 0.  0.
        5    1    3    3  502    0  0.47367822741E+03 -0.92623955435E+03  0.41075294089E+03  0.11184949010E+04  0.46999998093E+01 0.  1.
       -5    1    3    3    0  502 -0.47367822741E+03  0.92623955435E+03 -0.50771932287E+03  0.11576233308E+04  0.46999998093E+01 0. -1.
</event>
<event>
 5   0  0.6495405E-05  0.2316557E+04  0.7818609E-02  0.8471421E-01
        2   -1    0    0  501    0  0.00000000000E+00  0.00000000000E+00  0.20780084021E+04  0.20780084021E+04  0.25500000920E-02 0.  1.
       -2   -1    0    0    0  501  0.00000000000E+00  0.00000000000E+00 -0.64562280996E+03  0.64562280996E+03  0.25500000920E-02 0. -1.
    10030    2    1    2    0    0  0.00000000000E+00  0.00000000000E+00  0.14323855921E+04  0.27236312120E+04  0.23165574663E+04 0.  0.
        5    1    3    3  502    0 -0.96018630553E+03 -0.47282684184E+03  0.12367935406E+04  0.16356048776E+04  0.46999998093E+01 0. -1.
       -5    1    3    3    0  502  0.96018630553E+03  0.47282684184E+03  0.19559205149E+03  0.10880263344E+04  0.46999998093E+01 0.  1.
</event>
<event>
 5   0  0.3006265E-05  0.2310048E+04  0.7818609E-02  0.8473970E-01
        1   -1    0    0  501    0  0.00000000000E+00  0.00000000000E+00  0.14561818787E+04  0.14561818787E+04  0.50400001928E-02 0.  1.
       -1   -1    0    0    0  501  0.00000000000E+00  0.00000000000E+00 -0.91614932367E+03  0.91614932369E+03  0.50400001928E-02 0. -1.
    10030    2    1    2    0    0  0.00000000000E+00  0.00000000000E+00  0.54003255500E+03  0.23723312024E+04  0.23100476561E+04 0.  0.
        2    1    3    3  502    0  0.11418119532E+04 -0.17130656558E+03  0.23754791183E+03  0.11787745698E+04  0.25500000920E-02 0. -1.
       -2    1    3    3    0  502 -0.11418119532E+04  0.17130656558E+03  0.30248464318E+03  0.11935566326E+04  0.25500000920E-02 0.  1.
</event>
<event>
 5   0  0.6495405E-05  0.2276119E+04  0.7818609E-02  0.8487397E-01
        2   -1    0    0  501    0  0.00000000000E+00  0.00000000000E+00  0.12655057753E+04  0.12655057753E+04  0.25500000920E-02 0.  1.
       -2   -1    0    0    0  501  0.00000000000E+00  0.00000000000E+00 -0.10234476213E+04  0.10234476213E+04  0.25500000920E-02 0. -1.
    10030    2    1    2    0    0  0.00000000000E+00  0.00000000000E+00  0.24205815398E+03  0.22889533967E+04  0.22761185167E+04 0.  0.
        5    1    3    3  502    0  0.11105844026E+04  0.24238634688E+03  0.17618293273E+03  0.11503092507E+04  0.46999998093E+01 0.  1.
       -5    1    3    3    0  502 -0.11105844026E+04 -0.24238634688E+03  0.65875221251E+02  0.11386441460E+04  0.46999998093E+01 0. -1.
</event>
<event>
 5   0  0.3118614E-05  0.2253934E+04  0.7818609E-02  0.8496309E-01
        1   -1    0    0  501    0  0.00000000000E+00  0.00000000000E+00  0.14408254951E+04  0.14408254951E+04  0.50400001928E-02 0. -1.
       -1   -1    0    0    0  501  0.00000000000E+00  0.00000000000E+00 -0.88147702533E+03  0.88147702534E+03  0.50400001928E-02 0.  1.
    10030    2    1    2    0    0  0.00000000000E+00  0.00000000000E+00  0.55934846981E+03  0.23223025205E+04  0.22539339578E+04 0.  0.
        3    1    3    3  502    0  0.10612261823E+04 -0.71730980001E+02 -0.10405837071E+03  0.10687256422E+04  0.10100000352E+00 0.  1.
       -3    1    3    3    0  502 -0.10612261823E+04  0.71730980001E+02  0.66340684052E+03  0.12535768783E+04  0.10100000352E+00 0. -1.
</event>
<event>
 5   0  0.2982385E-05  0.2302694E+04  0.7818609E-02  0.8476860E-01
        1   -1    0    0  501    0  0.00000000000E+00  0.00000000000E+00  0.18666027026E+04  0.18666027026E+04  0.50400001928E-02 0. -1.
       -1   -1    0    0    0  501  0.00000000000E+00  0.00000000000E+00 -0.71016716405E+03  0.71016716407E+03  0.50400001928E-02 0.  1.
    10030    2    1    2    0    0  0.00000000000E+00  0.00000000000E+00  0.11564355386E+04  0.25767698667E+04  0.23026940290E+04 0.  0.
        4    1    3    3  502    0  0.57513903794E+03 -0.39839647992E+03  0.16014326916E+04  0.17475963340E+04  0.12699999809E+01 0. -1.
       -4    1    3    3    0  502 -0.57513903794E+03  0.39839647992E+03 -0.44499715301E+03  0.82917353266E+03  0.12699999809E+01 0.  1.
</event>
<event>
 5   0  0.3118614E-05  0.2279631E+04  0.7818609E-02  0.8485996E-01
        1   -1    0    0  501    0  0.00000000000E+00  0.00000000000E+00  0.13909413484E+04  0.13909413484E+04  0.50400001928E-02 0. -1.
       -1   -1    0    0    0  501  0.00000000000E+00  0.00000000000E+00 -0.93402847935E+03  0.93402847936E+03  0.50400001928E-02 0.  1.
    10030    2    1    2    0    0  0.00000000000E+00  0.00000000000E+00  0.45691286906E+03  0.23249698278E+04  0.22796305249E+04 0.  0.
        3    1    3    3  502    0  0.69842303916E+03 -0.72892528838E+03 -0.31126814967E+03  0.10564159639E+04  0.10100000352E+00 0. -1.
       -3    1    3    3    0  502 -0.69842303916E+03  0.72892528838E+03  0.76818101873E+03  0.12685538638E+04  0.10100000352E+00 0.  1.
</event>
<event>
 5   0  0.3118614E-05  0.2133698E+04  0.7818609E-02  0.8546543E-01
       -1   -1    0    0    0  501  0.00000000000E+00  0.00000000000E+00  0.71141261834E+03  0.71141261836E+03  0.50400001928E-02 0.  1.
        1   -1    0    0  501    0  0.00000000000E+00  0.00000000000E+00 -0.15998682401E+04  0.15998682401E+04  0.50400001928E-02 0. -1.
    10030    2    1    2    0    0  0.00000000000E+00  0.00000000000E+00 -0.88845562177E+03  0.23112808585E+04  0.21336976859E+04 0.  0.
        3    1    3    3  502    0 -0.33813542273E+03  0.50504452783E+03  0.50553570115E+03  0.79055163939E+03  0.10100000352E+00 0.  1.
       -3    1    3    3    0  502  0.33813542273E+03 -0.50504452783E+03 -0.13939913229E+04  0.15207292191E+04  0.10100000352E+00 0. -1.
</event>
<event>
 5   0  0.6676612E-05  0.2298630E+04  0.7818609E-02  0.8478461E-01
        2   -1    0    0  501    0  0.00000000000E+00  0.00000000000E+00  0.16878649922E+04  0.16878649922E+04  0.25500000920E-02 0. -1.
       -2   -1    0    0    0  501  0.00000000000E+00  0.00000000000E+00 -0.78260127121E+03  0.78260127121E+03  0.25500000920E-02 0.  1.
    10030    2    1    2    0    0  0.00000000000E+00  0.00000000000E+00  0.90526372097E+03  0.24704662634E+04  0.22986302778E+04 0.  0.
        2    1    3    3  502    0  0.67529051618E+03  0.20659301498E+03  0.14271855266E+04  0.15923430794E+04  0.25500000920E-02 0. -1.
       -2    1    3    3    0  502 -0.67529051618E+03 -0.20659301498E+03 -0.52192180565E+03  0.87812318401E+03  0.25500000920E-02 0.  1.
</event>
<event>
 5   0  0.2944089E-05  0.2288995E+04  0.7818609E-02  0.8482273E-01
       -1   -1    0    0    0  501  0.00000000000E+00  0.00000000000E+00  0.11580210406E+04  0.11580210406E+04  0.50400001928E-02 0.  1.
        1   -1    0    0  501    0  0.00000000000E+00  0.00000000000E+00 -0.11311319229E+04  0.11311319229E+04  0.50400001928E-02 0. -1.
    10030    2    1    2    0    0  0.00000000000E+00  0.00000000000E+00  0.26889117744E+02  0.22891529635E+04  0.22889950340E+04 0.  0.
        5    1    3    3  502    0 -0.12061515226E+03 -0.20515975051E+03 -0.11061030621E+04  0.11314259198E+04  0.46999998093E+01 0. -1.
       -5    1    3    3    0  502  0.12061515226E+03  0.20515975051E+03  0.11329921798E+04  0.11577270437E+04  0.46999998093E+01 0.  1.
</event>
<event>
 5   0  0.3006265E-05  0.2291924E+04  0.7818609E-02  0.8481112E-01
       -1   -1    0    0    0  501  0.00000000000E+00  0.00000000000E+00  0.13541989973E+04  0.13541989974E+04  0.50400001928E-02 0.  1.
        1   -1    0    0  501    0  0.00000000000E+00  0.00000000000E+00 -0.96974614470E+03  0.96974614471E+03  0.50400001928E-02 0. -1.
    10030    2    1    2    0    0  0.00000000000E+00  0.00000000000E+00  0.38445285264E+03  0.23239451421E+04  0.22919243067E+04 0.  0.
        2    1    3    3  502    0 -0.67417287314E+03 -0.34511858572E+03  0.10642494952E+04  0.13062323258E+04  0.25500000920E-02 0.  1.
       -2    1    3    3    0  502  0.67417287314E+03  0.34511858572E+03 -0.67979664253E+03  0.10177128162E+04  0.25500000920E-02 0. -1.
</event>
<event>
 5   0  0.3118614E-05  0.2268571E+04  0.7818609E-02  0.8490417E-01
       -1   -1    0    0    0  501  0.00000000000E+00  0.00000000000E+00  0.95757442582E+03  0.95757442583E+03  0.50400001928E-02 0. -1.
        1   -1    0    0  501    0  0.00000000000E+00  0.00000000000E+00 -0.13436066952E+04  0.13436066952E+04  0.50400001928E-02 0.  1.
    10030    2    1    2    0    0  0.00000000000E+00  0.00000000000E+00 -0.38603226939E+03  0.23011811210E+04  0.22685708362E+04 0.  0.
        3    1    3    3  502    0  0.10279872677E+03  0.34427988979E+02  0.95230715755E+03  0.95845803099E+03  0.10100000352E+00 0. -1.
       -3    1    3    3    0  502 -0.10279872677E+03 -0.34427988979E+02 -0.13383394269E+04  0.13427230901E+04  0.10100000352E+00 0.  1.
</event>
<event>
 5   0  0.6814789E-05  0.2295027E+04  0.7818609E-02  0.8479884E-01
       -2   -1    0    0    0  501  0.00000000000E+00  0.00000000000E+00  0.10988510743E+04  0.10988510743E+04  0.25500000920E-02 0.  1.
        2   -1    0    0  501    0  0.00000000000E+00  0.00000000000E+00 -0.11983309294E+04  0.11983309294E+04  0.25500000920E-02 0. -1.
    10030    2    1    2    0    0  0.00000000000E+00  0.00000000000E+00 -0.99479855021E+02  0.22971820037E+04  0.22950269969E+04 0.  0.
        1    1    3    3  502    0  0.45013852386E+03  0.56904785532E+03  0.84010951439E+03  0.11100559213E+04  0.50400001928E-02 0.  1.
       -1    1    3    3    0  502 -0.45013852386E+03 -0.56904785532E+03 -0.93958936941E+03  0.11871260824E+04  0.50400001928E-02 0. -1.
</event>
<event>
 5   0  0.6676612E-05  0.2333092E+04  0.7818609E-02  0.8464986E-01
        2   -1    0    0  501    0  0.00000000000E+00  0.00000000000E+00  0.15417896891E+04  0.15417896891E+04  0.25500000920E-02 0.  1.
       -2   -1    0    0    0  501  0.00000000000E+00  0.00000000000E+00 -0.88263002902E+03  0.88263002903E+03  0.25500000920E-02 0. -1.
    10030    2    1    2    0    0  0.00000000000E+00  0.00000000000E+00  0.65915966004E+03  0.24244197181E+04  0.23330922639E+04 0.  0.
        2    1    3    3  502    0  0.83903237039E+03  0.85717518579E+02 -0.50788742302E+03  0.98451635132E+03  0.25500000920E-02 0. -1.
       -2    1    3    3    0  502 -0.83903237039E+03 -0.85717518579E+02  0.11670470831E+04  0.14399033668E+04  0.25500000920E-02 0.  1.
</event>
<event>
 5   0  0.3118614E-05  0.2324292E+04  0.7818609E-02  0.8468404E-01
        1   -1    0    0  501    0  0.00000000000E+00  0.00000000000E+00  0.12212086977E+04  0.12212086978E+04  0.50400001928E-02 0.  1.
       -1   -1    0    0    0  501  0.00000000000E+00  0.00000000000E+00 -0.11059396366E+04  0.11059396367E+04  0.50400001928E-02 0. -1.
    10030    2    1    2    0    0  0.00000000000E+00  0.00000000000E+00  0.11526906111E+03  0.23271483344E+04  0.23242918091E+04 0.  0.
        3    1    3    3  502    0  0.39947106467E+03 -0.92882497869E+03 -0.51603571044E+03  0.11351589480E+04  0.10100000352E+00 0. -1.
       -3    1    3    3    0  502 -0.39947106467E+03  0.92882497869E+03  0.63130477154E+03  0.11919893864E+04  0.10100000352E+00 0.  1.
</event>
<event>
 5   0  0.6814789E-05  0.2281006E+04  0.7818609E-02  0.8485448E-01
        2   -1    0    0  501    0  0.00000000000E+00  0.00000000000E+00  0.17879311717E+04  0.17879311717E+04  0.25500000920E-02 0.  1.
       -2   -1    0    0    0  501  0.00000000000E+00  0.00000000000E+00 -0.72751526207E+03  0.72751526208E+03  0.25500000920E-02 0. -1.
    10030    2    1    2    0    0  0.00000000000E+00  0.00000000000E+00  0.10604159096E+04  0.25154464337E+04  0.22810061069E+04 0.  0.
        1    1    3    3  502    0 -0.35539616646E+03 -0.10785286588E+04  0.64700218995E+03  0.13069591948E+04  0.50400001928E-02 0. -1.
       -1    1    3    3    0  502  0.35539616646E+03  0.10785286588E+04  0.41341371964E+03  0.12084872389E+04  0.50400001928E-02 0.  1.
</event>
<event>
 5   0  0.2962279E-05  0.2310339E+04  0.7818609E-02  0.8473856E-01
        1   -1    0    0  501    0  0.00000000000E+00  0.00000000000E+00  0.14971727169E+04  0.14971727169E+04  0.50400001928E-02 0. -1.
       -1   -1    0    0    0  501  0.00000000000E+00  0.00000000000E+00 -0.89129101521E+03  0.89129101523E+03  0.50400001928E-02 0.  1.
    10030    2    1    2    0    0  0.00000000000E+00  0.00000000000E+00  0.60588170168E+03  0.23884637321E+04  0.23103390148E+04 0.  0.
        1    1    3    3  502    0 -0.90749196956E+03 -0.15463087525E+03 -0.41848460070E+03  0.10112278395E+04  0.50400001928E-02 0.  1.
       -1    1    3    3    0  502  0.90749196956E+03  0.15463087525E+03  0.10243663024E+04  0.13772358926E+04  0.50400001928E-02 0. -1.
</event>
<event>
 5   0  0.3118614E-05  0.2316493E+04  0.7818609E-02  0.8471447E-01
       -1   -1    0    0    0  501  0.00000000000E+00  0.00000000000E+00  0.10179824394E+04  0.10179824394E+04  0.50400001928E-02 0.  1.
        1   -1    0    0  501    0  0.00000000000E+00  0.00000000000E+00 -0.13178365922E+04  0.13178365923E+04  0.50400001928E-02 0. -1.
    10030    2    1    2    0    0  0.00000000000E+00  0.00000000000E+00 -0.29985415289E+03  0.23358190316E+04  0.23164926150E+04 0.  0.
        3    1    3    3  502    0  0.55697018584E+02  0.71633980068E+03 -0.10659608094E+04  0.12855027520E+04  0.10100000352E+00 0. -1.
       -3    1    3    3    0  502 -0.55697018584E+02 -0.71633980068E+03  0.76610665653E+03  0.10503162797E+04  0.10100000352E+00 0.  1.
</event>
<event>
 5   0  0.6702421E-05  0.2441010E+04  0.7818609E-02  0.8424308E-01
        2   -1    0    0  501    0  0.00000000000E+00  0.00000000000E+00  0.12956868832E+04  0.12956868832E+04  0.25500000920E-02 0.  1.
       -2   -1    0    0    0  501  0.00000000000E+00  0.00000000000E+00 -0.11496859500E+04  0.11496859500E+04  0.25500000920E-02 0. -1.
    10030    2    1    2    0    0  0.00000000000E+00  0.00000000000E+00  0.14600093325E+03  0.24453728332E+04  0.24410104508E+04 0.  0.
        4    1    3    3  502    0  0.68408686644E+02 -0.10397797545E+04 -0.56359540975E+03  0.11846784733E+04  0.12699999809E+01 0. -1.
       -4    1    3    3    0  502 -0.68408686644E+02  0.10397797545E+04  0.70959634300E+03  0.12606943599E+04  0.12699999809E+01 0.  1.
</event>
<event>
 5   0  0.6495405E-05  0.2285240E+04  0.7818609E-02  0.8483764E-01
        2   -1    0    0  501    0  0.00000000000E+00  0.00000000000E+00  0.11941503063E+04  0.11941503063E+04  0.25500000920E-02 0. -1.
       -2   -1    0    0    0  501  0.00000000000E+00  0.00000000000E+00 -0.10933134654E+04  0.10933134654E+04  0.25500000920E-02 0.  1.
    10030    2    1    2    0    0  0.00000000000E+00  0.00000000000E+00  0.10083684091E+03  0.22874637717E+04  0.22852401271E+04 0.  0.
        5    1    3    3  502    0 -0.33100675962E+03 -0.93006496910E+03  0.62628004786E+03  0.11691172354E+04  0.46999998093E+01 0. -1.
       -5    1    3    3    0  502  0.33100675962E+03  0.93006496910E+03 -0.52544320695E+03  0.11183465364E+04  0.46999998093E+01 0.  1.
</event>
<event>
 5   0  0.6814789E-05  0.2342573E+04  0.7818609E-02  0.8461322E-01
        2   -1    0    0  501    0  0.00000000000E+00  0.00000000000E+00  0.16951902279E+04  0.16951902279E+04  0.25500000920E-02 0.  1.
       -2   -1    0    0    0  501  0.00000000000E+00  0.00000000000E+00 -0.80929667774E+03  0.80929667775E+03  0.25500000920E-02 0. -1.
    10030    2    1    2    0    0  0.00000000000E+00  0.00000000000E+00  0.88589355017E+03  0.25044869057E+04  0.23425727904E+04 0.  0.
        1    1    3    3  502    0 -0.87055612315E+03  0.22228502974E+03  0.12463043342E+04  0.15364091550E+04  0.50400001928E-02 0. -1.
       -1    1    3    3    0  502  0.87055612315E+03 -0.22228502974E+03 -0.36041078408E+03  0.96807775065E+03  0.50400001928E-02 0.  1.
</event>
<event>
 5   0  0.6495405E-05  0.2289211E+04  0.7818609E-02  0.8482187E-01
        2   -1    0    0  501    0  0.00000000000E+00  0.00000000000E+00  0.21346530444E+04  0.21346530444E+04  0.25500000920E-02 0.  1.
       -2   -1    0    0    0  501  0.00000000000E+00  0.00000000000E+00 -0.61373968464E+03  0.61373968465E+03  0.25500000920E-02 0. -1.
    10030    2    1    2    0    0  0.00000000000E+00  0.00000000000E+00  0.15209133597E+04  0.27483927290E+04  0.22892105943E+04 0.  0.
        5    1    3    3  502    0 -0.11364048883E+04  0.48307005026E+02  0.60694335811E+03  0.12892447273E+04  0.46999998093E+01 0. -1.
       -5    1    3    3    0  502  0.11364048883E+04 -0.48307005026E+02  0.91397000163E+03  0.14591480017E+04  0.46999998093E+01 0.  1.
</event>
<event>
 5   0  0.6702421E-05  0.2287091E+04  0.7818609E-02  0.8483029E-01
       -2   -1    0    0    0  501  0.00000000000E+00  0.00000000000E+00  0.50467890227E+03  0.50467890228E+03  0.25500000920E-02 0.  1.
        2   -1    0    0  501    0  0.00000000000E+00  0.00000000000E+00 -0.25911443638E+04  0.25911443638E+04  0.25500000920E-02 0. -1.
    10030    2    1    2    0    0  0.00000000000E+00  0.00000000000E+00 -0.20864654615E+04  0.30958232661E+04  0.22870906350E+04 0.  0.
        4    1    3    3  502    0 -0.10633979271E+04  0.41622091370E+03 -0.96157439604E+03  0.14928770654E+04  0.12699999809E+01 0.  1.
       -4    1    3    3    0  502  0.10633979271E+04 -0.41622091370E+03 -0.11248910655E+04  0.16029462007E+04  0.12699999809E+01 0. -1.
</event>
<event>
 5   0  0.3118614E-05  0.2384999E+04  0.7818609E-02  0.8445141E-01
       -1   -1    0    0    0  501  0.00000000000E+00  0.00000000000E+00  0.11323293038E+04  0.11323293038E+04  0.50400001928E-02 0.  1.
        1   -1    0    0  501    0  0.00000000000E+00  0.00000000000E+00 -0.12558675193E+04  0.12558675193E+04  0.50400001928E-02 0. -1.
    10030    2    1    2    0    0  0.00000000000E+00  0.00000000000E+00 -0.12353821547E+03  0.23881968232E+04  0.23849994498E+04 0.  0.
        3    1    3    3  502    0 -0.17527081799E+03 -0.18711047908E+03 -0.12279442485E+04  0.12544230860E+04  0.10100000352E+00 0. -1.
       -3    1    3    3    0  502  0.17527081799E+03  0.18711047908E+03  0.11044060331E+04  0.11337737372E+04  0.10100000352E+00 0.  1.
</event>
<event>
 5   0  0.3118614E-05  0.2304500E+04  0.7818609E-02  0.8476149E-01
        1   -1    0    0  501    0  0.00000000000E+00  0.00000000000E+00  0.10249549422E+04  0.10249549422E+04  0.50400001928E-02 0.  1.
       -1   -1    0    0    0  501  0.00000000000E+00  0.00000000000E+00 -0.12953543385E+04  0.12953543385E+04  0.50400001928E-02 0. -1.
    10030    2    1    2    0    0  0.00000000000E+00  0.00000000000E+00 -0.27039939634E+03  0.23203092807E+04  0.23044997992E+04 0.  0.
        3    1    3    3  502    0 -0.27409766852E+03 -0.77076071761E+03 -0.95223327554E+03  0.12553684069E+04  0.10100000352E+00 0. -1.
       -3    1    3    3    0  502  0.27409766852E+03  0.77076071761E+03  0.68183387920E+03  0.10649408738E+04  0.10100000352E+00 0.  1.
</event>
<event>
 5   0  0.6468758E-05  0.2293570E+04  0.7818609E-02  0.8480461E-01
        2   -1    0    0  501    0  0.00000000000E+00  0.00000000000E+00  0.12945265800E+04  0.12945265800E+04  0.25500000920E-02 0.  1.
       -2   -1    0    0    0  501  0.00000000000E+00  0.00000000000E+00 -0.10159044438E+04  0.10159044438E+04  0.25500000920E-02 0. -1.
    10030    2    1    2    0    0  0.00000000000E+00  0.00000000000E+00  0.27862213615E+03  0.23104310238E+04  0.22935695370E+04 0.  0.
        3    1    3    3  502    0  0.45024352595E+03 -0.45408624171E+03 -0.81963358836E+03  0.10395733629E+04  0.10100000352E+00 0. -1.
       -3    1    3    3    0  502 -0.45024352595E+03  0.45408624171E+03  0.10982557245E+04  0.12708576609E+04  0.10100000352E+00 0.  1.
</event>
<event>
 5   0  0.6702421E-05  0.2300087E+04  0.7818609E-02  0.8477887E-01
       -2   -1    0    0    0  501  0.00000000000E+00  0.00000000000E+00  0.10488902476E+04  0.10488902476E+04  0.25500000920E-02 0. -1.
        2   -1    0    0  501    0  0.00000000000E+00  0.00000000000E+00 -0.12609513359E+04  0.12609513359E+04  0.25500000920E-02 0.  1.
    10030    2    1    2    0    0  0.00000000000E+00  0.00000000000E+00 -0.21206108826E+03  0.23098415835E+04  0.23000865713E+04 0.  0.
        4    1    3    3  502    0 -0.89681689165E+03 -0.57282413801E+03 -0.54398783055E+03  0.11951286135E+04  0.12699999809E+01 0.  1.
       -4    1    3    3    0  502  0.89681689165E+03  0.57282413801E+03  0.33192674229E+03  0.11147129700E+04  0.12699999809E+01 0. -1.
</event>
<event>
 5   0  0.3006265E-05  0.2298386E+04  0.7818609E-02  0.8478558E-01
        1   -1    0    0  501    0  0.00000000000E+00  0.00000000000E+00  0.17116281806E+04  0.17116281806E+04  0.50400001928E-02 0. -1.
       -1   -1    0    0    0  501  0.00000000000E+00  0.00000000000E+00 -0.77157228953E+03  0.77157228955E+03  0.50400001928E-02 0.  1.
    10030    2    1    2    0    0  0.00000000000E+00  0.00000000000E+00  0.94005589106E+03  0.24832004702E+04  0.22983862810E+04 0.  0.
        2    1    3    3  502    0 -0.26946387583E+03 -0.23888053260E+02  0.16767372929E+04  0.16984196681E+04  0.25500000920E-02 0. -1.
       -2    1    3    3    0  502  0.26946387583E+03  0.23888053260E+02 -0.73668140185E+03  0.78478080208E+03  0.25500000920E-02 0.  1.
</event>
<event>
 5   0  0.2962279E-05  0.2302354E+04  0.7818609E-02  0.8476993E-01
       -1   -1    0    0    0  501  0.00000000000E+00  0.00000000000E+00  0.15049400138E+04  0.15049400138E+04  0.50400001928E-02 0. -1.
        1   -1    0    0  501    0  0.00000000000E+00  0.00000000000E+00 -0.88057240030E+03  0.88057240032E+03  0.50400001928E-02 0.  1.
    10030    2    1    2    0    0  0.00000000000E+00  0.00000000000E+00  0.62436761348E+03  0.23855124141E+04  0.23023541346E+04 0.  0.
        1    1    3    3  502    0  0.55638892955E+03  0.94093488569E+03  0.68616606351E+03  0.12906397510E+04  0.50400001928E-02 0.  1.
       -1    1    3    3    0  502 -0.55638892955E+03 -0.94093488569E+03 -0.61798450039E+02  0.10948726631E+04  0.50400001928E-02 0. -1.
</event>
<event>
 5   0  0.3006265E-05  0.2217992E+04  0.7818609E-02  0.8510977E-01
        1   -1    0    0  501    0  0.00000000000E+00  0.00000000000E+00  0.21614491334E+04  0.21614491334E+04  0.50400001928E-02 0. -1.
       -1   -1    0    0    0  501  0.00000000000E+00  0.00000000000E+00 -0.56900348510E+03  0.56900348512E+03  0.50400001928E-02 0.  1.
    10030    2    1    2    0    0  0.00000000000E+00  0.00000000000E+00  0.15924456483E+04  0.27304526185E+04  0.22179919655E+04 0.  0.
        2    1    3    3  502    0 -0.32213661235E+03 -0.87688104524E+03  0.15319521640E+04  0.17943159692E+04  0.25500000920E-02 0. -1.
       -2    1    3    3    0  502  0.32213661235E+03  0.87688104524E+03  0.60493484285E+02  0.93613664930E+03  0.25500000920E-02 0.  1.
</event>
<event>
 5   0  0.6702421E-05  0.2310627E+04  0.7818609E-02  0.8473743E-01
       -2   -1    0    0    0  501  0.00000000000E+00  0.00000000000E+00  0.12489973573E+04  0.12489973573E+04  0.25500000920E-02 0.  1.
        2   -1    0    0  501    0  0.00000000000E+00  0.00000000000E+00 -0.10686569648E+04  0.10686569648E+04  0.25500000920E-02 0. -1.
    10030    2    1    2    0    0  0.00000000000E+00  0.00000000000E+00  0.18034039246E+03  0.23176543221E+04  0.23106273823E+04 0.  0.
        4    1    3    3  502    0 -0.30075178146E+03 -0.93450194563E+03 -0.52078198188E+03  0.11112879942E+04  0.12699999809E+01 0. -1.
       -4    1    3    3    0  502  0.30075178146E+03  0.93450194563E+03  0.70112237435E+03  0.12063663279E+04  0.12699999809E+01 0.  1.
</event>
<event>
 5   0  0.6702421E-05  0.2414710E+04  0.7818609E-02  0.8434017E-01
        2   -1    0    0  501    0  0.00000000000E+00  0.00000000000E+00  0.12655705835E+04  0.12655705835E+04  0.25500000920E-02 0.  1.
       -2   -1    0    0    0  501  0.00000000000E+00  0.00000000000E+00 -0.11518169276E+04  0.11518169276E+04  0.25500000920E-02 0. -1.
    10030    2    1    2    0    0  0.00000000000E+00  0.00000000000E+00  0.11375365595E+03  0.24173875111E+04  0.24147096067E+04 0.  0.
        4    1    3    3  502    0  0.48277953899E+03 -0.76791727914E+03 -0.74083241148E+03  0.11711563968E+04  0.12699999809E+01 0. -1.
       -4    1    3    3    0  502 -0.48277953899E+03  0.76791727914E+03  0.85458606743E+03  0.12462311144E+04  0.12699999809E+01 0.  1.
</event>
<event>
 5   0  0.6495405E-05  0.2286788E+04  0.7818609E-02  0.8483149E-01
        2   -1    0    0  501    0  0.00000000000E+00  0.00000000000E+00  0.15898357112E+04  0.15898357112E+04  0.25500000920E-02 0.  1.
       -2   -1    0    0    0  501  0.00000000000E+00  0.00000000000E+00 -0.82231748302E+03  0.82231748303E+03  0.25500000920E-02 0. -1.
    10030    2    1    2    0    0  0.00000000000E+00  0.00000000000E+00  0.76751822818E+03  0.24121531942E+04  0.22867878786E+04 0.  0.
        5    1    3    3  502    0  0.64480701461E+03  0.55351952564E+03 -0.42313985832E+03  0.94933101765E+03  0.46999998093E+01 0. -1.
       -5    1    3    3    0  502 -0.64480701461E+03 -0.55351952564E+03  0.11906580865E+04  0.14628221766E+04  0.46999998093E+01 0.  1.
</event>
<event>
 5   0  0.3118614E-05  0.2332253E+04  0.7818609E-02  0.8465312E-01
       -1   -1    0    0    0  501  0.00000000000E+00  0.00000000000E+00  0.86996041519E+03  0.86996041521E+03  0.50400001928E-02 0.  1.
        1   -1    0    0  501    0  0.00000000000E+00  0.00000000000E+00 -0.15631187963E+04  0.15631187963E+04  0.50400001928E-02 0. -1.
    10030    2    1    2    0    0  0.00000000000E+00  0.00000000000E+00 -0.69315838107E+03  0.24330792115E+04  0.23322533971E+04 0.  0.
        3    1    3    3  502    0 -0.45220619616E+03  0.63213468814E+03  0.56035214376E+03  0.95816451772E+03  0.10100000352E+00 0.  1.
       -3    1    3    3    0  502  0.45220619616E+03 -0.63213468814E+03 -0.12535105248E+04  0.14749146938E+04  0.10100000352E+00 0. -1.
</event>
<event>
 5   0  0.3006265E-05  0.2315910E+04  0.7818609E-02  0.8471674E-01
        1   -1    0    0  501    0  0.00000000000E+00  0.00000000000E+00  0.10474538865E+04  0.10474538866E+04  0.50400001928E-02 0.  1.
       -1   -1    0    0    0  501  0.00000000000E+00  0.00000000000E+00 -0.12801139472E+04  0.12801139472E+04  0.50400001928E-02 0. -1.
    10030    2    1    2    0    0  0.00000000000E+00  0.00000000000E+00 -0.23266006066E+03  0.23275678338E+04  0.23159104726E+04 0.  0.
        2    1    3    3  502    0 -0.30884308045E+03 -0.58954080723E+03  0.83602504155E+03  0.10685879851E+04  0.25500000920E-02 0.  1.
       -2    1    3    3    0  502  0.30884308045E+03  0.58954080723E+03 -0.10686851022E+04  0.12589798487E+04  0.25500000920E-02 0. -1.
</event>
<event>
 5   0  0.6814789E-05  0.2291492E+04  0.7818609E-02  0.8481283E-01
       -2   -1    0    0    0  501  0.00000000000E+00  0.00000000000E+00  0.10267827556E+04  0.10267827556E+04  0.25500000920E-02 0. -1.
        2   -1    0    0  501    0  0.00000000000E+00  0.00000000000E+00 -0.12784925107E+04  0.12784925107E+04  0.25500000920E-02 0.  1.
    10030    2    1    2    0    0  0.00000000000E+00  0.00000000000E+00 -0.25170975514E+03  0.23052752663E+04  0.22914921454E+04 0.  0.
        1    1    3    3  502    0 -0.34791040743E+03  0.71827175593E+03 -0.95285671260E+03  0.12429367972E+04  0.50400001928E-02 0.  1.
       -1    1    3    3    0  502  0.34791040743E+03 -0.71827175593E+03  0.70114695746E+03  0.10623384691E+04  0.50400001928E-02 0. -1.
</event>
<event>
 5   0  0.2982385E-05  0.2306724E+04  0.7818609E-02  0.8475275E-01
        1   -1    0    0  501    0  0.00000000000E+00  0.00000000000E+00  0.17060195554E+04  0.17060195554E+04  0.50400001928E-02 0. -1.
       -1   -1    0    0    0  501  0.00000000000E+00  0.00000000000E+00 -0.77973519962E+03  0.77973519963E+03  0.50400001928E-02 0.  1.
    10030    2    1    2    0    0  0.00000000000E+00  0.00000000000E+00  0.92628435576E+03  0.24857547550E+04  0.23067236493E+04 0.  0.
        4    1    3    3  502    0  0.99503540429E+03 -0.38261081410E+03 -0.11197672737E+02  0.10661207678E+04  0.12699999809E+01 0.  1.
       -4    1    3    3    0  502 -0.99503540429E+03  0.38261081410E+03  0.93748202850E+03  0.14196339872E+04  0.12699999809E+01 0. -1.
</event>
<event>
 5   0  0.6702421E-05  0.2245728E+04  0.7818609E-02  0.8499633E-01
       -2   -1    0    0    0  501  0.00000000000E+00  0.00000000000E+00  0.10898154622E+04  0.10898154622E+04  0.25500000920E-02 0. -1.
        2   -1    0    0  501    0  0.00000000000E+00  0.00000000000E+00 -0.11569145810E+04  0.11569145810E+04  0.25500000920E-02 0.  1.
    10030    2    1    2    0    0  0.00000000000E+00  0.00000000000E+00 -0.67099118800E+02  0.22467300433E+04  0.22457278543E+04 0.  0.
        4    1    3    3  502    0  0.38909687991E+03 -0.88288195000E+03 -0.60821417252E+03  0.11405275149E+04  0.12699999809E+01 0.  1.
       -4    1    3    3    0  502 -0.38909687991E+03  0.88288195000E+03  0.54111505372E+03  0.11062025284E+04  0.12699999809E+01 0. -1.
</event>
<event>
 5   0  0.2342500E-05  0.2274935E+04  0.7818609E-02  0.8487870E-01
       -3   -1    0    0    0  501  0.00000000000E+00  0.00000000000E+00  0.10786728090E+04  0.10786728137E+04  0.10100000352E+00 0. -1.
        3   -1    0    0  501    0  0.00000000000E+00  0.00000000000E+00 -0.11994669857E+04  0.11994669900E+04  0.10100000352E+00 0.  1.
    10030    2    1    2    0    0  0.00000000000E+00  0.00000000000E+00 -0.12079417670E+03  0.22781398037E+04  0.22749351050E+04 0.  0.
        5    1    3    3  502    0 -0.54353919081E+03 -0.99859943868E+03 -0.26075609365E+02  0.11372500685E+04  0.46999998093E+01 0. -1.
       -5    1    3    3    0  502  0.54353919081E+03  0.99859943868E+03 -0.94718567332E+02  0.11408897352E+04  0.46999998093E+01 0.  1.
</event>
<event>
 5   0  0.6676612E-05  0.2266380E+04  0.7818609E-02  0.8491296E-01
       -2   -1    0    0    0  501  0.00000000000E+00  0.00000000000E+00  0.49365600791E+03  0.49365600792E+03  0.25500000920E-02 0.  1.
        2   -1    0    0  501    0  0.00000000000E+00  0.00000000000E+00 -0.26012434397E+04  0.26012434397E+04  0.25500000920E-02 0. -1.
    10030    2    1    2    0    0  0.00000000000E+00  0.00000000000E+00 -0.21075874318E+04  0.30948994476E+04  0.22663798905E+04 0.  0.
        2    1    3    3  502    0  0.97616964633E+03  0.19276850235E+03 -0.17942958784E+04  0.20517223431E+04  0.25500000920E-02 0. -1.
       -2    1    3    3    0  502 -0.97616964633E+03 -0.19276850235E+03 -0.31329155333E+03  0.10431771045E+04  0.25500000920E-02 0.  1.
</event>
<event>
 5   0  0.2982385E-05  0.2205940E+04  0.7818609E-02  0.8515960E-01
        1   -1    0    0  501    0  0.00000000000E+00  0.00000000000E+00  0.95477841631E+03  0.95477841632E+03  0.50400001928E-02 0.  1.
       -1   -1    0    0    0  501  0.00000000000E+00  0.00000000000E+00 -0.12741628052E+04  0.12741628053E+04  0.50400001928E-02 0. -1.
    10030    2    1    2    0    0  0.00000000000E+00  0.00000000000E+00 -0.31938438893E+03  0.22289412216E+04  0.22059402941E+04 0.  0.
        4    1    3    3  502    0  0.58190672484E+03  0.50837409618E+03  0.63558616375E+03  0.10005153885E+04  0.12699999809E+01 0.  1.
       -4    1    3    3    0  502 -0.58190672484E+03 -0.50837409618E+03 -0.95497055268E+03  0.12284258331E+04  0.12699999809E+01 0. -1.
</event>
<event>
 5   0  0.6702421E-05  0.2243530E+04  0.7818609E-02  0.8500525E-01
        2   -1    0    0  501    0  0.00000000000E+00  0.00000000000E+00  0.23542492889E+04  0.23542492889E+04  0.25500000920E-02 0. -1.
       -2   -1    0    0    0  501  0.00000000000E+00  0.00000000000E+00 -0.53450465202E+03  0.53450465203E+03  0.25500000920E-02 0.  1.
    10030    2    1    2    0    0  0.00000000000E+00  0.00000000000E+00  0.18197446368E+04  0.28887539409E+04  0.22435304294E+04 0.  0.
        4    1    3    3  502    0 -0.40485662172E+03 -0.62958542663E+03  0.19856628774E+04  0.21220615847E+04  0.12699999809E+01 0. -1.
       -4    1    3    3    0  502  0.40485662172E+03  0.62958542663E+03 -0.16591824059E+03  0.76669235619E+03  0.12699999809E+01 0.  1.
</event>
<event>
 5   0  0.3118614E-05  0.2294011E+04  0.7818609E-02  0.8480286E-01
       -1   -1    0    0    0  501  0.00000000000E+00  0.00000000000E+00  0.97662295391E+03  0.97662295392E+03  0.50400001928E-02 0. -1.
        1   -1    0    0  501    0  0.00000000000E+00  0.00000000000E+00 -0.13471126851E+04  0.13471126851E+04  0.50400001928E-02 0.  1.
    10030    2    1    2    0    0  0.00000000000E+00  0.00000000000E+00 -0.37048973120E+03  0.23237356390E+04  0.22940106101E+04 0.  0.
        3    1    3    3  502    0  0.34844222062E+03  0.10283486808E+04  0.18928678995E+03  0.11021535689E+04  0.10100000352E+00 0. -1.
       -3    1    3    3    0  502 -0.34844222062E+03 -0.10283486808E+04 -0.55977652115E+03  0.12215820702E+04  0.10100000352E+00 0.  1.
</event>
<event>
 5   0  0.6495405E-05  0.2305374E+04  0.7818609E-02  0.8475805E-01
        2   -1    0    0  501    0  0.00000000000E+00  0.00000000000E+00  0.13549273192E+04  0.13549273192E+04  0.25500000920E-02 0. -1.
       -2   -1    0    0    0  501  0.00000000000E+00  0.00000000000E+00 -0.98063336340E+03  0.98063336341E+03  0.25500000920E-02 0.  1.
    10030    2    1    2    0    0  0.00000000000E+00  0.00000000000E+00  0.37429395580E+03  0.23355606826E+04  0.23053736653E+04 0.  0.
        5    1    3    3  502    0  0.58953955668E+02 -0.41615713945E+03  0.12745149591E+04  0.13420405376E+04  0.46999998093E+01 0. -1.
       -5    1    3    3    0  502 -0.58953955668E+02  0.41615713945E+03 -0.90022100334E+03  0.99352014497E+03  0.46999998093E+01 0.  1.
</event>
<event>
 5   0  0.6495405E-05  0.2297830E+04  0.7818609E-02  0.8478777E-01
       -2   -1    0    0    0  501  0.00000000000E+00  0.00000000000E+00  0.48123938541E+03  0.48123938541E+03  0.25500000920E-02 0. -1.
        2   -1    0    0  501    0  0.00000000000E+00  0.00000000000E+00 -0.27429296910E+04  0.27429296910E+04  0.25500000920E-02 0.  1.
    10030    2    1    2    0    0  0.00000000000E+00  0.00000000000E+00 -0.22616903056E+04  0.32241690764E+04  0.22978301058E+04 0.  0.
        5    1    3    3  502    0 -0.25183263157E+03 -0.10794261027E+04 -0.15550551374E+04  0.19096593822E+04  0.46999998093E+01 0.  1.
       -5    1    3    3    0  502  0.25183263157E+03  0.10794261027E+04 -0.70663516817E+03  0.13145096943E+04  0.46999998093E+01 0. -1.
</event>
<event>
 5   0  0.6814789E-05  0.2306470E+04  0.7818609E-02  0.8475375E-01
       -2   -1    0    0    0  501  0.00000000000E+00  0.00000000000E+00  0.55129352521E+03  0.55129352521E+03  0.25500000920E-02 0. -1.
        2   -1    0    0  501    0  0.00000000000E+00  0.00000000000E+00 -0.24124185314E+04  0.24124185314E+04  0.25500000920E-02 0.  1.
    10030    2    1    2    0    0  0.00000000000E+00  0.00000000000E+00 -0.18611250062E+04  0.29637120566E+04  0.23064697843E+04 0.  0.
        1    1    3    3  502    0  0.11212129982E+04 -0.26963874027E+03 -0.91607728888E+03  0.14727597349E+04  0.50400001928E-02 0. -1.
       -1    1    3    3    0  502 -0.11212129982E+04  0.26963874027E+03 -0.94504771734E+03  0.14909523217E+04  0.50400001928E-02 0.  1.
</event>
<event>
 5   0  0.3006265E-05  0.2284263E+04  0.7818609E-02  0.8484152E-01
        1   -1    0    0  501    0  0.00000000000E+00  0.00000000000E+00  0.12760991894E+04  0.12760991894E+04  0.50400001928E-02 0. -1.
       -1   -1    0    0    0  501  0.00000000000E+00  0.00000000000E+00 -0.10222278264E+04  0.10222278264E+04  0.50400001928E-02 0.  1.
    10030    2    1    2    0    0  0.00000000000E+00  0.00000000000E+00  0.25387136301E+03  0.22983270159E+04  0.22842627701E+04 0.  0.
        2    1    3    3  502    0  0.17013552545E+02 -0.11826585073E+03  0.12697935711E+04  0.12754026759E+04  0.25500000920E-02 0. -1.
       -2    1    3    3    0  502 -0.17013552545E+02  0.11826585073E+03 -0.10159222081E+04  0.10229243400E+04  0.25500000920E-02 0.  1.
</event>
<event>
 5   0  0.3118614E-05  0.2306162E+04  0.7818609E-02  0.8475496E-01
        1   -1    0    0  501    0  0.00000000000E+00  0.00000000000E+00  0.13198086626E+04  0.13198086627E+04  0.50400001928E-02 0. -1.
       -1   -1    0    0    0  501  0.00000000000E+00  0.00000000000E+00 -0.10074153526E+04  0.10074153526E+04  0.50400001928E-02 0.  1.
    10030    2    1    2    0    0  0.00000000000E+00  0.00000000000E+00  0.31239331003E+03  0.23272240153E+04  0.23061617543E+04 0.  0.
        3    1    3    3  502    0 -0.56088258191E+02  0.15446123390E+03 -0.99553821720E+03  0.10090096717E+04  0.10100000352E+00 0.  1.
       -3    1    3    3    0  502  0.56088258191E+02 -0.15446123390E+03  0.13079315272E+04  0.13182143436E+04  0.10100000352E+00 0. -1.
</event>
<event>
 5   0  0.3118614E-05  0.2296458E+04  0.7818609E-02  0.8479319E-01
       -1   -1    0    0    0  501  0.00000000000E+00  0.00000000000E+00  0.12368725441E+04  0.12368725441E+04  0.50400001928E-02 0. -1.
        1   -1    0    0  501    0  0.00000000000E+00  0.00000000000E+00 -0.10659381457E+04  0.10659381457E+04  0.50400001928E-02 0.  1.
    10030    2    1    2    0    0  0.00000000000E+00  0.00000000000E+00  0.17093439841E+03  0.23028106898E+04  0.22964578168E+04 0.  0.
        3    1    3    3  502    0 -0.17849111912E+03  0.73049102067E+03  0.95559654385E+03  0.12159938222E+04  0.10100000352E+00 0. -1.
       -3    1    3    3    0  502  0.17849111912E+03 -0.73049102067E+03 -0.78466214544E+03  0.10868168675E+04  0.10100000352E+00 0.  1.
</event>
<event>
 5   0  0.6702421E-05  0.2331207E+04  0.7818609E-02  0.8465717E-01
        2   -1    0    0  501    0  0.00000000000E+00  0.00000000000E+00  0.16613300257E+04  0.16613300257E+04  0.25500000920E-02 0. -1.
       -2   -1    0    0    0  501  0.00000000000E+00  0.00000000000E+00 -0.81779738234E+03  0.81779738234E+03  0.25500000920E-02 0.  1.
    10030    2    1    2    0    0  0.00000000000E+00  0.00000000000E+00  0.84353264333E+03  0.24791274080E+04  0.23312068516E+04 0.  0.
        4    1    3    3  502    0 -0.63250289975E+03  0.60005409847E+03  0.12444860071E+04  0.15194972438E+04  0.12699999809E+01 0. -1.
       -4    1    3    3    0  502  0.63250289975E+03 -0.60005409847E+03 -0.40095336372E+03  0.95963016421E+03  0.12699999809E+01 0.  1.
</event>
<event>
 5   0  0.2944089E-05  0.2306985E+04  0.7818609E-02  0.8475172E-01
        1   -1    0    0  501    0  0.00000000000E+00  0.00000000000E+00  0.17194000786E+04  0.17194000786E+04  0.50400001928E-02 0. -1.
       -1   -1    0    0    0  501  0.00000000000E+00  0.00000000000E+00 -0.77384237677E+03  0.77384237678E+03  0.50400001928E-02 0.  1.
    10030    2    1    2    0    0  0.00000000000E+00  0.00000000000E+00  0.94555770184E+03  0.24932424554E+04  0.23069847364E+04 0.  0.
        5    1    3    3  502    0 -0.23626240537E+03 -0.47647028868E+03  0.15789793454E+04  0.16661457690E+04  0.46999998093E+01 0. -1.
       -5    1    3    3    0  502  0.23626240537E+03  0.47647028868E+03 -0.63342164356E+03  0.82709668644E+03  0.46999998093E+01 0.  1.
</event>
<event>
 5   0  0.2982385E-05  0.2304813E+04  0.7818609E-02  0.8476026E-01
        1   -1    0    0  501    0  0.00000000000E+00  0.00000000000E+00  0.13848974269E+04  0.13848974269E+04  0.50400001928E-02 0.  1.
       -1   -1    0    0    0  501  0.00000000000E+00  0.00000000000E+00 -0.95894508862E+03  0.95894508863E+03  0.50400001928E-02 0. -1.
    10030    2    1    2    0    0  0.00000000000E+00  0.00000000000E+00  0.42595233830E+03  0.23438425156E+04  0.23048128651E+04 0.  0.
        4    1    3    3  502    0  0.74121724905E+03 -0.59776808723E+03 -0.44709880769E+03  0.10519641881E+04  0.12699999809E+01 0. -1.
       -4    1    3    3    0  502 -0.74121724905E+03  0.59776808723E+03  0.87305114599E+03  0.12918783274E+04  0.12699999809E+01 0.  1.
</event>
<event>
 5   0  0.3006265E-05  0.2291211E+04  0.7818609E-02  0.8481395E-01
        1   -1    0    0  501    0  0.00000000000E+00  0.00000000000E+00  0.17725942700E+04  0.17725942701E+04  0.50400001928E-02 0. -1.
       -1   -1    0    0    0  501  0.00000000000E+00  0.00000000000E+00 -0.74039021785E+03  0.74039021787E+03  0.50400001928E-02 0.  1.
    10030    2    1    2    0    0  0.00000000000E+00  0.00000000000E+00  0.10322040522E+04  0.25129844879E+04  0.22912105602E+04 0.  0.
        2    1    3    3  502    0  0.45500485503E+03 -0.10168304716E+04  0.80925137769E+03  0.13769028355E+04  0.25500000920E-02 0.  1.
       -2    1    3    3    0  502 -0.45500485503E+03  0.10168304716E+04  0.22295267450E+03  0.11360816525E+04  0.25500000920E-02 0. -1.
</event>
<event>
 5   0  0.6468758E-05  0.2234884E+04  0.7818609E-02  0.8504047E-01
        2   -1    0    0  501    0  0.00000000000E+00  0.00000000000E+00  0.75206540317E+03  0.75206540317E+03  0.25500000920E-02 0.  1.
       -2   -1    0    0    0  501  0.00000000000E+00  0.00000000000E+00 -0.16603303527E+04  0.16603303527E+04  0.25500000920E-02 0. -1.
    10030    2    1    2    0    0  0.00000000000E+00  0.00000000000E+00 -0.90826494957E+03  0.24123957559E+04  0.22348843515E+04 0.  0.
        3    1    3    3  502    0 -0.18803336282E+03  0.10254477461E+04 -0.88829506604E+03  0.13696597242E+04  0.10100000352E+00 0. -1.
       -3    1    3    3    0  502  0.18803336282E+03 -0.10254477461E+04 -0.19969883529E+02  0.10427360317E+04  0.10100000352E+00 0.  1.
</event>
<event>
 5   0  0.6702421E-05  0.2277329E+04  0.7818609E-02  0.8486914E-01
       -2   -1    0    0    0  501  0.00000000000E+00  0.00000000000E+00  0.10980218062E+04  0.10980218063E+04  0.25500000920E-02 0.  1.
        2   -1    0    0  501    0  0.00000000000E+00  0.00000000000E+00 -0.11808115860E+04  0.11808115860E+04  0.25500000920E-02 0. -1.
    10030    2    1    2    0    0  0.00000000000E+00  0.00000000000E+00 -0.82789779767E+02  0.22788333923E+04  0.22773290237E+04 0.  0.
        4    1    3    3  502    0 -0.65531986910E+02  0.67227141371E+03  0.87589597112E+03  0.11060916147E+04  0.12699999809E+01 0.  1.
       -4    1    3    3    0  502  0.65531986910E+02 -0.67227141371E+03 -0.95868575088E+03  0.11727417776E+04  0.12699999809E+01 0. -1.
</event>
<event>
 5   0  0.6814789E-05  0.2308045E+04  0.7818609E-02  0.8474756E-01
       -2   -1    0    0    0  501  0.00000000000E+00  0.00000000000E+00  0.16347163765E+04  0.16347163765E+04  0.25500000920E-02 0.  1.
        2   -1    0    0  501    0  0.00000000000E+00  0.00000000000E+00 -0.81467836975E+03  0.81467836976E+03  0.25500000920E-02 0. -1.
    10030    2    1    2    0    0  0.00000000000E+00  0.00000000000E+00  0.82003800678E+03  0.24493947463E+04  0.23080451232E+04 0.  0.
        1    1    3    3  502    0 -0.23756414903E+02 -0.11532880158E+04  0.37433761735E+03  0.12127515270E+04  0.50400001928E-02 0.  1.
       -1    1    3    3    0  502  0.23756414903E+02  0.11532880158E+04  0.44570038943E+03  0.12366432192E+04  0.50400001928E-02 0. -1.
</event>
<event>
 5   0  0.6468758E-05  0.2227353E+04  0.7818609E-02  0.8507129E-01
       -2   -1    0    0    0  501  0.00000000000E+00  0.00000000000E+00  0.76881914304E+03  0.76881914304E+03  0.25500000920E-02 0.  1.
        2   -1    0    0  501    0  0.00000000000E+00  0.00000000000E+00 -0.16132211108E+04  0.16132211108E+04  0.25500000920E-02 0. -1.
    10030    2    1    2    0    0  0.00000000000E+00  0.00000000000E+00 -0.84440196780E+03  0.23820402539E+04  0.22273529329E+04 0.  0.
        3    1    3    3  502    0  0.59961248740E+03 -0.79911690712E+03  0.10406385333E+03  0.10044661577E+04  0.10100000352E+00 0.  1.
       -3    1    3    3    0  502 -0.59961248740E+03  0.79911690712E+03 -0.94846582113E+03  0.13775740961E+04  0.10100000352E+00 0. -1.
</event>
<event>
 5   0  0.2944089E-05  0.2277839E+04  0.7818609E-02  0.8486711E-01
        1   -1    0    0  501    0  0.00000000000E+00  0.00000000000E+00  0.13781033419E+04  0.13781033419E+04  0.50400001928E-02 0. -1.
       -1   -1    0    0    0  501  0.00000000000E+00  0.00000000000E+00 -0.94124809968E+03  0.94124809969E+03  0.50400001928E-02 0.  1.
    10030    2    1    2    0    0  0.00000000000E+00  0.00000000000E+00  0.43685524222E+03  0.23193514416E+04  0.22778385823E+04 0.  0.
        5    1    3    3  502    0  0.31570313249E+02 -0.53797108796E+03 -0.80320519180E+03  0.96724880268E+03  0.46999998093E+01 0.  1.
       -5    1    3    3    0  502 -0.31570313249E+02  0.53797108796E+03  0.12400604340E+04  0.13521026389E+04  0.46999998093E+01 0. -1.
</event>
<event>
 5   0  0.2982385E-05  0.2261144E+04  0.7818609E-02  0.8493401E-01
       -1   -1    0    0    0  501  0.00000000000E+00  0.00000000000E+00  0.60031994713E+03  0.60031994715E+03  0.50400001928E-02 0. -1.
        1   -1    0    0  501    0  0.00000000000E+00  0.00000000000E+00 -0.21291859798E+04  0.21291859798E+04  0.50400001928E-02 0.  1.
    10030    2    1    2    0    0  0.00000000000E+00  0.00000000000E+00 -0.15288660327E+04  0.27295059269E+04  0.22611437945E+04 0.  0.
        4    1    3    3  502    0  0.83348765686E+03 -0.47844966373E+03 -0.45629505478E+02  0.96213274527E+03  0.12699999809E+01 0. -1.
       -4    1    3    3    0  502 -0.83348765686E+03  0.47844966373E+03 -0.14832365272E+04  0.17673731817E+04  0.12699999809E+01 0.  1.
</event>
<event>
 5   0  0.2944089E-05  0.2388095E+04  0.7818609E-02  0.8443974E-01
        1   -1    0    0  501    0  0.00000000000E+00  0.00000000000E+00  0.16217926887E+04  0.16217926887E+04  0.50400001928E-02 0. -1.
       -1   -1    0    0    0  501  0.00000000000E+00  0.00000000000E+00 -0.87911939627E+03  0.87911939628E+03  0.50400001928E-02 0.  1.
    10030    2    1    2    0    0  0.00000000000E+00  0.00000000000E+00  0.74267329246E+03  0.25009120850E+04  0.23880949809E+04 0.  0.
        5    1    3    3  502    0 -0.19456545642E+03 -0.89178329229E+03 -0.43483127662E+03  0.10110556297E+04  0.46999998093E+01 0.  1.
       -5    1    3    3    0  502  0.19456545642E+03  0.89178329229E+03  0.11775045691E+04  0.14898564553E+04  0.46999998093E+01 0. -1.
</event>
<event>
 5   0  0.2962279E-05  0.2239384E+04  0.7818609E-02  0.8502212E-01
       -1   -1    0    0    0  501  0.00000000000E+00  0.00000000000E+00  0.11323771212E+04  0.11323771212E+04  0.50400001928E-02 0.  1.
        1   -1    0    0  501    0  0.00000000000E+00  0.00000000000E+00 -0.11071488086E+04  0.11071488086E+04  0.50400001928E-02 0. -1.
    10030    2    1    2    0    0  0.00000000000E+00  0.00000000000E+00  0.25228312565E+02  0.22395259298E+04  0.22393838265E+04 0.  0.
        1    1    3    3  502    0 -0.94874348229E+03 -0.63888539950E+02 -0.57862048337E+03  0.11131026927E+04  0.50400001928E-02 0. -1.
       -1    1    3    3    0  502  0.94874348229E+03  0.63888539950E+02  0.60384879593E+03  0.11264232371E+04  0.50400001928E-02 0.  1.
</event>
<event>
 5   0  0.6702421E-05  0.2291538E+04  0.7818609E-02  0.8481265E-01
        2   -1    0    0  501    0  0.00000000000E+00  0.00000000000E+00  0.97354832793E+03  0.97354832793E+03  0.25500000920E-02 0. -1.
       -2   -1    0    0    0  501  0.00000000000E+00  0.00000000000E+00 -0.13484557824E+04  0.13484557824E+04  0.25500000920E-02 0.  1.
    10030    2    1    2    0    0  0.00000000000E+00  0.00000000000E+00 -0.37490745449E+03  0.23220041104E+04  0.22915382364E+04 0.  0.
        4    1    3    3  502    0 -0.25932035458E+03 -0.23372872058E+03  0.91834270023E+03  0.98246174943E+03  0.12699999809E+01 0. -1.
       -4    1    3    3    0  502  0.25932035458E+03  0.23372872058E+03 -0.12932501547E+04  0.13395423609E+04  0.12699999809E+01 0.  1.
</event>
<event>
 5   0  0.6814789E-05  0.2304361E+04  0.7818609E-02  0.8476204E-01
       -2   -1    0    0    0  501  0.00000000000E+00  0.00000000000E+00  0.11526033607E+04  0.11526033607E+04  0.25500000920E-02 0. -1.
        2   -1    0    0  501    0  0.00000000000E+00  0.00000000000E+00 -0.11517580861E+04  0.11517580861E+04  0.25500000920E-02 0.  1.
    10030    2    1    2    0    0  0.00000000000E+00  0.00000000000E+00  0.84527459315E+00  0.23043614468E+04  0.23043612917E+04 0.  0.
        1    1    3    3  502    0  0.56145164357E+02 -0.25122556595E+03  0.11234782218E+04  0.11525926771E+04  0.50400001928E-02 0. -1.
       -1    1    3    3    0  502 -0.56145164357E+02  0.25122556595E+03 -0.11226329472E+04  0.11517687696E+04  0.50400001928E-02 0.  1.
</event>
<event>
 5   0  0.6676612E-05  0.2295571E+04  0.7818609E-02  0.8479669E-01
        2   -1    0    0  501    0  0.00000000000E+00  0.00000000000E+00  0.24751259771E+04  0.24751259771E+04  0.25500000920E-02 0.  1.
       -2   -1    0    0    0  501  0.00000000000E+00  0.00000000000E+00 -0.53226035209E+03  0.53226035210E+03  0.25500000920E-02 0. -1.
    10030    2    1    2    0    0  0.00000000000E+00  0.00000000000E+00  0.19428656250E+04  0.30073863292E+04  0.22955708868E+04 0.  0.
        2    1    3    3  502    0  0.51168642672E+03 -0.10439614407E+03 -0.36760303801E+03  0.63863412667E+03  0.25500000920E-02 0. -1.
       -2    1    3    3    0  502 -0.51168642672E+03  0.10439614407E+03  0.23104686630E+04  0.23687522025E+04  0.25500000920E-02 0.  1.
</event>
<event>
 5   0  0.3118614E-05  0.2320165E+04  0.7818609E-02  0.8470012E-01
        1   -1    0    0  501    0  0.00000000000E+00  0.00000000000E+00  0.17166622430E+04  0.17166622430E+04  0.50400001928E-02 0. -1.
       -1   -1    0    0    0  501  0.00000000000E+00  0.00000000000E+00 -0.78395829600E+03  0.78395829602E+03  0.50400001928E-02 0.  1.
    10030    2    1    2    0    0  0.00000000000E+00  0.00000000000E+00  0.93270394702E+03  0.25006205390E+04  0.23201651725E+04 0.  0.
        3    1    3    3  502    0 -0.96616583335E+03 -0.63540899712E+03  0.36657412451E+03  0.12130942297E+04  0.10100000352E+00 0.  1.
       -3    1    3    3    0  502  0.96616583335E+03  0.63540899712E+03  0.56612982251E+03  0.12875263094E+04  0.10100000352E+00 0. -1.
</event>
<event>
 5   0  0.6468758E-05  0.1830140E+04  0.7818609E-02  0.8690434E-01
        2   -1    0    0  501    0  0.00000000000E+00  0.00000000000E+00  0.51370252351E+03  0.51370252352E+03  0.25500000920E-02 0.  1.
       -2   -1    0    0    0  501  0.00000000000E+00  0.00000000000E+00 -0.16300350876E+04  0.16300350876E+04  0.25500000920E-02 0. -1.
    10030    2    1    2    0    0  0.00000000000E+00  0.00000000000E+00 -0.11163325641E+04  0.21437376112E+04  0.18301400361E+04 0.  0.
        3    1    3    3  502    0  0.46309541530E+03  0.10248577300E+03  0.35848091073E+03  0.59453281734E+03  0.10100000352E+00 0.  1.
       -3    1    3    3    0  502 -0.46309541530E+03 -0.10248577300E+03 -0.14748134749E+04  0.15492047938E+04  0.10100000352E+00 0. -1.
</event>
<event>
 5   0  0.6495405E-05  0.2300812E+04  0.7818609E-02  0.8477601E-01
       -2   -1    0    0    0  501  0.00000000000E+00  0.00000000000E+00  0.66418192830E+03  0.66418192831E+03  0.25500000920E-02 0. -1.
        2   -1    0    0  501    0  0.00000000000E+00  0.00000000000E+00 -0.19925781653E+04  0.19925781653E+04  0.25500000920E-02 0.  1.
    10030    2    1    2    0    0  0.00000000000E+00  0.00000000000E+00 -0.13283962370E+04  0.26567600936E+04  0.23008123853E+04 0.  0.
        5    1    3    3  502    0  0.85052682863E+03 -0.42282151541E+03  0.85238844156E+02  0.95365699844E+03  0.46999998093E+01 0. -1.
       -5    1    3    3    0  502 -0.85052682863E+03  0.42282151541E+03 -0.14136350811E+04  0.17031030952E+04  0.46999998093E+01 0.  1.
</event>
<event>
 5   0  0.6814789E-05  0.2342762E+04  0.7818609E-02  0.8461249E-01
       -2   -1    0    0    0  501  0.00000000000E+00  0.00000000000E+00  0.11131900275E+04  0.11131900275E+04  0.25500000920E-02 0. -1.
        2   -1    0    0  501    0  0.00000000000E+00  0.00000000000E+00 -0.12326133974E+04  0.12326133974E+04  0.25500000920E-02 0.  1.
    10030    2    1    2    0    0  0.00000000000E+00  0.00000000000E+00 -0.11942336993E+03  0.23458034250E+04  0.23427615686E+04 0.  0.
        1    1    3    3  502    0 -0.91509026859E+03 -0.62488908277E+03 -0.44001580846E+03  0.11922627551E+04  0.50400001928E-02 0.  1.
       -1    1    3    3    0  502  0.91509026859E+03  0.62488908277E+03  0.32059243853E+03  0.11535406699E+04  0.50400001928E-02 0. -1.
</event>
<event>
 5   0  0.3118614E-05  0.2407050E+04  0.7818609E-02  0.8436869E-01
       -1   -1    0    0    0  501  0.00000000000E+00  0.00000000000E+00  0.10283082199E+04  0.10283082200E+04  0.50400001928E-02 0.  1.
        1   -1    0    0  501    0  0.00000000000E+00  0.00000000000E+00 -0.14085970696E+04  0.14085970696E+04  0.50400001928E-02 0. -1.
    10030    2    1    2    0    0  0.00000000000E+00  0.00000000000E+00 -0.38028884968E+03  0.24369052896E+04  0.24070496009E+04 0.  0.
        3    1    3    3  502    0  0.41628384956E+03 -0.10977954284E+04  0.77759962368E+02  0.11766450901E+04  0.10100000352E+00 0.  1.
       -3    1    3    3    0  502 -0.41628384956E+03  0.10977954284E+04 -0.45804881205E+03  0.12602601995E+04  0.10100000352E+00 0. -1.
</event>
<event>
 5   0  0.2982385E-05  0.2271357E+04  0.7818609E-02  0.8489301E-01
       -1   -1    0    0    0  501  0.00000000000E+00  0.00000000000E+00  0.12385022267E+04  0.12385022267E+04  0.50400001928E-02 0. -1.
        1   -1    0    0  501    0  0.00000000000E+00  0.00000000000E+00 -0.10413914517E+04  0.10413914517E+04  0.50400001928E-02 0.  1.
    10030    2    1    2    0    0  0.00000000000E+00  0.00000000000E+00  0.19711077500E+03  0.22798936784E+04  0.22713569792E+04 0.  0.
        4    1    3    3  502    0  0.65544955459E+03  0.86428662694E+03 -0.23909934492E+03  0.11107545191E+04  0.12699999809E+01 0.  1.
       -4    1    3    3    0  502 -0.65544955459E+03 -0.86428662694E+03  0.43621011993E+03  0.11691391593E+04  0.12699999809E+01 0. -1.
</event>
<event>
 5   0  0.3118614E-05  0.2313357E+04  0.7818609E-02  0.8472673E-01
       -1   -1    0    0    0  501  0.00000000000E+00  0.00000000000E+00  0.12141885595E+04  0.12141885595E+04  0.50400001928E-02 0. -1.
        1   -1    0    0  501    0  0.00000000000E+00  0.00000000000E+00 -0.11018925954E+04  0.11018925954E+04  0.50400001928E-02 0.  1.
    10030    2    1    2    0    0  0.00000000000E+00  0.00000000000E+00  0.11229596414E+03  0.23160811550E+04  0.23133571996E+04 0.  0.
        3    1    3    3  502    0  0.18624658836E+03 -0.45078172170E+02 -0.10858903755E+04  0.11026684684E+04  0.10100000352E+00 0.  1.
       -3    1    3    3    0  502 -0.18624658836E+03  0.45078172170E+02  0.11981863396E+04  0.12134126866E+04  0.10100000352E+00 0. -1.
</event>
<event>
 5   0  0.6702421E-05  0.2232764E+04  0.7818609E-02  0.8504913E-01
       -2   -1    0    0    0  501  0.00000000000E+00  0.00000000000E+00  0.92591227839E+03  0.92591227840E+03  0.25500000920E-02 0.  1.
        2   -1    0    0  501    0  0.00000000000E+00  0.00000000000E+00 -0.13460334301E+04  0.13460334301E+04  0.25500000920E-02 0. -1.
    10030    2    1    2    0    0  0.00000000000E+00  0.00000000000E+00 -0.42012115174E+03  0.22719457085E+04  0.22327640987E+04 0.  0.
        4    1    3    3  502    0  0.62488096511E+03 -0.75647915738E+03  0.33179744176E+03  0.10357741508E+04  0.12699999809E+01 0.  1.
       -4    1    3    3    0  502 -0.62488096511E+03  0.75647915738E+03 -0.75191859350E+03  0.12361715578E+04  0.12699999809E+01 0. -1.
</event>
<event>
 5   0  0.6495405E-05  0.2304916E+04  0.7818609E-02  0.8475985E-01
        2   -1    0    0  501    0  0.00000000000E+00  0.00000000000E+00  0.17134089975E+04  0.17134089975E+04  0.25500000920E-02 0. -1.
       -2   -1    0    0    0  501  0.00000000000E+00  0.00000000000E+00 -0.77515596450E+03  0.77515596451E+03  0.25500000920E-02 0.  1.
    10030    2    1    2    0    0  0.00000000000E+00  0.00000000000E+00  0.93825303301E+03  0.24885649620E+04  0.23049157937E+04 0.  0.
        5    1    3    3  502    0 -0.21111961488E+03 -0.39425668798E+03 -0.67763463014E+03  0.81192401724E+03  0.46999998093E+01 0.  1.
       -5    1    3    3    0  502  0.21111961488E+03  0.39425668798E+03  0.16158876631E+04  0.16766409448E+04  0.46999998093E+01 0. -1.
</event>
<event>
 5   0  0.6676612E-05  0.2308154E+04  0.7818609E-02  0.8474713E-01
       -2   -1    0    0    0  501  0.00000000000E+00  0.00000000000E+00  0.66613445336E+03  0.66613445336E+03  0.25500000920E-02 0. -1.
        2   -1    0    0  501    0  0.00000000000E+00  0.00000000000E+00 -0.19994361771E+04  0.19994361771E+04  0.25500000920E-02 0.  1.
    10030    2    1    2    0    0  0.00000000000E+00  0.00000000000E+00 -0.13333017237E+04  0.26655706305E+04  0.23081536559E+04 0.  0.
        2    1    3    3  502    0  0.96911465549E+03  0.33174526595E+03 -0.52671238221E+02  0.10256765554E+04  0.25500000920E-02 0. -1.
       -2    1    3    3    0  502 -0.96911465549E+03 -0.33174526595E+03 -0.12806304855E+04  0.16398940751E+04  0.25500000920E-02 0.  1.
</event>
<event>
 5   0  0.6468758E-05  0.2306230E+04  0.7818609E-02  0.8475469E-01
       -2   -1    0    0    0  501  0.00000000000E+00  0.00000000000E+00  0.93645942058E+03  0.93645942058E+03  0.25500000920E-02 0. -1.
        2   -1    0    0  501    0  0.00000000000E+00  0.00000000000E+00 -0.14198950642E+04  0.14198950642E+04  0.25500000920E-02 0.  1.
    10030    2    1    2    0    0  0.00000000000E+00  0.00000000000E+00 -0.48343564359E+03  0.23563544847E+04  0.23062299184E+04 0.  0.
        3    1    3    3  502    0 -0.99296327581E+03  0.15273401203E+03  0.33659681420E+03  0.10595287495E+04  0.10100000352E+00 0. -1.
       -3    1    3    3    0  502  0.99296327581E+03 -0.15273401203E+03 -0.82003245779E+03  0.12968257352E+04  0.10100000352E+00 0.  1.
</event>
<event>
 5   0  0.6676612E-05  0.2378625E+04  0.7818609E-02  0.8447550E-01
        2   -1    0    0  501    0  0.00000000000E+00  0.00000000000E+00  0.68200273896E+03  0.68200273897E+03  0.25500000920E-02 0. -1.
       -2   -1    0    0    0  501  0.00000000000E+00  0.00000000000E+00 -0.20739862508E+04  0.20739862508E+04  0.25500000920E-02 0.  1.
    10030    2    1    2    0    0  0.00000000000E+00  0.00000000000E+00 -0.13919835118E+04  0.27559889898E+04  0.23786250681E+04 0.  0.
        2    1    3    3  502    0  0.11340062931E+04 -0.12778125162E+03 -0.10840367355E+04  0.15739866470E+04  0.25500000920E-02 0.  1.
       -2    1    3    3    0  502 -0.11340062931E+04  0.12778125162E+03 -0.30794677634E+03  0.11820023427E+04  0.25500000920E-02 0. -1.
</event>
<event>
 5   0  0.6468758E-05  0.2329022E+04  0.7818609E-02  0.8466565E-01
       -2   -1    0    0    0  501  0.00000000000E+00  0.00000000000E+00  0.74638484612E+03  0.74638484612E+03  0.25500000920E-02 0.  1.
        2   -1    0    0  501    0  0.00000000000E+00  0.00000000000E+00 -0.18168723337E+04  0.18168723337E+04  0.25500000920E-02 0. -1.
    10030    2    1    2    0    0  0.00000000000E+00  0.00000000000E+00 -0.10704874876E+04  0.25632571798E+04  0.23290220928E+04 0.  0.
        3    1    3    3  502    0 -0.31720275351E+03 -0.18583009144E+03 -0.17513315820E+04  0.17895006930E+04  0.10100000352E+00 0. -1.
       -3    1    3    3    0  502  0.31720275351E+03  0.18583009144E+03  0.68084409448E+03  0.77375648683E+03  0.10100000352E+00 0.  1.
</event>
<event>
 5   0  0.6468758E-05  0.2370737E+04  0.7818609E-02  0.8450541E-01
       -2   -1    0    0    0  501  0.00000000000E+00  0.00000000000E+00  0.10572465277E+04  0.10572465278E+04  0.25500000920E-02 0.  1.
        2   -1    0    0  501    0  0.00000000000E+00  0.00000000000E+00 -0.13290174395E+04  0.13290174395E+04  0.25500000920E-02 0. -1.
    10030    2    1    2    0    0  0.00000000000E+00  0.00000000000E+00 -0.27177091173E+03  0.23862639672E+04  0.23707374998E+04 0.  0.
        3    1    3    3  502    0  0.20654526398E+03 -0.52320496844E+03 -0.11861242685E+04  0.13127433776E+04  0.10100000352E+00 0. -1.
       -3    1    3    3    0  502 -0.20654526398E+03  0.52320496844E+03  0.91435335674E+03  0.10735205896E+04  0.10100000352E+00 0.  1.
</event>
<event>
 5   0  0.6702421E-05  0.2312317E+04  0.7818609E-02  0.8473081E-01
       -2   -1    0    0    0  501  0.00000000000E+00  0.00000000000E+00  0.13944063786E+04  0.13944063786E+04  0.25500000920E-02 0.  1.
        2   -1    0    0  501    0  0.00000000000E+00  0.00000000000E+00 -0.95861747267E+03  0.95861747267E+03  0.25500000920E-02 0. -1.
    10030    2    1    2    0    0  0.00000000000E+00  0.00000000000E+00  0.43578890592E+03  0.23530238513E+04  0.23123168628E+04 0.  0.
        4    1    3    3  502    0 -0.49756145533E+03  0.52144918157E+02  0.12785557013E+04  0.13729503955E+04  0.12699999809E+01 0.  1.
       -4    1    3    3    0  502  0.49756145533E+03 -0.52144918157E+02 -0.84276679540E+03  0.98007345574E+03  0.12699999809E+01 0. -1.
</event>
<event>
 5   0  0.2944089E-05  0.2325065E+04  0.7818609E-02  0.8468103E-01
        1   -1    0    0  501    0  0.00000000000E+00  0.00000000000E+00  0.82097900576E+03  0.82097900578E+03  0.50400001928E-02 0.  1.
       -1   -1    0    0    0  501  0.00000000000E+00  0.00000000000E+00 -0.16461832351E+04  0.16461832351E+04  0.50400001928E-02 0. -1.
    10030    2    1    2    0    0  0.00000000000E+00  0.00000000000E+00 -0.82520422933E+03  0.24671622409E+04  0.23250650534E+04 0.  0.
        5    1    3    3  502    0  0.91209481233E+02  0.21626848848E+03 -0.16207687706E+04  0.16376827307E+04  0.46999998093E+01 0. -1.
       -5    1    3    3    0  502 -0.91209481233E+02 -0.21626848848E+03  0.79556454126E+03  0.82947951022E+03  0.46999998093E+01 0.  1.
</event>
<event>
 5   0  0.3006265E-05  0.2316505E+04  0.7818609E-02  0.8471442E-01
       -1   -1    0    0    0  501  0.00000000000E+00  0.00000000000E+00  0.10665728138E+04  0.10665728138E+04  0.50400001928E-02 0.  1.
        1   -1    0    0  501    0  0.00000000000E+00  0.00000000000E+00 -0.12578130323E+04  0.12578130323E+04  0.50400001928E-02 0. -1.
    10030    2    1    2    0    0  0.00000000000E+00  0.00000000000E+00 -0.19124021855E+03  0.23243858461E+04  0.23165052861E+04 0.  0.
        2    1    3    3  502    0 -0.93240278387E+03 -0.68713759535E+03 -0.99653582411E+02  0.11625247794E+04  0.25500000920E-02 0.  1.
       -2    1    3    3    0  502  0.93240278387E+03  0.68713759535E+03 -0.91586636140E+02  0.11618610667E+04  0.25500000920E-02 0. -1.
</event>
<event>
 5   0  0.3006265E-05  0.2267929E+04  0.7818609E-02  0.8490675E-01
       -1   -1    0    0    0  501  0.00000000000E+00  0.00000000000E+00  0.62806863877E+03  0.62806863879E+03  0.50400001928E-02 0. -1.
        1   -1    0    0  501    0  0.00000000000E+00  0.00000000000E+00 -0.20473492921E+04  0.20473492921E+04  0.50400001928E-02 0.  1.
    10030    2    1    2    0    0  0.00000000000E+00  0.00000000000E+00 -0.14192806534E+04  0.26754179309E+04  0.22679293490E+04 0.  0.
        2    1    3    3  502    0 -0.89759798298E+03 -0.58461455592E+03 -0.11485355480E+04  0.15705381953E+04  0.25500000920E-02 0.  1.
       -2    1    3    3    0  502  0.89759798298E+03  0.58461455592E+03 -0.27074510541E+03  0.11048797356E+04  0.25500000920E-02 0. -1.
</event>
<event>
 5   0  0.3118614E-05  0.2329711E+04  0.7818609E-02  0.8466298E-01
        1   -1    0    0  501    0  0.00000000000E+00  0.00000000000E+00  0.12342742984E+04  0.12342742984E+04  0.50400001928E-02 0.  1.
       -1   -1    0    0    0  501  0.00000000000E+00  0.00000000000E+00 -0.10993406720E+04  0.10993406720E+04  0.50400001928E-02 0. -1.
    10030    2    1    2    0    0  0.00000000000E+00  0.00000000000E+00  0.13493362633E+03  0.23336149704E+04  0.23297106573E+04 0.  0.
        3    1    3    3  502    0 -0.65286383500E+03 -0.22139502849E+03 -0.87306415609E+03  0.11124243689E+04  0.10100000352E+00 0. -1.
       -3    1    3    3    0  502  0.65286383500E+03  0.22139502849E+03  0.10079977824E+04  0.12211906015E+04  0.10100000352E+00 0.  1.
</event>
<event>
 5   0  0.6814789E-05  0.2351577E+04  0.7818609E-02  0.8457858E-01
       -2   -1    0    0    0  501  0.00000000000E+00  0.00000000000E+00  0.90556394862E+03  0.90556394862E+03  0.25500000920E-02 0.  1.
        2   -1    0    0  501    0  0.00000000000E+00  0.00000000000E+00 -0.15266487789E+04  0.15266487789E+04  0.25500000920E-02 0. -1.
    10030    2    1    2    0    0  0.00000000000E+00  0.00000000000E+00 -0.62108483024E+03  0.24322127275E+04  0.23515765744E+04 0.  0.
        1    1    3    3  502    0 -0.19742651283E+03  0.15743145415E+01 -0.15093818124E+04  0.15222395219E+04  0.50400001928E-02 0. -1.
       -1    1    3    3    0  502  0.19742651283E+03 -0.15743145415E+01  0.88829698213E+03  0.90997320560E+03  0.50400001928E-02 0.  1.
</event>
<event>
 5   0  0.3118614E-05  0.2177867E+04  0.7818609E-02  0.8527697E-01
        1   -1    0    0  501    0  0.00000000000E+00  0.00000000000E+00  0.11215202471E+04  0.11215202471E+04  0.50400001928E-02 0.  1.
       -1   -1    0    0    0  501  0.00000000000E+00  0.00000000000E+00 -0.10572933860E+04  0.10572933860E+04  0.50400001928E-02 0. -1.
    10030    2    1    2    0    0  0.00000000000E+00  0.00000000000E+00  0.64226861118E+02  0.21788136332E+04  0.21778667908E+04 0.  0.
        3    1    3    3  502    0 -0.25745091383E+03  0.73699008234E+03 -0.72738760287E+03  0.10670183173E+04  0.10100000352E+00 0. -1.
       -3    1    3    3    0  502  0.25745091383E+03 -0.73699008234E+03  0.79161446399E+03  0.11117953158E+04  0.10100000352E+00 0.  1.
</event>
<event>
 5   0  0.6468758E-05  0.2277595E+04  0.7818609E-02  0.8486808E-01
       -2   -1    0    0    0  501  0.00000000000E+00  0.00000000000E+00  0.15165358724E+04  0.15165358724E+04  0.25500000920E-02 0.  1.
        2   -1    0    0  501    0  0.00000000000E+00  0.00000000000E+00 -0.85514592751E+03  0.85514592751E+03  0.25500000920E-02 0. -1.
    10030    2    1    2    0    0  0.00000000000E+00  0.00000000000E+00  0.66138994491E+03  0.23716817999E+04  0.22775947622E+04 0.  0.
        3    1    3    3  502    0  0.46383904857E+03 -0.19063602122E+03  0.13953652478E+04  0.14827450693E+04  0.10100000352E+00 0.  1.
       -3    1    3    3    0  502 -0.46383904857E+03  0.19063602122E+03 -0.73397530291E+03  0.88893673062E+03  0.10100000352E+00 0. -1.
</event>
<event>
 5   0  0.2962279E-05  0.2265703E+04  0.7818609E-02  0.8491568E-01
        1   -1    0    0  501    0  0.00000000000E+00  0.00000000000E+00  0.13303941272E+04  0.13303941273E+04  0.50400001928E-02 0.  1.
       -1   -1    0    0    0  501  0.00000000000E+00  0.00000000000E+00 -0.96464086928E+03  0.96464086929E+03  0.50400001928E-02 0. -1.
    10030    2    1    2    0    0  0.00000000000E+00  0.00000000000E+00  0.36575325796E+03  0.22950349965E+04  0.22657030233E+04 0.  0.
        1    1    3    3  502    0  0.84726762099E+03 -0.13847838791E+03  0.93157594840E+03  0.12668355983E+04  0.50400001928E-02 0.  1.
       -1    1    3    3    0  502 -0.84726762099E+03  0.13847838791E+03 -0.56582269044E+03  0.10281993982E+04  0.50400001928E-02 0. -1.
</event>
<event>
 5   0  0.6702421E-05  0.2090864E+04  0.7818609E-02  0.8565278E-01
       -2   -1    0    0    0  501  0.00000000000E+00  0.00000000000E+00  0.81506051089E+03  0.81506051089E+03  0.25500000920E-02 0. -1.
        2   -1    0    0  501    0  0.00000000000E+00  0.00000000000E+00 -0.13409170044E+04  0.13409170044E+04  0.25500000920E-02 0.  1.
    10030    2    1    2    0    0  0.00000000000E+00  0.00000000000E+00 -0.52585649349E+03  0.21559775153E+04  0.20908644133E+04 0.  0.
        4    1    3    3  502    0 -0.57844635369E+03 -0.82655933324E+03 -0.54555583959E+03  0.11469234074E+04  0.12699999809E+01 0.  1.
       -4    1    3    3    0  502  0.57844635369E+03  0.82655933324E+03  0.19699346099E+02  0.10090541079E+04  0.12699999809E+01 0. -1.
</event>
<event>
 5   0  0.6702421E-05  0.2316017E+04  0.7818609E-02  0.8471632E-01
        2   -1    0    0  501    0  0.00000000000E+00  0.00000000000E+00  0.22624388507E+04  0.22624388507E+04  0.25500000920E-02 0. -1.
       -2   -1    0    0    0  501  0.00000000000E+00  0.00000000000E+00 -0.59271616473E+03  0.59271616473E+03  0.25500000920E-02 0.  1.
    10030    2    1    2    0    0  0.00000000000E+00  0.00000000000E+00  0.16697226860E+04  0.28551550154E+04  0.23160173389E+04 0.  0.
        4    1    3    3  502    0 -0.65628702234E+01  0.36624621876E+03 -0.51941126661E+03  0.63558558889E+03  0.12699999809E+01 0.  1.
       -4    1    3    3    0  502  0.65628702234E+01 -0.36624621876E+03  0.21891339526E+04  0.22195694265E+04  0.12699999809E+01 0. -1.
</event>
<event>
 5   0  0.2944089E-05  0.2417683E+04  0.7818609E-02  0.8432913E-01
       -1   -1    0    0    0  501  0.00000000000E+00  0.00000000000E+00  0.16695967242E+04  0.16695967242E+04  0.50400001928E-02 0. -1.
        1   -1    0    0  501    0  0.00000000000E+00  0.00000000000E+00 -0.87524013898E+03  0.87524013899E+03  0.50400001928E-02 0.  1.
    10030    2    1    2    0    0  0.00000000000E+00  0.00000000000E+00  0.79435658517E+03  0.25448368632E+04  0.24176832455E+04 0.  0.
        5    1    3    3  502    0 -0.10615032084E+04 -0.20412257014E+03 -0.17241068603E+03  0.10946244195E+04  0.46999998093E+01 0. -1.
       -5    1    3    3    0  502  0.10615032084E+04  0.20412257014E+03  0.96676727120E+03  0.14502124437E+04  0.46999998093E+01 0.  1.
</event>
<event>
 5   0  0.3118614E-05  0.2341338E+04  0.7818609E-02  0.8461798E-01
       -1   -1    0    0    0  501  0.00000000000E+00  0.00000000000E+00  0.13395333791E+04  0.13395333791E+04  0.50400001928E-02 0.  1.
        1   -1    0    0  501    0  0.00000000000E+00  0.00000000000E+00 -0.10230918251E+04  0.10230918251E+04  0.50400001928E-02 0. -1.
    10030    2    1    2    0    0  0.00000000000E+00  0.00000000000E+00  0.31644155406E+03  0.23626252042E+04  0.23413377797E+04 0.  0.
        3    1    3    3  502    0 -0.53676861215E+03  0.68969357742E+03 -0.62774974046E+03  0.10760425273E+04  0.10100000352E+00 0. -1.
       -3    1    3    3    0  502  0.53676861215E+03 -0.68969357742E+03  0.94419129452E+03  0.12865826769E+04  0.10100000352E+00 0.  1.
</event>
<event>
 5   0  0.3006265E-05  0.2377291E+04  0.7818609E-02  0.8448055E-01
        1   -1    0    0  501    0  0.00000000000E+00  0.00000000000E+00  0.15217689680E+04  0.15217689680E+04  0.50400001928E-02 0. -1.
       -1   -1    0    0    0  501  0.00000000000E+00  0.00000000000E+00 -0.92844421131E+03  0.92844421132E+03  0.50400001928E-02 0.  1.
    10030    2    1    2    0    0  0.00000000000E+00  0.00000000000E+00  0.59332475665E+03  0.24502131793E+04  0.23772905496E+04 0.  0.
        2    1    3    3  502    0  0.71225092723E+03 -0.79469810242E+03  0.83619978475E+03  0.13557568135E+04  0.25500000920E-02 0. -1.
       -2    1    3    3    0  502 -0.71225092723E+03  0.79469810242E+03 -0.24287502809E+03  0.10944563658E+04  0.25500000920E-02 0.  1.
</event>
<event>
 5   0  0.6702421E-05  0.2307420E+04  0.7818609E-02  0.8475001E-01
        2   -1    0    0  501    0  0.00000000000E+00  0.00000000000E+00  0.13112680366E+04  0.13112680366E+04  0.25500000920E-02 0.  1.
       -2   -1    0    0    0  501  0.00000000000E+00  0.00000000000E+00 -0.10150832885E+04  0.10150832885E+04  0.25500000920E-02 0. -1.
    10030    2    1    2    0    0  0.00000000000E+00  0.00000000000E+00  0.29618474817E+03  0.23263513251E+04  0.23074195723E+04 0.  0.
        4    1    3    3  502    0  0.39233442563E+03  0.93429687866E+03  0.70416796329E+03  0.12339737001E+04  0.12699999809E+01 0.  1.
       -4    1    3    3    0  502 -0.39233442563E+03 -0.93429687866E+03 -0.40798321512E+03  0.10923776251E+04  0.12699999809E+01 0. -1.
</event>
<event>
 5   0  0.3118614E-05  0.2348341E+04  0.7818609E-02  0.8459101E-01
        1   -1    0    0  501    0  0.00000000000E+00  0.00000000000E+00  0.15073507543E+04  0.15073507543E+04  0.50400001928E-02 0.  1.
       -1   -1    0    0    0  501  0.00000000000E+00  0.00000000000E+00 -0.91463561602E+03  0.91463561603E+03  0.50400001928E-02 0. -1.
    10030    2    1    2    0    0  0.00000000000E+00  0.00000000000E+00  0.59271513826E+03  0.24219863703E+04  0.23483412748E+04 0.  0.
        3    1    3    3  502    0  0.96986457270E+03 -0.64648312839E+03  0.15014080194E+03  0.11752106174E+04  0.10100000352E+00 0. -1.
       -3    1    3    3    0  502 -0.96986457270E+03  0.64648312839E+03  0.44257433632E+03  0.12467757529E+04  0.10100000352E+00 0.  1.
</event>
<event>
 5   0  0.6676612E-05  0.2285631E+04  0.7818609E-02  0.8483608E-01
       -2   -1    0    0    0  501  0.00000000000E+00  0.00000000000E+00  0.81326343009E+03  0.81326343010E+03  0.25500000920E-02 0.  1.
        2   -1    0    0  501    0  0.00000000000E+00  0.00000000000E+00 -0.16059094705E+04  0.16059094705E+04  0.25500000920E-02 0. -1.
    10030    2    1    2    0    0  0.00000000000E+00  0.00000000000E+00 -0.79264604042E+03  0.24191729006E+04  0.22856311552E+04 0.  0.
        2    1    3    3  502    0 -0.57806365049E+03 -0.27913170423E+02 -0.14393382804E+04  0.15513321419E+04  0.25500000920E-02 0.  1.
       -2    1    3    3    0  502  0.57806365049E+03  0.27913170423E+02  0.64669224002E+03  0.86784075867E+03  0.25500000920E-02 0. -1.
</event>
<event>
 5   0  0.6702421E-05  0.2299782E+04  0.7818609E-02  0.8478007E-01
       -2   -1    0    0    0  501  0.00000000000E+00  0.00000000000E+00  0.99701189660E+03  0.99701189661E+03  0.25500000920E-02 0.  1.
        2   -1    0    0  501    0  0.00000000000E+00  0.00000000000E+00 -0.13262121403E+04  0.13262121403E+04  0.25500000920E-02 0. -1.
    10030    2    1    2    0    0  0.00000000000E+00  0.00000000000E+00 -0.32920024367E+03  0.23232240369E+04  0.22997819734E+04 0.  0.
        4    1    3    3  502    0 -0.27548150730E+03  0.10152594620E+04 -0.63366690458E+03  0.12280786599E+04  0.12699999809E+01 0. -1.
       -4    1    3    3    0  502  0.27548150730E+03 -0.10152594620E+04  0.30446666091E+03  0.10951453769E+04  0.12699999809E+01 0.  1.
</event>
<event>
 5   0  0.2944089E-05  0.2253609E+04  0.7818609E-02  0.8496440E-01
        1   -1    0    0  501    0  0.00000000000E+00  0.00000000000E+00  0.99643518732E+03  0.99643518734E+03  0.50400001928E-02 0. -1.
       -1   -1    0    0    0  501  0.00000000000E+00  0.00000000000E+00 -0.12742310821E+04  0.12742310821E+04  0.50400001928E-02 0.  1.
    10030    2    1    2    0    0  0.00000000000E+00  0.00000000000E+00 -0.27779589476E+03  0.22706662694E+04  0.22536092714E+04 0.  0.
        5    1    3    3  502    0  0.32026115255E+03  0.75364371617E+03  0.64098925268E+03  0.10399208474E+04  0.46999998093E+01 0. -1.
       -5    1    3    3    0  502 -0.32026115255E+03 -0.75364371617E+03 -0.91878514744E+03  0.12307454221E+04  0.46999998093E+01 0.  1.
</event>
<event>
 5   0  0.2342500E-05  0.2433397E+04  0.7818609E-02  0.8427105E-01
       -4   -1    0    0    0  501  0.00000000000E+00  0.00000000000E+00  0.93241547599E+03  0.93241634090E+03  0.12699999809E+01 0.  1.
        4   -1    0    0  501    0  0.00000000000E+00  0.00000000000E+00 -0.15876546085E+04  0.15876551164E+04  0.12699999809E+01 0. -1.
    10030    2    1    2    0    0  0.00000000000E+00  0.00000000000E+00 -0.65523913250E+03  0.25200714573E+04  0.24333971787E+04 0.  0.
        5    1    3    3  502    0 -0.11986305521E+04  0.80072161407E+02 -0.52738021516E+03  0.13119751266E+04  0.46999998093E+01 0. -1.
       -5    1    3    3    0  502  0.11986305521E+04 -0.80072161407E+02 -0.12785891734E+03  0.12080963307E+04  0.46999998093E+01 0.  1.
</event>
<event>
 5   0  0.6676612E-05  0.2329221E+04  0.7818609E-02  0.8466488E-01
        2   -1    0    0  501    0  0.00000000000E+00  0.00000000000E+00  0.14737364428E+04  0.14737364428E+04  0.25500000920E-02 0.  1.
       -2   -1    0    0    0  501  0.00000000000E+00  0.00000000000E+00 -0.92032569488E+03  0.92032569489E+03  0.25500000920E-02 0. -1.
    10030    2    1    2    0    0  0.00000000000E+00  0.00000000000E+00  0.55341074791E+03  0.23940621377E+04  0.23292209133E+04 0.  0.
        2    1    3    3  502    0 -0.38155595280E+03  0.80194467067E+03  0.10510825699E+04  0.13760358893E+04  0.25500000920E-02 0.  1.
       -2    1    3    3    0  502  0.38155595280E+03 -0.80194467067E+03 -0.49767182200E+03  0.10180262484E+04  0.25500000920E-02 0. -1.
</event>
<event>
 5   0  0.6468758E-05  0.2276010E+04  0.7818609E-02  0.8487441E-01
       -2   -1    0    0    0  501  0.00000000000E+00  0.00000000000E+00  0.12221745890E+04  0.12221745890E+04  0.25500000920E-02 0.  1.
        2   -1    0    0  501    0  0.00000000000E+00  0.00000000000E+00 -0.10596320653E+04  0.10596320653E+04  0.25500000920E-02 0. -1.
    10030    2    1    2    0    0  0.00000000000E+00  0.00000000000E+00  0.16254252370E+03  0.22818066543E+04  0.22760100034E+04 0.  0.
        3    1    3    3  502    0  0.67086387167E+02  0.62768257578E+03  0.10305562777E+04  0.12085248243E+04  0.10100000352E+00 0.  1.
       -3    1    3    3    0  502 -0.67086387167E+02 -0.62768257578E+03 -0.86801375401E+03  0.10732818300E+04  0.10100000352E+00 0. -1.
</event>
<event>
 5   0  0.6495405E-05  0.2298410E+04  0.7818609E-02  0.8478548E-01
       -2   -1    0    0    0  501  0.00000000000E+00  0.00000000000E+00  0.81904452107E+03  0.81904452107E+03  0.25500000920E-02 0. -1.
        2   -1    0    0  501    0  0.00000000000E+00  0.00000000000E+00 -0.16124548160E+04  0.16124548160E+04  0.25500000920E-02 0.  1.
    10030    2    1    2    0    0  0.00000000000E+00  0.00000000000E+00 -0.79341029489E+03  0.24314993370E+04  0.22984101309E+04 0.  0.
        5    1    3    3  502    0 -0.81647302761E+03  0.48109141800E+03  0.29099246831E+03  0.99135052524E+03  0.46999998093E+01 0.  1.
       -5    1    3    3    0  502  0.81647302761E+03 -0.48109141800E+03 -0.10844027632E+04  0.14401488118E+04  0.46999998093E+01 0. -1.
</event>
<event>
 5   0  0.3006265E-05  0.2314144E+04  0.7818609E-02  0.8472365E-01
       -1   -1    0    0    0  501  0.00000000000E+00  0.00000000000E+00  0.12549787692E+04  0.12549787692E+04  0.50400001928E-02 0. -1.
        1   -1    0    0  501    0  0.00000000000E+00  0.00000000000E+00 -0.10668036551E+04  0.10668036551E+04  0.50400001928E-02 0.  1.
    10030    2    1    2    0    0  0.00000000000E+00  0.00000000000E+00  0.18817511413E+03  0.23217824243E+04  0.23141442808E+04 0.  0.
        2    1    3    3  502    0 -0.70908701538E+03 -0.91312763620E+03  0.14124762523E+03  0.11647134270E+04  0.25500000920E-02 0. -1.
       -2    1    3    3    0  502  0.70908701538E+03  0.91312763620E+03  0.46927488892E+02  0.11570689973E+04  0.25500000920E-02 0.  1.
</event>
<event>
 5   0  0.6676612E-05  0.2302691E+04  0.7818609E-02  0.8476861E-01
        2   -1    0    0  501    0  0.00000000000E+00  0.00000000000E+00  0.14128784726E+04  0.14128784726E+04  0.25500000920E-02 0. -1.
       -2   -1    0    0    0  501  0.00000000000E+00  0.00000000000E+00 -0.93822365248E+03  0.93822365248E+03  0.25500000920E-02 0.  1.
    10030    2    1    2    0    0  0.00000000000E+00  0.00000000000E+00  0.47465482014E+03  0.23511021251E+04  0.23026906011E+04 0.  0.
        2    1    3    3  502    0  0.93734053754E+03  0.66793282672E+03  0.20748176633E+03  0.11695256422E+04  0.25500000920E-02 0. -1.
       -2    1    3    3    0  502 -0.93734053754E+03 -0.66793282672E+03  0.26717305381E+03  0.11815764829E+04  0.25500000920E-02 0.  1.
</event>
<event>
 5   0  0.3006265E-05  0.2305223E+04  0.7818609E-02  0.8475865E-01
       -1   -1    0    0    0  501  0.00000000000E+00  0.00000000000E+00  0.66712249948E+03  0.66712249950E+03  0.50400001928E-02 0.  1.
        1   -1    0    0  501    0  0.00000000000E+00  0.00000000000E+00 -0.19914079497E+04  0.19914079497E+04  0.50400001928E-02 0. -1.
    10030    2    1    2    0    0  0.00000000000E+00  0.00000000000E+00 -0.13242854503E+04  0.26585304492E+04  0.23052228083E+04 0.  0.
        2    1    3    3  502    0 -0.11259950677E+04 -0.66523168834E+02 -0.93559721654E+03  0.14654802544E+04  0.25500000920E-02 0.  1.
       -2    1    3    3    0  502  0.11259950677E+04  0.66523168834E+02 -0.38868823372E+03  0.11930501949E+04  0.25500000920E-02 0. -1.
</event>
<event>
 5   0  0.6495405E-05  0.2347965E+04  0.7818609E-02  0.8459246E-01
       -2   -1    0    0    0  501  0.00000000000E+00  0.00000000000E+00  0.50851636290E+03  0.50851636291E+03  0.25500000920E-02 0.  1.
        2   -1    0    0  501    0  0.00000000000E+00  0.00000000000E+00 -0.27103069018E+04  0.27103069018E+04  0.25500000920E-02 0. -1.
    10030    2    1    2    0    0  0.00000000000E+00  0.00000000000E+00 -0.22017905389E+04  0.32188232647E+04  0.23479654240E+04 0.  0.
        5    1    3    3  502    0  0.11666320001E+04 -0.10015694522E+03 -0.12168289158E+04  0.16887144038E+04  0.46999998093E+01 0. -1.
       -5    1    3    3    0  502 -0.11666320001E+04  0.10015694522E+03 -0.98496162309E+03  0.15301088609E+04  0.46999998093E+01 0.  1.
</event>
<event>
 5   0  0.2962279E-05  0.2225995E+04  0.7818609E-02  0.8507686E-01
       -1   -1    0    0    0  501  0.00000000000E+00  0.00000000000E+00  0.72438531211E+03  0.72438531213E+03  0.50400001928E-02 0. -1.
        1   -1    0    0  501    0  0.00000000000E+00  0.00000000000E+00 -0.17100888790E+04  0.17100888790E+04  0.50400001928E-02 0.  1.
    10030    2    1    2    0    0  0.00000000000E+00  0.00000000000E+00 -0.98570356691E+03  0.24344741912E+04  0.22259948485E+04 0.  0.
        1    1    3    3  502    0 -0.59320312997E+03  0.39976580370E+01  0.53707867104E+03  0.80022461447E+03  0.50400001928E-02 0. -1.
       -1    1    3    3    0  502  0.59320312997E+03 -0.39976580370E+01 -0.15227822380E+04  0.16342495767E+04  0.50400001928E-02 0.  1.
</event>
<event>
 5   0  0.3006265E-05  0.2308739E+04  0.7818609E-02  0.8474483E-01
       -1   -1    0    0    0  501  0.00000000000E+00  0.00000000000E+00  0.83014103524E+03  0.83014103525E+03  0.50400001928E-02 0. -1.
        1   -1    0    0  501    0  0.00000000000E+00  0.00000000000E+00 -0.16052324419E+04  0.16052324419E+04  0.50400001928E-02 0.  1.
    10030    2    1    2    0    0  0.00000000000E+00  0.00000000000E+00 -0.77509140669E+03  0.24353734772E+04  0.23087393280E+04 0.  0.
        2    1    3    3  502    0  0.17528382118E+03  0.32639371917E+03  0.76572515639E+03  0.85064228264E+03  0.25500000920E-02 0. -1.
       -2    1    3    3    0  502 -0.17528382118E+03 -0.32639371917E+03 -0.15408165631E+04  0.15847311945E+04  0.25500000920E-02 0.  1.
</event>
<event>
 5   0  0.2962279E-05  0.2268226E+04  0.7818609E-02  0.8490556E-01
        1   -1    0    0  501    0  0.00000000000E+00  0.00000000000E+00  0.16054016977E+04  0.16054016978E+04  0.50400001928E-02 0. -1.
       -1   -1    0    0    0  501  0.00000000000E+00  0.00000000000E+00 -0.80117789742E+03  0.80117789743E+03  0.50400001928E-02 0.  1.
    10030    2    1    2    0    0  0.00000000000E+00  0.00000000000E+00  0.80422380033E+03  0.24065795952E+04  0.22682260529E+04 0.  0.
        1    1    3    3  502    0 -0.10025091119E+04  0.46790484616E+03  0.66683611103E+03  0.12917545678E+04  0.50400001928E-02 0. -1.
       -1    1    3    3    0  502  0.10025091119E+04 -0.46790484616E+03  0.13738768930E+03  0.11148250274E+04  0.50400001928E-02 0.  1.
</event>
<event>
 5   0  0.6495405E-05  0.2284725E+04  0.7818609E-02  0.8483968E-01
        2   -1    0    0  501    0  0.00000000000E+00  0.00000000000E+00  0.12473537537E+04  0.12473537537E+04  0.25500000920E-02 0.  1.
       -2   -1    0    0    0  501  0.00000000000E+00  0.00000000000E+00 -0.10462084062E+04  0.10462084062E+04  0.25500000920E-02 0. -1.
    10030    2    1    2    0    0  0.00000000000E+00  0.00000000000E+00  0.20114534751E+03  0.22935621598E+04  0.22847249135E+04 0.  0.
        5    1    3    3  502    0  0.31761914891E+03 -0.58020560796E+03  0.10355448312E+04  0.12287781161E+04  0.46999998093E+01 0.  1.
       -5    1    3    3    0  502 -0.31761914891E+03  0.58020560796E+03 -0.83439948371E+03  0.10647840437E+04  0.46999998093E+01 0. -1.
</event>
<event>
 5   0  0.2944089E-05  0.2289729E+04  0.7818609E-02  0.8481982E-01
       -1   -1    0    0    0  501  0.00000000000E+00  0.00000000000E+00  0.10679835717E+04  0.10679835717E+04  0.50400001928E-02 0. -1.
        1   -1    0    0  501    0  0.00000000000E+00  0.00000000000E+00 -0.12272802521E+04  0.12272802521E+04  0.50400001928E-02 0.  1.
    10030    2    1    2    0    0  0.00000000000E+00  0.00000000000E+00 -0.15929668045E+03  0.22952638238E+04  0.22897293701E+04 0.  0.
        5    1    3    3  502    0 -0.65763318805E+03  0.73673069337E+03 -0.66021966148E+03  0.11879249202E+04  0.46999998093E+01 0.  1.
       -5    1    3    3    0  502  0.65763318805E+03 -0.73673069337E+03  0.50092298103E+03  0.11073389036E+04  0.46999998093E+01 0. -1.
</event>
<event>
 5   0  0.3118614E-05  0.2291456E+04  0.7818609E-02  0.8481298E-01
        1   -1    0    0  501    0  0.00000000000E+00  0.00000000000E+00  0.11315543584E+04  0.11315543584E+04  0.50400001928E-02 0.  1.
       -1   -1    0    0    0  501  0.00000000000E+00  0.00000000000E+00 -0.11600790266E+04  0.11600790266E+04  0.50400001928E-02 0. -1.
    10030    2    1    2    0    0  0.00000000000E+00  0.00000000000E+00 -0.28524668188E+02  0.22916333850E+04  0.22914558504E+04 0.  0.
        3    1    3    3  502    0 -0.44528405741E+03  0.75670976568E+03 -0.75039334483E+03  0.11549795424E+04  0.10100000352E+00 0. -1.
       -3    1    3    3    0  502  0.44528405741E+03 -0.75670976568E+03  0.72186867664E+03  0.11366538425E+04  0.10100000352E+00 0.  1.
</event>
<event>
 5   0  0.6814789E-05  0.2268685E+04  0.7818609E-02  0.8490371E-01
       -2   -1    0    0    0  501  0.00000000000E+00  0.00000000000E+00  0.15892329346E+04  0.15892329346E+04  0.25500000920E-02 0.  1.
        2   -1    0    0  501    0  0.00000000000E+00  0.00000000000E+00 -0.80965667012E+03  0.80965667013E+03  0.25500000920E-02 0. -1.
    10030    2    1    2    0    0  0.00000000000E+00  0.00000000000E+00  0.77957626450E+03  0.23988896047E+04  0.22686851222E+04 0.  0.
        1    1    3    3  502    0  0.67704470714E+03 -0.11133431586E+03  0.13449287822E+04  0.15098404865E+04  0.50400001928E-02 0.  1.
       -1    1    3    3    0  502 -0.67704470714E+03  0.11133431586E+03 -0.56535251773E+03  0.88904911826E+03  0.50400001928E-02 0. -1.
</event>
<event>
 5   0  0.2962279E-05  0.2276724E+04  0.7818609E-02  0.8487155E-01
        1   -1    0    0  501    0  0.00000000000E+00  0.00000000000E+00  0.14142589085E+04  0.14142589085E+04  0.50400001928E-02 0.  1.
       -1   -1    0    0    0  501  0.00000000000E+00  0.00000000000E+00 -0.91628784808E+03  0.91628784810E+03  0.50400001928E-02 0. -1.
    10030    2    1    2    0    0  0.00000000000E+00  0.00000000000E+00  0.49797106041E+03  0.23305467566E+04  0.22767241835E+04 0.  0.
        1    1    3    3  502    0 -0.13219408007E+02 -0.68111723438E+03 -0.68459064507E+03  0.96579490113E+03  0.50400001928E-02 0. -1.
       -1    1    3    3    0  502  0.13219408007E+02  0.68111723438E+03  0.11825617055E+04  0.13647518555E+04  0.50400001928E-02 0.  1.
</event>
<event>
 5   0  0.6468758E-05  0.2317142E+04  0.7818609E-02  0.8471193E-01
       -2   -1    0    0    0  501  0.00000000000E+00  0.00000000000E+00  0.68090417410E+03  0.68090417410E+03  0.25500000920E-02 0. -1.
        2   -1    0    0  501    0  0.00000000000E+00  0.00000000000E+00 -0.19713299149E+04  0.19713299149E+04  0.25500000920E-02 0.  1.
    10030    2    1    2    0    0  0.00000000000E+00  0.00000000000E+00 -0.12904257408E+04  0.26522340890E+04  0.23171420048E+04 0.  0.
        3    1    3    3  502    0 -0.48731611272E+03  0.86275952015E+03 -0.13324161065E+04  0.16604709195E+04  0.10100000352E+00 0.  1.
       -3    1    3    3    0  502  0.48731611272E+03 -0.86275952015E+03  0.41990365752E+02  0.99176316949E+03  0.10100000352E+00 0. -1.
</event>
<event>
 5   0  0.2962279E-05  0.2327059E+04  0.7818609E-02  0.8467328E-01
       -1   -1    0    0    0  501  0.00000000000E+00  0.00000000000E+00  0.76478869938E+03  0.76478869939E+03  0.50400001928E-02 0. -1.
        1   -1    0    0  501    0  0.00000000000E+00  0.00000000000E+00 -0.17701626073E+04  0.17701626073E+04  0.50400001928E-02 0.  1.
    10030    2    1    2    0    0  0.00000000000E+00  0.00000000000E+00 -0.10053739079E+04  0.25349513067E+04  0.23270585366E+04 0.  0.
        1    1    3    3  502    0 -0.95193800590E+03 -0.61782322171E+03 -0.78234943488E+03  0.13783911414E+04  0.50400001928E-02 0. -1.
       -1    1    3    3    0  502  0.95193800590E+03  0.61782322171E+03 -0.22302447302E+03  0.11565601653E+04  0.50400001928E-02 0.  1.
</event>
<event>
 5   0  0.2962279E-05  0.2306259E+04  0.7818609E-02  0.8475457E-01
       -1   -1    0    0    0  501  0.00000000000E+00  0.00000000000E+00  0.66863996343E+03  0.66863996345E+03  0.50400001928E-02 0. -1.
        1   -1    0    0  501    0  0.00000000000E+00  0.00000000000E+00 -0.19886749181E+04  0.19886749181E+04  0.50400001928E-02 0.  1.
    10030    2    1    2    0    0  0.00000000000E+00  0.00000000000E+00 -0.13200349546E+04  0.26573148815E+04  0.23062588966E+04 0.  0.
        1    1    3    3  502    0  0.12662481928E+02 -0.11502467758E+04 -0.75276601685E+03  0.13747307590E+04  0.50400001928E-02 0.  1.
       -1    1    3    3    0  502 -0.12662481928E+02  0.11502467758E+04 -0.56726893779E+03  0.12825841225E+04  0.50400001928E-02 0. -1.
</event>
<event>
 5   0  0.6814789E-05  0.2238959E+04  0.7818609E-02  0.8502385E-01
       -2   -1    0    0    0  501  0.00000000000E+00  0.00000000000E+00  0.99838234405E+03  0.99838234405E+03  0.25500000920E-02 0.  1.
        2   -1    0    0  501    0  0.00000000000E+00  0.00000000000E+00 -0.12552651834E+04  0.12552651834E+04  0.25500000920E-02 0. -1.
    10030    2    1    2    0    0  0.00000000000E+00  0.00000000000E+00 -0.25688283939E+03  0.22536475275E+04  0.22389592191E+04 0.  0.
        1    1    3    3  502    0 -0.51184314784E+03 -0.28110804803E+03  0.83293143413E+03  0.10172413267E+04  0.50400001928E-02 0.  1.
       -1    1    3    3    0  502  0.51184314784E+03  0.28110804803E+03 -0.10898142735E+04  0.12364062008E+04  0.50400001928E-02 0. -1.
</event>
<event>
 5   0  0.2962279E-05  0.2289894E+04  0.7818609E-02  0.8481916E-01
       -1   -1    0    0    0  501  0.00000000000E+00  0.00000000000E+00  0.55083623520E+03  0.55083623522E+03  0.50400001928E-02 0. -1.
        1   -1    0    0  501    0  0.00000000000E+00  0.00000000000E+00 -0.23798437145E+04  0.23798437145E+04  0.50400001928E-02 0.  1.
    10030    2    1    2    0    0  0.00000000000E+00  0.00000000000E+00 -0.18290074793E+04  0.29306799498E+04  0.22898944536E+04 0.  0.
        1    1    3    3  502    0 -0.61241205816E+03  0.89934731673E+03 -0.13706521053E+04  0.17500175196E+04  0.50400001928E-02 0.  1.
       -1    1    3    3    0  502  0.61241205816E+03 -0.89934731673E+03 -0.45835537407E+03  0.11806624302E+04  0.50400001928E-02 0. -1.
</event>
<event>
 5   0  0.2962279E-05  0.2457738E+04  0.7818609E-02  0.8418198E-01
       -1   -1    0    0    0  501  0.00000000000E+00  0.00000000000E+00  0.64413236448E+03  0.64413236450E+03  0.50400001928E-02 0. -1.
        1   -1    0    0  501    0  0.00000000000E+00  0.00000000000E+00 -0.23444232126E+04  0.23444232126E+04  0.50400001928E-02 0.  1.
    10030    2    1    2    0    0  0.00000000000E+00  0.00000000000E+00 -0.17002908481E+04  0.29885555771E+04  0.24577378764E+04 0.  0.
        1    1    3    3  502    0  0.11906310985E+04 -0.69459472370E+02 -0.12102306944E+04  0.16991425380E+04  0.50400001928E-02 0.  1.
       -1    1    3    3    0  502 -0.11906310985E+04  0.69459472370E+02 -0.49006015372E+03  0.12894130390E+04  0.50400001928E-02 0. -1.
</event>
<event>
 5   0  0.6468758E-05  0.2375026E+04  0.7818609E-02  0.8448913E-01
       -2   -1    0    0    0  501  0.00000000000E+00  0.00000000000E+00  0.11503208845E+04  0.11503208845E+04  0.25500000920E-02 0.  1.
        2   -1    0    0  501    0  0.00000000000E+00  0.00000000000E+00 -0.12259076306E+04  0.12259076306E+04  0.25500000920E-02 0. -1.
    10030    2    1    2    0    0  0.00000000000E+00  0.00000000000E+00 -0.75586746115E+02  0.23762285150E+04  0.23750260208E+04 0.  0.
        3    1    3    3  502    0 -0.38398900857E+03  0.27887829082E+02  0.10861461519E+04  0.11523622535E+04  0.10100000352E+00 0.  1.
       -3    1    3    3    0  502  0.38398900857E+03 -0.27887829082E+02 -0.11617328980E+04  0.12238662616E+04  0.10100000352E+00 0. -1.
</event>
<event>
 5   0  0.6495405E-05  0.2357082E+04  0.7818609E-02  0.8455748E-01
       -2   -1    0    0    0  501  0.00000000000E+00  0.00000000000E+00  0.11904726301E+04  0.11904726301E+04  0.25500000920E-02 0.  1.
        2   -1    0    0  501    0  0.00000000000E+00  0.00000000000E+00 -0.11667290909E+04  0.11667290909E+04  0.25500000920E-02 0. -1.
    10030    2    1    2    0    0  0.00000000000E+00  0.00000000000E+00  0.23743539247E+02  0.23572017210E+04  0.23570821364E+04 0.  0.
        5    1    3    3  502    0  0.80475846000E+03 -0.16959573147E+03  0.85603429560E+03  0.11871039113E+04  0.46999998093E+01 0.  1.
       -5    1    3    3    0  502 -0.80475846000E+03  0.16959573147E+03 -0.83229075635E+03  0.11700978097E+04  0.46999998093E+01 0. -1.
</event>
<event>
 5   0  0.6676612E-05  0.2304419E+04  0.7818609E-02  0.8476181E-01
        2   -1    0    0  501    0  0.00000000000E+00  0.00000000000E+00  0.11053618567E+04  0.11053618567E+04  0.25500000920E-02 0.  1.
       -2   -1    0    0    0  501  0.00000000000E+00  0.00000000000E+00 -0.12010426986E+04  0.12010426986E+04  0.25500000920E-02 0. -1.
    10030    2    1    2    0    0  0.00000000000E+00  0.00000000000E+00 -0.95680841870E+02  0.23064045553E+04  0.23044190481E+04 0.  0.
        2    1    3    3  502    0 -0.91218119234E+03  0.43937122188E+03  0.50260178931E+03  0.11303672664E+04  0.25500000920E-02 0.  1.
       -2    1    3    3    0  502  0.91218119234E+03 -0.43937122188E+03 -0.59828263118E+03  0.11760372890E+04  0.25500000920E-02 0. -1.
</event>
<event>
 5   0  0.6676612E-05  0.2302748E+04  0.7818609E-02  0.8476838E-01
       -2   -1    0    0    0  501  0.00000000000E+00  0.00000000000E+00  0.79555896021E+03  0.79555896021E+03  0.25500000920E-02 0. -1.
        2   -1    0    0  501    0  0.00000000000E+00  0.00000000000E+00 -0.16663285343E+04  0.16663285343E+04  0.25500000920E-02 0.  1.
    10030    2    1    2    0    0  0.00000000000E+00  0.00000000000E+00 -0.87076957405E+03  0.24618874945E+04  0.23027484414E+04 0.  0.
        2    1    3    3  502    0 -0.12014463175E+03 -0.95071188605E+03  0.24698339988E+03  0.98959012861E+03  0.25500000920E-02 0. -1.
       -2    1    3    3    0  502  0.12014463175E+03  0.95071188605E+03 -0.11177529739E+04  0.14722973659E+04  0.25500000920E-02 0.  1.
</event>
<event>
 5   0  0.6468758E-05  0.2278276E+04  0.7818609E-02  0.8486536E-01
        2   -1    0    0  501    0  0.00000000000E+00  0.00000000000E+00  0.20756849891E+04  0.20756849891E+04  0.25500000920E-02 0. -1.
       -2   -1    0    0    0  501  0.00000000000E+00  0.00000000000E+00 -0.62516030973E+03  0.62516030973E+03  0.25500000920E-02 0.  1.
    10030    2    1    2    0    0  0.00000000000E+00  0.00000000000E+00  0.14505246794E+04  0.27008452988E+04  0.22782764281E+04 0.  0.
        3    1    3    3  502    0  0.30654182491E+02  0.10472053132E+04  0.19502488749E+03  0.10656516147E+04  0.10100000352E+00 0. -1.
       -3    1    3    3    0  502 -0.30654182491E+02 -0.10472053132E+04  0.12554997919E+04  0.16351936841E+04  0.10100000352E+00 0.  1.
</event>
<event>
 5   0  0.3006265E-05  0.2303738E+04  0.7818609E-02  0.8476449E-01
        1   -1    0    0  501    0  0.00000000000E+00  0.00000000000E+00  0.25972383093E+04  0.25972383093E+04  0.50400001928E-02 0. -1.
       -1   -1    0    0    0  501  0.00000000000E+00  0.00000000000E+00 -0.51085109913E+03  0.51085109916E+03  0.50400001928E-02 0.  1.
    10030    2    1    2    0    0  0.00000000000E+00  0.00000000000E+00  0.20863872102E+04  0.31080894085E+04  0.23037378714E+04 0.  0.
        2    1    3    3  502    0  0.15077013911E+03 -0.14655226907E+03  0.25711284937E+04  0.25797114051E+04  0.25500000920E-02 0. -1.
       -2    1    3    3    0  502 -0.15077013911E+03  0.14655226907E+03 -0.48474128356E+03  0.52837800334E+03  0.25500000920E-02 0.  1.
</event>
<event>
 5   0  0.6814789E-05  0.2274968E+04  0.7818609E-02  0.8487857E-01
       -2   -1    0    0    0  501  0.00000000000E+00  0.00000000000E+00  0.11243146181E+04  0.11243146181E+04  0.25500000920E-02 0.  1.
        2   -1    0    0  501    0  0.00000000000E+00  0.00000000000E+00 -0.11508078762E+04  0.11508078762E+04  0.25500000920E-02 0. -1.
    10030    2    1    2    0    0  0.00000000000E+00  0.00000000000E+00 -0.26493258096E+02  0.22751224943E+04  0.22749682352E+04 0.  0.
        1    1    3    3  502    0  0.64014601502E+03  0.88894584242E+03  0.29313746889E+03  0.11339934775E+04  0.50400001928E-02 0.  1.
       -1    1    3    3    0  502 -0.64014601502E+03 -0.88894584242E+03 -0.31963072698E+03  0.11411290168E+04  0.50400001928E-02 0. -1.
</event>
<event>
 5   0  0.3118614E-05  0.2312341E+04  0.7818609E-02  0.8473071E-01
        1   -1    0    0  501    0  0.00000000000E+00  0.00000000000E+00  0.97827689985E+03  0.97827689986E+03  0.50400001928E-02 0.  1.
       -1   -1    0    0    0  501  0.00000000000E+00  0.00000000000E+00 -0.13664124742E+04  0.13664124742E+04  0.50400001928E-02 0. -1.
    10030    2    1    2    0    0  0.00000000000E+00  0.00000000000E+00 -0.38813557435E+03  0.23446893741E+04  0.23123405971E+04 0.  0.
        3    1    3    3  502    0 -0.79509368604E+03  0.60840262177E+03  0.39229711002E+03  0.10752789185E+04  0.10100000352E+00 0.  1.
       -3    1    3    3    0  502  0.79509368604E+03 -0.60840262177E+03 -0.78043268436E+03  0.12694104556E+04  0.10100000352E+00 0. -1.
</event>
<event>
 5   0  0.3118614E-05  0.2328329E+04  0.7818609E-02  0.8466834E-01
       -1   -1    0    0    0  501  0.00000000000E+00  0.00000000000E+00  0.64313425456E+03  0.64313425458E+03  0.50400001928E-02 0. -1.
        1   -1    0    0  501    0  0.00000000000E+00  0.00000000000E+00 -0.21073038004E+04  0.21073038004E+04  0.50400001928E-02 0.  1.
    10030    2    1    2    0    0  0.00000000000E+00  0.00000000000E+00 -0.14641695459E+04  0.27504380550E+04  0.23283292369E+04 0.  0.
        3    1    3    3  502    0 -0.10334037032E+04  0.29846697082E+03 -0.12580897042E+04  0.16552327511E+04  0.10100000352E+00 0.  1.
       -3    1    3    3    0  502  0.10334037032E+04 -0.29846697082E+03 -0.20607984170E+03  0.10952053039E+04  0.10100000352E+00 0. -1.
</event>
<event>
 5   0  0.2982385E-05  0.2218879E+04  0.7818609E-02  0.8510611E-01
        1   -1    0    0  501    0  0.00000000000E+00  0.00000000000E+00  0.10037731474E+04  0.10037731474E+04  0.50400001928E-02 0. -1.
       -1   -1    0    0    0  501  0.00000000000E+00  0.00000000000E+00 -0.12262288567E+04  0.12262288567E+04  0.50400001928E-02 0.  1.
    10030    2    1    2    0    0  0.00000000000E+00  0.00000000000E+00 -0.22245570927E+03  0.22300020041E+04  0.22188786348E+04 0.  0.
        4    1    3    3  502    0  0.93270013976E+03  0.19679803498E+03  0.45923987498E+03  0.10580935181E+04  0.12699999809E+01 0. -1.
       -4    1    3    3    0  502 -0.93270013976E+03 -0.19679803498E+03 -0.68169558425E+03  0.11719084861E+04  0.12699999809E+01 0.  1.
</event>
<event>
 5   0  0.6702421E-05  0.2295447E+04  0.7818609E-02  0.8479719E-01
       -2   -1    0    0    0  501  0.00000000000E+00  0.00000000000E+00  0.51565211612E+03  0.51565211613E+03  0.25500000920E-02 0.  1.
        2   -1    0    0  501    0  0.00000000000E+00  0.00000000000E+00 -0.25545686160E+04  0.25545686160E+04  0.25500000920E-02 0. -1.
    10030    2    1    2    0    0  0.00000000000E+00  0.00000000000E+00 -0.20389164999E+04  0.30702207321E+04  0.22954465471E+04 0.  0.
        4    1    3    3  502    0 -0.50883159621E+02 -0.52470161377E+03  0.34414087857E+03  0.62955177439E+03  0.12699999809E+01 0.  1.
       -4    1    3    3    0  502  0.50883159621E+02  0.52470161377E+03 -0.23830573784E+04  0.24406689577E+04  0.12699999809E+01 0. -1.
</event>
<event>
 5   0  0.3118614E-05  0.2297491E+04  0.7818609E-02  0.8478911E-01
       -1   -1    0    0    0  501  0.00000000000E+00  0.00000000000E+00  0.99175737110E+03  0.99175737112E+03  0.50400001928E-02 0.  1.
        1   -1    0    0  501    0  0.00000000000E+00  0.00000000000E+00 -0.13305838031E+04  0.13305838031E+04  0.50400001928E-02 0. -1.
    10030    2    1    2    0    0  0.00000000000E+00  0.00000000000E+00 -0.33882643199E+03  0.23223411742E+04  0.22974910617E+04 0.  0.
        3    1    3    3  502    0  0.17517874154E+02 -0.10808890724E+04 -0.56218811600E+03  0.12184759131E+04  0.10100000352E+00 0.  1.
       -3    1    3    3    0  502 -0.17517874154E+02  0.10808890724E+04  0.22336168402E+03  0.11038652612E+04  0.10100000352E+00 0. -1.
</event>
<event>
 5   0  0.6495405E-05  0.2299679E+04  0.7818609E-02  0.8478048E-01
       -2   -1    0    0    0  501  0.00000000000E+00  0.00000000000E+00  0.71258430367E+03  0.71258430368E+03  0.25500000920E-02 0.  1.
        2   -1    0    0  501    0  0.00000000000E+00  0.00000000000E+00 -0.18554028150E+04  0.18554028150E+04  0.25500000920E-02 0. -1.
    10030    2    1    2    0    0  0.00000000000E+00  0.00000000000E+00 -0.11428185113E+04  0.25679871187E+04  0.22996790410E+04 0.  0.
        5    1    3    3  502    0  0.11053863872E+04 -0.22409637104E+03 -0.82113112590E+03  0.13951260389E+04  0.46999998093E+01 0. -1.
       -5    1    3    3    0  502 -0.11053863872E+04  0.22409637104E+03 -0.32168738542E+03  0.11728610798E+04  0.46999998093E+01 0.  1.
</event>
<event>
 5   0  0.3118614E-05  0.2306137E+04  0.7818609E-02  0.8475505E-01
       -1   -1    0    0    0  501  0.00000000000E+00  0.00000000000E+00  0.11093754538E+04  0.11093754538E+04  0.50400001928E-02 0.  1.
        1   -1    0    0  501    0  0.00000000000E+00  0.00000000000E+00 -0.11984828581E+04  0.11984828582E+04  0.50400001928E-02 0. -1.
    10030    2    1    2    0    0  0.00000000000E+00  0.00000000000E+00 -0.89107404324E+02  0.23078583120E+04  0.23061374327E+04 0.  0.
        3    1    3    3  502    0 -0.12605821360E+03  0.15949724081E+03  0.10912987259E+04  0.11100734041E+04  0.10100000352E+00 0.  1.
       -3    1    3    3    0  502  0.12605821360E+03 -0.15949724081E+03 -0.11804061303E+04  0.11977849079E+04  0.10100000352E+00 0. -1.
</event>
<event>
 5   0  0.6814789E-05  0.2296251E+04  0.7818609E-02  0.8479401E-01
       -2   -1    0    0    0  501  0.00000000000E+00  0.00000000000E+00  0.74740847283E+03  0.74740847284E+03  0.25500000920E-02 0.  1.
        2   -1    0    0  501    0  0.00000000000E+00  0.00000000000E+00 -0.17636834693E+04  0.17636834693E+04  0.25500000920E-02 0. -1.
    10030    2    1    2    0    0  0.00000000000E+00  0.00000000000E+00 -0.10162749965E+04  0.25110919422E+04  0.22962508298E+04 0.  0.
        1    1    3    3  502    0 -0.99992157753E+03 -0.42915931377E+03 -0.10757271631E+03  0.10934316472E+04  0.50400001928E-02 0.  1.
       -1    1    3    3    0  502  0.99992157753E+03  0.42915931377E+03 -0.90870228017E+03  0.14176602949E+04  0.50400001928E-02 0. -1.
</event>
<event>
 5   0  0.3118614E-05  0.2256195E+04  0.7818609E-02  0.8495396E-01
       -1   -1    0    0    0  501  0.00000000000E+00  0.00000000000E+00  0.98360705925E+03  0.98360705926E+03  0.50400001928E-02 0.  1.
        1   -1    0    0  501    0  0.00000000000E+00  0.00000000000E+00 -0.12938138375E+04  0.12938138375E+04  0.50400001928E-02 0. -1.
    10030    2    1    2    0    0  0.00000000000E+00  0.00000000000E+00 -0.31020677825E+03  0.22774208968E+04  0.22561954028E+04 0.  0.
        3    1    3    3  502    0  0.10737278472E+04  0.11027684817E+03  0.17593298538E+03  0.10936200888E+04  0.10100000352E+00 0.  1.
       -3    1    3    3    0  502 -0.10737278472E+04 -0.11027684817E+03 -0.48613976363E+03  0.11838008080E+04  0.10100000352E+00 0. -1.
</event>
<event>
 5   0  0.6495405E-05  0.2304160E+04  0.7818609E-02  0.8476283E-01
       -2   -1    0    0    0  501  0.00000000000E+00  0.00000000000E+00  0.64888103258E+03  0.64888103258E+03  0.25500000920E-02 0.  1.
        2   -1    0    0  501    0  0.00000000000E+00  0.00000000000E+00 -0.20455031218E+04  0.20455031218E+04  0.25500000920E-02 0. -1.
    10030    2    1    2    0    0  0.00000000000E+00  0.00000000000E+00 -0.13966220892E+04  0.26943841544E+04  0.23041598710E+04 0.  0.
        5    1    3    3  502    0 -0.46402898594E+03  0.41290469327E+03 -0.18329199980E+04  0.19353116014E+04  0.46999998093E+01 0. -1.
       -5    1    3    3    0  502  0.46402898594E+03 -0.41290469327E+03  0.43629790876E+03  0.75907255299E+03  0.46999998093E+01 0.  1.
</event>
<event>
 5   0  0.6468758E-05  0.2319266E+04  0.7818609E-02  0.8470363E-01
       -2   -1    0    0    0  501  0.00000000000E+00  0.00000000000E+00  0.87195336566E+03  0.87195336566E+03  0.25500000920E-02 0. -1.
        2   -1    0    0  501    0  0.00000000000E+00  0.00000000000E+00 -0.15422254600E+04  0.15422254601E+04  0.25500000920E-02 0.  1.
    10030    2    1    2    0    0  0.00000000000E+00  0.00000000000E+00 -0.67027209439E+03  0.24141788257E+04  0.23192659878E+04 0.  0.
        3    1    3    3  502    0 -0.64978946491E+02 -0.11966257393E+03 -0.15338748966E+04  0.15399070114E+04  0.10100000352E+00 0.  1.
       -3    1    3    3    0  502  0.64978946491E+02  0.11966257393E+03  0.86360280223E+03  0.87427181431E+03  0.10100000352E+00 0. -1.
</event>
<event>
 5   0  0.6468758E-05  0.2290452E+04  0.7818609E-02  0.8481695E-01
       -2   -1    0    0    0  501  0.00000000000E+00  0.00000000000E+00  0.97342730194E+03  0.97342730194E+03  0.25500000920E-02 0. -1.
        2   -1    0    0  501    0  0.00000000000E+00  0.00000000000E+00 -0.13473447155E+04  0.13473447155E+04  0.25500000920E-02 0.  1.
    10030    2    1    2    0    0  0.00000000000E+00  0.00000000000E+00 -0.37391741357E+03  0.23207720175E+04  0.22904515985E+04 0.  0.
        3    1    3    3  502    0  0.56437386602E+03 -0.84258421612E+03  0.35213338592E+03  0.10735287391E+04  0.10100000352E+00 0. -1.
       -3    1    3    3    0  502 -0.56437386602E+03  0.84258421612E+03 -0.72605079949E+03  0.12472432784E+04  0.10100000352E+00 0.  1.
</event>
<event>
 5   0  0.2962279E-05  0.2268883E+04  0.7818609E-02  0.8490292E-01
       -1   -1    0    0    0  501  0.00000000000E+00  0.00000000000E+00  0.84888506773E+03  0.84888506775E+03  0.50400001928E-02 0.  1.
        1   -1    0    0  501    0  0.00000000000E+00  0.00000000000E+00 -0.15160556146E+04  0.15160556146E+04  0.50400001928E-02 0. -1.
    10030    2    1    2    0    0  0.00000000000E+00  0.00000000000E+00 -0.66717054687E+03  0.23649406824E+04  0.22688825206E+04 0.  0.
        1    1    3    3  502    0  0.56215791530E+03 -0.65833215477E+03 -0.10977927875E+04  0.13980599959E+04  0.50400001928E-02 0. -1.
       -1    1    3    3    0  502 -0.56215791530E+03  0.65833215477E+03  0.43062224064E+03  0.96688068649E+03  0.50400001928E-02 0.  1.
</event>
<event>
 5   0  0.2982385E-05  0.2305566E+04  0.7818609E-02  0.8475730E-01
        1   -1    0    0  501    0  0.00000000000E+00  0.00000000000E+00  0.19511365508E+04  0.19511365508E+04  0.50400001928E-02 0. -1.
       -1   -1    0    0    0  501  0.00000000000E+00  0.00000000000E+00 -0.68109435424E+03  0.68109435426E+03  0.50400001928E-02 0.  1.
    10030    2    1    2    0    0  0.00000000000E+00  0.00000000000E+00  0.12700421965E+04  0.26322309050E+04  0.23055655177E+04 0.  0.
        4    1    3    3  502    0 -0.69725463035E+03 -0.69743987304E+03 -0.46480163757E+02  0.98729347946E+03  0.12699999809E+01 0.  1.
       -4    1    3    3    0  502  0.69725463035E+03  0.69743987304E+03  0.13165223603E+04  0.16449374256E+04  0.12699999809E+01 0. -1.
</event>
<event>
 5   0  0.2962279E-05  0.2306916E+04  0.7818609E-02  0.8475199E-01
        1   -1    0    0  501    0  0.00000000000E+00  0.00000000000E+00  0.17922539532E+04  0.17922539533E+04  0.50400001928E-02 0.  1.
       -1   -1    0    0    0  501  0.00000000000E+00  0.00000000000E+00 -0.74234171494E+03  0.74234171496E+03  0.50400001928E-02 0. -1.
    10030    2    1    2    0    0  0.00000000000E+00  0.00000000000E+00  0.10499122383E+04  0.25345956682E+04  0.23069155800E+04 0.  0.
        1    1    3    3  502    0 -0.93095583085E+03 -0.31455991503E+03 -0.13867558086E+03  0.99239992739E+03  0.50400001928E-02 0. -1.
       -1    1    3    3    0  502  0.93095583085E+03  0.31455991503E+03  0.11885878192E+04  0.15421957408E+04  0.50400001928E-02 0.  1.
</event>
<event>
 5   0  0.2342500E-05  0.2294860E+04  0.7818609E-02  0.8479950E-01
       -3   -1    0    0    0  501  0.00000000000E+00  0.00000000000E+00  0.11876317711E+04  0.11876317754E+04  0.10100000352E+00 0.  1.
        3   -1    0    0  501    0  0.00000000000E+00  0.00000000000E+00 -0.11085891593E+04  0.11085891639E+04  0.10100000352E+00 0. -1.
    10030    2    1    2    0    0  0.00000000000E+00  0.00000000000E+00  0.79042611769E+02  0.22962209394E+04  0.22948600977E+04 0.  0.
        2    1    3    3  502    0  0.34742863386E+03 -0.68116915652E+03 -0.81649617228E+03  0.11186438552E+04  0.25500000920E-02 0. -1.
       -2    1    3    3    0  502 -0.34742863386E+03  0.68116915652E+03  0.89553878404E+03  0.11775770842E+04  0.25500000920E-02 0.  1.
</event>
<event>
 5   0  0.3118614E-05  0.2242583E+04  0.7818609E-02  0.8500910E-01
       -1   -1    0    0    0  501  0.00000000000E+00  0.00000000000E+00  0.52690221026E+03  0.52690221028E+03  0.50400001928E-02 0.  1.
        1   -1    0    0  501    0  0.00000000000E+00  0.00000000000E+00 -0.23862006388E+04  0.23862006388E+04  0.50400001928E-02 0. -1.
    10030    2    1    2    0    0  0.00000000000E+00  0.00000000000E+00 -0.18592984285E+04  0.29131028491E+04  0.22425827884E+04 0.  0.
        3    1    3    3  502    0 -0.68122198516E+03 -0.14473807277E+03  0.21190161858E+03  0.72795247711E+03  0.10100000352E+00 0.  1.
       -3    1    3    3    0  502  0.68122198516E+03  0.14473807277E+03 -0.20712000471E+04  0.21851503719E+04  0.10100000352E+00 0. -1.
</event>
<event>
 5   0  0.2982385E-05  0.2264306E+04  0.7818609E-02  0.8492129E-01
       -1   -1    0    0    0  501  0.00000000000E+00  0.00000000000E+00  0.96723796163E+03  0.96723796164E+03  0.50400001928E-02 0. -1.
        1   -1    0    0  501    0  0.00000000000E+00  0.00000000000E+00 -0.13251863705E+04  0.13251863705E+04  0.50400001928E-02 0.  1.
    10030    2    1    2    0    0  0.00000000000E+00  0.00000000000E+00 -0.35794840884E+03  0.22924243321E+04  0.22643061311E+04 0.  0.
        4    1    3    3  502    0  0.11136730883E+04  0.12253458828E+03 -0.14206544986E+02  0.11204846772E+04  0.12699999809E+01 0. -1.
       -4    1    3    3    0  502 -0.11136730883E+04 -0.12253458828E+03 -0.34374186385E+03  0.11719396549E+04  0.12699999809E+01 0.  1.
</event>
<event>
 5   0  0.3006265E-05  0.2367432E+04  0.7818609E-02  0.8451798E-01
       -1   -1    0    0    0  501  0.00000000000E+00  0.00000000000E+00  0.83909367843E+03  0.83909367845E+03  0.50400001928E-02 0.  1.
        1   -1    0    0  501    0  0.00000000000E+00  0.00000000000E+00 -0.16698774134E+04  0.16698774134E+04  0.50400001928E-02 0. -1.
    10030    2    1    2    0    0  0.00000000000E+00  0.00000000000E+00 -0.83078373496E+03  0.25089710919E+04  0.23674320107E+04 0.  0.
        2    1    3    3  502    0  0.67855921577E+03  0.80535578132E+03  0.15742515062E+03  0.10648113551E+04  0.25500000920E-02 0.  1.
       -2    1    3    3    0  502 -0.67855921577E+03 -0.80535578132E+03 -0.98820888558E+03  0.14441597368E+04  0.25500000920E-02 0. -1.
</event>
<event>
 5   0  0.6676612E-05  0.2168904E+04  0.7818609E-02  0.8531483E-01
        2   -1    0    0  501    0  0.00000000000E+00  0.00000000000E+00  0.18208727535E+04  0.18208727535E+04  0.25500000920E-02 0. -1.
       -2   -1    0    0    0  501  0.00000000000E+00  0.00000000000E+00 -0.64586417068E+03  0.64586417069E+03  0.25500000920E-02 0.  1.
    10030    2    1    2    0    0  0.00000000000E+00  0.00000000000E+00  0.11750085828E+04  0.24667369242E+04  0.21689043048E+04 0.  0.
        2    1    3    3  502    0  0.21232669277E+03 -0.20028964013E+03  0.17753568968E+04  0.17991916728E+04  0.25500000920E-02 0. -1.
       -2    1    3    3    0  502 -0.21232669277E+03  0.20028964013E+03 -0.60034831404E+03  0.66754525134E+03  0.25500000920E-02 0.  1.
</event>
<event>
 5   0  0.2944089E-05  0.2288189E+04  0.7818609E-02  0.8482593E-01
        1   -1    0    0  501    0  0.00000000000E+00  0.00000000000E+00  0.20354165741E+04  0.20354165741E+04  0.50400001928E-02 0.  1.
       -1   -1    0    0    0  501  0.00000000000E+00  0.00000000000E+00 -0.64308824094E+03  0.64308824096E+03  0.50400001928E-02 0. -1.
    10030    2    1    2    0    0  0.00000000000E+00  0.00000000000E+00  0.13923283332E+04  0.26785048151E+04  0.22881892092E+04 0.  0.
        5    1    3    3  502    0  0.83136952497E+03  0.78245501802E+03  0.78312822987E+03  0.13844576760E+04  0.46999998093E+01 0. -1.
       -5    1    3    3    0  502 -0.83136952497E+03 -0.78245501802E+03  0.60920010332E+03  0.12940471391E+04  0.46999998093E+01 0.  1.
</event>
<event>
 5   0  0.3118614E-05  0.2294323E+04  0.7818609E-02  0.8480163E-01
        1   -1    0    0  501    0  0.00000000000E+00  0.00000000000E+00  0.13662540534E+04  0.13662540535E+04  0.50400001928E-02 0. -1.
       -1   -1    0    0    0  501  0.00000000000E+00  0.00000000000E+00 -0.96320240150E+03  0.96320240152E+03  0.50400001928E-02 0.  1.
    10030    2    1    2    0    0  0.00000000000E+00  0.00000000000E+00  0.40305165194E+03  0.23294564550E+04  0.22943227196E+04 0.  0.
        3    1    3    3  502    0 -0.10125188808E+04  0.11655464710E+03  0.73608584408E+03  0.12572198892E+04  0.10100000352E+00 0. -1.
       -3    1    3    3    0  502  0.10125188808E+04 -0.11655464710E+03 -0.33303419214E+03  0.10722365658E+04  0.10100000352E+00 0.  1.
</event>
<event>
 5   0  0.6676612E-05  0.2323490E+04  0.7818609E-02  0.8468716E-01
       -2   -1    0    0    0  501  0.00000000000E+00  0.00000000000E+00  0.10892602532E+04  0.10892602532E+04  0.25500000920E-02 0. -1.
        2   -1    0    0  501    0  0.00000000000E+00  0.00000000000E+00 -0.12390535574E+04  0.12390535574E+04  0.25500000920E-02 0.  1.
    10030    2    1    2    0    0  0.00000000000E+00  0.00000000000E+00 -0.14979330420E+03  0.23283138105E+04  0.23234902983E+04 0.  0.
        2    1    3    3  502    0 -0.11621423372E+03  0.20153536392E+03 -0.12154728673E+04  0.12375364812E+04  0.25500000920E-02 0.  1.
       -2    1    3    3    0  502  0.11621423372E+03 -0.20153536392E+03  0.10656795631E+04  0.10907773294E+04  0.25500000920E-02 0. -1.
</event>
<event>
 5   0  0.3006265E-05  0.2223045E+04  0.7818609E-02  0.8508897E-01
        1   -1    0    0  501    0  0.00000000000E+00  0.00000000000E+00  0.16432738078E+04  0.16432738078E+04  0.50400001928E-02 0.  1.
       -1   -1    0    0    0  501  0.00000000000E+00  0.00000000000E+00 -0.75184233870E+03  0.75184233872E+03  0.50400001928E-02 0. -1.
    10030    2    1    2    0    0  0.00000000000E+00  0.00000000000E+00  0.89143146911E+03  0.23951161465E+04  0.22230454991E+04 0.  0.
        2    1    3    3  502    0  0.29247861994E+03 -0.10607364574E+04  0.61530749830E+03  0.12606779497E+04  0.25500000920E-02 0. -1.
       -2    1    3    3    0  502 -0.29247861994E+03  0.10607364574E+04  0.27612397081E+03  0.11344381969E+04  0.25500000920E-02 0.  1.
</event>
<event>
 5   0  0.2944089E-05  0.2310107E+04  0.7818609E-02  0.8473947E-01
        1   -1    0    0  501    0  0.00000000000E+00  0.00000000000E+00  0.12989053578E+04  0.12989053578E+04  0.50400001928E-02 0.  1.
       -1   -1    0    0    0  501  0.00000000000E+00  0.00000000000E+00 -0.10271333977E+04  0.10271333978E+04  0.50400001928E-02 0. -1.
    10030    2    1    2    0    0  0.00000000000E+00  0.00000000000E+00  0.27177196001E+03  0.23260387555E+04  0.23101074204E+04 0.  0.
        5    1    3    3  502    0  0.10624589353E+04  0.20038681897E+03 -0.27330698515E+03  0.11152096954E+04  0.46999998093E+01 0. -1.
       -5    1    3    3    0  502 -0.10624589353E+04 -0.20038681897E+03  0.54507894517E+03  0.12108290602E+04  0.46999998093E+01 0.  1.
</event>
<event>
 5   0  0.6814789E-05  0.2302741E+04  0.7818609E-02  0.8476841E-01
        2   -1    0    0  501    0  0.00000000000E+00  0.00000000000E+00  0.17764804786E+04  0.17764804786E+04  0.25500000920E-02 0.  1.
       -2   -1    0    0    0  501  0.00000000000E+00  0.00000000000E+00 -0.74622493687E+03  0.74622493688E+03  0.25500000920E-02 0. -1.
    10030    2    1    2    0    0  0.00000000000E+00  0.00000000000E+00  0.10302555417E+04  0.25227054155E+04  0.23027410041E+04 0.  0.
        1    1    3    3  502    0  0.76154700136E+03  0.17563237397E+03  0.14413814777E+04  0.16396283513E+04  0.50400001928E-02 0.  1.
       -1    1    3    3    0  502 -0.76154700136E+03 -0.17563237397E+03 -0.41112593596E+03  0.88307706420E+03  0.50400001928E-02 0. -1.
</event>
<event>
 5   0  0.6676612E-05  0.2282197E+04  0.7818609E-02  0.8484974E-01
       -2   -1    0    0    0  501  0.00000000000E+00  0.00000000000E+00  0.69494610271E+03  0.69494610272E+03  0.25500000920E-02 0. -1.
        2   -1    0    0  501    0  0.00000000000E+00  0.00000000000E+00 -0.18736783163E+04  0.18736783163E+04  0.25500000920E-02 0.  1.
    10030    2    1    2    0    0  0.00000000000E+00  0.00000000000E+00 -0.11787322136E+04  0.25686244190E+04  0.22821966994E+04 0.  0.
        2    1    3    3  502    0 -0.83759086040E+03 -0.77194323256E+03 -0.51261159899E+03  0.12490898507E+04  0.25500000920E-02 0.  1.
       -2    1    3    3    0  502  0.83759086040E+03  0.77194323256E+03 -0.66612061458E+03  0.13195345683E+04  0.25500000920E-02 0. -1.
</event>
<event>
 5   0  0.6702421E-05  0.2289924E+04  0.7818609E-02  0.8481904E-01
       -2   -1    0    0    0  501  0.00000000000E+00  0.00000000000E+00  0.11516536858E+04  0.11516536858E+04  0.25500000920E-02 0.  1.
        2   -1    0    0  501    0  0.00000000000E+00  0.00000000000E+00 -0.11383093545E+04  0.11383093545E+04  0.25500000920E-02 0. -1.
    10030    2    1    2    0    0  0.00000000000E+00  0.00000000000E+00  0.13344331322E+02  0.22899630402E+04  0.22899241591E+04 0.  0.
        4    1    3    3  502    0 -0.37173060344E+03  0.10757560169E+04  0.13118091164E+03  0.11457070716E+04  0.12699999809E+01 0.  1.
       -4    1    3    3    0  502  0.37173060344E+03 -0.10757560169E+04 -0.11783658032E+03  0.11442559687E+04  0.12699999809E+01 0. -1.
</event>
<event>
 5   0  0.6495405E-05  0.2295791E+04  0.7818609E-02  0.8479583E-01
        2   -1    0    0  501    0  0.00000000000E+00  0.00000000000E+00  0.12895168998E+04  0.12895168998E+04  0.25500000920E-02 0. -1.
       -2   -1    0    0    0  501  0.00000000000E+00  0.00000000000E+00 -0.10218272898E+04  0.10218272898E+04  0.25500000920E-02 0.  1.
    10030    2    1    2    0    0  0.00000000000E+00  0.00000000000E+00  0.26768961003E+03  0.23113441896E+04  0.22957905470E+04 0.  0.
        5    1    3    3  502    0 -0.95601512105E+03 -0.27563231021E+03  0.71017692477E+03  0.12224203191E+04  0.46999998093E+01 0. -1.
       -5    1    3    3    0  502  0.95601512105E+03  0.27563231021E+03 -0.44248731474E+03  0.10889238705E+04  0.46999998093E+01 0.  1.
</event>
<event>
 5   0  0.6702421E-05  0.2396331E+04  0.7818609E-02  0.8440878E-01
       -2   -1    0    0    0  501  0.00000000000E+00  0.00000000000E+00  0.43753626723E+03  0.43753626723E+03  0.25500000920E-02 0.  1.
        2   -1    0    0  501    0  0.00000000000E+00  0.00000000000E+00 -0.32811017809E+04  0.32811017809E+04  0.25500000920E-02 0. -1.
    10030    2    1    2    0    0  0.00000000000E+00  0.00000000000E+00 -0.28435655137E+04  0.37186380481E+04  0.23963313841E+04 0.  0.
        4    1    3    3  502    0 -0.55371109094E+03  0.33886908977E+03  0.14097860658E+03  0.66430776952E+03  0.12699999809E+01 0.  1.
       -4    1    3    3    0  502  0.55371109094E+03 -0.33886908977E+03 -0.29845441202E+04  0.30543302786E+04  0.12699999809E+01 0. -1.
</event>
<event>
 5   0  0.6814789E-05  0.2314991E+04  0.7818609E-02  0.8472034E-01
       -2   -1    0    0    0  501  0.00000000000E+00  0.00000000000E+00  0.10082973710E+04  0.10082973710E+04  0.25500000920E-02 0. -1.
        2   -1    0    0  501    0  0.00000000000E+00  0.00000000000E+00 -0.13287703636E+04  0.13287703636E+04  0.25500000920E-02 0.  1.
    10030    2    1    2    0    0  0.00000000000E+00  0.00000000000E+00 -0.32047299262E+03  0.23370677346E+04  0.23149908546E+04 0.  0.
        1    1    3    3  502    0 -0.61273502214E+02 -0.65926628346E+03  0.79824340531E+03  0.10371012529E+04  0.50400001928E-02 0. -1.
       -1    1    3    3    0  502  0.61273502214E+02  0.65926628346E+03 -0.11187163979E+04  0.12999664817E+04  0.50400001928E-02 0.  1.
</event>
<event>
 5   0  0.3006265E-05  0.2308665E+04  0.7818609E-02  0.8474512E-01
       -1   -1    0    0    0  501  0.00000000000E+00  0.00000000000E+00  0.10268207341E+04  0.10268207342E+04  0.50400001928E-02 0. -1.
        1   -1    0    0  501    0  0.00000000000E+00  0.00000000000E+00 -0.12976793282E+04  0.12976793282E+04  0.50400001928E-02 0.  1.
    10030    2    1    2    0    0  0.00000000000E+00  0.00000000000E+00 -0.27085859406E+03  0.23245000624E+04  0.23086654504E+04 0.  0.
        2    1    3    3  502    0  0.26383667021E+03 -0.23789162478E+03  0.97041237327E+03  0.10333936268E+04  0.25500000920E-02 0. -1.
       -2    1    3    3    0  502 -0.26383667021E+03  0.23789162478E+03 -0.12412709673E+04  0.12911064356E+04  0.25500000920E-02 0.  1.
</event>
<event>
 5   0  0.6676612E-05  0.2092186E+04  0.7818609E-02  0.8564693E-01
        2   -1    0    0  501    0  0.00000000000E+00  0.00000000000E+00  0.36650725660E+03  0.36650725660E+03  0.25500000920E-02 0.  1.
       -2   -1    0    0    0  501  0.00000000000E+00  0.00000000000E+00 -0.29857822908E+04  0.29857822908E+04  0.25500000920E-02 0. -1.
    10030    2    1    2    0    0  0.00000000000E+00  0.00000000000E+00 -0.26192750342E+04  0.33522895474E+04  0.20921862978E+04 0.  0.
        2    1    3    3  502    0  0.10023535681E+04  0.29594121749E+03 -0.12376770892E+04  0.16199192748E+04  0.25500000920E-02 0.  1.
       -2    1    3    3    0  502 -0.10023535681E+04 -0.29594121749E+03 -0.13815979449E+04  0.17323702725E+04  0.25500000920E-02 0. -1.
</event>
<event>
 5   0  0.6468758E-05  0.2254677E+04  0.7818609E-02  0.8496009E-01
        2   -1    0    0  501    0  0.00000000000E+00  0.00000000000E+00  0.16028562196E+04  0.16028562196E+04  0.25500000920E-02 0. -1.
       -2   -1    0    0    0  501  0.00000000000E+00  0.00000000000E+00 -0.79289202633E+03  0.79289202634E+03  0.25500000920E-02 0.  1.
    10030    2    1    2    0    0  0.00000000000E+00  0.00000000000E+00  0.80996419325E+03  0.23957482459E+04  0.22546768424E+04 0.  0.
        3    1    3    3  502    0 -0.73472869764E+03  0.54754375127E+03  0.11027760673E+04  0.14337871124E+04  0.10100000352E+00 0. -1.
       -3    1    3    3    0  502  0.73472869764E+03 -0.54754375127E+03 -0.29281187407E+03  0.96196113357E+03  0.10100000352E+00 0.  1.
</event>
<event>
 5   0  0.6495405E-05  0.2256733E+04  0.7818609E-02  0.8495179E-01
        2   -1    0    0  501    0  0.00000000000E+00  0.00000000000E+00  0.73045003347E+03  0.73045003347E+03  0.25500000920E-02 0. -1.
       -2   -1    0    0    0  501  0.00000000000E+00  0.00000000000E+00 -0.17430505269E+04  0.17430505270E+04  0.25500000920E-02 0.  1.
    10030    2    1    2    0    0  0.00000000000E+00  0.00000000000E+00 -0.10126004935E+04  0.24735005604E+04  0.22567333168E+04 0.  0.
        5    1    3    3  502    0  0.99465490923E+03 -0.50277211599E+03 -0.69950136882E+03  0.13158428645E+04  0.46999998093E+01 0.  1.
       -5    1    3    3    0  502 -0.99465490923E+03  0.50277211599E+03 -0.31309912466E+03  0.11576576959E+04  0.46999998093E+01 0. -1.
</event>
<event>
 5   0  0.6814789E-05  0.2321461E+04  0.7818609E-02  0.8469507E-01
        2   -1    0    0  501    0  0.00000000000E+00  0.00000000000E+00  0.19177534205E+04  0.19177534206E+04  0.25500000920E-02 0.  1.
       -2   -1    0    0    0  501  0.00000000000E+00  0.00000000000E+00 -0.70253824298E+03  0.70253824298E+03  0.25500000920E-02 0. -1.
    10030    2    1    2    0    0  0.00000000000E+00  0.00000000000E+00  0.12152151776E+04  0.26202916635E+04  0.23214608492E+04 0.  0.
        1    1    3    3  502    0  0.14130794905E+03  0.49646791412E+03  0.17810731280E+04  0.18543650702E+04  0.50400001928E-02 0.  1.
       -1    1    3    3    0  502 -0.14130794905E+03 -0.49646791412E+03 -0.56585795047E+03  0.76592659332E+03  0.50400001928E-02 0. -1.
</event>
<event>
 5   0  0.2962279E-05  0.2310050E+04  0.7818609E-02  0.8473969E-01
       -1   -1    0    0    0  501  0.00000000000E+00  0.00000000000E+00  0.12836892652E+04  0.12836892653E+04  0.50400001928E-02 0. -1.
        1   -1    0    0  501    0  0.00000000000E+00  0.00000000000E+00 -0.10392570327E+04  0.10392570327E+04  0.50400001928E-02 0.  1.
    10030    2    1    2    0    0  0.00000000000E+00  0.00000000000E+00  0.24443223253E+03  0.23229462980E+04  0.23100502997E+04 0.  0.
        1    1    3    3  502    0 -0.67221917022E+03 -0.46736116972E+03  0.94149010652E+03  0.12476813281E+04  0.50400001928E-02 0. -1.
       -1    1    3    3    0  502  0.67221917022E+03  0.46736116972E+03 -0.69705787399E+03  0.10752649699E+04  0.50400001928E-02 0.  1.
</event>
<event>
 5   0  0.6676612E-05  0.2315560E+04  0.7818609E-02  0.8471811E-01
        2   -1    0    0  501    0  0.00000000000E+00  0.00000000000E+00  0.10334337649E+04  0.10334337649E+04  0.25500000920E-02 0.  1.
       -2   -1    0    0    0  501  0.00000000000E+00  0.00000000000E+00 -0.12970876475E+04  0.12970876475E+04  0.25500000920E-02 0. -1.
    10030    2    1    2    0    0  0.00000000000E+00  0.00000000000E+00 -0.26365388266E+03  0.23305214124E+04  0.23155596913E+04 0.  0.
        2    1    3    3  502    0 -0.11673072805E+03 -0.32339594015E+03  0.98086752162E+03  0.10393806290E+04  0.25500000920E-02 0.  1.
       -2    1    3    3    0  502  0.11673072805E+03  0.32339594015E+03 -0.12445214043E+04  0.12911407834E+04  0.25500000920E-02 0. -1.
</event>
<event>
 5   0  0.2944089E-05  0.2314580E+04  0.7818609E-02  0.8472195E-01
        1   -1    0    0  501    0  0.00000000000E+00  0.00000000000E+00  0.15652490647E+04  0.15652490647E+04  0.50400001928E-02 0. -1.
       -1   -1    0    0    0  501  0.00000000000E+00  0.00000000000E+00 -0.85565913952E+03  0.85565913954E+03  0.50400001928E-02 0.  1.
    10030    2    1    2    0    0  0.00000000000E+00  0.00000000000E+00  0.70958992517E+03  0.24209082042E+04  0.23145795885E+04 0.  0.
        5    1    3    3  502    0  0.23044518763E+03  0.23331570911E+03  0.15156249333E+04  0.15507037863E+04  0.46999998093E+01 0. -1.
       -5    1    3    3    0  502 -0.23044518763E+03 -0.23331570911E+03 -0.80603500811E+03  0.87020441789E+03  0.46999998093E+01 0.  1.
</event>
<event>
 5   0  0.6495405E-05  0.2307974E+04  0.7818609E-02  0.8474784E-01
        2   -1    0    0  501    0  0.00000000000E+00  0.00000000000E+00  0.14794334407E+04  0.14794334407E+04  0.25500000920E-02 0. -1.
       -2   -1    0    0    0  501  0.00000000000E+00  0.00000000000E+00 -0.90013210286E+03  0.90013210287E+03  0.25500000920E-02 0.  1.
    10030    2    1    2    0    0  0.00000000000E+00  0.00000000000E+00  0.57930133786E+03  0.23795655436E+04  0.23079735995E+04 0.  0.
        5    1    3    3  502    0 -0.38071513540E+03  0.82563111123E+03 -0.44306450016E+03  0.10114044628E+04  0.46999998093E+01 0.  1.
       -5    1    3    3    0  502  0.38071513540E+03 -0.82563111123E+03  0.10223658380E+04  0.13681610807E+04  0.46999998093E+01 0. -1.
</event>
<event>
 5   0  0.2982385E-05  0.2308436E+04  0.7818609E-02  0.8474602E-01
       -1   -1    0    0    0  501  0.00000000000E+00  0.00000000000E+00  0.10803042556E+04  0.10803042556E+04  0.50400001928E-02 0.  1.
        1   -1    0    0  501    0  0.00000000000E+00  0.00000000000E+00 -0.12331887608E+04  0.12331887608E+04  0.50400001928E-02 0. -1.
    10030    2    1    2    0    0  0.00000000000E+00  0.00000000000E+00 -0.15288450521E+03  0.23134930164E+04  0.23084358915E+04 0.  0.
        4    1    3    3  502    0  0.49393731268E+03 -0.61279800270E+03 -0.92252035437E+03  0.12126585992E+04  0.12699999809E+01 0. -1.
       -4    1    3    3    0  502 -0.49393731268E+03  0.61279800270E+03  0.76963584916E+03  0.11008344172E+04  0.12699999809E+01 0.  1.
</event>
<event>
 5   0  0.6702421E-05  0.2287742E+04  0.7818609E-02  0.8482770E-01
        2   -1    0    0  501    0  0.00000000000E+00  0.00000000000E+00  0.13981800337E+04  0.13981800337E+04  0.25500000920E-02 0.  1.
       -2   -1    0    0    0  501  0.00000000000E+00  0.00000000000E+00 -0.93581729477E+03  0.93581729477E+03  0.25500000920E-02 0. -1.
    10030    2    1    2    0    0  0.00000000000E+00  0.00000000000E+00  0.46236273888E+03  0.23339973284E+04  0.22877421679E+04 0.  0.
        4    1    3    3  502    0 -0.96475559796E+03 -0.44757410147E+03  0.66084184726E+03  0.12521140124E+04  0.12699999809E+01 0.  1.
       -4    1    3    3    0  502  0.96475559796E+03  0.44757410147E+03 -0.19847910837E+03  0.10818833160E+04  0.12699999809E+01 0. -1.
</event>
<event>
 5   0  0.2962279E-05  0.2287260E+04  0.7818609E-02  0.8482961E-01
        1   -1    0    0  501    0  0.00000000000E+00  0.00000000000E+00  0.13533490439E+04  0.13533490439E+04  0.50400001928E-02 0. -1.
       -1   -1    0    0    0  501  0.00000000000E+00  0.00000000000E+00 -0.96641005072E+03  0.96641005073E+03  0.50400001928E-02 0.  1.
    10030    2    1    2    0    0  0.00000000000E+00  0.00000000000E+00  0.38693899314E+03  0.23197590946E+04  0.22872604733E+04 0.  0.
        1    1    3    3  502    0 -0.89543676988E+03  0.66957713465E+03 -0.50256378663E+02  0.11192257376E+04  0.50400001928E-02 0. -1.
       -1    1    3    3    0  502  0.89543676988E+03 -0.66957713465E+03  0.43719537180E+03  0.12005333570E+04  0.50400001928E-02 0.  1.
</event>
<event>
 5   0  0.6814789E-05  0.2430951E+04  0.7818609E-02  0.8428006E-01
       -2   -1    0    0    0  501  0.00000000000E+00  0.00000000000E+00  0.72619746629E+03  0.72619746630E+03  0.25500000920E-02 0. -1.
        2   -1    0    0  501    0  0.00000000000E+00  0.00000000000E+00 -0.20344069184E+04  0.20344069184E+04  0.25500000920E-02 0.  1.
    10030    2    1    2    0    0  0.00000000000E+00  0.00000000000E+00 -0.13082094521E+04  0.27606043847E+04  0.24309513772E+04 0.  0.
        1    1    3    3  502    0  0.29198191289E+03 -0.47078179498E+03 -0.18827094068E+04  0.19625197188E+04  0.50400001928E-02 0.  1.
       -1    1    3    3    0  502 -0.29198191289E+03  0.47078179498E+03  0.57449995474E+03  0.79808466591E+03  0.50400001928E-02 0. -1.
</event>
<event>
 5   0  0.2982385E-05  0.2217068E+04  0.7818609E-02  0.8511357E-01
        1   -1    0    0  501    0  0.00000000000E+00  0.00000000000E+00  0.13345676314E+04  0.13345676314E+04  0.50400001928E-02 0. -1.
       -1   -1    0    0    0  501  0.00000000000E+00  0.00000000000E+00 -0.92078357423E+03  0.92078357424E+03  0.50400001928E-02 0.  1.
    10030    2    1    2    0    0  0.00000000000E+00  0.00000000000E+00  0.41378405713E+03  0.22553512056E+04  0.22170682928E+04 0.  0.
        4    1    3    3  502    0  0.75633435991E+02  0.10315402062E+02 -0.91810610782E+03  0.92127480280E+03  0.12699999809E+01 0.  1.
       -4    1    3    3    0  502 -0.75633435991E+02 -0.10315402062E+02  0.13318901650E+04  0.13340764028E+04  0.12699999809E+01 0. -1.
</event>
<event>
 5   0  0.6468758E-05  0.2299493E+04  0.7818609E-02  0.8478121E-01
        2   -1    0    0  501    0  0.00000000000E+00  0.00000000000E+00  0.20647954835E+04  0.20647954835E+04  0.25500000920E-02 0.  1.
       -2   -1    0    0    0  501  0.00000000000E+00  0.00000000000E+00 -0.64021693710E+03  0.64021693711E+03  0.25500000920E-02 0. -1.
    10030    2    1    2    0    0  0.00000000000E+00  0.00000000000E+00  0.14245785464E+04  0.27050124206E+04  0.22994930225E+04 0.  0.
        3    1    3    3  502    0  0.44971741685E+03  0.57122564552E+03 -0.33550434506E+03  0.80069199376E+03  0.10100000352E+00 0. -1.
       -3    1    3    3    0  502 -0.44971741685E+03 -0.57122564552E+03  0.17600828914E+04  0.19043204268E+04  0.10100000352E+00 0.  1.
</event>
<event>
 5   0  0.3118614E-05  0.2297653E+04  0.7818609E-02  0.8478847E-01
       -1   -1    0    0    0  501  0.00000000000E+00  0.00000000000E+00  0.10892510056E+04  0.10892510056E+04  0.50400001928E-02 0.  1.
        1   -1    0    0  501    0  0.00000000000E+00  0.00000000000E+00 -0.12116602498E+04  0.12116602499E+04  0.50400001928E-02 0. -1.
    10030    2    1    2    0    0  0.00000000000E+00  0.00000000000E+00 -0.12240924423E+03  0.23009112555E+04  0.22976528420E+04 0.  0.
        3    1    3    3  502    0 -0.10623155436E+03 -0.77819441678E+03 -0.90080308299E+03  0.11951225452E+04  0.10100000352E+00 0. -1.
       -3    1    3    3    0  502  0.10623155436E+03  0.77819441678E+03  0.77839383876E+03  0.11057887103E+04  0.10100000352E+00 0.  1.
</event>
<event>
 5   0  0.6814789E-05  0.2347080E+04  0.7818609E-02  0.8459586E-01
       -2   -1    0    0    0  501  0.00000000000E+00  0.00000000000E+00  0.92668531786E+03  0.92668531786E+03  0.25500000920E-02 0.  1.
        2   -1    0    0  501    0  0.00000000000E+00  0.00000000000E+00 -0.14861534753E+04  0.14861534753E+04  0.25500000920E-02 0. -1.
    10030    2    1    2    0    0  0.00000000000E+00  0.00000000000E+00 -0.55946815747E+03  0.24128387932E+04  0.23470804040E+04 0.  0.
        1    1    3    3  502    0  0.11209384409E+04  0.33052326418E+03 -0.16974110466E+03  0.11809151786E+04  0.50400001928E-02 0. -1.
       -1    1    3    3    0  502 -0.11209384409E+04 -0.33052326418E+03 -0.38972705281E+03  0.12319236146E+04  0.50400001928E-02 0.  1.
</event>
<event>
 5   0  0.2982385E-05  0.2192031E+04  0.7818609E-02  0.8521752E-01
       -1   -1    0    0    0  501  0.00000000000E+00  0.00000000000E+00  0.62646871338E+03  0.62646871340E+03  0.50400001928E-02 0. -1.
        1   -1    0    0  501    0  0.00000000000E+00  0.00000000000E+00 -0.19174935502E+04  0.19174935502E+04  0.50400001928E-02 0.  1.
    10030    2    1    2    0    0  0.00000000000E+00  0.00000000000E+00 -0.12910248368E+04  0.25439622636E+04  0.21920307638E+04 0.  0.
        4    1    3    3  502    0 -0.61911445707E+03 -0.21927710293E+03 -0.16638006590E+04  0.17887479992E+04  0.12699999809E+01 0.  1.
       -4    1    3    3    0  502  0.61911445707E+03  0.21927710293E+03  0.37277582211E+03  0.75521426448E+03  0.12699999809E+01 0. -1.
</event>
<event>
 5   0  0.6468758E-05  0.2290208E+04  0.7818609E-02  0.8481792E-01
        2   -1    0    0  501    0  0.00000000000E+00  0.00000000000E+00  0.10769121678E+04  0.10769121678E+04  0.25500000920E-02 0.  1.
       -2   -1    0    0    0  501  0.00000000000E+00  0.00000000000E+00 -0.12176137277E+04  0.12176137277E+04  0.25500000920E-02 0. -1.
    10030    2    1    2    0    0  0.00000000000E+00  0.00000000000E+00 -0.14070155987E+03  0.22945258955E+04  0.22902078849E+04 0.  0.
        3    1    3    3  502    0  0.29489658570E+03  0.10712687695E+04  0.20708693500E+03  0.11302503181E+04  0.10100000352E+00 0.  1.
       -3    1    3    3    0  502 -0.29489658570E+03 -0.10712687695E+04 -0.34778849487E+03  0.11642755774E+04  0.10100000352E+00 0. -1.
</event>
<event>
 5   0  0.2982385E-05  0.1732349E+04  0.7818609E-02  0.8743127E-01
       -1   -1    0    0    0  501  0.00000000000E+00  0.00000000000E+00  0.36401210408E+03  0.36401210412E+03  0.50400001928E-02 0.  1.
        1   -1    0    0  501    0  0.00000000000E+00  0.00000000000E+00 -0.20610795654E+04  0.20610795654E+04  0.50400001928E-02 0. -1.
    10030    2    1    2    0    0  0.00000000000E+00  0.00000000000E+00 -0.16970674613E+04  0.24250916695E+04  0.17323485900E+04 0.  0.
        4    1    3    3  502    0 -0.34335242682E+03  0.74432137729E+03 -0.12403797212E+04  0.14867577703E+04  0.12699999809E+01 0.  1.
       -4    1    3    3    0  502  0.34335242682E+03 -0.74432137729E+03 -0.45668774010E+03  0.93833389928E+03  0.12699999809E+01 0. -1.
</event>
<event>
 5   0  0.2342500E-05  0.2447242E+04  0.7818609E-02  0.8422026E-01
        3   -1    0    0  501    0  0.00000000000E+00  0.00000000000E+00  0.21159317051E+04  0.21159317075E+04  0.10100000352E+00 0.  1.
       -3   -1    0    0    0  501  0.00000000000E+00  0.00000000000E+00 -0.70760734749E+03  0.70760735470E+03  0.10100000352E+00 0. -1.
    10030    2    1    2    0    0  0.00000000000E+00  0.00000000000E+00  0.14083243576E+04  0.28235390622E+04  0.24472423949E+04 0.  0.
        2    1    3    3  502    0  0.65189114169E+03 -0.33721689132E+03  0.18337736102E+04  0.19751969385E+04  0.25500000920E-02 0.  1.
       -2    1    3    3    0  502 -0.65189114169E+03  0.33721689132E+03 -0.42544925256E+03  0.84834212374E+03  0.25500000920E-02 0. -1.
</event>
<event>
 5   0  0.2982385E-05  0.2287727E+04  0.7818609E-02  0.8482776E-01
        1   -1    0    0  501    0  0.00000000000E+00  0.00000000000E+00  0.73308853181E+03  0.73308853183E+03  0.50400001928E-02 0.  1.
       -1   -1    0    0    0  501  0.00000000000E+00  0.00000000000E+00 -0.17848101551E+04  0.17848101552E+04  0.50400001928E-02 0. -1.
    10030    2    1    2    0    0  0.00000000000E+00  0.00000000000E+00 -0.10517216233E+04  0.25178986870E+04  0.22877271308E+04 0.  0.
        4    1    3    3  502    0 -0.80351309245E+02  0.49969767016E+03 -0.16548693885E+04  0.17305341373E+04  0.12699999809E+01 0. -1.
       -4    1    3    3    0  502  0.80351309245E+02 -0.49969767016E+03  0.60314776521E+03  0.78736454965E+03  0.12699999809E+01 0.  1.
</event>
<event>
 5   0  0.2944089E-05  0.2410502E+04  0.7818609E-02  0.8435582E-01
       -1   -1    0    0    0  501  0.00000000000E+00  0.00000000000E+00  0.80509470615E+03  0.80509470616E+03  0.50400001928E-02 0.  1.
        1   -1    0    0  501    0  0.00000000000E+00  0.00000000000E+00 -0.18042968027E+04  0.18042968027E+04  0.50400001928E-02 0. -1.
    10030    2    1    2    0    0  0.00000000000E+00  0.00000000000E+00 -0.99920209658E+03  0.26093915089E+04  0.24105018600E+04 0.  0.
        5    1    3    3  502    0  0.65025761508E+02 -0.65098927523E+03 -0.15953405636E+04  0.17242821665E+04  0.46999998093E+01 0. -1.
       -5    1    3    3    0  502 -0.65025761508E+02  0.65098927523E+03  0.59613846697E+03  0.88510934236E+03  0.46999998093E+01 0.  1.
</event>
<event>
 5   0  0.6676612E-05  0.2287428E+04  0.7818609E-02  0.8482895E-01
        2   -1    0    0  501    0  0.00000000000E+00  0.00000000000E+00  0.10136761550E+04  0.10136761550E+04  0.25500000920E-02 0.  1.
       -2   -1    0    0    0  501  0.00000000000E+00  0.00000000000E+00 -0.12904338078E+04  0.12904338078E+04  0.25500000920E-02 0. -1.
    10030    2    1    2    0    0  0.00000000000E+00  0.00000000000E+00 -0.27675765281E+03  0.23041099627E+04  0.22874282332E+04 0.  0.
        2    1    3    3  502    0  0.77126603199E+03  0.14643213587E+03 -0.97618264705E+03  0.12526875999E+04  0.25500000920E-02 0. -1.
       -2    1    3    3    0  502 -0.77126603199E+03 -0.14643213587E+03  0.69942499424E+03  0.10514223628E+04  0.25500000920E-02 0.  1.
</event>
<event>
 5   0  0.6702421E-05  0.2328876E+04  0.7818609E-02  0.8466622E-01
        2   -1    0    0  501    0  0.00000000000E+00  0.00000000000E+00  0.17436675525E+04  0.17436675525E+04  0.25500000920E-02 0.  1.
       -2   -1    0    0    0  501  0.00000000000E+00  0.00000000000E+00 -0.77762265090E+03  0.77762265091E+03  0.25500000920E-02 0. -1.
    10030    2    1    2    0    0  0.00000000000E+00  0.00000000000E+00  0.96604490155E+03  0.25212902034E+04  0.23288755952E+04 0.  0.
        4    1    3    3  502    0 -0.27563673071E+03 -0.89328186261E+02  0.17040150772E+04  0.17284745090E+04  0.12699999809E+01 0.  1.
       -4    1    3    3    0  502  0.27563673071E+03  0.89328186261E+02 -0.73797017563E+03  0.79281569434E+03  0.12699999809E+01 0. -1.
</event>
<event>
 5   0  0.6495405E-05  0.2286722E+04  0.7818609E-02  0.8483175E-01
       -2   -1    0    0    0  501  0.00000000000E+00  0.00000000000E+00  0.48850309972E+03  0.48850309972E+03  0.25500000920E-02 0.  1.
        2   -1    0    0  501    0  0.00000000000E+00  0.00000000000E+00 -0.26760816576E+04  0.26760816576E+04  0.25500000920E-02 0. -1.
    10030    2    1    2    0    0  0.00000000000E+00  0.00000000000E+00 -0.21875785579E+04  0.31645847573E+04  0.22867218325E+04 0.  0.
        5    1    3    3  502    0 -0.85622853576E+03 -0.69631374628E+03 -0.68030317452E+03  0.12964623550E+04  0.46999998093E+01 0. -1.
       -5    1    3    3    0  502  0.85622853576E+03  0.69631374628E+03 -0.15072753833E+04  0.18681224023E+04  0.46999998093E+01 0.  1.
</event>
<event>
 5   0  0.6495405E-05  0.2300835E+04  0.7818609E-02  0.8477592E-01
       -2   -1    0    0    0  501  0.00000000000E+00  0.00000000000E+00  0.50535624148E+03  0.50535624148E+03  0.25500000920E-02 0.  1.
        2   -1    0    0  501    0  0.00000000000E+00  0.00000000000E+00 -0.26188669230E+04  0.26188669230E+04  0.25500000920E-02 0. -1.
    10030    2    1    2    0    0  0.00000000000E+00  0.00000000000E+00 -0.21135106815E+04  0.31242231645E+04  0.23008352789E+04 0.  0.
        5    1    3    3  502    0  0.58950193725E+03 -0.83387294646E+03 -0.33749444916E+03  0.10755376414E+04  0.46999998093E+01 0.  1.
       -5    1    3    3    0  502 -0.58950193725E+03  0.83387294646E+03 -0.17760162324E+04  0.20486855231E+04  0.46999998093E+01 0. -1.
</event>
<event>
 5   0  0.2982385E-05  0.2341183E+04  0.7818609E-02  0.8461858E-01
        1   -1    0    0  501    0  0.00000000000E+00  0.00000000000E+00  0.22787570692E+04  0.22787570692E+04  0.50400001928E-02 0. -1.
       -1   -1    0    0    0  501  0.00000000000E+00  0.00000000000E+00 -0.60132965320E+03  0.60132965323E+03  0.50400001928E-02 0.  1.
    10030    2    1    2    0    0  0.00000000000E+00  0.00000000000E+00  0.16774274159E+04  0.28800867224E+04  0.23411827764E+04 0.  0.
        4    1    3    3  502    0  0.72921651427E+03 -0.88907862964E+03  0.11084161929E+04  0.15971241667E+04  0.12699999809E+01 0. -1.
       -4    1    3    3    0  502 -0.72921651427E+03  0.88907862964E+03  0.56901122307E+03  0.12829625557E+04  0.12699999809E+01 0.  1.
</event>
<event>
 5   0  0.2962279E-05  0.2320835E+04  0.7818609E-02  0.8469751E-01
       -1   -1    0    0    0  501  0.00000000000E+00  0.00000000000E+00  0.70332906451E+03  0.70332906453E+03  0.50400001928E-02 0.  1.
        1   -1    0    0  501    0  0.00000000000E+00  0.00000000000E+00 -0.19145647396E+04  0.19145647396E+04  0.50400001928E-02 0. -1.
    10030    2    1    2    0    0  0.00000000000E+00  0.00000000000E+00 -0.12112356751E+04  0.26178938041E+04  0.23208352180E+04 0.  0.
        1    1    3    3  502    0  0.91936695079E+03 -0.11003939728E+03  0.18335479179E+03  0.94390849072E+03  0.50400001928E-02 0.  1.
       -1    1    3    3    0  502 -0.91936695079E+03  0.11003939728E+03 -0.13945904669E+04  0.16739853134E+04  0.50400001928E-02 0. -1.
</event>
<event>
 5   0  0.6468758E-05  0.2311362E+04  0.7818609E-02  0.8473455E-01
        2   -1    0    0  501    0  0.00000000000E+00  0.00000000000E+00  0.28136445564E+04  0.28136445564E+04  0.25500000920E-02 0. -1.
       -2   -1    0    0    0  501  0.00000000000E+00  0.00000000000E+00 -0.47468631515E+03  0.47468631515E+03  0.25500000920E-02 0.  1.
    10030    2    1    2    0    0  0.00000000000E+00  0.00000000000E+00  0.23389582412E+04  0.32883308715E+04  0.23113619938E+04 0.  0.
        3    1    3    3  502    0 -0.58253111291E+03  0.20861742693E+03  0.25581315642E+04  0.26319006133E+04  0.10100000352E+00 0. -1.
       -3    1    3    3    0  502  0.58253111291E+03 -0.20861742693E+03 -0.21917332291E+03  0.65643025829E+03  0.10100000352E+00 0.  1.
</event>
<event>
 5   0  0.6814789E-05  0.2298594E+04  0.7818609E-02  0.8478476E-01
        2   -1    0    0  501    0  0.00000000000E+00  0.00000000000E+00  0.19812093916E+04  0.19812093916E+04  0.25500000920E-02 0.  1.
       -2   -1    0    0    0  501  0.00000000000E+00  0.00000000000E+00 -0.66670578696E+03  0.66670578696E+03  0.25500000920E-02 0. -1.
    10030    2    1    2    0    0  0.00000000000E+00  0.00000000000E+00  0.13145036046E+04  0.26479151786E+04  0.22985941500E+04 0.  0.
        1    1    3    3  502    0  0.52605080120E+03  0.86673156379E+03  0.33769357572E+02  0.10144424176E+04  0.50400001928E-02 0. -1.
       -1    1    3    3    0  502 -0.52605080120E+03 -0.86673156379E+03  0.12807342471E+04  0.16334727609E+04  0.50400001928E-02 0.  1.
</event>
<event>
 5   0  0.6495405E-05  0.2346465E+04  0.7818609E-02  0.8459823E-01
        2   -1    0    0  501    0  0.00000000000E+00  0.00000000000E+00  0.21315158687E+04  0.21315158687E+04  0.25500000920E-02 0.  1.
       -2   -1    0    0    0  501  0.00000000000E+00  0.00000000000E+00 -0.64577231359E+03  0.64577231359E+03  0.25500000920E-02 0. -1.
    10030    2    1    2    0    0  0.00000000000E+00  0.00000000000E+00  0.14857435551E+04  0.27772881823E+04  0.23464645183E+04 0.  0.
        5    1    3    3  502    0 -0.69187094859E+03 -0.72058829285E+03  0.14671624055E+02  0.99908470303E+03  0.46999998093E+01 0. -1.
       -5    1    3    3    0  502  0.69187094859E+03  0.72058829285E+03  0.14710719310E+04  0.17782034792E+04  0.46999998093E+01 0.  1.
</event>
<event>
 5   0  0.3118614E-05  0.2322393E+04  0.7818609E-02  0.8469144E-01
        1   -1    0    0  501    0  0.00000000000E+00  0.00000000000E+00  0.13710920346E+04  0.13710920346E+04  0.50400001928E-02 0. -1.
       -1   -1    0    0    0  501  0.00000000000E+00  0.00000000000E+00 -0.98343310622E+03  0.98343310623E+03  0.50400001928E-02 0.  1.
    10030    2    1    2    0    0  0.00000000000E+00  0.00000000000E+00  0.38765892837E+03  0.23545251408E+04  0.23223929887E+04 0.  0.
        3    1    3    3  502    0 -0.47263799854E+03  0.21205332980E+02  0.12689452948E+04  0.13542741655E+04  0.10100000352E+00 0. -1.
       -3    1    3    3    0  502  0.47263799854E+03 -0.21205332980E+02 -0.88128636646E+03  0.10002509754E+04  0.10100000352E+00 0.  1.
</event>
<event>
 5   0  0.6676612E-05  0.2324445E+04  0.7818609E-02  0.8468345E-01
       -2   -1    0    0    0  501  0.00000000000E+00  0.00000000000E+00  0.94379678066E+03  0.94379678067E+03  0.25500000920E-02 0.  1.
        2   -1    0    0  501    0  0.00000000000E+00  0.00000000000E+00 -0.14311996577E+04  0.14311996577E+04  0.25500000920E-02 0. -1.
    10030    2    1    2    0    0  0.00000000000E+00  0.00000000000E+00 -0.48740287701E+03  0.23749964383E+04  0.23244454215E+04 0.  0.
        2    1    3    3  502    0 -0.18413817300E+03  0.11471516792E+04 -0.27431616697E+03  0.11937810525E+04  0.25500000920E-02 0. -1.
       -2    1    3    3    0  502  0.18413817300E+03 -0.11471516792E+04 -0.21308671003E+03  0.11812153859E+04  0.25500000920E-02 0.  1.
</event>
<event>
 5   0  0.2962279E-05  0.2395101E+04  0.7818609E-02  0.8441340E-01
       -1   -1    0    0    0  501  0.00000000000E+00  0.00000000000E+00  0.91519694603E+03  0.91519694604E+03  0.50400001928E-02 0. -1.
        1   -1    0    0  501    0  0.00000000000E+00  0.00000000000E+00 -0.15670151372E+04  0.15670151373E+04  0.50400001928E-02 0.  1.
    10030    2    1    2    0    0  0.00000000000E+00  0.00000000000E+00 -0.65181819122E+03  0.24822120833E+04  0.23951012238E+04 0.  0.
        1    1    3    3  502    0 -0.73287396452E+03  0.12573151643E+03 -0.12987815464E+04  0.14965781528E+04  0.50400001928E-02 0.  1.
       -1    1    3    3    0  502  0.73287396452E+03 -0.12573151643E+03  0.64696335515E+03  0.98563393054E+03  0.50400001928E-02 0. -1.
</event>
<event>
 5   0  0.6468758E-05  0.2284919E+04  0.7818609E-02  0.8483891E-01
       -2   -1    0    0    0  501  0.00000000000E+00  0.00000000000E+00  0.82482093419E+03  0.82482093419E+03  0.25500000920E-02 0.  1.
        2   -1    0    0  501    0  0.00000000000E+00  0.00000000000E+00 -0.15824204606E+04  0.15824204606E+04  0.25500000920E-02 0. -1.
    10030    2    1    2    0    0  0.00000000000E+00  0.00000000000E+00 -0.75759952638E+03  0.24072413948E+04  0.22849188367E+04 0.  0.
        3    1    3    3  502    0  0.68747865901E+02  0.75634176278E+03  0.52037494533E+03  0.92063522913E+03  0.10100000352E+00 0.  1.
       -3    1    3    3    0  502 -0.68747865901E+02 -0.75634176278E+03 -0.12779744717E+04  0.14866061656E+04  0.10100000352E+00 0. -1.
</event>
<event>
 5   0  0.6676612E-05  0.2259490E+04  0.7818609E-02  0.8494067E-01
        2   -1    0    0  501    0  0.00000000000E+00  0.00000000000E+00  0.14766836250E+04  0.14766836250E+04  0.25500000920E-02 0.  1.
       -2   -1    0    0    0  501  0.00000000000E+00  0.00000000000E+00 -0.86431749133E+03  0.86431749134E+03  0.25500000920E-02 0. -1.
    10030    2    1    2    0    0  0.00000000000E+00  0.00000000000E+00  0.61236613363E+03  0.23410011163E+04  0.22594897532E+04 0.  0.
        2    1    3    3  502    0 -0.76510485049E+02  0.84977843589E+03  0.10734008846E+04  0.13711917092E+04  0.25500000920E-02 0.  1.
       -2    1    3    3    0  502  0.76510485049E+02 -0.84977843589E+03 -0.46103475096E+03  0.96980940706E+03  0.25500000920E-02 0. -1.
</event>
<event>
 5   0  0.2962279E-05  0.2359242E+04  0.7818609E-02  0.8454922E-01
        1   -1    0    0  501    0  0.00000000000E+00  0.00000000000E+00  0.14423915641E+04  0.14423915641E+04  0.50400001928E-02 0. -1.
       -1   -1    0    0    0  501  0.00000000000E+00  0.00000000000E+00 -0.96472142397E+03  0.96472142399E+03  0.50400001928E-02 0.  1.
    10030    2    1    2    0    0  0.00000000000E+00  0.00000000000E+00  0.47767014008E+03  0.24071129881E+04  0.23592422882E+04 0.  0.
        1    1    3    3  502    0 -0.14557894880E+03  0.11464943024E+04 -0.23156151480E+01  0.11557022877E+04  0.50400001928E-02 0.  1.
       -1    1    3    3    0  502  0.14557894880E+03 -0.11464943024E+04  0.47998575523E+03  0.12514107003E+04  0.50400001928E-02 0. -1.
</event>
<event>
 5   0  0.6495405E-05  0.2323077E+04  0.7818609E-02  0.8468877E-01
       -2   -1    0    0    0  501  0.00000000000E+00  0.00000000000E+00  0.95409381736E+03  0.95409381737E+03  0.25500000920E-02 0. -1.
        2   -1    0    0  501    0  0.00000000000E+00  0.00000000000E+00 -0.14140873023E+04  0.14140873023E+04  0.25500000920E-02 0.  1.
    10030    2    1    2    0    0  0.00000000000E+00  0.00000000000E+00 -0.45999348497E+03  0.23681811197E+04  0.23230772285E+04 0.  0.
        5    1    3    3  502    0 -0.31548410533E+03 -0.93526961314E+03 -0.85416750557E+03  0.13053289576E+04  0.46999998093E+01 0.  1.
       -5    1    3    3    0  502  0.31548410533E+03  0.93526961314E+03  0.39417402060E+03  0.10628521621E+04  0.46999998093E+01 0. -1.
</event>
<event>
 5   0  0.6676612E-05  0.2290334E+04  0.7818609E-02  0.8481742E-01
        2   -1    0    0  501    0  0.00000000000E+00  0.00000000000E+00  0.10004718117E+04  0.10004718117E+04  0.25500000920E-02 0.  1.
       -2   -1    0    0    0  501  0.00000000000E+00  0.00000000000E+00 -0.13107893261E+04  0.13107893261E+04  0.25500000920E-02 0. -1.
    10030    2    1    2    0    0  0.00000000000E+00  0.00000000000E+00 -0.31031751441E+03  0.23112611377E+04  0.22903342741E+04 0.  0.
        2    1    3    3  502    0  0.35257340504E+03  0.98850983641E+03 -0.61754625955E+03  0.12177122342E+04  0.25500000920E-02 0.  1.
       -2    1    3    3    0  502 -0.35257340504E+03 -0.98850983641E+03  0.30722874514E+03  0.10935489036E+04  0.25500000920E-02 0. -1.
</event>
<event>
 5   0  0.6495405E-05  0.2311007E+04  0.7818609E-02  0.8473594E-01
        2   -1    0    0  501    0  0.00000000000E+00  0.00000000000E+00  0.73760186685E+03  0.73760186686E+03  0.25500000920E-02 0.  1.
       -2   -1    0    0    0  501  0.00000000000E+00  0.00000000000E+00 -0.18101755634E+04  0.18101755634E+04  0.25500000920E-02 0. -1.
    10030    2    1    2    0    0  0.00000000000E+00  0.00000000000E+00 -0.10725736965E+04  0.25477774303E+04  0.23110074642E+04 0.  0.
        5    1    3    3  502    0  0.61807516317E+03 -0.20355322629E+03  0.51637750604E+03  0.83073379731E+03  0.46999998093E+01 0.  1.
       -5    1    3    3    0  502 -0.61807516317E+03  0.20355322629E+03 -0.15889512026E+04  0.17170436329E+04  0.46999998093E+01 0. -1.
</event>
<event>
 5   0  0.2962279E-05  0.2306545E+04  0.7818609E-02  0.8475345E-01
        1   -1    0    0  501    0  0.00000000000E+00  0.00000000000E+00  0.13233204478E+04  0.13233204478E+04  0.50400001928E-02 0.  1.
       -1   -1    0    0    0  501  0.00000000000E+00  0.00000000000E+00 -0.10050762417E+04  0.10050762417E+04  0.50400001928E-02 0. -1.
    10030    2    1    2    0    0  0.00000000000E+00  0.00000000000E+00  0.31824420603E+03  0.23283966895E+04  0.23065454188E+04 0.  0.
        1    1    3    3  502    0 -0.16805954756E+03  0.78226564401E+03  0.99756536586E+03  0.12787963906E+04  0.50400001928E-02 0.  1.
       -1    1    3    3    0  502  0.16805954756E+03 -0.78226564401E+03 -0.67932115984E+03  0.10496002989E+04  0.50400001928E-02 0. -1.
</event>
<event>
 5   0  0.6702421E-05  0.2230056E+04  0.7818609E-02  0.8506021E-01
        2   -1    0    0  501    0  0.00000000000E+00  0.00000000000E+00  0.11830477095E+04  0.11830477095E+04  0.25500000920E-02 0. -1.
       -2   -1    0    0    0  501  0.00000000000E+00  0.00000000000E+00 -0.10509191908E+04  0.10509191908E+04  0.25500000920E-02 0.  1.
    10030    2    1    2    0    0  0.00000000000E+00  0.00000000000E+00  0.13212851871E+03  0.22339669003E+04  0.22300560904E+04 0.  0.
        4    1    3    3  502    0  0.42994775730E+03  0.49005079884E+03 -0.84011099733E+03  0.10633874930E+04  0.12699999809E+01 0.  1.
       -4    1    3    3    0  502 -0.42994775730E+03 -0.49005079884E+03  0.97223951605E+03  0.11705794074E+04  0.12699999809E+01 0. -1.
</event>
<event>
 5   0  0.6468758E-05  0.2303091E+04  0.7818609E-02  0.8476703E-01
        2   -1    0    0  501    0  0.00000000000E+00  0.00000000000E+00  0.18938983554E+04  0.18938983554E+04  0.25500000920E-02 0.  1.
       -2   -1    0    0    0  501  0.00000000000E+00  0.00000000000E+00 -0.70017324571E+03  0.70017324571E+03  0.25500000920E-02 0. -1.
    10030    2    1    2    0    0  0.00000000000E+00  0.00000000000E+00  0.11937251097E+04  0.25940716012E+04  0.23030909305E+04 0.  0.
        3    1    3    3  502    0 -0.27637478467E+03 -0.16410869381E+03  0.18423470801E+04  0.18701757829E+04  0.10100000352E+00 0.  1.
       -3    1    3    3    0  502  0.27637478467E+03  0.16410869381E+03 -0.64862197042E+03  0.72389581826E+03  0.10100000352E+00 0. -1.
</event>
<event>
 5   0  0.6495405E-05  0.2296692E+04  0.7818609E-02  0.8479227E-01
       -2   -1    0    0    0  501  0.00000000000E+00  0.00000000000E+00  0.11426361531E+04  0.11426361531E+04  0.25500000920E-02 0.  1.
        2   -1    0    0  501    0  0.00000000000E+00  0.00000000000E+00 -0.11540840756E+04  0.11540840756E+04  0.25500000920E-02 0. -1.
    10030    2    1    2    0    0  0.00000000000E+00  0.00000000000E+00 -0.11447922549E+02  0.22967202287E+04  0.22966916976E+04 0.  0.
        5    1    3    3  502    0  0.96055442623E+03 -0.25421215923E+02  0.62306445906E+03  0.11452259402E+04  0.46999998093E+01 0.  1.
       -5    1    3    3    0  502 -0.96055442623E+03  0.25421215923E+02 -0.63451238161E+03  0.11514942885E+04  0.46999998093E+01 0. -1.
</event>
<event>
 5   0  0.6468758E-05  0.2338474E+04  0.7818609E-02  0.8462904E-01
        2   -1    0    0  501    0  0.00000000000E+00  0.00000000000E+00  0.17072294910E+04  0.17072294910E+04  0.25500000920E-02 0. -1.
       -2   -1    0    0    0  501  0.00000000000E+00  0.00000000000E+00 -0.80077975126E+03  0.80077975127E+03  0.25500000920E-02 0.  1.
    10030    2    1    2    0    0  0.00000000000E+00  0.00000000000E+00  0.90644973976E+03  0.25080092423E+04  0.23384736964E+04 0.  0.
        3    1    3    3  502    0 -0.35916358405E+03 -0.93050930901E+03  0.11075972038E+04  0.14905091849E+04  0.10100000352E+00 0. -1.
       -3    1    3    3    0  502  0.35916358405E+03  0.93050930901E+03 -0.20114746404E+03  0.10175000574E+04  0.10100000352E+00 0.  1.
</event>
<event>
 5   0  0.3118614E-05  0.2306041E+04  0.7818609E-02  0.8475543E-01
        1   -1    0    0  501    0  0.00000000000E+00  0.00000000000E+00  0.18379166579E+04  0.18379166580E+04  0.50400001928E-02 0. -1.
       -1   -1    0    0    0  501  0.00000000000E+00  0.00000000000E+00 -0.72334958986E+03  0.72334958988E+03  0.50400001928E-02 0.  1.
    10030    2    1    2    0    0  0.00000000000E+00  0.00000000000E+00  0.11145670681E+04  0.25612662478E+04  0.23060409890E+04 0.  0.
        3    1    3    3  502    0  0.66647069948E+02 -0.42600486386E+03 -0.63043161820E+03  0.76378400834E+03  0.10100000352E+00 0.  1.
       -3    1    3    3    0  502 -0.66647069948E+02  0.42600486386E+03  0.17449986863E+04  0.17974822395E+04  0.10100000352E+00 0. -1.
</event>
<event>
 5   0  0.3118614E-05  0.2236219E+04  0.7818609E-02  0.8503503E-01
       -1   -1    0    0    0  501  0.00000000000E+00  0.00000000000E+00  0.70569127500E+03  0.70569127501E+03  0.50400001928E-02 0.  1.
        1   -1    0    0  501    0  0.00000000000E+00  0.00000000000E+00 -0.17715514260E+04  0.17715514260E+04  0.50400001928E-02 0. -1.
    10030    2    1    2    0    0  0.00000000000E+00  0.00000000000E+00 -0.10658601510E+04  0.24772427010E+04  0.22362185802E+04 0.  0.
        3    1    3    3  502    0 -0.63071014566E+02 -0.10697147087E+04 -0.17930484944E+03  0.10864703171E+04  0.10100000352E+00 0.  1.
       -3    1    3    3    0  502  0.63071014566E+02  0.10697147087E+04 -0.88655530156E+03  0.13907723839E+04  0.10100000352E+00 0. -1.
</event>
<event>
 5   0  0.6702421E-05  0.2313104E+04  0.7818609E-02  0.8472772E-01
       -2   -1    0    0    0  501  0.00000000000E+00  0.00000000000E+00  0.10509174112E+04  0.10509174112E+04  0.25500000920E-02 0. -1.
        2   -1    0    0  501    0  0.00000000000E+00  0.00000000000E+00 -0.12728045850E+04  0.12728045850E+04  0.25500000920E-02 0.  1.
    10030    2    1    2    0    0  0.00000000000E+00  0.00000000000E+00 -0.22188717375E+03  0.23237219962E+04  0.23131039747E+04 0.  0.
        4    1    3    3  502    0 -0.10964607250E+04 -0.12134527011E+03  0.23801254756E+03  0.11285399336E+04  0.12699999809E+01 0. -1.
       -4    1    3    3    0  502  0.10964607250E+04  0.12134527011E+03 -0.45989972131E+03  0.11951820626E+04  0.12699999809E+01 0.  1.
</event>
<event>
 5   0  0.2944089E-05  0.2319545E+04  0.7818609E-02  0.8470255E-01
       -1   -1    0    0    0  501  0.00000000000E+00  0.00000000000E+00  0.67851979030E+03  0.67851979031E+03  0.50400001928E-02 0. -1.
        1   -1    0    0  501    0  0.00000000000E+00  0.00000000000E+00 -0.19823623502E+04  0.19823623502E+04  0.50400001928E-02 0.  1.
    10030    2    1    2    0    0  0.00000000000E+00  0.00000000000E+00 -0.13038425599E+04  0.26608821405E+04  0.23195448572E+04 0.  0.
        5    1    3    3  502    0 -0.84688029034E+03 -0.76371434459E+03 -0.89414306773E+03  0.14491306849E+04  0.46999998093E+01 0. -1.
       -5    1    3    3    0  502  0.84688029034E+03  0.76371434459E+03 -0.40969949213E+03  0.12117514556E+04  0.46999998093E+01 0.  1.
</event>
<event>
 5   0  0.2342500E-05  0.2273760E+04  0.7818609E-02  0.8488340E-01
       -3   -1    0    0    0  501  0.00000000000E+00  0.00000000000E+00  0.81204523931E+03  0.81204524559E+03  0.10100000352E+00 0.  1.
        3   -1    0    0  501    0  0.00000000000E+00  0.00000000000E+00 -0.15916549200E+04  0.15916549232E+04  0.10100000352E+00 0. -1.
    10030    2    1    2    0    0  0.00000000000E+00  0.00000000000E+00 -0.77960968073E+03  0.24037001688E+04  0.22737597163E+04 0.  0.
        5    1    3    3  502    0 -0.10192943305E+04  0.22189070018E+03 -0.86760444705E+03  0.13568183303E+04  0.46999998093E+01 0. -1.
       -5    1    3    3    0  502  0.10192943305E+04 -0.22189070018E+03  0.87994766326E+02  0.10468818385E+04  0.46999998093E+01 0.  1.
</event>
<event>
 5   0  0.3118614E-05  0.2280358E+04  0.7818609E-02  0.8485706E-01
       -1   -1    0    0    0  501  0.00000000000E+00  0.00000000000E+00  0.77357920836E+03  0.77357920838E+03  0.50400001928E-02 0.  1.
        1   -1    0    0  501    0  0.00000000000E+00  0.00000000000E+00 -0.16805109525E+04  0.16805109525E+04  0.50400001928E-02 0. -1.
    10030    2    1    2    0    0  0.00000000000E+00  0.00000000000E+00 -0.90693174409E+03  0.24540901608E+04  0.22803581581E+04 0.  0.
        3    1    3    3  502    0  0.68792140279E+03  0.44805810014E+03 -0.13049573536E+04  0.15417216423E+04  0.10100000352E+00 0. -1.
       -3    1    3    3    0  502 -0.68792140279E+03 -0.44805810014E+03  0.39802560951E+03  0.91236851850E+03  0.10100000352E+00 0.  1.
</event>
<event>
 5   0  0.2342500E-05  0.2315894E+04  0.7818609E-02  0.8471681E-01
        3   -1    0    0  501    0  0.00000000000E+00  0.00000000000E+00  0.84988801912E+03  0.84988802512E+03  0.10100000352E+00 0. -1.
       -3   -1    0    0    0  501  0.00000000000E+00  0.00000000000E+00 -0.15776680891E+04  0.15776680923E+04  0.10100000352E+00 0.  1.
    10030    2    1    2    0    0  0.00000000000E+00  0.00000000000E+00 -0.72778006998E+03  0.24275561174E+04  0.23158939684E+04 0.  0.
        4    1    3    3  502    0 -0.37255990634E+03  0.10878176773E+04 -0.50719848011E+03  0.12567418565E+04  0.12699999809E+01 0. -1.
       -4    1    3    3    0  502  0.37255990634E+03 -0.10878176773E+04 -0.22058158987E+03  0.11708142609E+04  0.12699999809E+01 0.  1.
</event>
<event>
 5   0  0.3118614E-05  0.2427249E+04  0.7818609E-02  0.8429372E-01
       -1   -1    0    0    0  501  0.00000000000E+00  0.00000000000E+00  0.13385227814E+04  0.13385227814E+04  0.50400001928E-02 0.  1.
        1   -1    0    0  501    0  0.00000000000E+00  0.00000000000E+00 -0.11003809497E+04  0.11003809497E+04  0.50400001928E-02 0. -1.
    10030    2    1    2    0    0  0.00000000000E+00  0.00000000000E+00  0.23814183173E+03  0.24389037311E+04  0.24272494469E+04 0.  0.
        3    1    3    3  502    0 -0.67880995060E+03 -0.95453347788E+03 -0.20020914754E+03  0.11882764082E+04  0.10100000352E+00 0. -1.
       -3    1    3    3    0  502  0.67880995060E+03  0.95453347788E+03  0.43835097927E+03  0.12506273229E+04  0.10100000352E+00 0.  1.
</event>
<event>
 5   0  0.6814789E-05  0.1848420E+04  0.7818609E-02  0.8680966E-01
       -2   -1    0    0    0  501  0.00000000000E+00  0.00000000000E+00  0.67099338215E+03  0.67099338215E+03  0.25500000920E-02 0. -1.
        2   -1    0    0  501    0  0.00000000000E+00  0.00000000000E+00 -0.12729842199E+04  0.12729842199E+04  0.25500000920E-02 0.  1.
    10030    2    1    2    0    0  0.00000000000E+00  0.00000000000E+00 -0.60199083771E+03  0.19439776020E+04  0.18484198518E+04 0.  0.
        1    1    3    3  502    0 -0.61557715944E+03  0.10113587501E+03 -0.10181573716E+04  0.11940720824E+04  0.50400001928E-02 0.  1.
       -1    1    3    3    0  502  0.61557715944E+03 -0.10113587501E+03  0.41616653392E+03  0.74990551966E+03  0.50400001928E-02 0. -1.
</event>
<event>
 5   0  0.3006265E-05  0.2319805E+04  0.7818609E-02  0.8470153E-01
        1   -1    0    0  501    0  0.00000000000E+00  0.00000000000E+00  0.23024675217E+04  0.23024675217E+04  0.50400001928E-02 0. -1.
       -1   -1    0    0    0  501  0.00000000000E+00  0.00000000000E+00 -0.58431848523E+03  0.58431848525E+03  0.50400001928E-02 0.  1.
    10030    2    1    2    0    0  0.00000000000E+00  0.00000000000E+00  0.17181490365E+04  0.28867860069E+04  0.23198054527E+04 0.  0.
        2    1    3    3  502    0  0.31461723941E+03 -0.79103397848E+03 -0.12129174105E+03  0.85990141813E+03  0.25500000920E-02 0.  1.
       -2    1    3    3    0  502 -0.31461723941E+03  0.79103397848E+03  0.18394407775E+04  0.20268845888E+04  0.25500000920E-02 0. -1.
</event>
<event>
 5   0  0.3118614E-05  0.2318206E+04  0.7818609E-02  0.8470777E-01
       -1   -1    0    0    0  501  0.00000000000E+00  0.00000000000E+00  0.22541954678E+04  0.22541954678E+04  0.50400001928E-02 0. -1.
        1   -1    0    0  501    0  0.00000000000E+00  0.00000000000E+00 -0.59600832793E+03  0.59600832795E+03  0.50400001928E-02 0.  1.
    10030    2    1    2    0    0  0.00000000000E+00  0.00000000000E+00  0.16581871399E+04  0.28502037958E+04  0.23182055747E+04 0.  0.
        3    1    3    3  502    0 -0.75221584082E+03  0.36031052766E+03  0.18187099361E+04  0.20008393712E+04  0.10100000352E+00 0. -1.
       -3    1    3    3    0  502  0.75221584082E+03 -0.36031052766E+03 -0.16052279616E+03  0.84936442462E+03  0.10100000352E+00 0.  1.
</event>
<event>
 5   0  0.3006265E-05  0.2290503E+04  0.7818609E-02  0.8481675E-01
        1   -1    0    0  501    0  0.00000000000E+00  0.00000000000E+00  0.17580222737E+04  0.17580222737E+04  0.50400001928E-02 0.  1.
       -1   -1    0    0    0  501  0.00000000000E+00  0.00000000000E+00 -0.74606638356E+03  0.74606638357E+03  0.50400001928E-02 0. -1.
    10030    2    1    2    0    0  0.00000000000E+00  0.00000000000E+00  0.10119558902E+04  0.25040886573E+04  0.22905032809E+04 0.  0.
        2    1    3    3  502    0 -0.39473371162E+03  0.46031747412E+00 -0.66934597156E+03  0.77707074622E+03  0.25500000920E-02 0. -1.
       -2    1    3    3    0  502  0.39473371162E+03 -0.46031747412E+00  0.16813018617E+04  0.17270179111E+04  0.25500000920E-02 0.  1.
</event>
<event>
 5   0  0.3118614E-05  0.2298032E+04  0.7818609E-02  0.8478697E-01
        1   -1    0    0  501    0  0.00000000000E+00  0.00000000000E+00  0.16472899080E+04  0.16472899080E+04  0.50400001928E-02 0.  1.
       -1   -1    0    0    0  501  0.00000000000E+00  0.00000000000E+00 -0.80146071121E+03  0.80146071122E+03  0.50400001928E-02 0. -1.
    10030    2    1    2    0    0  0.00000000000E+00  0.00000000000E+00  0.84582919682E+03  0.24487506193E+04  0.22980323246E+04 0.  0.
        3    1    3    3  502    0  0.81863400069E+03 -0.32569173934E+03 -0.36302366371E+03  0.95290237001E+03  0.10100000352E+00 0. -1.
       -3    1    3    3    0  502 -0.81863400069E+03  0.32569173934E+03  0.12088528605E+04  0.14958482492E+04  0.10100000352E+00 0.  1.
</event>
<event>
 5   0  0.6495405E-05  0.2350241E+04  0.7818609E-02  0.8458371E-01
        2   -1    0    0  501    0  0.00000000000E+00  0.00000000000E+00  0.25582687183E+04  0.25582687183E+04  0.25500000920E-02 0. -1.
       -2   -1    0    0    0  501  0.00000000000E+00  0.00000000000E+00 -0.53978214334E+03  0.53978214334E+03  0.25500000920E-02 0.  1.
    10030    2    1    2    0    0  0.00000000000E+00  0.00000000000E+00  0.20184865749E+04  0.30980508616E+04  0.23502406447E+04 0.  0.
        5    1    3    3  502    0 -0.96357019374E+01 -0.92913515106E+03  0.19575125736E+04  0.21668554500E+04  0.46999998093E+01 0. -1.
       -5    1    3    3    0  502  0.96357019374E+01  0.92913515106E+03  0.60974001352E+02  0.93119541157E+03  0.46999998093E+01 0.  1.
</event>
<event>
 5   0  0.6814789E-05  0.2266281E+04  0.7818609E-02  0.8491336E-01
       -2   -1    0    0    0  501  0.00000000000E+00  0.00000000000E+00  0.55997244231E+03  0.55997244232E+03  0.25500000920E-02 0. -1.
        2   -1    0    0  501    0  0.00000000000E+00  0.00000000000E+00 -0.22929831031E+04  0.22929831031E+04  0.25500000920E-02 0.  1.
    10030    2    1    2    0    0  0.00000000000E+00  0.00000000000E+00 -0.17330106608E+04  0.28529555455E+04  0.22662809609E+04 0.  0.
        1    1    3    3  502    0 -0.41831454294E+03  0.36320555656E+03  0.37786947309E+03  0.67058979404E+03  0.50400001928E-02 0. -1.
       -1    1    3    3    0  502  0.41831454294E+03 -0.36320555656E+03 -0.21108801339E+04  0.21823657514E+04  0.50400001928E-02 0.  1.
</event>
<event>
 5   0  0.2962279E-05  0.2275692E+04  0.7818609E-02  0.8487567E-01
       -1   -1    0    0    0  501  0.00000000000E+00  0.00000000000E+00  0.16207660473E+04  0.16207660473E+04  0.50400001928E-02 0. -1.
        1   -1    0    0  501    0  0.00000000000E+00  0.00000000000E+00 -0.79881612930E+03  0.79881612932E+03  0.50400001928E-02 0.  1.
    10030    2    1    2    0    0  0.00000000000E+00  0.00000000000E+00  0.82194991804E+03  0.24195821767E+04  0.22756924752E+04 0.  0.
        1    1    3    3  502    0  0.71098265940E+03  0.55238548274E+03 -0.32876654987E+03  0.95849543966E+03  0.50400001928E-02 0. -1.
       -1    1    3    3    0  502 -0.71098265940E+03 -0.55238548274E+03  0.11507164679E+04  0.14610867370E+04  0.50400001928E-02 0.  1.
</event>
<event>
 5   0  0.6676612E-05  0.2407513E+04  0.7818609E-02  0.8436696E-01
       -2   -1    0    0    0  501  0.00000000000E+00  0.00000000000E+00  0.61171611901E+03  0.61171611902E+03  0.25500000920E-02 0. -1.
        2   -1    0    0  501    0  0.00000000000E+00  0.00000000000E+00 -0.23687945810E+04  0.23687945810E+04  0.25500000920E-02 0.  1.
    10030    2    1    2    0    0  0.00000000000E+00  0.00000000000E+00 -0.17570784620E+04  0.29805107000E+04  0.24075130968E+04 0.  0.
        2    1    3    3  502    0  0.13872776100E+03  0.27511323915E+03  0.56207246909E+03  0.64098217334E+03  0.25500000920E-02 0. -1.
       -2    1    3    3    0  502 -0.13872776100E+03 -0.27511323915E+03 -0.23191509311E+04  0.23395285267E+04  0.25500000920E-02 0.  1.
</event>
<event>
 5   0  0.6495405E-05  0.2310545E+04  0.7818609E-02  0.8473775E-01
       -2   -1    0    0    0  501  0.00000000000E+00  0.00000000000E+00  0.11056544483E+04  0.11056544483E+04  0.25500000920E-02 0.  1.
        2   -1    0    0  501    0  0.00000000000E+00  0.00000000000E+00 -0.12071176166E+04  0.12071176166E+04  0.25500000920E-02 0. -1.
    10030    2    1    2    0    0  0.00000000000E+00  0.00000000000E+00 -0.10146316825E+03  0.23127720649E+04  0.23105453576E+04 0.  0.
        5    1    3    3  502    0 -0.87068345559E+03  0.87050138511E+02 -0.80575650788E+03  0.11895095823E+04  0.46999998093E+01 0. -1.
       -5    1    3    3    0  502  0.87068345559E+03 -0.87050138511E+02  0.70429333963E+03  0.11232624825E+04  0.46999998093E+01 0.  1.
</event>
<event>
 5   0  0.3006265E-05  0.2297717E+04  0.7818609E-02  0.8478822E-01
       -1   -1    0    0    0  501  0.00000000000E+00  0.00000000000E+00  0.17710299805E+04  0.17710299805E+04  0.50400001928E-02 0.  1.
        1   -1    0    0  501    0  0.00000000000E+00  0.00000000000E+00 -0.74525915407E+03  0.74525915408E+03  0.50400001928E-02 0. -1.
    10030    2    1    2    0    0  0.00000000000E+00  0.00000000000E+00  0.10257708264E+04  0.25162891345E+04  0.22977173935E+04 0.  0.
        2    1    3    3  502    0  0.70196659102E+03 -0.90323922004E+03  0.62918610978E+03  0.13055548032E+04  0.25500000920E-02 0. -1.
       -2    1    3    3    0  502 -0.70196659102E+03  0.90323922004E+03  0.39658471660E+03  0.12107343313E+04  0.25500000920E-02 0.  1.
</event>
<event>
 5   0  0.6676612E-05  0.2269873E+04  0.7818609E-02  0.8489896E-01
        2   -1    0    0  501    0  0.00000000000E+00  0.00000000000E+00  0.17216537046E+04  0.17216537046E+04  0.25500000920E-02 0. -1.
       -2   -1    0    0    0  501  0.00000000000E+00  0.00000000000E+00 -0.74816458071E+03  0.74816458071E+03  0.25500000920E-02 0.  1.
    10030    2    1    2    0    0  0.00000000000E+00  0.00000000000E+00  0.97348912387E+03  0.24698182853E+04  0.22698725268E+04 0.  0.
        2    1    3    3  502    0  0.62934385696E+03  0.75547605109E+03 -0.12998333890E+03  0.99182328187E+03  0.25500000920E-02 0.  1.
       -2    1    3    3    0  502 -0.62934385696E+03 -0.75547605109E+03  0.11034724628E+04  0.14779950034E+04  0.25500000920E-02 0. -1.
</event>
<event>
 5   0  0.6468758E-05  0.2287425E+04  0.7818609E-02  0.8482896E-01
        2   -1    0    0  501    0  0.00000000000E+00  0.00000000000E+00  0.20121344105E+04  0.20121344105E+04  0.25500000920E-02 0.  1.
       -2   -1    0    0    0  501  0.00000000000E+00  0.00000000000E+00 -0.65009507998E+03  0.65009507999E+03  0.25500000920E-02 0. -1.
    10030    2    1    2    0    0  0.00000000000E+00  0.00000000000E+00  0.13620393305E+04  0.26622294905E+04  0.22874253479E+04 0.  0.
        3    1    3    3  502    0  0.95826774421E+03 -0.28683123056E+03  0.13264389140E+04  0.16613215905E+04  0.10100000352E+00 0.  1.
       -3    1    3    3    0  502 -0.95826774421E+03  0.28683123056E+03  0.35600416571E+02  0.10009079000E+04  0.10100000352E+00 0. -1.
</event>
<event>
 5   0  0.2342500E-05  0.2293496E+04  0.7818609E-02  0.8480490E-01
        3   -1    0    0  501    0  0.00000000000E+00  0.00000000000E+00  0.12826073937E+04  0.12826073976E+04  0.10100000352E+00 0. -1.
       -3   -1    0    0    0  501  0.00000000000E+00  0.00000000000E+00 -0.10252790197E+04  0.10252790247E+04  0.10100000352E+00 0.  1.
    10030    2    1    2    0    0  0.00000000000E+00  0.00000000000E+00  0.25732837394E+03  0.23078864223E+04  0.22934955518E+04 0.  0.
        2    1    3    3  502    0  0.81907895417E+02  0.56477983213E+03  0.11295636985E+04  0.12655430894E+04  0.25500000920E-02 0. -1.
       -2    1    3    3    0  502 -0.81907895417E+02 -0.56477983213E+03 -0.87223532460E+03  0.10423433329E+04  0.25500000920E-02 0.  1.
</event>
<event>
 5   0  0.2944089E-05  0.2277141E+04  0.7818609E-02  0.8486989E-01
        1   -1    0    0  501    0  0.00000000000E+00  0.00000000000E+00  0.19871206513E+04  0.19871206513E+04  0.50400001928E-02 0.  1.
       -1   -1    0    0    0  501  0.00000000000E+00  0.00000000000E+00 -0.65237267541E+03  0.65237267543E+03  0.50400001928E-02 0. -1.
    10030    2    1    2    0    0  0.00000000000E+00  0.00000000000E+00  0.13347479758E+04  0.26394933267E+04  0.22771413796E+04 0.  0.
        5    1    3    3  502    0  0.10387305824E+04  0.37493263439E+03  0.98856986536E+03  0.14821700887E+04  0.46999998093E+01 0. -1.
       -5    1    3    3    0  502 -0.10387305824E+04 -0.37493263439E+03  0.34617811048E+03  0.11573232380E+04  0.46999998093E+01 0.  1.
</event>
<event>
 5   0  0.6814789E-05  0.2347416E+04  0.7818609E-02  0.8459457E-01
       -2   -1    0    0    0  501  0.00000000000E+00  0.00000000000E+00  0.12089533179E+04  0.12089533179E+04  0.25500000920E-02 0. -1.
        2   -1    0    0  501    0  0.00000000000E+00  0.00000000000E+00 -0.11394899198E+04  0.11394899198E+04  0.25500000920E-02 0.  1.
    10030    2    1    2    0    0  0.00000000000E+00  0.00000000000E+00  0.69463398066E+02  0.23484432377E+04  0.23474157018E+04 0.  0.
        1    1    3    3  502    0 -0.71061575570E+03 -0.88001414584E+03  0.34822244987E+03  0.11834942010E+04  0.50400001928E-02 0.  1.
       -1    1    3    3    0  502  0.71061575570E+03  0.88001414584E+03 -0.27875905181E+03  0.11649490367E+04  0.50400001928E-02 0. -1.
</event>
<event>
 5   0  0.2982385E-05  0.2261583E+04  0.7818609E-02  0.8493224E-01
        1   -1    0    0  501    0  0.00000000000E+00  0.00000000000E+00  0.12307678766E+04  0.12307678767E+04  0.50400001928E-02 0.  1.
       -1   -1    0    0    0  501  0.00000000000E+00  0.00000000000E+00 -0.10389358387E+04  0.10389358387E+04  0.50400001928E-02 0. -1.
    10030    2    1    2    0    0  0.00000000000E+00  0.00000000000E+00  0.19183203791E+03  0.22697037154E+04  0.22615825046E+04 0.  0.
        4    1    3    3  502    0 -0.95030978695E+03  0.55348010416E+03  0.36003081359E+03  0.11571744538E+04  0.12699999809E+01 0.  1.
       -4    1    3    3    0  502  0.95030978695E+03 -0.55348010416E+03 -0.16819877567E+03  0.11125292616E+04  0.12699999809E+01 0. -1.
</event>
<event>
 5   0  0.3006265E-05  0.2298656E+04  0.7818609E-02  0.8478451E-01
        1   -1    0    0  501    0  0.00000000000E+00  0.00000000000E+00  0.20935518582E+04  0.20935518582E+04  0.50400001928E-02 0. -1.
       -1   -1    0    0    0  501  0.00000000000E+00  0.00000000000E+00 -0.63096348190E+03  0.63096348192E+03  0.50400001928E-02 0.  1.
    10030    2    1    2    0    0  0.00000000000E+00  0.00000000000E+00  0.14625883763E+04  0.27245153402E+04  0.22986559291E+04 0.  0.
        2    1    3    3  502    0  0.67645499774E+03  0.37182634467E+03 -0.27799776042E+03  0.82044436091E+03  0.25500000920E-02 0.  1.
       -2    1    3    3    0  502 -0.67645499774E+03 -0.37182634467E+03  0.17405861367E+04  0.19040709792E+04  0.25500000920E-02 0. -1.
</event>
<event>
 5   0  0.6702421E-05  0.2308813E+04  0.7818609E-02  0.8474454E-01
       -2   -1    0    0    0  501  0.00000000000E+00  0.00000000000E+00  0.11503411911E+04  0.11503411911E+04  0.25500000920E-02 0. -1.
        2   -1    0    0  501    0  0.00000000000E+00  0.00000000000E+00 -0.11584862380E+04  0.11584862380E+04  0.25500000920E-02 0.  1.
    10030    2    1    2    0    0  0.00000000000E+00  0.00000000000E+00 -0.81450469572E+01  0.23088274291E+04  0.23088130621E+04 0.  0.
        4    1    3    3  502    0 -0.10836028693E+04  0.70916763021E+02 -0.39577441256E+03  0.11557955546E+04  0.12699999809E+01 0.  1.
       -4    1    3    3    0  502  0.10836028693E+04 -0.70916763021E+02  0.38762936560E+03  0.11530318745E+04  0.12699999809E+01 0. -1.
</event>
<event>
 5   0  0.6676612E-05  0.2288171E+04  0.7818609E-02  0.8482600E-01
       -2   -1    0    0    0  501  0.00000000000E+00  0.00000000000E+00  0.71381943248E+03  0.71381943248E+03  0.25500000920E-02 0.  1.
        2   -1    0    0  501    0  0.00000000000E+00  0.00000000000E+00 -0.18337014902E+04  0.18337014902E+04  0.25500000920E-02 0. -1.
    10030    2    1    2    0    0  0.00000000000E+00  0.00000000000E+00 -0.11198820577E+04  0.25475209226E+04  0.22881711099E+04 0.  0.
        2    1    3    3  502    0  0.11253882742E+04 -0.14449147286E+03 -0.72339870739E+03  0.13456159345E+04  0.25500000920E-02 0. -1.
       -2    1    3    3    0  502 -0.11253882742E+04  0.14449147286E+03 -0.39648335029E+03  0.12019049881E+04  0.25500000920E-02 0.  1.
</event>
<event>
 5   0  0.6468758E-05  0.2270754E+04  0.7818609E-02  0.8489542E-01
        2   -1    0    0  501    0  0.00000000000E+00  0.00000000000E+00  0.12637770646E+04  0.12637770646E+04  0.25500000920E-02 0.  1.
       -2   -1    0    0    0  501  0.00000000000E+00  0.00000000000E+00 -0.10200227296E+04  0.10200227296E+04  0.25500000920E-02 0. -1.
    10030    2    1    2    0    0  0.00000000000E+00  0.00000000000E+00  0.24375433505E+03  0.22837997942E+04  0.22707543513E+04 0.  0.
        3    1    3    3  502    0  0.98224517620E+03  0.16717763051E+03  0.66936410397E+03  0.12003342285E+04  0.10100000352E+00 0.  1.
       -3    1    3    3    0  502 -0.98224517620E+03 -0.16717763051E+03 -0.42560976892E+03  0.10834655656E+04  0.10100000352E+00 0. -1.
</event>
<event>
 5   0  0.2342500E-05  0.2294301E+04  0.7818609E-02  0.8480171E-01
        4   -1    0    0  501    0  0.00000000000E+00  0.00000000000E+00  0.92206048089E+03  0.92206135551E+03  0.12699999809E+01 0.  1.
       -4   -1    0    0    0  501  0.00000000000E+00  0.00000000000E+00 -0.14271871752E+04  0.14271877403E+04  0.12699999809E+01 0. -1.
    10030    2    1    2    0    0  0.00000000000E+00  0.00000000000E+00 -0.50512669433E+03  0.23492490958E+04  0.22943012742E+04 0.  0.
        4    1    3    3  502    0 -0.10734841485E+04 -0.40418977716E+03 -0.26759059721E+03  0.11778556506E+04  0.12699999809E+01 0.  1.
       -4    1    3    3    0  502  0.10734841485E+04  0.40418977716E+03 -0.23753609712E+03  0.11713934452E+04  0.12699999809E+01 0. -1.
</event>
<event>
 5   0  0.6702421E-05  0.1901074E+04  0.7818609E-02  0.8654322E-01
        2   -1    0    0  501    0  0.00000000000E+00  0.00000000000E+00  0.15492799569E+04  0.15492799569E+04  0.25500000920E-02 0.  1.
       -2   -1    0    0    0  501  0.00000000000E+00  0.00000000000E+00 -0.58318721148E+03  0.58318721148E+03  0.25500000920E-02 0. -1.
    10030    2    1    2    0    0  0.00000000000E+00  0.00000000000E+00  0.96609274542E+03  0.21324671684E+04  0.19010736523E+04 0.  0.
        4    1    3    3  502    0 -0.41381780097E+03 -0.76038807049E+03  0.92335927785E+03  0.12657129055E+04  0.12699999809E+01 0.  1.
       -4    1    3    3    0  502  0.41381780097E+03  0.76038807049E+03  0.42733467566E+02  0.86675426292E+03  0.12699999809E+01 0. -1.
</event>
<event>
 5   0  0.6468758E-05  0.2266915E+04  0.7818609E-02  0.8491082E-01
        2   -1    0    0  501    0  0.00000000000E+00  0.00000000000E+00  0.14022871288E+04  0.14022871288E+04  0.25500000920E-02 0. -1.
       -2   -1    0    0    0  501  0.00000000000E+00  0.00000000000E+00 -0.91616449255E+03  0.91616449256E+03  0.25500000920E-02 0.  1.
    10030    2    1    2    0    0  0.00000000000E+00  0.00000000000E+00  0.48612263626E+03  0.23184516214E+04  0.22669147984E+04 0.  0.
        3    1    3    3  502    0 -0.89460208835E+03 -0.40803164377E+03  0.81972656356E+03  0.12801384175E+04  0.10100000352E+00 0.  1.
       -3    1    3    3    0  502  0.89460208835E+03  0.40803164377E+03 -0.33360392730E+03  0.10383132039E+04  0.10100000352E+00 0. -1.
</event>
<event>
 5   0  0.3118614E-05  0.2031114E+04  0.7818609E-02  0.8592211E-01
        1   -1    0    0  501    0  0.00000000000E+00  0.00000000000E+00  0.84559384719E+03  0.84559384720E+03  0.50400001928E-02 0.  1.
       -1   -1    0    0    0  501  0.00000000000E+00  0.00000000000E+00 -0.12196823954E+04  0.12196823954E+04  0.50400001928E-02 0. -1.
    10030    2    1    2    0    0  0.00000000000E+00  0.00000000000E+00 -0.37408854823E+03  0.20652762426E+04  0.20311139103E+04 0.  0.
        3    1    3    3  502    0  0.86051122646E+03  0.27796114814E+03 -0.65700186878E+03  0.11177626924E+04  0.10100000352E+00 0. -1.
       -3    1    3    3    0  502 -0.86051122646E+03 -0.27796114814E+03  0.28291332055E+03  0.94751355024E+03  0.10100000352E+00 0.  1.
</event>
<event>
 5   0  0.6468758E-05  0.1712357E+04  0.7818609E-02  0.8754348E-01
        2   -1    0    0  501    0  0.00000000000E+00  0.00000000000E+00  0.78714769366E+03  0.78714769367E+03  0.25500000920E-02 0.  1.
       -2   -1    0    0    0  501  0.00000000000E+00  0.00000000000E+00 -0.93126291142E+03  0.93126291142E+03  0.25500000920E-02 0. -1.
    10030    2    1    2    0    0  0.00000000000E+00  0.00000000000E+00 -0.14411521775E+03  0.17184106051E+04  0.17123568003E+04 0.  0.
        3    1    3    3  502    0  0.14450463226E+03 -0.72934524698E+03 -0.49807623642E+03  0.89493353135E+03  0.10100000352E+00 0. -1.
       -3    1    3    3    0  502 -0.14450463226E+03  0.72934524698E+03  0.35396101866E+03  0.82347707374E+03  0.10100000352E+00 0.  1.
</event>
<event>
 5   0  0.3006265E-05  0.2283608E+04  0.7818609E-02  0.8484412E-01
        1   -1    0    0  501    0  0.00000000000E+00  0.00000000000E+00  0.11934014354E+04  0.11934014354E+04  0.50400001928E-02 0. -1.
       -1   -1    0    0    0  501  0.00000000000E+00  0.00000000000E+00 -0.10924375522E+04  0.10924375522E+04  0.50400001928E-02 0.  1.
    10030    2    1    2    0    0  0.00000000000E+00  0.00000000000E+00  0.10096388314E+03  0.22858389876E+04  0.22836081475E+04 0.  0.
        2    1    3    3  502    0 -0.24869517879E+03  0.90857234554E+02  0.11622479262E+04  0.11920254070E+04  0.25500000920E-02 0. -1.
       -2    1    3    3    0  502  0.24869517879E+03 -0.90857234554E+02 -0.10612840431E+04  0.10938135806E+04  0.25500000920E-02 0.  1.
</event>
<event>
 5   0  0.2962279E-05  0.2317550E+04  0.7818609E-02  0.8471033E-01
        1   -1    0    0  501    0  0.00000000000E+00  0.00000000000E+00  0.17934943715E+04  0.17934943715E+04  0.50400001928E-02 0.  1.
       -1   -1    0    0    0  501  0.00000000000E+00  0.00000000000E+00 -0.74868331160E+03  0.74868331162E+03  0.50400001928E-02 0. -1.
    10030    2    1    2    0    0  0.00000000000E+00  0.00000000000E+00  0.10448110599E+04  0.25421776832E+04  0.23175498316E+04 0.  0.
        1    1    3    3  502    0  0.48922621314E+03  0.68012491475E+03  0.14005258736E+04  0.16319880238E+04  0.50400001928E-02 0.  1.
       -1    1    3    3    0  502 -0.48922621314E+03 -0.68012491475E+03 -0.35571481365E+03  0.91018965934E+03  0.50400001928E-02 0. -1.
</event>
<event>
 5   0  0.6702421E-05  0.2292282E+04  0.7818609E-02  0.8480970E-01
       -2   -1    0    0    0  501  0.00000000000E+00  0.00000000000E+00  0.66392082926E+03  0.66392082927E+03  0.25500000920E-02 0.  1.
        2   -1    0    0  501    0  0.00000000000E+00  0.00000000000E+00 -0.19786084526E+04  0.19786084526E+04  0.25500000920E-02 0. -1.
    10030    2    1    2    0    0  0.00000000000E+00  0.00000000000E+00 -0.13146876233E+04  0.26425292819E+04  0.22922821507E+04 0.  0.
        4    1    3    3  502    0  0.88260282986E+03 -0.69050245130E+03 -0.38005822621E+03  0.11833119871E+04  0.12699999809E+01 0. -1.
       -4    1    3    3    0  502 -0.88260282986E+03  0.69050245130E+03 -0.93462939712E+03  0.14592172948E+04  0.12699999809E+01 0.  1.
</event>
<event>
 5   0  0.6702421E-05  0.2326942E+04  0.7818609E-02  0.8467373E-01
       -2   -1    0    0    0  501  0.00000000000E+00  0.00000000000E+00  0.84957289583E+03  0.84957289583E+03  0.25500000920E-02 0. -1.
        2   -1    0    0  501    0  0.00000000000E+00  0.00000000000E+00 -0.15933478619E+04  0.15933478619E+04  0.25500000920E-02 0.  1.
    10030    2    1    2    0    0  0.00000000000E+00  0.00000000000E+00 -0.74377496604E+03  0.24429207577E+04  0.23269423345E+04 0.  0.
        4    1    3    3  502    0  0.45420838023E+03  0.93978939532E+03 -0.91146333583E+03  0.13857403746E+04  0.12699999809E+01 0.  1.
       -4    1    3    3    0  502 -0.45420838023E+03 -0.93978939532E+03  0.16768836979E+03  0.10571803831E+04  0.12699999809E+01 0. -1.
</event>
<event>
 5   0  0.6702421E-05  0.2351475E+04  0.7818609E-02  0.8457897E-01
       -2   -1    0    0    0  501  0.00000000000E+00  0.00000000000E+00  0.11635441089E+04  0.11635441089E+04  0.25500000920E-02 0. -1.
        2   -1    0    0  501    0  0.00000000000E+00  0.00000000000E+00 -0.11880585835E+04  0.11880585835E+04  0.25500000920E-02 0.  1.
    10030    2    1    2    0    0  0.00000000000E+00  0.00000000000E+00 -0.24514474621E+02  0.23516026924E+04  0.23514749123E+04 0.  0.
        4    1    3    3  502    0 -0.42377062354E+01 -0.11537303227E+04  0.21412939372E+03  0.11734413602E+04  0.12699999809E+01 0.  1.
       -4    1    3    3    0  502  0.42377062354E+01  0.11537303227E+04 -0.23864386834E+03  0.11781613321E+04  0.12699999809E+01 0. -1.
</event>
<event>
 5   0  0.2962279E-05  0.2365636E+04  0.7818609E-02  0.8452482E-01
        1   -1    0    0  501    0  0.00000000000E+00  0.00000000000E+00  0.19852489167E+04  0.19852489167E+04  0.50400001928E-02 0.  1.
       -1   -1    0    0    0  501  0.00000000000E+00  0.00000000000E+00 -0.70472701599E+03  0.70472701601E+03  0.50400001928E-02 0. -1.
    10030    2    1    2    0    0  0.00000000000E+00  0.00000000000E+00  0.12805219007E+04  0.26899759327E+04  0.23656361048E+04 0.  0.
        1    1    3    3  502    0 -0.41217647995E+03 -0.58145015751E+03 -0.43313505433E+03  0.83401421547E+03  0.50400001928E-02 0. -1.
       -1    1    3    3    0  502  0.41217647995E+03  0.58145015751E+03  0.17136569551E+04  0.18559617173E+04  0.50400001928E-02 0.  1.
</event>
<event>
 5   0  0.6468758E-05  0.2292767E+04  0.7818609E-02  0.8480779E-01
       -2   -1    0    0    0  501  0.00000000000E+00  0.00000000000E+00  0.98053960829E+03  0.98053960829E+03  0.25500000920E-02 0. -1.
        2   -1    0    0  501    0  0.00000000000E+00  0.00000000000E+00 -0.13402772216E+04  0.13402772216E+04  0.25500000920E-02 0.  1.
    10030    2    1    2    0    0  0.00000000000E+00  0.00000000000E+00 -0.35973761331E+03  0.23208168299E+04  0.22927668018E+04 0.  0.
        3    1    3    3  502    0 -0.28373600882E+03  0.11107151038E+04 -0.17900561431E+03  0.11602746160E+04  0.10100000352E+00 0. -1.
       -3    1    3    3    0  502  0.28373600882E+03 -0.11107151038E+04 -0.18073199900E+03  0.11605422139E+04  0.10100000352E+00 0.  1.
</event>
<event>
 5   0  0.6814789E-05  0.2293102E+04  0.7818609E-02  0.8480646E-01
        2   -1    0    0  501    0  0.00000000000E+00  0.00000000000E+00  0.90408780190E+03  0.90408780191E+03  0.25500000920E-02 0. -1.
       -2   -1    0    0    0  501  0.00000000000E+00  0.00000000000E+00 -0.14540395347E+04  0.14540395347E+04  0.25500000920E-02 0.  1.
    10030    2    1    2    0    0  0.00000000000E+00  0.00000000000E+00 -0.54995173277E+03  0.23581273366E+04  0.22931021842E+04 0.  0.
        1    1    3    3  502    0  0.91223578815E+03 -0.62399814637E+03  0.38684076757E+02  0.11059133229E+04  0.50400001928E-02 0. -1.
       -1    1    3    3    0  502 -0.91223578815E+03  0.62399814637E+03 -0.58863580953E+03  0.12522140137E+04  0.50400001928E-02 0.  1.
</event>
<event>
 5   0  0.2342500E-05  0.2284336E+04  0.7818609E-02  0.8484123E-01
        4   -1    0    0  501    0  0.00000000000E+00  0.00000000000E+00  0.11568727064E+04  0.11568734035E+04  0.12699999809E+01 0.  1.
       -4   -1    0    0    0  501  0.00000000000E+00  0.00000000000E+00 -0.11276488824E+04  0.11276495975E+04  0.12699999809E+01 0. -1.
    10030    2    1    2    0    0  0.00000000000E+00  0.00000000000E+00  0.29223824059E+02  0.22845230011E+04  0.22843360765E+04 0.  0.
        3    1    3    3  502    0  0.93030428812E+03  0.96451290013E+01  0.67722836762E+03  0.11507377499E+04  0.10100000352E+00 0.  1.
       -3    1    3    3    0  502 -0.93030428812E+03 -0.96451290013E+01 -0.64800454356E+03  0.11337852511E+04  0.10100000352E+00 0. -1.
</event>
<event>
 5   0  0.2962279E-05  0.2301804E+04  0.7818609E-02  0.8477210E-01
        1   -1    0    0  501    0  0.00000000000E+00  0.00000000000E+00  0.11607277632E+04  0.11607277632E+04  0.50400001928E-02 0.  1.
       -1   -1    0    0    0  501  0.00000000000E+00  0.00000000000E+00 -0.11411595729E+04  0.11411595729E+04  0.50400001928E-02 0. -1.
    10030    2    1    2    0    0  0.00000000000E+00  0.00000000000E+00  0.19568190295E+02  0.23018873361E+04  0.23018041606E+04 0.  0.
        1    1    3    3  502    0 -0.83347465155E+03  0.14240374154E+03 -0.77102371459E+03  0.11443060731E+04  0.50400001928E-02 0. -1.
       -1    1    3    3    0  502  0.83347465155E+03 -0.14240374154E+03  0.79059190488E+03  0.11575812630E+04  0.50400001928E-02 0.  1.
</event>
<event>
 5   0  0.3006265E-05  0.2288349E+04  0.7818609E-02  0.8482529E-01
       -1   -1    0    0    0  501  0.00000000000E+00  0.00000000000E+00  0.68049589084E+03  0.68049589086E+03  0.50400001928E-02 0. -1.
        1   -1    0    0  501    0  0.00000000000E+00  0.00000000000E+00 -0.19237953049E+04  0.19237953049E+04  0.50400001928E-02 0.  1.
    10030    2    1    2    0    0  0.00000000000E+00  0.00000000000E+00 -0.12432994140E+04  0.26042911957E+04  0.22883485747E+04 0.  0.
        2    1    3    3  502    0 -0.56425182562E+03  0.40679509610E+03  0.41222052478E+03  0.80857166286E+03  0.25500000920E-02 0. -1.
       -2    1    3    3    0  502  0.56425182562E+03 -0.40679509610E+03 -0.16555199388E+04  0.17957195329E+04  0.25500000920E-02 0.  1.
</event>
<event>
 5   0  0.6468758E-05  0.2288143E+04  0.7818609E-02  0.8482611E-01
        2   -1    0    0  501    0  0.00000000000E+00  0.00000000000E+00  0.11325750305E+04  0.11325750305E+04  0.25500000920E-02 0.  1.
       -2   -1    0    0    0  501  0.00000000000E+00  0.00000000000E+00 -0.11556848384E+04  0.11556848384E+04  0.25500000920E-02 0. -1.
    10030    2    1    2    0    0  0.00000000000E+00  0.00000000000E+00 -0.23109807831E+02  0.22882598689E+04  0.22881431695E+04 0.  0.
        3    1    3    3  502    0 -0.10158753124E+03 -0.10621566366E+04 -0.42437498067E+03  0.11482991255E+04  0.10100000352E+00 0. -1.
       -3    1    3    3    0  502  0.10158753124E+03  0.10621566366E+04  0.40126517284E+03  0.11399607434E+04  0.10100000352E+00 0.  1.
</event>
<event>
 5   0  0.3006265E-05  0.2304533E+04  0.7818609E-02  0.8476136E-01
        1   -1    0    0  501    0  0.00000000000E+00  0.00000000000E+00  0.21597938021E+04  0.21597938021E+04  0.50400001928E-02 0.  1.
       -1   -1    0    0    0  501  0.00000000000E+00  0.00000000000E+00 -0.61474293612E+03  0.61474293614E+03  0.50400001928E-02 0. -1.
    10030    2    1    2    0    0  0.00000000000E+00  0.00000000000E+00  0.15450508660E+04  0.27745367383E+04  0.23045329101E+04 0.  0.
        2    1    3    3  502    0 -0.28730248894E+03  0.71233876917E+03  0.18066236847E+04  0.19631246471E+04  0.25500000920E-02 0.  1.
       -2    1    3    3    0  502  0.28730248894E+03 -0.71233876917E+03 -0.26157281864E+03  0.81141209115E+03  0.25500000920E-02 0. -1.
</event>
<event>
 5   0  0.6676612E-05  0.2297495E+04  0.7818609E-02  0.8478909E-01
        2   -1    0    0  501    0  0.00000000000E+00  0.00000000000E+00  0.10508410511E+04  0.10508410511E+04  0.25500000920E-02 0. -1.
       -2   -1    0    0    0  501  0.00000000000E+00  0.00000000000E+00 -0.12557763168E+04  0.12557763168E+04  0.25500000920E-02 0.  1.
    10030    2    1    2    0    0  0.00000000000E+00  0.00000000000E+00 -0.20493526569E+03  0.23066173679E+04  0.22974954231E+04 0.  0.
        2    1    3    3  502    0  0.81043517636E+01 -0.81640269359E+03  0.70885118309E+03  0.10812257111E+04  0.25500000920E-02 0. -1.
       -2    1    3    3    0  502 -0.81043517636E+01  0.81640269359E+03 -0.91378644879E+03  0.12253916568E+04  0.25500000920E-02 0.  1.
</event>
<event>
 5   0  0.3118614E-05  0.2310225E+04  0.7818609E-02  0.8473901E-01
       -1   -1    0    0    0  501  0.00000000000E+00  0.00000000000E+00  0.10135216631E+04  0.10135216631E+04  0.50400001928E-02 0.  1.
        1   -1    0    0  501    0  0.00000000000E+00  0.00000000000E+00 -0.13164836343E+04  0.13164836343E+04  0.50400001928E-02 0. -1.
    10030    2    1    2    0    0  0.00000000000E+00  0.00000000000E+00 -0.30296197123E+03  0.23300052975E+04  0.23102248224E+04 0.  0.
        3    1    3    3  502    0 -0.10872399727E+04 -0.38948293933E+03 -0.17396432167E+03  0.11679260738E+04  0.10100000352E+00 0. -1.
       -3    1    3    3    0  502  0.10872399727E+04  0.38948293933E+03 -0.12899764956E+03  0.11620792237E+04  0.10100000352E+00 0.  1.
</event>
<event>
 5   0  0.2962279E-05  0.2292904E+04  0.7818609E-02  0.8480724E-01
       -1   -1    0    0    0  501  0.00000000000E+00  0.00000000000E+00  0.10749899592E+04  0.10749899592E+04  0.50400001928E-02 0.  1.
        1   -1    0    0  501    0  0.00000000000E+00  0.00000000000E+00 -0.12226649157E+04  0.12226649157E+04  0.50400001928E-02 0. -1.
    10030    2    1    2    0    0  0.00000000000E+00  0.00000000000E+00 -0.14767495650E+03  0.22976548748E+04  0.22929042786E+04 0.  0.
        1    1    3    3  502    0  0.24889530956E+02  0.68090505722E+03  0.85008219766E+03  0.10894452389E+04  0.50400001928E-02 0.  1.
       -1    1    3    3    0  502 -0.24889530956E+02 -0.68090505722E+03 -0.99775715416E+03  0.12082096360E+04  0.50400001928E-02 0. -1.
</event>
<event>
 5   0  0.6702421E-05  0.2261221E+04  0.7818609E-02  0.8493370E-01
       -2   -1    0    0    0  501  0.00000000000E+00  0.00000000000E+00  0.85570381989E+03  0.85570381989E+03  0.25500000920E-02 0. -1.
        2   -1    0    0  501    0  0.00000000000E+00  0.00000000000E+00 -0.14938349670E+04  0.14938349670E+04  0.25500000920E-02 0.  1.
    10030    2    1    2    0    0  0.00000000000E+00  0.00000000000E+00 -0.63813114715E+03  0.23495387869E+04  0.22612211635E+04 0.  0.
        4    1    3    3  502    0 -0.10408033411E+04 -0.43096124306E+03 -0.21897306928E+03  0.11475844221E+04  0.12699999809E+01 0. -1.
       -4    1    3    3    0  502  0.10408033411E+04  0.43096124306E+03 -0.41915807787E+03  0.12019543648E+04  0.12699999809E+01 0.  1.
</event>
<event>
 5   0  0.6495405E-05  0.2211868E+04  0.7818609E-02  0.8513504E-01
       -2   -1    0    0    0  501  0.00000000000E+00  0.00000000000E+00  0.57222061839E+03  0.57222061840E+03  0.25500000920E-02 0. -1.
        2   -1    0    0  501    0  0.00000000000E+00  0.00000000000E+00 -0.21374456379E+04  0.21374456379E+04  0.25500000920E-02 0.  1.
    10030    2    1    2    0    0  0.00000000000E+00  0.00000000000E+00 -0.15652250195E+04  0.27096662563E+04  0.22118684090E+04 0.  0.
        5    1    3    3  502    0 -0.10497072357E+04 -0.31993384907E+03 -0.61452752235E+03  0.12577396846E+04  0.46999998093E+01 0. -1.
       -5    1    3    3    0  502  0.10497072357E+04  0.31993384907E+03 -0.95069749715E+03  0.14519265717E+04  0.46999998093E+01 0.  1.
</event>
<event>
 5   0  0.3006265E-05  0.2262415E+04  0.7818609E-02  0.8492890E-01
        1   -1    0    0  501    0  0.00000000000E+00  0.00000000000E+00  0.19840807641E+04  0.19840807641E+04  0.50400001928E-02 0.  1.
       -1   -1    0    0    0  501  0.00000000000E+00  0.00000000000E+00 -0.64494853723E+03  0.64494853725E+03  0.50400001928E-02 0. -1.
    10030    2    1    2    0    0  0.00000000000E+00  0.00000000000E+00  0.13391322268E+04  0.26290293013E+04  0.22624146274E+04 0.  0.
        2    1    3    3  502    0 -0.46907278576E+03  0.72945914035E+03  0.15135426462E+04  0.17444057033E+04  0.25500000920E-02 0.  1.
       -2    1    3    3    0  502  0.46907278576E+03 -0.72945914035E+03 -0.17441041939E+03  0.88462359802E+03  0.25500000920E-02 0. -1.
</event>
<event>
 5   0  0.3006265E-05  0.2306830E+04  0.7818609E-02  0.8475233E-01
       -1   -1    0    0    0  501  0.00000000000E+00  0.00000000000E+00  0.92258510483E+03  0.92258510484E+03  0.50400001928E-02 0.  1.
        1   -1    0    0  501    0  0.00000000000E+00  0.00000000000E+00 -0.14419983901E+04  0.14419983901E+04  0.50400001928E-02 0. -1.
    10030    2    1    2    0    0  0.00000000000E+00  0.00000000000E+00 -0.51941328528E+03  0.23645834950E+04  0.23068300639E+04 0.  0.
        2    1    3    3  502    0  0.76890788858E+03 -0.85422394882E+03 -0.16007052211E+03  0.11604053033E+04  0.25500000920E-02 0. -1.
       -2    1    3    3    0  502 -0.76890788858E+03  0.85422394882E+03 -0.35934276316E+03  0.12041781917E+04  0.25500000920E-02 0.  1.
</event>
<event>
 5   0  0.2962279E-05  0.2289708E+04  0.7818609E-02  0.8481990E-01
        1   -1    0    0  501    0  0.00000000000E+00  0.00000000000E+00  0.95370683173E+03  0.95370683174E+03  0.50400001928E-02 0. -1.
       -1   -1    0    0    0  501  0.00000000000E+00  0.00000000000E+00 -0.13743124652E+04  0.13743124652E+04  0.50400001928E-02 0.  1.
    10030    2    1    2    0    0  0.00000000000E+00  0.00000000000E+00 -0.42060563351E+03  0.23280192970E+04  0.22897084417E+04 0.  0.
        1    1    3    3  502    0 -0.58348763395E+02 -0.28151397512E+03  0.91640686579E+03  0.96044585483E+03  0.50400001928E-02 0. -1.
       -1    1    3    3    0  502  0.58348763395E+02  0.28151397512E+03 -0.13370124993E+04  0.13675734422E+04  0.50400001928E-02 0.  1.
</event>
<event>
 5   0  0.2944089E-05  0.2260115E+04  0.7818609E-02  0.8493815E-01
       -1   -1    0    0    0  501  0.00000000000E+00  0.00000000000E+00  0.67086377183E+03  0.67086377185E+03  0.50400001928E-02 0. -1.
        1   -1    0    0  501    0  0.00000000000E+00  0.00000000000E+00 -0.19035613423E+04  0.19035613423E+04  0.50400001928E-02 0.  1.
    10030    2    1    2    0    0  0.00000000000E+00  0.00000000000E+00 -0.12326975704E+04  0.25744251141E+04  0.22601153440E+04 0.  0.
        5    1    3    3  502    0 -0.30363990255E+03 -0.91969448324E+03 -0.12795301123E+04  0.16047599606E+04  0.46999998093E+01 0.  1.
       -5    1    3    3    0  502  0.30363990255E+03  0.91969448324E+03  0.46832541867E+02  0.96966515349E+03  0.46999998093E+01 0. -1.
</event>
<event>
 5   0  0.3118614E-05  0.2338998E+04  0.7818609E-02  0.8462702E-01
        1   -1    0    0  501    0  0.00000000000E+00  0.00000000000E+00  0.11693685904E+04  0.11693685904E+04  0.50400001928E-02 0. -1.
       -1   -1    0    0    0  501  0.00000000000E+00  0.00000000000E+00 -0.11696294492E+04  0.11696294492E+04  0.50400001928E-02 0.  1.
    10030    2    1    2    0    0  0.00000000000E+00  0.00000000000E+00 -0.26085882364E+00  0.23389980396E+04  0.23389980251E+04 0.  0.
        3    1    3    3  502    0 -0.80580011269E+03 -0.10881997864E+03  0.84044813894E+03  0.11694052735E+04  0.10100000352E+00 0. -1.
       -3    1    3    3    0  502  0.80580011269E+03  0.10881997864E+03 -0.84070899776E+03  0.11695927661E+04  0.10100000352E+00 0.  1.
</event>
<event>
 5   0  0.6814789E-05  0.2218442E+04  0.7818609E-02  0.8510791E-01
        2   -1    0    0  501    0  0.00000000000E+00  0.00000000000E+00  0.16623790098E+04  0.16623790098E+04  0.25500000920E-02 0. -1.
       -2   -1    0    0    0  501  0.00000000000E+00  0.00000000000E+00 -0.74012663732E+03  0.74012663733E+03  0.25500000920E-02 0.  1.
    10030    2    1    2    0    0  0.00000000000E+00  0.00000000000E+00  0.92225237245E+03  0.24025056471E+04  0.22184417833E+04 0.  0.
        1    1    3    3  502    0  0.34781903006E+03 -0.94158525122E+03 -0.50065568697E+02  0.10050211063E+04  0.50400001928E-02 0.  1.
       -1    1    3    3    0  502 -0.34781903006E+03  0.94158525122E+03  0.97231794115E+03  0.13974845408E+04  0.50400001928E-02 0. -1.
</event>
<event>
 5   0  0.2944089E-05  0.2293155E+04  0.7818609E-02  0.8480625E-01
       -1   -1    0    0    0  501  0.00000000000E+00  0.00000000000E+00  0.92163647180E+03  0.92163647181E+03  0.50400001928E-02 0. -1.
        1   -1    0    0  501    0  0.00000000000E+00  0.00000000000E+00 -0.14264191334E+04  0.14264191334E+04  0.50400001928E-02 0.  1.
    10030    2    1    2    0    0  0.00000000000E+00  0.00000000000E+00 -0.50478266161E+03  0.23480556052E+04  0.22931549424E+04 0.  0.
        5    1    3    3  502    0 -0.10362748814E+04 -0.48710006897E+03 -0.31284463088E+03  0.11870239930E+04  0.46999998093E+01 0. -1.
       -5    1    3    3    0  502  0.10362748814E+04  0.48710006897E+03 -0.19193803073E+03  0.11610316122E+04  0.46999998093E+01 0.  1.
</event>
<event>
 5   0  0.2962279E-05  0.2372159E+04  0.7818609E-02  0.8450001E-01
        1   -1    0    0  501    0  0.00000000000E+00  0.00000000000E+00  0.14316611115E+04  0.14316611115E+04  0.50400001928E-02 0.  1.
       -1   -1    0    0    0  501  0.00000000000E+00  0.00000000000E+00 -0.98262396828E+03  0.98262396829E+03  0.50400001928E-02 0. -1.
    10030    2    1    2    0    0  0.00000000000E+00  0.00000000000E+00  0.44903714320E+03  0.24142850798E+04  0.23721589514E+04 0.  0.
        1    1    3    3  502    0  0.76490797005E+03 -0.28569680246E+03  0.11000735273E+04  0.13699885515E+04  0.50400001928E-02 0.  1.
       -1    1    3    3    0  502 -0.76490797005E+03  0.28569680246E+03 -0.65103638413E+03  0.10442965283E+04  0.50400001928E-02 0. -1.
</event>
<event>
 5   0  0.2962279E-05  0.2211620E+04  0.7818609E-02  0.8513607E-01
        1   -1    0    0  501    0  0.00000000000E+00  0.00000000000E+00  0.70312968078E+03  0.70312968080E+03  0.50400001928E-02 0.  1.
       -1   -1    0    0    0  501  0.00000000000E+00  0.00000000000E+00 -0.17391044813E+04  0.17391044813E+04  0.50400001928E-02 0. -1.
    10030    2    1    2    0    0  0.00000000000E+00  0.00000000000E+00 -0.10359748005E+04  0.24422341621E+04  0.22116202014E+04 0.  0.
        1    1    3    3  502    0 -0.73165906273E+03  0.51084151201E+03 -0.12391821142E+04  0.15270416977E+04  0.50400001928E-02 0. -1.
       -1    1    3    3    0  502  0.73165906273E+03 -0.51084151201E+03  0.20320731368E+03  0.91519246436E+03  0.50400001928E-02 0.  1.
</event>
<event>
 5   0  0.2982385E-05  0.2289626E+04  0.7818609E-02  0.8482023E-01
       -1   -1    0    0    0  501  0.00000000000E+00  0.00000000000E+00  0.54927810538E+03  0.54927810541E+03  0.50400001928E-02 0. -1.
        1   -1    0    0  501    0  0.00000000000E+00  0.00000000000E+00 -0.23860359360E+04  0.23860359360E+04  0.50400001928E-02 0.  1.
    10030    2    1    2    0    0  0.00000000000E+00  0.00000000000E+00 -0.18367578306E+04  0.29353140414E+04  0.22896264310E+04 0.  0.
        4    1    3    3  502    0 -0.94467529784E+03  0.11414735568E+02 -0.17472865098E+04  0.19863417317E+04  0.12699999809E+01 0.  1.
       -4    1    3    3    0  502  0.94467529784E+03 -0.11414735568E+02 -0.89471320765E+02  0.94897230975E+03  0.12699999809E+01 0. -1.
</event>
<event>
 5   0  0.3118614E-05  0.2246041E+04  0.7818609E-02  0.8499505E-01
        1   -1    0    0  501    0  0.00000000000E+00  0.00000000000E+00  0.11877130051E+04  0.11877130051E+04  0.50400001928E-02 0. -1.
       -1   -1    0    0    0  501  0.00000000000E+00  0.00000000000E+00 -0.10618520546E+04  0.10618520546E+04  0.50400001928E-02 0.  1.
    10030    2    1    2    0    0  0.00000000000E+00  0.00000000000E+00  0.12586095055E+03  0.22495650597E+04  0.22460414019E+04 0.  0.
        3    1    3    3  502    0  0.76349367163E+03  0.15178368882E+03  0.87365364842E+03  0.11701416933E+04  0.10100000352E+00 0. -1.
       -3    1    3    3    0  502 -0.76349367163E+03 -0.15178368882E+03 -0.74779269787E+03  0.10794233664E+04  0.10100000352E+00 0.  1.
</event>
<event>
 5   0  0.6814789E-05  0.2310497E+04  0.7818609E-02  0.8473794E-01
       -2   -1    0    0    0  501  0.00000000000E+00  0.00000000000E+00  0.11896427653E+04  0.11896427653E+04  0.25500000920E-02 0.  1.
        2   -1    0    0  501    0  0.00000000000E+00  0.00000000000E+00 -0.11218487134E+04  0.11218487134E+04  0.25500000920E-02 0. -1.
    10030    2    1    2    0    0  0.00000000000E+00  0.00000000000E+00  0.67794051904E+02  0.23114914786E+04  0.23104970942E+04 0.  0.
        1    1    3    3  502    0  0.69859526785E+03  0.85271198222E+03  0.37965556667E+03  0.11658865392E+04  0.50400001928E-02 0.  1.
       -1    1    3    3    0  502 -0.69859526785E+03 -0.85271198222E+03 -0.31186151476E+03  0.11456049395E+04  0.50400001928E-02 0. -1.
</event>
<event>
 5   0  0.6468758E-05  0.2298712E+04  0.7818609E-02  0.8478429E-01
        2   -1    0    0  501    0  0.00000000000E+00  0.00000000000E+00  0.14873882226E+04  0.14873882226E+04  0.25500000920E-02 0. -1.
       -2   -1    0    0    0  501  0.00000000000E+00  0.00000000000E+00 -0.88814675614E+03  0.88814675614E+03  0.25500000920E-02 0.  1.
    10030    2    1    2    0    0  0.00000000000E+00  0.00000000000E+00  0.59924146647E+03  0.23755349788E+04  0.22987118350E+04 0.  0.
        3    1    3    3  502    0  0.21078865417E+03 -0.22487819425E+03 -0.84464037214E+03  0.89912147534E+03  0.10100000352E+00 0.  1.
       -3    1    3    3    0  502 -0.21078865417E+03  0.22487819425E+03  0.14438818386E+04  0.14764135034E+04  0.10100000352E+00 0. -1.
</event>
<event>
 5   0  0.3118614E-05  0.2283233E+04  0.7818609E-02  0.8484562E-01
        1   -1    0    0  501    0  0.00000000000E+00  0.00000000000E+00  0.18535070637E+04  0.18535070637E+04  0.50400001928E-02 0.  1.
       -1   -1    0    0    0  501  0.00000000000E+00  0.00000000000E+00 -0.70314696903E+03  0.70314696905E+03  0.50400001928E-02 0. -1.
    10030    2    1    2    0    0  0.00000000000E+00  0.00000000000E+00  0.11503600947E+04  0.25566540328E+04  0.22832326854E+04 0.  0.
        3    1    3    3  502    0 -0.45191966786E+03 -0.28095334493E+03 -0.55578135174E+03  0.76945376038E+03  0.10100000352E+00 0. -1.
       -3    1    3    3    0  502  0.45191966786E+03  0.28095334493E+03  0.17061414464E+04  0.17872002724E+04  0.10100000352E+00 0.  1.
</event>
<event>
 5   0  0.6495405E-05  0.2450974E+04  0.7818609E-02  0.8420662E-01
        2   -1    0    0  501    0  0.00000000000E+00  0.00000000000E+00  0.10746951170E+04  0.10746951170E+04  0.25500000920E-02 0.  1.
       -2   -1    0    0    0  501  0.00000000000E+00  0.00000000000E+00 -0.13974370276E+04  0.13974370276E+04  0.25500000920E-02 0. -1.
    10030    2    1    2    0    0  0.00000000000E+00  0.00000000000E+00 -0.32274191061E+03  0.24721321445E+04  0.24509742959E+04 0.  0.
        5    1    3    3  502    0 -0.65852180041E+03 -0.95470092338E+03 -0.56063124928E+03  0.12881903207E+04  0.46999998093E+01 0. -1.
       -5    1    3    3    0  502  0.65852180041E+03  0.95470092338E+03  0.23788933868E+03  0.11839418238E+04  0.46999998093E+01 0.  1.
</event>
<event>
 5   0  0.2982385E-05  0.2464449E+04  0.7818609E-02  0.8415761E-01
        1   -1    0    0  501    0  0.00000000000E+00  0.00000000000E+00  0.26807614401E+04  0.26807614401E+04  0.50400001928E-02 0. -1.
       -1   -1    0    0    0  501  0.00000000000E+00  0.00000000000E+00 -0.56639783093E+03  0.56639783095E+03  0.50400001928E-02 0.  1.
    10030    2    1    2    0    0  0.00000000000E+00  0.00000000000E+00  0.21143636092E+04  0.32471592710E+04  0.24644492001E+04 0.  0.
        4    1    3    3  502    0 -0.55075030456E+03  0.78560586890E+03  0.20759803742E+04  0.22869627470E+04  0.12699999809E+01 0. -1.
       -4    1    3    3    0  502  0.55075030456E+03 -0.78560586890E+03  0.38383235008E+02  0.96019652408E+03  0.12699999809E+01 0.  1.
</event>
<event>
 5   0  0.3006265E-05  0.2307191E+04  0.7818609E-02  0.8475091E-01
       -1   -1    0    0    0  501  0.00000000000E+00  0.00000000000E+00  0.10367122972E+04  0.10367122972E+04  0.50400001928E-02 0.  1.
        1   -1    0    0  501    0  0.00000000000E+00  0.00000000000E+00 -0.12836567236E+04  0.12836567236E+04  0.50400001928E-02 0. -1.
    10030    2    1    2    0    0  0.00000000000E+00  0.00000000000E+00 -0.24694442646E+03  0.23203690208E+04  0.23071911154E+04 0.  0.
        2    1    3    3  502    0 -0.65677230673E+03 -0.63596664233E+03 -0.83103827956E+03  0.12354869709E+04  0.25500000920E-02 0. -1.
       -2    1    3    3    0  502  0.65677230673E+03  0.63596664233E+03  0.58409385310E+03  0.10848820499E+04  0.25500000920E-02 0.  1.
</event>
<event>
 5   0  0.2962279E-05  0.2291445E+04  0.7818609E-02  0.8481302E-01
       -1   -1    0    0    0  501  0.00000000000E+00  0.00000000000E+00  0.87984164992E+03  0.87984164993E+03  0.50400001928E-02 0. -1.
        1   -1    0    0  501    0  0.00000000000E+00  0.00000000000E+00 -0.14919499304E+04  0.14919499304E+04  0.50400001928E-02 0.  1.
    10030    2    1    2    0    0  0.00000000000E+00  0.00000000000E+00 -0.61210828045E+03  0.23717915803E+04  0.22914446870E+04 0.  0.
        1    1    3    3  502    0  0.11117358886E+04 -0.27079659719E+03 -0.24576928731E+03  0.11703375691E+04  0.50400001928E-02 0.  1.
       -1    1    3    3    0  502 -0.11117358886E+04  0.27079659719E+03 -0.36633899314E+03  0.12014540112E+04  0.50400001928E-02 0. -1.
</event>
<event>
 5   0  0.2944089E-05  0.2282234E+04  0.7818609E-02  0.8484959E-01
        1   -1    0    0  501    0  0.00000000000E+00  0.00000000000E+00  0.97911203520E+03  0.97911203522E+03  0.50400001928E-02 0. -1.
       -1   -1    0    0    0  501  0.00000000000E+00  0.00000000000E+00 -0.13299276995E+04  0.13299276995E+04  0.50400001928E-02 0.  1.
    10030    2    1    2    0    0  0.00000000000E+00  0.00000000000E+00 -0.35081566429E+03  0.23090397347E+04  0.22822341830E+04 0.  0.
        5    1    3    3  502    0  0.11314136436E+03  0.46327154937E+03 -0.12242635750E+04  0.13138740000E+04  0.46999998093E+01 0.  1.
       -5    1    3    3    0  502 -0.11314136436E+03 -0.46327154937E+03  0.87344791073E+03  0.99516573471E+03  0.46999998093E+01 0. -1.
</event>
<event>
 5   0  0.6495405E-05  0.2293576E+04  0.7818609E-02  0.8480458E-01
        2   -1    0    0  501    0  0.00000000000E+00  0.00000000000E+00  0.27530378526E+04  0.27530378526E+04  0.25500000920E-02 0. -1.
       -2   -1    0    0    0  501  0.00000000000E+00  0.00000000000E+00 -0.47769867181E+03  0.47769867181E+03  0.25500000920E-02 0.  1.
    10030    2    1    2    0    0  0.00000000000E+00  0.00000000000E+00  0.22753391808E+04  0.32307365244E+04  0.22935758332E+04 0.  0.
        5    1    3    3  502    0 -0.85070088604E+03 -0.68011468630E+03  0.63203732352E+03  0.12592621857E+04  0.46999998093E+01 0.  1.
       -5    1    3    3    0  502  0.85070088604E+03  0.68011468630E+03  0.16433018572E+04  0.19714743387E+04  0.46999998093E+01 0. -1.
</event>
<event>
 5   0  0.6702421E-05  0.2309285E+04  0.7818609E-02  0.8474269E-01
       -2   -1    0    0    0  501  0.00000000000E+00  0.00000000000E+00  0.10850130556E+04  0.10850130556E+04  0.25500000920E-02 0. -1.
        2   -1    0    0  501    0  0.00000000000E+00  0.00000000000E+00 -0.12287398171E+04  0.12287398171E+04  0.25500000920E-02 0.  1.
    10030    2    1    2    0    0  0.00000000000E+00  0.00000000000E+00 -0.14372676148E+03  0.23137528726E+04  0.23092845155E+04 0.  0.
        4    1    3    3  502    0 -0.51020237093E+03  0.26749619331E+03 -0.10744676321E+04  0.12191566668E+04  0.12699999809E+01 0.  1.
       -4    1    3    3    0  502  0.51020237093E+03 -0.26749619331E+03  0.93074087064E+03  0.10945962059E+04  0.12699999809E+01 0. -1.
</event>
<event>
 5   0  0.2944089E-05  0.1899246E+04  0.7818609E-02  0.8655232E-01
       -1   -1    0    0    0  501  0.00000000000E+00  0.00000000000E+00  0.93873374665E+03  0.93873374666E+03  0.50400001928E-02 0. -1.
        1   -1    0    0  501    0  0.00000000000E+00  0.00000000000E+00 -0.96063819624E+03  0.96063819625E+03  0.50400001928E-02 0.  1.
    10030    2    1    2    0    0  0.00000000000E+00  0.00000000000E+00 -0.21904449588E+02  0.18993719429E+04  0.18992456325E+04 0.  0.
        5    1    3    3  502    0 -0.39565882440E+03  0.86261367020E+03 -0.44318403616E+02  0.95007076591E+03  0.46999998093E+01 0. -1.
       -5    1    3    3    0  502  0.39565882440E+03 -0.86261367020E+03  0.22413954028E+02  0.94930117701E+03  0.46999998093E+01 0.  1.
</event>
<event>
 5   0  0.2342500E-05  0.2313933E+04  0.7818609E-02  0.8472448E-01
        3   -1    0    0  501    0  0.00000000000E+00  0.00000000000E+00  0.18002739491E+04  0.18002739519E+04  0.10100000352E+00 0.  1.
       -3   -1    0    0    0  501  0.00000000000E+00  0.00000000000E+00 -0.74353793103E+03  0.74353793789E+03  0.10100000352E+00 0. -1.
    10030    2    1    2    0    0  0.00000000000E+00  0.00000000000E+00  0.10567360180E+04  0.25438118898E+04  0.23139334301E+04 0.  0.
        4    1    3    3  502    0 -0.10514158123E+04  0.36370223605E+03  0.87742675079E+03  0.14169099628E+04  0.12699999809E+01 0.  1.
       -4    1    3    3    0  502  0.10514158123E+04 -0.36370223605E+03  0.17930926724E+03  0.11269019270E+04  0.12699999809E+01 0. -1.
</event>
<event>
 5   0  0.6814789E-05  0.2282083E+04  0.7818609E-02  0.8485019E-01
       -2   -1    0    0    0  501  0.00000000000E+00  0.00000000000E+00  0.65217343094E+03  0.65217343094E+03  0.25500000920E-02 0. -1.
        2   -1    0    0  501    0  0.00000000000E+00  0.00000000000E+00 -0.19963642943E+04  0.19963642943E+04  0.25500000920E-02 0.  1.
    10030    2    1    2    0    0  0.00000000000E+00  0.00000000000E+00 -0.13441908634E+04  0.26485377253E+04  0.22820830408E+04 0.  0.
        1    1    3    3  502    0  0.85053681594E+03  0.44351487109E+02  0.20917756946E+03  0.87700352637E+03  0.50400001928E-02 0. -1.
       -1    1    3    3    0  502 -0.85053681594E+03 -0.44351487109E+02 -0.15533684328E+04  0.17715341989E+04  0.50400001928E-02 0.  1.
</event>
<event>
 5   0  0.6702421E-05  0.2166779E+04  0.7818609E-02  0.8532384E-01
       -2   -1    0    0    0  501  0.00000000000E+00  0.00000000000E+00  0.10976417717E+04  0.10976417717E+04  0.25500000920E-02 0. -1.
        2   -1    0    0  501    0  0.00000000000E+00  0.00000000000E+00 -0.10693227478E+04  0.10693227478E+04  0.25500000920E-02 0.  1.
    10030    2    1    2    0    0  0.00000000000E+00  0.00000000000E+00  0.28319023835E+02  0.21669645195E+04  0.21667794677E+04 0.  0.
        4    1    3    3  502    0  0.90919865901E+03  0.44835275447E+03 -0.36806327577E+03  0.10784871728E+04  0.12699999809E+01 0.  1.
       -4    1    3    3    0  502 -0.90919865901E+03 -0.44835275447E+03  0.39638229961E+03  0.10884773467E+04  0.12699999809E+01 0. -1.
</event>
<event>
 5   0  0.6702421E-05  0.2220712E+04  0.7818609E-02  0.8509856E-01
       -2   -1    0    0    0  501  0.00000000000E+00  0.00000000000E+00  0.62120874866E+03  0.62120874867E+03  0.25500000920E-02 0.  1.
        2   -1    0    0  501    0  0.00000000000E+00  0.00000000000E+00 -0.19846640002E+04  0.19846640002E+04  0.25500000920E-02 0. -1.
    10030    2    1    2    0    0  0.00000000000E+00  0.00000000000E+00 -0.13634552515E+04  0.26058727489E+04  0.22207121741E+04 0.  0.
        4    1    3    3  502    0 -0.10435669437E+04  0.28698101951E+02 -0.11255199472E+04  0.15351391831E+04  0.12699999809E+01 0. -1.
       -4    1    3    3    0  502  0.10435669437E+04 -0.28698101951E+02 -0.23793530432E+03  0.10707335658E+04  0.12699999809E+01 0.  1.
</event>
<event>
 5   0  0.2982385E-05  0.2297082E+04  0.7818609E-02  0.8479073E-01
        1   -1    0    0  501    0  0.00000000000E+00  0.00000000000E+00  0.15412280952E+04  0.15412280952E+04  0.50400001928E-02 0.  1.
       -1   -1    0    0    0  501  0.00000000000E+00  0.00000000000E+00 -0.85590603809E+03  0.85590603811E+03  0.50400001928E-02 0. -1.
    10030    2    1    2    0    0  0.00000000000E+00  0.00000000000E+00  0.68532205706E+03  0.23971341333E+04  0.22970820035E+04 0.  0.
        4    1    3    3  502    0  0.10849797575E+03 -0.97854433808E+03  0.95988193712E+03  0.13750257374E+04  0.12699999809E+01 0.  1.
       -4    1    3    3    0  502 -0.10849797575E+03  0.97854433808E+03 -0.27455988006E+03  0.10221083959E+04  0.12699999809E+01 0. -1.
</event>
<event>
 5   0  0.3118614E-05  0.2262195E+04  0.7818609E-02  0.8492978E-01
       -1   -1    0    0    0  501  0.00000000000E+00  0.00000000000E+00  0.31882712136E+04  0.31882712136E+04  0.50400001928E-02 0.  1.
        1   -1    0    0  501    0  0.00000000000E+00  0.00000000000E+00 -0.40127754445E+03  0.40127754448E+03  0.50400001928E-02 0. -1.
    10030    2    1    2    0    0  0.00000000000E+00  0.00000000000E+00  0.27869936692E+04  0.35895487581E+04  0.22621950789E+04 0.  0.
        3    1    3    3  502    0  0.18249343469E+03  0.81110831090E+03  0.26104260896E+04  0.27396213106E+04  0.10100000352E+00 0.  1.
       -3    1    3    3    0  502 -0.18249343469E+03 -0.81110831090E+03  0.17656757954E+03  0.84992744753E+03  0.10100000352E+00 0. -1.
</event>
<event>
 5   0  0.3118614E-05  0.2337502E+04  0.7818609E-02  0.8463280E-01
        1   -1    0    0  501    0  0.00000000000E+00  0.00000000000E+00  0.85802849345E+03  0.85802849347E+03  0.50400001928E-02 0. -1.
       -1   -1    0    0    0  501  0.00000000000E+00  0.00000000000E+00 -0.15919977341E+04  0.15919977341E+04  0.50400001928E-02 0.  1.
    10030    2    1    2    0    0  0.00000000000E+00  0.00000000000E+00 -0.73396924066E+03  0.24500262276E+04  0.23375024427E+04 0.  0.
        3    1    3    3  502    0 -0.10553213629E+04 -0.48802712856E+03 -0.49146954231E+03  0.12623058181E+04  0.10100000352E+00 0.  1.
       -3    1    3    3    0  502  0.10553213629E+04  0.48802712856E+03 -0.24249969835E+03  0.11877204095E+04  0.10100000352E+00 0. -1.
</event>
<event>
 5   0  0.6702421E-05  0.1680524E+04  0.7818609E-02  0.8772551E-01
        2   -1    0    0  501    0  0.00000000000E+00  0.00000000000E+00  0.81992988747E+03  0.81992988747E+03  0.25500000920E-02 0. -1.
       -2   -1    0    0    0  501  0.00000000000E+00  0.00000000000E+00 -0.86109835274E+03  0.86109835274E+03  0.25500000920E-02 0.  1.
    10030    2    1    2    0    0  0.00000000000E+00  0.00000000000E+00 -0.41168465272E+02  0.16810282402E+04  0.16805240557E+04 0.  0.
        4    1    3    3  502    0  0.58883103871E+03  0.25109581067E+03 -0.56505219415E+03  0.85384816758E+03  0.12699999809E+01 0.  1.
       -4    1    3    3    0  502 -0.58883103871E+03 -0.25109581067E+03  0.52388372887E+03  0.82718007263E+03  0.12699999809E+01 0. -1.
</event>
<event>
 5   0  0.2982385E-05  0.2352564E+04  0.7818609E-02  0.8457480E-01
        1   -1    0    0  501    0  0.00000000000E+00  0.00000000000E+00  0.14704716484E+04  0.14704716485E+04  0.50400001928E-02 0.  1.
       -1   -1    0    0    0  501  0.00000000000E+00  0.00000000000E+00 -0.94094906427E+03  0.94094906428E+03  0.50400001928E-02 0. -1.
    10030    2    1    2    0    0  0.00000000000E+00  0.00000000000E+00  0.52952258418E+03  0.24114207127E+04  0.23525636414E+04 0.  0.
        4    1    3    3  502    0  0.68967987597E+03 -0.57987055593E+03 -0.51028342614E+03  0.10355187013E+04  0.12699999809E+01 0. -1.
       -4    1    3    3    0  502 -0.68967987597E+03  0.57987055593E+03  0.10398060103E+04  0.13759020114E+04  0.12699999809E+01 0.  1.
</event>
<event>
 5   0  0.6814789E-05  0.2299841E+04  0.7818609E-02  0.8477984E-01
       -2   -1    0    0    0  501  0.00000000000E+00  0.00000000000E+00  0.10417031052E+04  0.10417031052E+04  0.25500000920E-02 0. -1.
        2   -1    0    0  501    0  0.00000000000E+00  0.00000000000E+00 -0.12693803843E+04  0.12693803843E+04  0.25500000920E-02 0.  1.
    10030    2    1    2    0    0  0.00000000000E+00  0.00000000000E+00 -0.22767727912E+03  0.23110834895E+04  0.22998412884E+04 0.  0.
        1    1    3    3  502    0 -0.67219325322E+02  0.23207593897E+03 -0.12435850360E+04  0.12668391456E+04  0.50400001928E-02 0.  1.
       -1    1    3    3    0  502  0.67219325322E+02 -0.23207593897E+03  0.10159077569E+04  0.10442443438E+04  0.50400001928E-02 0. -1.
</event>
<event>
 5   0  0.2944089E-05  0.2268938E+04  0.7818609E-02  0.8490270E-01
       -1   -1    0    0    0  501  0.00000000000E+00  0.00000000000E+00  0.17664584876E+04  0.17664584876E+04  0.50400001928E-02 0.  1.
        1   -1    0    0  501    0  0.00000000000E+00  0.00000000000E+00 -0.72858801052E+03  0.72858801054E+03  0.50400001928E-02 0. -1.
    10030    2    1    2    0    0  0.00000000000E+00  0.00000000000E+00  0.10378704771E+04  0.24950464981E+04  0.22689384965E+04 0.  0.
        5    1    3    3  502    0 -0.88206880167E+03 -0.63406548299E+03  0.15937375513E+03  0.10979555963E+04  0.46999998093E+01 0. -1.
       -5    1    3    3    0  502  0.88206880167E+03  0.63406548299E+03  0.87849672194E+03  0.13970909019E+04  0.46999998093E+01 0.  1.
</event>
<event>
 5   0  0.6468758E-05  0.2315394E+04  0.7818609E-02  0.8471876E-01
        2   -1    0    0  501    0  0.00000000000E+00  0.00000000000E+00  0.10861367296E+04  0.10861367296E+04  0.25500000920E-02 0. -1.
       -2   -1    0    0    0  501  0.00000000000E+00  0.00000000000E+00 -0.12339719600E+04  0.12339719600E+04  0.25500000920E-02 0.  1.
    10030    2    1    2    0    0  0.00000000000E+00  0.00000000000E+00 -0.14783523032E+03  0.23201086896E+04  0.23153939354E+04 0.  0.
        3    1    3    3  502    0 -0.97299152820E+03  0.22351024555E+03  0.51344397002E+03  0.11226281951E+04  0.10100000352E+00 0. -1.
       -3    1    3    3    0  502  0.97299152820E+03 -0.22351024555E+03 -0.66127920034E+03  0.11974804945E+04  0.10100000352E+00 0.  1.
</event>
<event>
 5   0  0.6814789E-05  0.2436564E+04  0.7818609E-02  0.8425940E-01
        2   -1    0    0  501    0  0.00000000000E+00  0.00000000000E+00  0.10884678504E+04  0.10884678504E+04  0.25500000920E-02 0. -1.
       -2   -1    0    0    0  501  0.00000000000E+00  0.00000000000E+00 -0.13635787364E+04  0.13635787364E+04  0.25500000920E-02 0.  1.
    10030    2    1    2    0    0  0.00000000000E+00  0.00000000000E+00 -0.27511088604E+03  0.24520465868E+04  0.24365644798E+04 0.  0.
        1    1    3    3  502    0  0.22753259778E+03 -0.11968445753E+04 -0.13946369933E+03  0.12262373930E+04  0.50400001928E-02 0.  1.
       -1    1    3    3    0  502 -0.22753259778E+03  0.11968445753E+04 -0.13564718671E+03  0.12258091939E+04  0.50400001928E-02 0. -1.
</event>
<event>
 5   0  0.2944089E-05  0.2306180E+04  0.7818609E-02  0.8475488E-01
        1   -1    0    0  501    0  0.00000000000E+00  0.00000000000E+00  0.89251179653E+03  0.89251179654E+03  0.50400001928E-02 0. -1.
       -1   -1    0    0    0  501  0.00000000000E+00  0.00000000000E+00 -0.14897470596E+04  0.14897470596E+04  0.50400001928E-02 0.  1.
    10030    2    1    2    0    0  0.00000000000E+00  0.00000000000E+00 -0.59723526305E+03  0.23822588561E+04  0.23061802397E+04 0.  0.
        5    1    3    3  502    0  0.11706354052E+03  0.64962973572E+03  0.67801984823E+03  0.94628519519E+03  0.46999998093E+01 0. -1.
       -5    1    3    3    0  502 -0.11706354052E+03 -0.64962973572E+03 -0.12752551113E+04  0.14359736609E+04  0.46999998093E+01 0.  1.
</event>
<event>
 5   0  0.3006265E-05  0.2331254E+04  0.7818609E-02  0.8465699E-01
       -1   -1    0    0    0  501  0.00000000000E+00  0.00000000000E+00  0.13198077417E+04  0.13198077417E+04  0.50400001928E-02 0. -1.
        1   -1    0    0  501    0  0.00000000000E+00  0.00000000000E+00 -0.10294574084E+04  0.10294574084E+04  0.50400001928E-02 0.  1.
    10030    2    1    2    0    0  0.00000000000E+00  0.00000000000E+00  0.29035033334E+03  0.23492651501E+04  0.23312536176E+04 0.  0.
        2    1    3    3  502    0  0.45382531939E+03 -0.87288644897E+03 -0.48479285412E+03  0.10967735795E+04  0.25500000920E-02 0.  1.
       -2    1    3    3    0  502 -0.45382531939E+03  0.87288644897E+03  0.77514318745E+03  0.12524915706E+04  0.25500000920E-02 0. -1.
</event>
<event>
 5   0  0.6676612E-05  0.2258570E+04  0.7818609E-02  0.8494438E-01
       -2   -1    0    0    0  501  0.00000000000E+00  0.00000000000E+00  0.11128938628E+04  0.11128938628E+04  0.25500000920E-02 0. -1.
        2   -1    0    0  501    0  0.00000000000E+00  0.00000000000E+00 -0.11459176310E+04  0.11459176310E+04  0.25500000920E-02 0.  1.
    10030    2    1    2    0    0  0.00000000000E+00  0.00000000000E+00 -0.33023768240E+02  0.22588114938E+04  0.22585700776E+04 0.  0.
        2    1    3    3  502    0  0.25876692090E+02 -0.54578788744E+03 -0.10049143792E+04  0.11438561670E+04  0.25500000920E-02 0.  1.
       -2    1    3    3    0  502 -0.25876692090E+02  0.54578788744E+03  0.97189061093E+03  0.11149553269E+04  0.25500000920E-02 0. -1.
</event>
<event>
 5   0  0.6676612E-05  0.2308509E+04  0.7818609E-02  0.8474574E-01
        2   -1    0    0  501    0  0.00000000000E+00  0.00000000000E+00  0.96585088039E+03  0.96585088040E+03  0.25500000920E-02 0. -1.
       -2   -1    0    0    0  501  0.00000000000E+00  0.00000000000E+00 -0.13794092641E+04  0.13794092641E+04  0.25500000920E-02 0.  1.
    10030    2    1    2    0    0  0.00000000000E+00  0.00000000000E+00 -0.41355838374E+03  0.23452601445E+04  0.23085091745E+04 0.  0.
        2    1    3    3  502    0  0.45220424998E+03 -0.46989621498E+03 -0.11743127971E+04  0.13432429720E+04  0.25500000920E-02 0.  1.
       -2    1    3    3    0  502 -0.45220424998E+03  0.46989621498E+03  0.76075441333E+03  0.10020171725E+04  0.25500000920E-02 0. -1.
</event>
<event>
 5   0  0.3118614E-05  0.2297287E+04  0.7818609E-02  0.8478992E-01
        1   -1    0    0  501    0  0.00000000000E+00  0.00000000000E+00  0.13746131968E+04  0.13746131968E+04  0.50400001928E-02 0.  1.
       -1   -1    0    0    0  501  0.00000000000E+00  0.00000000000E+00 -0.95982034354E+03  0.95982034356E+03  0.50400001928E-02 0. -1.
    10030    2    1    2    0    0  0.00000000000E+00  0.00000000000E+00  0.41479285328E+03  0.23344335404E+04  0.22972868439E+04 0.  0.
        3    1    3    3  502    0 -0.21201640785E+03 -0.11044940862E+04  0.44467492155E+03  0.12093775009E+04  0.10100000352E+00 0.  1.
       -3    1    3    3    0  502  0.21201640785E+03  0.11044940862E+04 -0.29882068270E+02  0.11250560395E+04  0.10100000352E+00 0. -1.
</event>
<event>
 5   0  0.3006265E-05  0.2249239E+04  0.7818609E-02  0.8498209E-01
       -1   -1    0    0    0  501  0.00000000000E+00  0.00000000000E+00  0.11230167761E+04  0.11230167761E+04  0.50400001928E-02 0. -1.
        1   -1    0    0  501    0  0.00000000000E+00  0.00000000000E+00 -0.11262242396E+04  0.11262242396E+04  0.50400001928E-02 0.  1.
    10030    2    1    2    0    0  0.00000000000E+00  0.00000000000E+00 -0.32074634593E+01  0.22492410157E+04  0.22492387288E+04 0.  0.
        2    1    3    3  502    0  0.65003696800E+03 -0.36773149506E+03 -0.84243405958E+03  0.11258195490E+04  0.25500000920E-02 0.  1.
       -2    1    3    3    0  502 -0.65003696800E+03  0.36773149506E+03  0.83922659612E+03  0.11234214667E+04  0.25500000920E-02 0. -1.
</event>
<event>
 5   0  0.6814789E-05  0.2890887E+04  0.7818609E-02  0.8275594E-01
       -2   -1    0    0    0  501  0.00000000000E+00  0.00000000000E+00  0.19264115107E+04  0.19264115107E+04  0.25500000920E-02 0. -1.
        2   -1    0    0  501    0  0.00000000000E+00  0.00000000000E+00 -0.10845593343E+04  0.10845593343E+04  0.25500000920E-02 0.  1.
    10030    2    1    2    0    0  0.00000000000E+00  0.00000000000E+00  0.84185217641E+03  0.30109708450E+04  0.28908874662E+04 0.  0.
        1    1    3    3  502    0 -0.68993308902E+03  0.73125664512E+03 -0.66075254565E+03  0.12030535628E+04  0.50400001928E-02 0.  1.
       -1    1    3    3    0  502  0.68993308902E+03 -0.73125664512E+03  0.15026047221E+04  0.18079172822E+04  0.50400001928E-02 0. -1.
</event>
<event>
 5   0  0.2982385E-05  0.2312420E+04  0.7818609E-02  0.8473040E-01
        1   -1    0    0  501    0  0.00000000000E+00  0.00000000000E+00  0.16293071575E+04  0.16293071575E+04  0.50400001928E-02 0.  1.
       -1   -1    0    0    0  501  0.00000000000E+00  0.00000000000E+00 -0.82048461326E+03  0.82048461328E+03  0.50400001928E-02 0. -1.
    10030    2    1    2    0    0  0.00000000000E+00  0.00000000000E+00  0.80882254420E+03  0.24497917707E+04  0.23124199039E+04 0.  0.
        4    1    3    3  502    0  0.57835671100E+03 -0.46434308940E+03  0.13440685688E+04  0.15351328673E+04  0.12699999809E+01 0.  1.
       -4    1    3    3    0  502 -0.57835671100E+03  0.46434308940E+03 -0.53524602460E+03  0.91465890341E+03  0.12699999809E+01 0. -1.
</event>
<event>
 5   0  0.6814789E-05  0.2301623E+04  0.7818609E-02  0.8477281E-01
        2   -1    0    0  501    0  0.00000000000E+00  0.00000000000E+00  0.15261667361E+04  0.15261667361E+04  0.25500000920E-02 0.  1.
       -2   -1    0    0    0  501  0.00000000000E+00  0.00000000000E+00 -0.86777383678E+03  0.86777383679E+03  0.25500000920E-02 0. -1.
    10030    2    1    2    0    0  0.00000000000E+00  0.00000000000E+00  0.65839289930E+03  0.23939405729E+04  0.23016233959E+04 0.  0.
        1    1    3    3  502    0 -0.16771190650E+03 -0.26160996236E+03  0.14817019485E+04  0.15139378192E+04  0.50400001928E-02 0.  1.
       -1    1    3    3    0  502  0.16771190650E+03  0.26160996236E+03 -0.82330904923E+03  0.88000275372E+03  0.50400001928E-02 0. -1.
</event>
<event>
 5   0  0.2962279E-05  0.2326164E+04  0.7818609E-02  0.8467676E-01
        1   -1    0    0  501    0  0.00000000000E+00  0.00000000000E+00  0.23614373804E+04  0.23614373804E+04  0.50400001928E-02 0.  1.
       -1   -1    0    0    0  501  0.00000000000E+00  0.00000000000E+00 -0.57285420436E+03  0.57285420438E+03  0.50400001928E-02 0. -1.
    10030    2    1    2    0    0  0.00000000000E+00  0.00000000000E+00  0.17885831761E+04  0.29342915848E+04  0.23261636501E+04 0.  0.
        1    1    3    3  502    0  0.85829869105E+03  0.55380447429E+03  0.19265628599E+03  0.10394674037E+04  0.50400001928E-02 0. -1.
       -1    1    3    3    0  502 -0.85829869105E+03 -0.55380447429E+03  0.15959268901E+04  0.18948241811E+04  0.50400001928E-02 0.  1.
</event>
<event>
 5   0  0.6702421E-05  0.2324541E+04  0.7818609E-02  0.8468307E-01
       -2   -1    0    0    0  501  0.00000000000E+00  0.00000000000E+00  0.10649146684E+04  0.10649146684E+04  0.25500000920E-02 0. -1.
        2   -1    0    0  501    0  0.00000000000E+00  0.00000000000E+00 -0.12685272593E+04  0.12685272593E+04  0.25500000920E-02 0.  1.
    10030    2    1    2    0    0  0.00000000000E+00  0.00000000000E+00 -0.20361259097E+03  0.23334419277E+04  0.23245414908E+04 0.  0.
        4    1    3    3  502    0 -0.60492890442E+03  0.24562991016E+02 -0.10977388137E+04  0.12536245195E+04  0.12699999809E+01 0.  1.
       -4    1    3    3    0  502  0.60492890442E+03 -0.24562991016E+02  0.89412622272E+03  0.10798174082E+04  0.12699999809E+01 0. -1.
</event>
<event>
 5   0  0.2342500E-05  0.2261872E+04  0.7818609E-02  0.8493108E-01
        3   -1    0    0  501    0  0.00000000000E+00  0.00000000000E+00  0.12394972898E+04  0.12394972940E+04  0.10100000352E+00 0. -1.
       -3   -1    0    0    0  501  0.00000000000E+00  0.00000000000E+00 -0.10318834349E+04  0.10318834398E+04  0.10100000352E+00 0.  1.
    10030    2    1    2    0    0  0.00000000000E+00  0.00000000000E+00  0.20761385498E+03  0.22713807338E+04  0.22618724378E+04 0.  0.
        4    1    3    3  502    0 -0.83322846328E+03 -0.25042337162E+03 -0.62174925945E+03  0.10693714470E+04  0.12699999809E+01 0.  1.
       -4    1    3    3    0  502  0.83322846328E+03  0.25042337162E+03  0.82936311443E+03  0.12020092868E+04  0.12699999809E+01 0. -1.
</event>
<event>
 5   0  0.6468758E-05  0.2231486E+04  0.7818609E-02  0.8505436E-01
       -2   -1    0    0    0  501  0.00000000000E+00  0.00000000000E+00  0.63903159196E+03  0.63903159196E+03  0.25500000920E-02 0.  1.
        2   -1    0    0  501    0  0.00000000000E+00  0.00000000000E+00 -0.19480770038E+04  0.19480770038E+04  0.25500000920E-02 0. -1.
    10030    2    1    2    0    0  0.00000000000E+00  0.00000000000E+00 -0.13090454118E+04  0.25871085957E+04  0.22314862751E+04 0.  0.
        3    1    3    3  502    0  0.89061154709E+03  0.60345124670E+03 -0.99754686766E+03  0.14671203421E+04  0.10100000352E+00 0. -1.
       -3    1    3    3    0  502 -0.89061154709E+03 -0.60345124670E+03 -0.31149854414E+03  0.11199882536E+04  0.10100000352E+00 0.  1.
</event>
<event>
 5   0  0.6676612E-05  0.2289067E+04  0.7818609E-02  0.8482244E-01
        2   -1    0    0  501    0  0.00000000000E+00  0.00000000000E+00  0.21195494504E+04  0.21195494504E+04  0.25500000920E-02 0.  1.
       -2   -1    0    0    0  501  0.00000000000E+00  0.00000000000E+00 -0.61803552902E+03  0.61803552902E+03  0.25500000920E-02 0. -1.
    10030    2    1    2    0    0  0.00000000000E+00  0.00000000000E+00  0.15015139214E+04  0.27375849794E+04  0.22890669417E+04 0.  0.
        2    1    3    3  502    0  0.49271963646E+03  0.85965905430E+03  0.65649165222E+02  0.99302373722E+03  0.25500000920E-02 0. -1.
       -2    1    3    3    0  502 -0.49271963646E+03 -0.85965905430E+03  0.14358647561E+04  0.17445612422E+04  0.25500000920E-02 0.  1.
</event>
<event>
 5   0  0.6814789E-05  0.2319596E+04  0.7818609E-02  0.8470234E-01
       -2   -1    0    0    0  501  0.00000000000E+00  0.00000000000E+00  0.87155269270E+03  0.87155269270E+03  0.25500000920E-02 0.  1.
        2   -1    0    0  501    0  0.00000000000E+00  0.00000000000E+00 -0.15433739802E+04  0.15433739802E+04  0.25500000920E-02 0. -1.
    10030    2    1    2    0    0  0.00000000000E+00  0.00000000000E+00 -0.67182128749E+03  0.24149266729E+04  0.23195962996E+04 0.  0.
        1    1    3    3  502    0 -0.49021015075E+02  0.11587525412E+04 -0.33111293000E+03  0.12061286350E+04  0.50400001928E-02 0. -1.
       -1    1    3    3    0  502  0.49021015075E+02 -0.11587525412E+04 -0.34070835749E+03  0.12087980379E+04  0.50400001928E-02 0.  1.
</event>
<event>
 5   0  0.3006265E-05  0.1792994E+04  0.7818609E-02  0.8710034E-01
       -1   -1    0    0    0  501  0.00000000000E+00  0.00000000000E+00  0.56624132750E+03  0.56624132752E+03  0.50400001928E-02 0.  1.
        1   -1    0    0  501    0  0.00000000000E+00  0.00000000000E+00 -0.14193720178E+04  0.14193720178E+04  0.50400001928E-02 0. -1.
    10030    2    1    2    0    0  0.00000000000E+00  0.00000000000E+00 -0.85313069028E+03  0.19856133453E+04  0.17929942505E+04 0.  0.
        2    1    3    3  502    0 -0.18573267480E+03 -0.87489042524E+03 -0.49462684558E+03  0.10220497048E+04  0.25500000920E-02 0.  1.
       -2    1    3    3    0  502  0.18573267480E+03  0.87489042524E+03 -0.35850384470E+03  0.96356364052E+03  0.25500000920E-02 0. -1.
</event>
<event>
 5   0  0.6676612E-05  0.2344057E+04  0.7818609E-02  0.8460750E-01
        2   -1    0    0  501    0  0.00000000000E+00  0.00000000000E+00  0.10824740464E+04  0.10824740464E+04  0.25500000920E-02 0. -1.
       -2   -1    0    0    0  501  0.00000000000E+00  0.00000000000E+00 -0.12689921196E+04  0.12689921196E+04  0.25500000920E-02 0.  1.
    10030    2    1    2    0    0  0.00000000000E+00  0.00000000000E+00 -0.18651807318E+03  0.23514661660E+04  0.23440571960E+04 0.  0.
        2    1    3    3  502    0  0.62264897581E+03 -0.82412656178E+03  0.46236406980E+03  0.11316611109E+04  0.25500000920E-02 0. -1.
       -2    1    3    3    0  502 -0.62264897581E+03  0.82412656178E+03 -0.64888214298E+03  0.12198050551E+04  0.25500000920E-02 0.  1.
</event>
<event>
 5   0  0.3118614E-05  0.2296371E+04  0.7818609E-02  0.8479353E-01
       -1   -1    0    0    0  501  0.00000000000E+00  0.00000000000E+00  0.87513158909E+03  0.87513158910E+03  0.50400001928E-02 0.  1.
        1   -1    0    0  501    0  0.00000000000E+00  0.00000000000E+00 -0.15064361742E+04  0.15064361743E+04  0.50400001928E-02 0. -1.
    10030    2    1    2    0    0  0.00000000000E+00  0.00000000000E+00 -0.63130458515E+03  0.23815677634E+04  0.22963709483E+04 0.  0.
        3    1    3    3  502    0 -0.48408976433E+03 -0.88987544531E+03  0.24487029600E+03  0.10422008828E+04  0.10100000352E+00 0.  1.
       -3    1    3    3    0  502  0.48408976433E+03  0.88987544531E+03 -0.87617488115E+03  0.13393668805E+04  0.10100000352E+00 0. -1.
</event>
<event>
 5   0  0.2982385E-05  0.2309047E+04  0.7818609E-02  0.8474362E-01
       -1   -1    0    0    0  501  0.00000000000E+00  0.00000000000E+00  0.34256155503E+04  0.34256155503E+04  0.50400001928E-02 0. -1.
        1   -1    0    0  501    0  0.00000000000E+00  0.00000000000E+00 -0.38910515755E+03  0.38910515758E+03  0.50400001928E-02 0.  1.
    10030    2    1    2    0    0  0.00000000000E+00  0.00000000000E+00  0.30365103927E+04  0.38147207078E+04  0.23090471441E+04 0.  0.
        4    1    3    3  502    0 -0.45395146135E+02  0.89666763738E+03  0.27174044200E+04  0.28618808441E+04  0.12699999809E+01 0. -1.
       -4    1    3    3    0  502  0.45395146135E+02 -0.89666763738E+03  0.31910597276E+03  0.95283986376E+03  0.12699999809E+01 0.  1.
</event>
<event>
 5   0  0.3006265E-05  0.2283785E+04  0.7818609E-02  0.8484342E-01
        1   -1    0    0  501    0  0.00000000000E+00  0.00000000000E+00  0.14204428240E+04  0.14204428240E+04  0.50400001928E-02 0. -1.
       -1   -1    0    0    0  501  0.00000000000E+00  0.00000000000E+00 -0.91796627408E+03  0.91796627409E+03  0.50400001928E-02 0.  1.
    10030    2    1    2    0    0  0.00000000000E+00  0.00000000000E+00  0.50247654994E+03  0.23384090981E+04  0.22837851096E+04 0.  0.
        2    1    3    3  502    0  0.57157327717E+03  0.34213945419E+03  0.12008710203E+04  0.13732613097E+04  0.25500000920E-02 0. -1.
       -2    1    3    3    0  502 -0.57157327717E+03 -0.34213945419E+03 -0.69839447035E+03  0.96514778843E+03  0.25500000920E-02 0.  1.
</event>
<event>
 5   0  0.2944089E-05  0.2323863E+04  0.7818609E-02  0.8468571E-01
       -1   -1    0    0    0  501  0.00000000000E+00  0.00000000000E+00  0.93475980008E+03  0.93475980009E+03  0.50400001928E-02 0.  1.
        1   -1    0    0  501    0  0.00000000000E+00  0.00000000000E+00 -0.14443115708E+04  0.14443115708E+04  0.50400001928E-02 0. -1.
    10030    2    1    2    0    0  0.00000000000E+00  0.00000000000E+00 -0.50955177075E+03  0.23790713709E+04  0.23238626424E+04 0.  0.
        5    1    3    3  502    0  0.52381655141E+03 -0.56547619810E+03  0.63531336097E+03  0.99889552345E+03  0.46999998093E+01 0.  1.
       -5    1    3    3    0  502 -0.52381655141E+03  0.56547619810E+03 -0.11448651317E+04  0.13801758475E+04  0.46999998093E+01 0. -1.
</event>
<event>
 5   0  0.6814789E-05  0.2204532E+04  0.7818609E-02  0.8516544E-01
       -2   -1    0    0    0  501  0.00000000000E+00  0.00000000000E+00  0.76973013829E+03  0.76973013829E+03  0.25500000920E-02 0. -1.
        2   -1    0    0  501    0  0.00000000000E+00  0.00000000000E+00 -0.15784631423E+04  0.15784631423E+04  0.25500000920E-02 0.  1.
    10030    2    1    2    0    0  0.00000000000E+00  0.00000000000E+00 -0.80873300405E+03  0.23481932806E+04  0.22045322886E+04 0.  0.
        1    1    3    3  502    0 -0.37809402402E+03  0.55576958331E+03 -0.13348827528E+04  0.14945724755E+04  0.50400001928E-02 0.  1.
       -1    1    3    3    0  502  0.37809402402E+03 -0.55576958331E+03  0.52614974879E+03  0.85362080511E+03  0.50400001928E-02 0. -1.
</event>
<event>
 5   0  0.6702421E-05  0.2243816E+04  0.7818609E-02  0.8500409E-01
       -2   -1    0    0    0  501  0.00000000000E+00  0.00000000000E+00  0.72259059436E+03  0.72259059437E+03  0.25500000920E-02 0. -1.
        2   -1    0    0  501    0  0.00000000000E+00  0.00000000000E+00 -0.17418963755E+04  0.17418963755E+04  0.25500000920E-02 0.  1.
    10030    2    1    2    0    0  0.00000000000E+00  0.00000000000E+00 -0.10193057811E+04  0.24644869698E+04  0.22438163359E+04 0.  0.
        4    1    3    3  502    0 -0.96385316620E+03 -0.54561686218E+03 -0.31328028171E+03  0.11510242544E+04  0.12699999809E+01 0. -1.
       -4    1    3    3    0  502  0.96385316620E+03  0.54561686218E+03 -0.70602549941E+03  0.13134627155E+04  0.12699999809E+01 0.  1.
</event>
<event>
 5   0  0.6468758E-05  0.2302004E+04  0.7818609E-02  0.8477131E-01
        2   -1    0    0  501    0  0.00000000000E+00  0.00000000000E+00  0.15070486621E+04  0.15070486621E+04  0.25500000920E-02 0.  1.
       -2   -1    0    0    0  501  0.00000000000E+00  0.00000000000E+00 -0.87907272645E+03  0.87907272645E+03  0.25500000920E-02 0. -1.
    10030    2    1    2    0    0  0.00000000000E+00  0.00000000000E+00  0.62797593562E+03  0.23861213885E+04  0.23020038021E+04 0.  0.
        3    1    3    3  502    0  0.36232480206E+03 -0.65976904357E+03  0.12165711568E+04  0.14306012173E+04  0.10100000352E+00 0.  1.
       -3    1    3    3    0  502 -0.36232480206E+03  0.65976904357E+03 -0.58859522120E+03  0.95552017125E+03  0.10100000352E+00 0. -1.
</event>
<event>
 5   0  0.3006265E-05  0.2266940E+04  0.7818609E-02  0.8491072E-01
        1   -1    0    0  501    0  0.00000000000E+00  0.00000000000E+00  0.16682516658E+04  0.16682516658E+04  0.50400001928E-02 0.  1.
       -1   -1    0    0    0  501  0.00000000000E+00  0.00000000000E+00 -0.77011993500E+03  0.77011993502E+03  0.50400001928E-02 0. -1.
    10030    2    1    2    0    0  0.00000000000E+00  0.00000000000E+00  0.89813173084E+03  0.24383716009E+04  0.22669396679E+04 0.  0.
        2    1    3    3  502    0 -0.11146752853E+04  0.10174563611E+03  0.64118031261E+03  0.12899478126E+04  0.25500000920E-02 0.  1.
       -2    1    3    3    0  502  0.11146752853E+04 -0.10174563611E+03  0.25695141823E+03  0.11484237882E+04  0.25500000920E-02 0. -1.
</event>
<event>
 5   0  0.2342500E-05  0.2310315E+04  0.7818609E-02  0.8473865E-01
        4   -1    0    0  501    0  0.00000000000E+00  0.00000000000E+00  0.15405880987E+04  0.15405886222E+04  0.12699999809E+01 0. -1.
       -4   -1    0    0    0  501  0.00000000000E+00  0.00000000000E+00 -0.86615440830E+03  0.86615533937E+03  0.12699999809E+01 0.  1.
    10030    2    1    2    0    0  0.00000000000E+00  0.00000000000E+00  0.67443369042E+03  0.24067439616E+04  0.23103150637E+04 0.  0.
        3    1    3    3  502    0 -0.39424712127E+03 -0.74978961136E+03 -0.48091178321E+03  0.97411057246E+03  0.10100000352E+00 0.  1.
       -3    1    3    3    0  502  0.39424712127E+03  0.74978961136E+03  0.11553454736E+04  0.14326333891E+04  0.10100000352E+00 0. -1.
</event>
<event>
 5   0  0.2342500E-05  0.2313166E+04  0.7818609E-02  0.8472748E-01
        3   -1    0    0  501    0  0.00000000000E+00  0.00000000000E+00  0.15752115126E+04  0.15752115158E+04  0.10100000352E+00 0.  1.
       -3   -1    0    0    0  501  0.00000000000E+00  0.00000000000E+00 -0.84920937386E+03  0.84920937987E+03  0.10100000352E+00 0. -1.
    10030    2    1    2    0    0  0.00000000000E+00  0.00000000000E+00  0.72600213870E+03  0.24244208957E+04  0.23131661363E+04 0.  0.
        3    1    3    3  502    0 -0.25059556484E+02  0.42115426269E+03  0.14916823028E+04  0.15501983735E+04  0.10100000352E+00 0.  1.
       -3    1    3    3    0  502  0.25059556484E+02 -0.42115426269E+03 -0.76568016413E+03  0.87422252219E+03  0.10100000352E+00 0. -1.
</event>
<event>
 5   0  0.2342500E-05  0.2296102E+04  0.7818609E-02  0.8479460E-01
        3   -1    0    0  501    0  0.00000000000E+00  0.00000000000E+00  0.10591796161E+04  0.10591796209E+04  0.10100000352E+00 0. -1.
       -3   -1    0    0    0  501  0.00000000000E+00  0.00000000000E+00 -0.12443792355E+04  0.12443792396E+04  0.10100000352E+00 0.  1.
    10030    2    1    2    0    0  0.00000000000E+00  0.00000000000E+00 -0.18519961943E+03  0.23035588605E+04  0.22961020284E+04 0.  0.
        4    1    3    3  502    0 -0.18707047816E+03 -0.37776318405E+03  0.97872543037E+03  0.10656479099E+04  0.12699999809E+01 0. -1.
       -4    1    3    3    0  502  0.18707047816E+03  0.37776318405E+03 -0.11639250498E+04  0.12379109505E+04  0.12699999809E+01 0.  1.
</event>
<event>
 5   0  0.2982385E-05  0.2287812E+04  0.7818609E-02  0.8482742E-01
        1   -1    0    0  501    0  0.00000000000E+00  0.00000000000E+00  0.24346965049E+04  0.24346965050E+04  0.50400001928E-02 0. -1.
       -1   -1    0    0    0  501  0.00000000000E+00  0.00000000000E+00 -0.53744709570E+03  0.53744709572E+03  0.50400001928E-02 0.  1.
    10030    2    1    2    0    0  0.00000000000E+00  0.00000000000E+00  0.18972494092E+04  0.29721436007E+04  0.22878116754E+04 0.  0.
        4    1    3    3  502    0 -0.12432988498E+03 -0.85885704583E+03  0.19168188808E+04  0.21041125398E+04  0.12699999809E+01 0. -1.
       -4    1    3    3    0  502  0.12432988498E+03  0.85885704583E+03 -0.19569471586E+02  0.86803106084E+03  0.12699999809E+01 0.  1.
</event>
<event>
 5   0  0.2962279E-05  0.2295239E+04  0.7818609E-02  0.8479801E-01
        1   -1    0    0  501    0  0.00000000000E+00  0.00000000000E+00  0.18966823768E+04  0.18966823768E+04  0.50400001928E-02 0.  1.
       -1   -1    0    0    0  501  0.00000000000E+00  0.00000000000E+00 -0.69438641910E+03  0.69438641911E+03  0.50400001928E-02 0. -1.
    10030    2    1    2    0    0  0.00000000000E+00  0.00000000000E+00  0.12022959577E+04  0.25910687959E+04  0.22952389713E+04 0.  0.
        1    1    3    3  502    0 -0.14456355169E+03 -0.81555535659E+03 -0.29559125241E+03  0.87943353852E+03  0.50400001928E-02 0. -1.
       -1    1    3    3    0  502  0.14456355169E+03  0.81555535659E+03  0.14978872101E+04  0.17116352574E+04  0.50400001928E-02 0.  1.
</event>
<event>
 5   0  0.6702421E-05  0.2294037E+04  0.7818609E-02  0.8480276E-01
        2   -1    0    0  501    0  0.00000000000E+00  0.00000000000E+00  0.16525512918E+04  0.16525512918E+04  0.25500000920E-02 0. -1.
       -2   -1    0    0    0  501  0.00000000000E+00  0.00000000000E+00 -0.79613343952E+03  0.79613343953E+03  0.25500000920E-02 0.  1.
    10030    2    1    2    0    0  0.00000000000E+00  0.00000000000E+00  0.85641785230E+03  0.24486847314E+04  0.22940369168E+04 0.  0.
        4    1    3    3  502    0 -0.72773589498E+03  0.83863229803E+03  0.12116101251E+03  0.11169535657E+04  0.12699999809E+01 0. -1.
       -4    1    3    3    0  502  0.72773589498E+03 -0.83863229803E+03  0.73525683979E+03  0.13317311656E+04  0.12699999809E+01 0.  1.
</event>
<event>
 5   0  0.6495405E-05  0.2282242E+04  0.7818609E-02  0.8484956E-01
        2   -1    0    0  501    0  0.00000000000E+00  0.00000000000E+00  0.15756887881E+04  0.15756887881E+04  0.25500000920E-02 0. -1.
       -2   -1    0    0    0  501  0.00000000000E+00  0.00000000000E+00 -0.82640524771E+03  0.82640524772E+03  0.25500000920E-02 0.  1.
    10030    2    1    2    0    0  0.00000000000E+00  0.00000000000E+00  0.74928354035E+03  0.24020940358E+04  0.22822423037E+04 0.  0.
        5    1    3    3  502    0 -0.28479439555E+03 -0.63107647794E+03  0.13293430047E+04  0.14988463173E+04  0.46999998093E+01 0. -1.
       -5    1    3    3    0  502  0.28479439555E+03  0.63107647794E+03 -0.58005946436E+03  0.90324771848E+03  0.46999998093E+01 0.  1.
</event>
<event>
 5   0  0.2944089E-05  0.2305343E+04  0.7818609E-02  0.8475818E-01
       -1   -1    0    0    0  501  0.00000000000E+00  0.00000000000E+00  0.14245772720E+04  0.14245772720E+04  0.50400001928E-02 0. -1.
        1   -1    0    0  501    0  0.00000000000E+00  0.00000000000E+00 -0.93266343466E+03  0.93266343468E+03  0.50400001928E-02 0.  1.
    10030    2    1    2    0    0  0.00000000000E+00  0.00000000000E+00  0.49191383734E+03  0.23572407067E+04  0.23053426049E+04 0.  0.
        5    1    3    3  502    0  0.63668523213E+03 -0.93045031825E+03  0.49119608490E+03  0.12297973668E+04  0.46999998093E+01 0.  1.
       -5    1    3    3    0  502 -0.63668523213E+03  0.93045031825E+03  0.71775244292E+00  0.11274433399E+04  0.46999998093E+01 0. -1.
</event>
<event>
 5   0  0.6814789E-05  0.2320518E+04  0.7818609E-02  0.8469875E-01
        2   -1    0    0  501    0  0.00000000000E+00  0.00000000000E+00  0.59892908919E+03  0.59892908920E+03  0.25500000920E-02 0. -1.
       -2   -1    0    0    0  501  0.00000000000E+00  0.00000000000E+00 -0.22476808599E+04  0.22476808599E+04  0.25500000920E-02 0.  1.
    10030    2    1    2    0    0  0.00000000000E+00  0.00000000000E+00 -0.16487517707E+04  0.28466099491E+04  0.23205184336E+04 0.  0.
        1    1    3    3  502    0 -0.11506552865E+03 -0.10886119641E+04 -0.35263280318E+03  0.11500721622E+04  0.50400001928E-02 0. -1.
       -1    1    3    3    0  502  0.11506552865E+03  0.10886119641E+04 -0.12961189675E+04  0.16965377869E+04  0.50400001928E-02 0.  1.
</event>
<event>
 5   0  0.6676612E-05  0.2229573E+04  0.7818609E-02  0.8506219E-01
        2   -1    0    0  501    0  0.00000000000E+00  0.00000000000E+00  0.19041311622E+04  0.19041311622E+04  0.25500000920E-02 0. -1.
       -2   -1    0    0    0  501  0.00000000000E+00  0.00000000000E+00 -0.65265927286E+03  0.65265927286E+03  0.25500000920E-02 0.  1.
    10030    2    1    2    0    0  0.00000000000E+00  0.00000000000E+00  0.12514718894E+04  0.25567904351E+04  0.22295729275E+04 0.  0.
        2    1    3    3  502    0  0.10737376992E+04 -0.27942757360E+03  0.50139577883E+03  0.12175344524E+04  0.25500000920E-02 0.  1.
       -2    1    3    3    0  502 -0.10737376992E+04  0.27942757360E+03  0.75007611052E+03  0.13392559827E+04  0.25500000920E-02 0. -1.
</event>
<event>
 5   0  0.6676612E-05  0.2290000E+04  0.7818609E-02  0.8481875E-01
        2   -1    0    0  501    0  0.00000000000E+00  0.00000000000E+00  0.24217443792E+04  0.24217443792E+04  0.25500000920E-02 0.  1.
       -2   -1    0    0    0  501  0.00000000000E+00  0.00000000000E+00 -0.54135553695E+03  0.54135553696E+03  0.25500000920E-02 0. -1.
    10030    2    1    2    0    0  0.00000000000E+00  0.00000000000E+00  0.18803888422E+04  0.29630999161E+04  0.22899997631E+04 0.  0.
        2    1    3    3  502    0  0.12705240835E+02  0.62112031789E+03  0.21847056738E+04  0.22713191659E+04  0.25500000920E-02 0.  1.
       -2    1    3    3    0  502 -0.12705240835E+02 -0.62112031789E+03 -0.30431683153E+03  0.69178075023E+03  0.25500000920E-02 0. -1.
</event>
<event>
 5   0  0.2982385E-05  0.2246840E+04  0.7818609E-02  0.8499181E-01
        1   -1    0    0  501    0  0.00000000000E+00  0.00000000000E+00  0.11574412359E+04  0.11574412359E+04  0.50400001928E-02 0. -1.
       -1   -1    0    0    0  501  0.00000000000E+00  0.00000000000E+00 -0.10903985411E+04  0.10903985411E+04  0.50400001928E-02 0.  1.
    10030    2    1    2    0    0  0.00000000000E+00  0.00000000000E+00  0.67042694777E+02  0.22478397770E+04  0.22468397674E+04 0.  0.
        4    1    3    3  502    0  0.68224532576E+03  0.78833785660E+03 -0.38515668231E+03  0.11114326536E+04  0.12699999809E+01 0.  1.
       -4    1    3    3    0  502 -0.68224532576E+03 -0.78833785660E+03  0.45219937709E+03  0.11364071234E+04  0.12699999809E+01 0. -1.
</event>
<event>
 5   0  0.2962279E-05  0.2303024E+04  0.7818609E-02  0.8476730E-01
        1   -1    0    0  501    0  0.00000000000E+00  0.00000000000E+00  0.24847327912E+04  0.24847327912E+04  0.50400001928E-02 0.  1.
       -1   -1    0    0    0  501  0.00000000000E+00  0.00000000000E+00 -0.53365093259E+03  0.53365093261E+03  0.50400001928E-02 0. -1.
    10030    2    1    2    0    0  0.00000000000E+00  0.00000000000E+00  0.19510818586E+04  0.30183837238E+04  0.23030240740E+04 0.  0.
        1    1    3    3  502    0 -0.40254906312E+03  0.97108440321E+03  0.15915720263E+04  0.19073940812E+04  0.50400001928E-02 0.  1.
       -1    1    3    3    0  502  0.40254906312E+03 -0.97108440321E+03  0.35950983239E+03  0.11109896426E+04  0.50400001928E-02 0. -1.
</event>
<event>
 5   0  0.6495405E-05  0.2589509E+04  0.7818609E-02  0.8371774E-01
       -2   -1    0    0    0  501  0.00000000000E+00  0.00000000000E+00  0.11129749494E+04  0.11129749494E+04  0.25500000920E-02 0.  1.
        2   -1    0    0  501    0  0.00000000000E+00  0.00000000000E+00 -0.15062236244E+04  0.15062236244E+04  0.25500000920E-02 0. -1.
    10030    2    1    2    0    0  0.00000000000E+00  0.00000000000E+00 -0.39324867503E+03  0.26191985738E+04  0.25895089589E+04 0.  0.
        5    1    3    3  502    0  0.50557648832E+03  0.64559522386E+03 -0.12100935821E+04  0.14617624110E+04  0.46999998093E+01 0. -1.
       -5    1    3    3    0  502 -0.50557648832E+03 -0.64559522386E+03  0.81684490712E+03  0.11574361628E+04  0.46999998093E+01 0.  1.
</event>
<event>
 5   0  0.2944089E-05  0.2345202E+04  0.7818609E-02  0.8460309E-01
        1   -1    0    0  501    0  0.00000000000E+00  0.00000000000E+00  0.12466307350E+04  0.12466307351E+04  0.50400001928E-02 0.  1.
       -1   -1    0    0    0  501  0.00000000000E+00  0.00000000000E+00 -0.11029673248E+04  0.11029673248E+04  0.50400001928E-02 0. -1.
    10030    2    1    2    0    0  0.00000000000E+00  0.00000000000E+00  0.14366341025E+03  0.23495980599E+04  0.23452018820E+04 0.  0.
        5    1    3    3  502    0  0.11427349382E+04 -0.26067749685E+03  0.37489459804E+02  0.11726992137E+04  0.46999998093E+01 0.  1.
       -5    1    3    3    0  502 -0.11427349382E+04  0.26067749685E+03  0.10617395045E+03  0.11768988461E+04  0.46999998093E+01 0. -1.
</event>
<event>
 5   0  0.6676612E-05  0.2288386E+04  0.7818609E-02  0.8482514E-01
       -2   -1    0    0    0  501  0.00000000000E+00  0.00000000000E+00  0.11801916376E+04  0.11801916376E+04  0.25500000920E-02 0. -1.
        2   -1    0    0  501    0  0.00000000000E+00  0.00000000000E+00 -0.11092925357E+04  0.11092925357E+04  0.25500000920E-02 0.  1.
    10030    2    1    2    0    0  0.00000000000E+00  0.00000000000E+00  0.70899101848E+02  0.22894841733E+04  0.22883861337E+04 0.  0.
        2    1    3    3  502    0 -0.42029465779E+02 -0.10808616807E+04 -0.33775668408E+03  0.11331849039E+04  0.25500000920E-02 0.  1.
       -2    1    3    3    0  502  0.42029465779E+02  0.10808616807E+04  0.40865578593E+03  0.11562992693E+04  0.25500000920E-02 0. -1.
</event>
<event>
 5   0  0.6702421E-05  0.2295682E+04  0.7818609E-02  0.8479625E-01
        2   -1    0    0  501    0  0.00000000000E+00  0.00000000000E+00  0.15584622377E+04  0.15584622377E+04  0.25500000920E-02 0. -1.
       -2   -1    0    0    0  501  0.00000000000E+00  0.00000000000E+00 -0.84540991476E+03  0.84540991476E+03  0.25500000920E-02 0.  1.
    10030    2    1    2    0    0  0.00000000000E+00  0.00000000000E+00  0.71305232298E+03  0.24038721525E+04  0.22956824062E+04 0.  0.
        4    1    3    3  502    0  0.79223390102E+03 -0.41052759186E+03  0.11126148281E+04  0.14262120551E+04  0.12699999809E+01 0.  1.
       -4    1    3    3    0  502 -0.79223390102E+03  0.41052759186E+03 -0.39956250511E+03  0.97766009737E+03  0.12699999809E+01 0. -1.
</event>
<event>
 5   0  0.2982385E-05  0.2333536E+04  0.7818609E-02  0.8464815E-01
        1   -1    0    0  501    0  0.00000000000E+00  0.00000000000E+00  0.10938204613E+04  0.10938204613E+04  0.50400001928E-02 0.  1.
       -1   -1    0    0    0  501  0.00000000000E+00  0.00000000000E+00 -0.12445803993E+04  0.12445803993E+04  0.50400001928E-02 0. -1.
    10030    2    1    2    0    0  0.00000000000E+00  0.00000000000E+00 -0.15075993799E+03  0.23384008606E+04  0.23335359491E+04 0.  0.
        4    1    3    3  502    0  0.45886382864E+02  0.38066644630E+03  0.10288853553E+04  0.10980069174E+04  0.12699999809E+01 0.  1.
       -4    1    3    3    0  502 -0.45886382864E+02 -0.38066644630E+03 -0.11796452933E+04  0.12403939432E+04  0.12699999809E+01 0. -1.
</event>
<event>
 5   0  0.6495405E-05  0.2175103E+04  0.7818609E-02  0.8528863E-01
        2   -1    0    0  501    0  0.00000000000E+00  0.00000000000E+00  0.11003112310E+04  0.11003112310E+04  0.25500000920E-02 0.  1.
       -2   -1    0    0    0  501  0.00000000000E+00  0.00000000000E+00 -0.10749393711E+04  0.10749393711E+04  0.25500000920E-02 0. -1.
    10030    2    1    2    0    0  0.00000000000E+00  0.00000000000E+00  0.25371859891E+02  0.21752506021E+04  0.21751026299E+04 0.  0.
        5    1    3    3  502    0  0.93446820769E+03 -0.26872646142E+03 -0.47448274585E+03  0.10819430245E+04  0.46999998093E+01 0. -1.
       -5    1    3    3    0  502 -0.93446820769E+03  0.26872646142E+03  0.49985460574E+03  0.10933075775E+04  0.46999998093E+01 0.  1.
</event>
<event>
 5   0  0.6468758E-05  0.2054134E+04  0.7818609E-02  0.8581721E-01
        2   -1    0    0  501    0  0.00000000000E+00  0.00000000000E+00  0.96571317147E+03  0.96571317147E+03  0.25500000920E-02 0.  1.
       -2   -1    0    0    0  501  0.00000000000E+00  0.00000000000E+00 -0.10923191336E+04  0.10923191336E+04  0.25500000920E-02 0. -1.
    10030    2    1    2    0    0  0.00000000000E+00  0.00000000000E+00 -0.12660596212E+03  0.20580323051E+04  0.20541343430E+04 0.  0.
        3    1    3    3  502    0  0.74060366026E+03 -0.70269782017E+03  0.49110451823E+02  0.10221007067E+04  0.10100000352E+00 0. -1.
       -3    1    3    3    0  502 -0.74060366026E+03  0.70269782017E+03 -0.17571641395E+03  0.10359315983E+04  0.10100000352E+00 0.  1.
</event>
<event>
 5   0  0.6702421E-05  0.2250600E+04  0.7818609E-02  0.8497657E-01
        2   -1    0    0  501    0  0.00000000000E+00  0.00000000000E+00  0.15666306898E+04  0.15666306898E+04  0.25500000920E-02 0.  1.
       -2   -1    0    0    0  501  0.00000000000E+00  0.00000000000E+00 -0.80829545155E+03  0.80829545155E+03  0.25500000920E-02 0. -1.
    10030    2    1    2    0    0  0.00000000000E+00  0.00000000000E+00  0.75833523821E+03  0.23749261413E+04  0.22506003295E+04 0.  0.
        4    1    3    3  502    0 -0.55728792190E+03 -0.52399867527E+03  0.12500801024E+04  0.14655532453E+04  0.12699999809E+01 0.  1.
       -4    1    3    3    0  502  0.55728792190E+03  0.52399867527E+03 -0.49174486420E+03  0.90937289598E+03  0.12699999809E+01 0. -1.
</event>
<event>
 5   0  0.3006265E-05  0.2230131E+04  0.7818609E-02  0.8505990E-01
        1   -1    0    0  501    0  0.00000000000E+00  0.00000000000E+00  0.16498144904E+04  0.16498144905E+04  0.50400001928E-02 0. -1.
       -1   -1    0    0    0  501  0.00000000000E+00  0.00000000000E+00 -0.75364325133E+03  0.75364325135E+03  0.50400001928E-02 0.  1.
    10030    2    1    2    0    0  0.00000000000E+00  0.00000000000E+00  0.89617123911E+03  0.24034577418E+04  0.22301314371E+04 0.  0.
        2    1    3    3  502    0  0.61643617223E+03  0.88871863077E+03  0.15579248255E+03  0.10927422646E+04  0.25500000920E-02 0. -1.
       -2    1    3    3    0  502 -0.61643617223E+03 -0.88871863077E+03  0.74037875656E+03  0.13107154772E+04  0.25500000920E-02 0.  1.
</event>
<event>
 5   0  0.6468758E-05  0.2272927E+04  0.7818609E-02  0.8488673E-01
        2   -1    0    0  501    0  0.00000000000E+00  0.00000000000E+00  0.17889814091E+04  0.17889814091E+04  0.25500000920E-02 0.  1.
       -2   -1    0    0    0  501  0.00000000000E+00  0.00000000000E+00 -0.72194657917E+03  0.72194657918E+03  0.25500000920E-02 0. -1.
    10030    2    1    2    0    0  0.00000000000E+00  0.00000000000E+00  0.10670348300E+04  0.25109279883E+04  0.22729267551E+04 0.  0.
        3    1    3    3  502    0  0.86704020841E+03 -0.31175515268E+03 -0.20142621660E+03  0.94314502021E+03  0.10100000352E+00 0. -1.
       -3    1    3    3    0  502 -0.86704020841E+03  0.31175515268E+03  0.12684610466E+04  0.15677829681E+04  0.10100000352E+00 0.  1.
</event>
<event>
 5   0  0.2944089E-05  0.2370607E+04  0.7818609E-02  0.8450591E-01
       -1   -1    0    0    0  501  0.00000000000E+00  0.00000000000E+00  0.92816918498E+03  0.92816918499E+03  0.50400001928E-02 0. -1.
        1   -1    0    0  501    0  0.00000000000E+00  0.00000000000E+00 -0.15136724352E+04  0.15136724352E+04  0.50400001928E-02 0.  1.
    10030    2    1    2    0    0  0.00000000000E+00  0.00000000000E+00 -0.58550325020E+03  0.24418416202E+04  0.23706067666E+04 0.  0.
        5    1    3    3  502    0  0.12209487031E+03  0.22972355266E+03 -0.14838920628E+04  0.15065317162E+04  0.46999998093E+01 0.  1.
       -5    1    3    3    0  502 -0.12209487031E+03 -0.22972355266E+03  0.89838881255E+03  0.93530990399E+03  0.46999998093E+01 0. -1.
</event>
<event>
 5   0  0.6702421E-05  0.2251859E+04  0.7818609E-02  0.8497148E-01
        2   -1    0    0  501    0  0.00000000000E+00  0.00000000000E+00  0.10902330448E+04  0.10902330448E+04  0.25500000920E-02 0.  1.
       -2   -1    0    0    0  501  0.00000000000E+00  0.00000000000E+00 -0.11627946618E+04  0.11627946618E+04  0.25500000920E-02 0. -1.
    10030    2    1    2    0    0  0.00000000000E+00  0.00000000000E+00 -0.72561616985E+02  0.22530277066E+04  0.22518589339E+04 0.  0.
        4    1    3    3  502    0 -0.32922673128E+03 -0.74226734684E+03  0.74410126101E+03  0.11013806582E+04  0.12699999809E+01 0.  1.
       -4    1    3    3    0  502  0.32922673128E+03  0.74226734684E+03 -0.81666287800E+03  0.11516470484E+04  0.12699999809E+01 0. -1.
</event>
<event>
 5   0  0.2962279E-05  0.2306871E+04  0.7818609E-02  0.8475217E-01
       -1   -1    0    0    0  501  0.00000000000E+00  0.00000000000E+00  0.89237061104E+03  0.89237061106E+03  0.50400001928E-02 0.  1.
        1   -1    0    0  501    0  0.00000000000E+00  0.00000000000E+00 -0.14908758269E+04  0.14908758269E+04  0.50400001928E-02 0. -1.
    10030    2    1    2    0    0  0.00000000000E+00  0.00000000000E+00 -0.59850521588E+03  0.23832464380E+04  0.23068712775E+04 0.  0.
        1    1    3    3  502    0  0.33128026550E+03 -0.93626249258E+03 -0.90525608836E+03  0.13438090098E+04  0.50400001928E-02 0. -1.
       -1    1    3    3    0  502 -0.33128026550E+03  0.93626249258E+03  0.30675087247E+03  0.10394374282E+04  0.50400001928E-02 0.  1.
</event>
<event>
 5   0  0.6495405E-05  0.2329666E+04  0.7818609E-02  0.8466315E-01
       -2   -1    0    0    0  501  0.00000000000E+00  0.00000000000E+00  0.17446434975E+04  0.17446434975E+04  0.25500000920E-02 0. -1.
        2   -1    0    0  501    0  0.00000000000E+00  0.00000000000E+00 -0.77771520358E+03  0.77771520358E+03  0.25500000920E-02 0.  1.
    10030    2    1    2    0    0  0.00000000000E+00  0.00000000000E+00  0.96692829391E+03  0.25223587011E+04  0.23296658755E+04 0.  0.
        5    1    3    3  502    0  0.98188967860E+02  0.91225928196E+03  0.12604231554E+04  0.15590210683E+04  0.46999998093E+01 0. -1.
       -5    1    3    3    0  502 -0.98188967860E+02 -0.91225928196E+03 -0.29349486147E+03  0.96333763273E+03  0.46999998093E+01 0.  1.
</event>
<event>
 5   0  0.2944089E-05  0.2335599E+04  0.7818609E-02  0.8464016E-01
       -1   -1    0    0    0  501  0.00000000000E+00  0.00000000000E+00  0.14038878738E+04  0.14038878739E+04  0.50400001928E-02 0.  1.
        1   -1    0    0  501    0  0.00000000000E+00  0.00000000000E+00 -0.97141334037E+03  0.97141334038E+03  0.50400001928E-02 0. -1.
    10030    2    1    2    0    0  0.00000000000E+00  0.00000000000E+00  0.43247453347E+03  0.23753012142E+04  0.23355987747E+04 0.  0.
        5    1    3    3  502    0  0.16668726906E+03  0.11209758107E+04  0.50273849942E+03  0.12398143016E+04  0.46999998093E+01 0.  1.
       -5    1    3    3    0  502 -0.16668726906E+03 -0.11209758107E+04 -0.70263965946E+02  0.11354869126E+04  0.46999998093E+01 0. -1.
</event>
<event>
 5   0  0.2944089E-05  0.2327087E+04  0.7818609E-02  0.8467317E-01
        1   -1    0    0  501    0  0.00000000000E+00  0.00000000000E+00  0.11432247393E+04  0.11432247393E+04  0.50400001928E-02 0. -1.
       -1   -1    0    0    0  501  0.00000000000E+00  0.00000000000E+00 -0.11842233635E+04  0.11842233635E+04  0.50400001928E-02 0.  1.
    10030    2    1    2    0    0  0.00000000000E+00  0.00000000000E+00 -0.40998624145E+02  0.23274481028E+04  0.23270869739E+04 0.  0.
        5    1    3    3  502    0 -0.63365348718E+03 -0.53955414988E+03 -0.83375275264E+03  0.11780497294E+04  0.46999998093E+01 0.  1.
       -5    1    3    3    0  502  0.63365348718E+03  0.53955414988E+03  0.79275412849E+03  0.11493983734E+04  0.46999998093E+01 0. -1.
</event>
<event>
 5   0  0.6495405E-05  0.2276716E+04  0.7818609E-02  0.8487159E-01
       -2   -1    0    0    0  501  0.00000000000E+00  0.00000000000E+00  0.85596223496E+03  0.85596223496E+03  0.25500000920E-02 0. -1.
        2   -1    0    0  501    0  0.00000000000E+00  0.00000000000E+00 -0.15139210730E+04  0.15139210730E+04  0.25500000920E-02 0.  1.
    10030    2    1    2    0    0  0.00000000000E+00  0.00000000000E+00 -0.65795883801E+03  0.23698833079E+04  0.22767162890E+04 0.  0.
        5    1    3    3  502    0  0.10136828933E+04 -0.26575126555E+03 -0.79176297328E+03  0.13134258408E+04  0.46999998093E+01 0.  1.
       -5    1    3    3    0  502 -0.10136828933E+04  0.26575126555E+03  0.13380413527E+03  0.10564574672E+04  0.46999998093E+01 0. -1.
</event>
<event>
 5   0  0.2982385E-05  0.2446451E+04  0.7818609E-02  0.8422315E-01
        1   -1    0    0  501    0  0.00000000000E+00  0.00000000000E+00  0.90899188092E+03  0.90899188093E+03  0.50400001928E-02 0. -1.
       -1   -1    0    0    0  501  0.00000000000E+00  0.00000000000E+00 -0.16460881636E+04  0.16460881637E+04  0.50400001928E-02 0.  1.
    10030    2    1    2    0    0  0.00000000000E+00  0.00000000000E+00 -0.73709628272E+03  0.25550800446E+04  0.24464511244E+04 0.  0.
        4    1    3    3  502    0  0.68232798410E+03 -0.82130335179E+03 -0.99184611303E+03  0.14573506779E+04  0.12699999809E+01 0.  1.
       -4    1    3    3    0  502 -0.68232798410E+03  0.82130335179E+03  0.25474983030E+03  0.10977293667E+04  0.12699999809E+01 0. -1.
</event>
<event>
 5   0  0.2982385E-05  0.2315822E+04  0.7818609E-02  0.8471709E-01
       -1   -1    0    0    0  501  0.00000000000E+00  0.00000000000E+00  0.12167084938E+04  0.12167084939E+04  0.50400001928E-02 0. -1.
        1   -1    0    0  501    0  0.00000000000E+00  0.00000000000E+00 -0.11019550651E+04  0.11019550651E+04  0.50400001928E-02 0.  1.
    10030    2    1    2    0    0  0.00000000000E+00  0.00000000000E+00  0.11475342873E+03  0.23186635590E+04  0.23158221759E+04 0.  0.
        4    1    3    3  502    0  0.86119535808E+03 -0.75480591328E+03  0.22895518291E+03  0.11678234028E+04  0.12699999809E+01 0.  1.
       -4    1    3    3    0  502 -0.86119535808E+03  0.75480591328E+03 -0.11420175418E+03  0.11508401562E+04  0.12699999809E+01 0. -1.
</event>
<event>
 5   0  0.2944089E-05  0.2198683E+04  0.7818609E-02  0.8518977E-01
       -1   -1    0    0    0  501  0.00000000000E+00  0.00000000000E+00  0.60757811984E+03  0.60757811986E+03  0.50400001928E-02 0.  1.
        1   -1    0    0  501    0  0.00000000000E+00  0.00000000000E+00 -0.19891292314E+04  0.19891292314E+04  0.50400001928E-02 0. -1.
    10030    2    1    2    0    0  0.00000000000E+00  0.00000000000E+00 -0.13815511116E+04  0.25967073513E+04  0.21986826952E+04 0.  0.
        5    1    3    3  502    0 -0.84701088794E+02  0.42091586875E+02 -0.19843030392E+04  0.19865615061E+04  0.46999998093E+01 0. -1.
       -5    1    3    3    0  502  0.84701088794E+02 -0.42091586875E+02  0.60275192763E+03  0.61014584518E+03  0.46999998093E+01 0.  1.
</event>
<event>
 5   0  0.2982385E-05  0.2192720E+04  0.7818609E-02  0.8521464E-01
        1   -1    0    0  501    0  0.00000000000E+00  0.00000000000E+00  0.11094371596E+04  0.11094371596E+04  0.50400001928E-02 0.  1.
       -1   -1    0    0    0  501  0.00000000000E+00  0.00000000000E+00 -0.10834372107E+04  0.10834372107E+04  0.50400001928E-02 0. -1.
    10030    2    1    2    0    0  0.00000000000E+00  0.00000000000E+00  0.25999948873E+02  0.21928743703E+04  0.21927202299E+04 0.  0.
        4    1    3    3  502    0  0.46567686842E+02 -0.10102281147E+03 -0.10777781837E+04  0.10835043073E+04  0.12699999809E+01 0. -1.
       -4    1    3    3    0  502 -0.46567686842E+02  0.10102281147E+03  0.11037781325E+04  0.11093700630E+04  0.12699999809E+01 0.  1.
</event>
<event>
 5   0  0.2982385E-05  0.2279090E+04  0.7818609E-02  0.8486212E-01
       -1   -1    0    0    0  501  0.00000000000E+00  0.00000000000E+00  0.16230444115E+04  0.16230444115E+04  0.50400001928E-02 0. -1.
        1   -1    0    0  501    0  0.00000000000E+00  0.00000000000E+00 -0.80007823075E+03  0.80007823076E+03  0.50400001928E-02 0.  1.
    10030    2    1    2    0    0  0.00000000000E+00  0.00000000000E+00  0.82296618073E+03  0.24231226422E+04  0.22790897316E+04 0.  0.
        4    1    3    3  502    0 -0.17499529300E+03 -0.58390604523E+03  0.14351338016E+04  0.15592242506E+04  0.12699999809E+01 0. -1.
       -4    1    3    3    0  502  0.17499529300E+03  0.58390604523E+03 -0.61216762085E+03  0.86389839168E+03  0.12699999809E+01 0.  1.
</event>
<event>
 5   0  0.2982385E-05  0.2248480E+04  0.7818609E-02  0.8498516E-01
       -1   -1    0    0    0  501  0.00000000000E+00  0.00000000000E+00  0.94780438910E+03  0.94780438912E+03  0.50400001928E-02 0.  1.
        1   -1    0    0  501    0  0.00000000000E+00  0.00000000000E+00 -0.13335195267E+04  0.13335195267E+04  0.50400001928E-02 0. -1.
    10030    2    1    2    0    0  0.00000000000E+00  0.00000000000E+00 -0.38571513762E+03  0.22813239159E+04  0.22484800737E+04 0.  0.
        4    1    3    3  502    0  0.97669392768E+02 -0.97829212908E+02 -0.13248627891E+04  0.13320558877E+04  0.12699999809E+01 0. -1.
       -4    1    3    3    0  502 -0.97669392768E+02  0.97829212908E+02  0.93914765144E+03  0.94926802816E+03  0.12699999809E+01 0.  1.
</event>
<event>
 5   0  0.2962279E-05  0.2221802E+04  0.7818609E-02  0.8509408E-01
       -1   -1    0    0    0  501  0.00000000000E+00  0.00000000000E+00  0.10100368509E+04  0.10100368510E+04  0.50400001928E-02 0.  1.
        1   -1    0    0  501    0  0.00000000000E+00  0.00000000000E+00 -0.12218376580E+04  0.12218376580E+04  0.50400001928E-02 0. -1.
    10030    2    1    2    0    0  0.00000000000E+00  0.00000000000E+00 -0.21180080703E+03  0.22318745089E+04  0.22218020258E+04 0.  0.
        1    1    3    3  502    0 -0.16580917679E+03 -0.75236812815E+03  0.69807197256E+03  0.10396417471E+04  0.50400001928E-02 0.  1.
       -1    1    3    3    0  502  0.16580917679E+03  0.75236812815E+03 -0.90987277960E+03  0.11922327619E+04  0.50400001928E-02 0. -1.
</event>
<event>
 5   0  0.6676612E-05  0.2348690E+04  0.7818609E-02  0.8458967E-01
        2   -1    0    0  501    0  0.00000000000E+00  0.00000000000E+00  0.15074451102E+04  0.15074451102E+04  0.25500000920E-02 0.  1.
       -2   -1    0    0    0  501  0.00000000000E+00  0.00000000000E+00 -0.91484994962E+03  0.91484994962E+03  0.25500000920E-02 0. -1.
    10030    2    1    2    0    0  0.00000000000E+00  0.00000000000E+00  0.59259516061E+03  0.24222950599E+04  0.23486899184E+04 0.  0.
        2    1    3    3  502    0  0.15931179722E+03  0.57493252784E+03  0.13395101272E+04  0.14663611565E+04  0.25500000920E-02 0.  1.
       -2    1    3    3    0  502 -0.15931179722E+03 -0.57493252784E+03 -0.74691496660E+03  0.95593390338E+03  0.25500000920E-02 0. -1.
</event>
<event>
 5   0  0.2962279E-05  0.2323049E+04  0.7818609E-02  0.8468888E-01
        1   -1    0    0  501    0  0.00000000000E+00  0.00000000000E+00  0.13243284585E+04  0.13243284585E+04  0.50400001928E-02 0.  1.
       -1   -1    0    0    0  501  0.00000000000E+00  0.00000000000E+00 -0.10187347870E+04  0.10187347870E+04  0.50400001928E-02 0. -1.
    10030    2    1    2    0    0  0.00000000000E+00  0.00000000000E+00  0.30559367147E+03  0.23430632455E+04  0.23230492635E+04 0.  0.
        1    1    3    3  502    0  0.80827238201E+03  0.70669264436E+03 -0.29421524002E+03  0.11132301400E+04  0.50400001928E-02 0. -1.
       -1    1    3    3    0  502 -0.80827238201E+03 -0.70669264436E+03  0.59980891149E+03  0.12298331055E+04  0.50400001928E-02 0.  1.
</event>
<event>
 5   0  0.2982385E-05  0.2221006E+04  0.7818609E-02  0.8509736E-01
        1   -1    0    0  501    0  0.00000000000E+00  0.00000000000E+00  0.11475284303E+04  0.11475284303E+04  0.50400001928E-02 0. -1.
       -1   -1    0    0    0  501  0.00000000000E+00  0.00000000000E+00 -0.10746717386E+04  0.10746717386E+04  0.50400001928E-02 0.  1.
    10030    2    1    2    0    0  0.00000000000E+00  0.00000000000E+00  0.72856691772E+02  0.22222001689E+04  0.22210055140E+04 0.  0.
        4    1    3    3  502    0 -0.69432634521E+03 -0.54460924912E+03 -0.63812006140E+03  0.10889844506E+04  0.12699999809E+01 0.  1.
       -4    1    3    3    0  502  0.69432634521E+03  0.54460924912E+03  0.71097675317E+03  0.11332157184E+04  0.12699999809E+01 0. -1.
</event>
<event>
 5   0  0.6495405E-05  0.2316428E+04  0.7818609E-02  0.8471472E-01
       -2   -1    0    0    0  501  0.00000000000E+00  0.00000000000E+00  0.92562216290E+03  0.92562216291E+03  0.25500000920E-02 0.  1.
        2   -1    0    0  501    0  0.00000000000E+00  0.00000000000E+00 -0.14492515527E+04  0.14492515527E+04  0.25500000920E-02 0. -1.
    10030    2    1    2    0    0  0.00000000000E+00  0.00000000000E+00 -0.52362938981E+03  0.23748737156E+04  0.23164277298E+04 0.  0.
        5    1    3    3  502    0  0.69546366256E+03 -0.59445810098E+03  0.46630665015E+03  0.10268953801E+04  0.46999998093E+01 0.  1.
       -5    1    3    3    0  502 -0.69546366256E+03  0.59445810098E+03 -0.98993603996E+03  0.13479783355E+04  0.46999998093E+01 0. -1.
</event>
<event>
 5   0  0.6495405E-05  0.2192115E+04  0.7818609E-02  0.8521717E-01
        2   -1    0    0  501    0  0.00000000000E+00  0.00000000000E+00  0.14209178697E+04  0.14209178697E+04  0.25500000920E-02 0.  1.
       -2   -1    0    0    0  501  0.00000000000E+00  0.00000000000E+00 -0.84546927710E+03  0.84546927711E+03  0.25500000920E-02 0. -1.
    10030    2    1    2    0    0  0.00000000000E+00  0.00000000000E+00  0.57544859264E+03  0.22663871468E+04  0.21921153292E+04 0.  0.
        5    1    3    3  502    0 -0.45351249668E+03 -0.58468813629E+03 -0.54824182623E+03  0.92093701815E+03  0.46999998093E+01 0. -1.
       -5    1    3    3    0  502  0.45351249668E+03  0.58468813629E+03  0.11236904189E+04  0.13454501287E+04  0.46999998093E+01 0.  1.
</event>
<event>
 5   0  0.3118614E-05  0.2298586E+04  0.7818609E-02  0.8478479E-01
        1   -1    0    0  501    0  0.00000000000E+00  0.00000000000E+00  0.16711283812E+04  0.16711283812E+04  0.50400001928E-02 0. -1.
       -1   -1    0    0    0  501  0.00000000000E+00  0.00000000000E+00 -0.79040862573E+03  0.79040862575E+03  0.50400001928E-02 0.  1.
    10030    2    1    2    0    0  0.00000000000E+00  0.00000000000E+00  0.88071975545E+03  0.24615370069E+04  0.22985859020E+04 0.  0.
        3    1    3    3  502    0 -0.49290200531E+03  0.29613057323E+03  0.15060068558E+04  0.16120491193E+04  0.10100000352E+00 0. -1.
       -3    1    3    3    0  502  0.49290200531E+03 -0.29613057323E+03 -0.62528710030E+03  0.84948788764E+03  0.10100000352E+00 0.  1.
</event>
<event>
 5   0  0.2982385E-05  0.2297233E+04  0.7818609E-02  0.8479013E-01
       -1   -1    0    0    0  501  0.00000000000E+00  0.00000000000E+00  0.12805849769E+04  0.12805849769E+04  0.50400001928E-02 0.  1.
        1   -1    0    0  501    0  0.00000000000E+00  0.00000000000E+00 -0.10302479017E+04  0.10302479018E+04  0.50400001928E-02 0. -1.
    10030    2    1    2    0    0  0.00000000000E+00  0.00000000000E+00  0.25033707513E+03  0.23108328787E+04  0.22972331057E+04 0.  0.
        4    1    3    3  502    0 -0.81437098257E+03  0.59629045951E+03 -0.42630686488E+03  0.10956740233E+04  0.12699999809E+01 0. -1.
       -4    1    3    3    0  502  0.81437098257E+03 -0.59629045951E+03  0.67664394001E+03  0.12151588554E+04  0.12699999809E+01 0.  1.
</event>
<event>
 5   0  0.2982385E-05  0.2262506E+04  0.7818609E-02  0.8492853E-01
        1   -1    0    0  501    0  0.00000000000E+00  0.00000000000E+00  0.19253205086E+04  0.19253205086E+04  0.50400001928E-02 0. -1.
       -1   -1    0    0    0  501  0.00000000000E+00  0.00000000000E+00 -0.66468567607E+03  0.66468567609E+03  0.50400001928E-02 0.  1.
    10030    2    1    2    0    0  0.00000000000E+00  0.00000000000E+00  0.12606348325E+04  0.25900061847E+04  0.22625056587E+04 0.  0.
        4    1    3    3  502    0  0.30293252135E+03  0.83123310908E+03 -0.17672389994E+03  0.90219152281E+03  0.12699999809E+01 0. -1.
       -4    1    3    3    0  502 -0.30293252135E+03 -0.83123310908E+03  0.14373587324E+04  0.16878146618E+04  0.12699999809E+01 0.  1.
</event>
<event>
 5   0  0.6702421E-05  0.2296577E+04  0.7818609E-02  0.8479272E-01
       -2   -1    0    0    0  501  0.00000000000E+00  0.00000000000E+00  0.13041082445E+04  0.13041082445E+04  0.25500000920E-02 0. -1.
        2   -1    0    0  501    0  0.00000000000E+00  0.00000000000E+00 -0.10110869303E+04  0.10110869303E+04  0.25500000920E-02 0.  1.
    10030    2    1    2    0    0  0.00000000000E+00  0.00000000000E+00  0.29302131411E+03  0.23151951748E+04  0.22965772808E+04 0.  0.
        4    1    3    3  502    0  0.78996261262E+02  0.14136768528E+02  0.13012770554E+04  0.13037499167E+04  0.12699999809E+01 0. -1.
       -4    1    3    3    0  502 -0.78996261262E+02 -0.14136768528E+02 -0.10082557412E+04  0.10114452581E+04  0.12699999809E+01 0.  1.
</event>
<event>
 5   0  0.2342500E-05  0.2299406E+04  0.7818609E-02  0.8478155E-01
        3   -1    0    0  501    0  0.00000000000E+00  0.00000000000E+00  0.57445797879E+03  0.57445798767E+03  0.10100000352E+00 0. -1.
       -3   -1    0    0    0  501  0.00000000000E+00  0.00000000000E+00 -0.23009818152E+04  0.23009818174E+04  0.10100000352E+00 0.  1.
    10030    2    1    2    0    0  0.00000000000E+00  0.00000000000E+00 -0.17265238364E+04  0.28754398050E+04  0.22994063397E+04 0.  0.
        1    1    3    3  502    0 -0.24126503824E+03  0.67616359907E+03 -0.19862286003E+04  0.21119919707E+04  0.50400001928E-02 0.  1.
       -1    1    3    3    0  502  0.24126503824E+03 -0.67616359907E+03  0.25970476395E+03  0.76344783439E+03  0.50400001928E-02 0. -1.
</event>
<event>
 5   0  0.3118614E-05  0.2318701E+04  0.7818609E-02  0.8470584E-01
       -1   -1    0    0    0  501  0.00000000000E+00  0.00000000000E+00  0.87892483076E+03  0.87892483078E+03  0.50400001928E-02 0.  1.
        1   -1    0    0  501    0  0.00000000000E+00  0.00000000000E+00 -0.15292472915E+04  0.15292472915E+04  0.50400001928E-02 0. -1.
    10030    2    1    2    0    0  0.00000000000E+00  0.00000000000E+00 -0.65032246070E+03  0.24081721223E+04  0.23187008577E+04 0.  0.
        3    1    3    3  502    0 -0.78070437774E+03  0.53083800954E+03  0.37371207378E+03  0.10153566083E+04  0.10100000352E+00 0.  1.
       -3    1    3    3    0  502  0.78070437774E+03 -0.53083800954E+03 -0.10240345345E+04  0.13928155139E+04  0.10100000352E+00 0. -1.
</event>
<event>
 5   0  0.6676612E-05  0.2294573E+04  0.7818609E-02  0.8480064E-01
        2   -1    0    0  501    0  0.00000000000E+00  0.00000000000E+00  0.15930137411E+04  0.15930137411E+04  0.25500000920E-02 0. -1.
       -2   -1    0    0    0  501  0.00000000000E+00  0.00000000000E+00 -0.82627400877E+03  0.82627400877E+03  0.25500000920E-02 0.  1.
    10030    2    1    2    0    0  0.00000000000E+00  0.00000000000E+00  0.76673973236E+03  0.24192877499E+04  0.22945725963E+04 0.  0.
        2    1    3    3  502    0 -0.98255753107E+03  0.54620407129E+03  0.62496993760E+03  0.12862136729E+04  0.25500000920E-02 0. -1.
       -2    1    3    3    0  502  0.98255753107E+03 -0.54620407129E+03  0.14176979477E+03  0.11330740770E+04  0.25500000920E-02 0.  1.
</event>
<event>
 5   0  0.6495405E-05  0.2306772E+04  0.7818609E-02  0.8475256E-01
        2   -1    0    0  501    0  0.00000000000E+00  0.00000000000E+00  0.11458545508E+04  0.11458545508E+04  0.25500000920E-02 0.  1.
       -2   -1    0    0    0  501  0.00000000000E+00  0.00000000000E+00 -0.11609671256E+04  0.11609671256E+04  0.25500000920E-02 0. -1.
    10030    2    1    2    0    0  0.00000000000E+00  0.00000000000E+00 -0.15112574769E+02  0.23068216765E+04  0.23067721728E+04 0.  0.
        5    1    3    3  502    0  0.69275019674E+02 -0.14891555776E+03 -0.11492035365E+04  0.11608900594E+04  0.46999998093E+01 0. -1.
       -5    1    3    3    0  502 -0.69275019674E+02  0.14891555776E+03  0.11340909617E+04  0.11459316171E+04  0.46999998093E+01 0.  1.
</event>
<event>
 5   0  0.6468758E-05  0.2257218E+04  0.7818609E-02  0.8494983E-01
       -2   -1    0    0    0  501  0.00000000000E+00  0.00000000000E+00  0.83080156096E+03  0.83080156097E+03  0.25500000920E-02 0.  1.
        2   -1    0    0  501    0  0.00000000000E+00  0.00000000000E+00 -0.15331676263E+04  0.15331676263E+04  0.25500000920E-02 0. -1.
    10030    2    1    2    0    0  0.00000000000E+00  0.00000000000E+00 -0.70236606533E+03  0.23639691873E+04  0.22572178071E+04 0.  0.
        3    1    3    3  502    0 -0.27733236619E+03 -0.69006605762E+03  0.53787812476E+03  0.91783293279E+03  0.10100000352E+00 0.  1.
       -3    1    3    3    0  502  0.27733236619E+03  0.69006605762E+03 -0.12402441901E+04  0.14461362545E+04  0.10100000352E+00 0. -1.
</event>
<event>
 5   0  0.3006265E-05  0.2256792E+04  0.7818609E-02  0.8495155E-01
       -1   -1    0    0    0  501  0.00000000000E+00  0.00000000000E+00  0.11063483458E+04  0.11063483458E+04  0.50400001928E-02 0. -1.
        1   -1    0    0  501    0  0.00000000000E+00  0.00000000000E+00 -0.11508829468E+04  0.11508829468E+04  0.50400001928E-02 0.  1.
    10030    2    1    2    0    0  0.00000000000E+00  0.00000000000E+00 -0.44534600985E+02  0.22572312927E+04  0.22567919217E+04 0.  0.
        2    1    3    3  502    0 -0.72090867493E+02  0.59820655163E+03  0.93197780918E+03  0.11097886323E+04  0.25500000920E-02 0. -1.
       -2    1    3    3    0  502  0.72090867493E+02 -0.59820655163E+03 -0.97651241016E+03  0.11474426603E+04  0.25500000920E-02 0.  1.
</event>
<event>
 5   0  0.6468758E-05  0.2261040E+04  0.7818609E-02  0.8493443E-01
        2   -1    0    0  501    0  0.00000000000E+00  0.00000000000E+00  0.15497428610E+04  0.15497428610E+04  0.25500000920E-02 0.  1.
       -2   -1    0    0    0  501  0.00000000000E+00  0.00000000000E+00 -0.82470148273E+03  0.82470148273E+03  0.25500000920E-02 0. -1.
    10030    2    1    2    0    0  0.00000000000E+00  0.00000000000E+00  0.72504137823E+03  0.23744443437E+04  0.22610397920E+04 0.  0.
        3    1    3    3  502    0 -0.47601879959E+03  0.81686652190E+03  0.10134567841E+04  0.13859868238E+04  0.10100000352E+00 0.  1.
       -3    1    3    3    0  502  0.47601879959E+03 -0.81686652190E+03 -0.28841540588E+03  0.98845751993E+03  0.10100000352E+00 0. -1.
</event>
<event>
 5   0  0.2944089E-05  0.2291994E+04  0.7818609E-02  0.8481084E-01
        1   -1    0    0  501    0  0.00000000000E+00  0.00000000000E+00  0.14809800226E+04  0.14809800226E+04  0.50400001928E-02 0.  1.
       -1   -1    0    0    0  501  0.00000000000E+00  0.00000000000E+00 -0.88678412094E+03  0.88678412095E+03  0.50400001928E-02 0. -1.
    10030    2    1    2    0    0  0.00000000000E+00  0.00000000000E+00  0.59419590170E+03  0.23677641436E+04  0.22919943870E+04 0.  0.
        5    1    3    3  502    0 -0.95298258637E+02 -0.18857636875E+03  0.14606743124E+04  0.14758842576E+04  0.46999998093E+01 0.  1.
       -5    1    3    3    0  502  0.95298258637E+02  0.18857636875E+03 -0.86647841066E+03  0.89187988602E+03  0.46999998093E+01 0. -1.
</event>
<event>
 5   0  0.3118614E-05  0.2292637E+04  0.7818609E-02  0.8480830E-01
        1   -1    0    0  501    0  0.00000000000E+00  0.00000000000E+00  0.30514351067E+04  0.30514351067E+04  0.50400001928E-02 0.  1.
       -1   -1    0    0    0  501  0.00000000000E+00  0.00000000000E+00 -0.43063230857E+03  0.43063230860E+03  0.50400001928E-02 0. -1.
    10030    2    1    2    0    0  0.00000000000E+00  0.00000000000E+00  0.26208027981E+04  0.34820674153E+04  0.22926373848E+04 0.  0.
        3    1    3    3  502    0 -0.45574437942E+03  0.10506642915E+04  0.12352529425E+04  0.16844726875E+04  0.10100000352E+00 0. -1.
       -3    1    3    3    0  502  0.45574437942E+03 -0.10506642915E+04  0.13855498557E+04  0.17975947278E+04  0.10100000352E+00 0.  1.
</event>
<event>
 5   0  0.2982385E-05  0.2287539E+04  0.7818609E-02  0.8482851E-01
       -1   -1    0    0    0  501  0.00000000000E+00  0.00000000000E+00  0.53450639237E+03  0.53450639239E+03  0.50400001928E-02 0. -1.
        1   -1    0    0  501    0  0.00000000000E+00  0.00000000000E+00 -0.24475082121E+04  0.24475082121E+04  0.50400001928E-02 0.  1.
    10030    2    1    2    0    0  0.00000000000E+00  0.00000000000E+00 -0.19130018198E+04  0.29820146045E+04  0.22875391011E+04 0.  0.
        4    1    3    3  502    0 -0.72562871666E+03  0.62749377961E+03 -0.17684209737E+04  0.20118647646E+04  0.12699999809E+01 0.  1.
       -4    1    3    3    0  502  0.72562871666E+03 -0.62749377961E+03 -0.14458084600E+03  0.97014983988E+03  0.12699999809E+01 0. -1.
</event>
<event>
 5   0  0.6702421E-05  0.2216630E+04  0.7818609E-02  0.8511538E-01
       -2   -1    0    0    0  501  0.00000000000E+00  0.00000000000E+00  0.79385940302E+03  0.79385940302E+03  0.25500000920E-02 0. -1.
        2   -1    0    0  501    0  0.00000000000E+00  0.00000000000E+00 -0.15473300399E+04  0.15473300399E+04  0.25500000920E-02 0.  1.
    10030    2    1    2    0    0  0.00000000000E+00  0.00000000000E+00 -0.75347063687E+03  0.23411894429E+04  0.22166303271E+04 0.  0.
        4    1    3    3  502    0  0.43002637164E+02 -0.66170280795E+03  0.56123367971E+03  0.86872589980E+03  0.12699999809E+01 0. -1.
       -4    1    3    3    0  502 -0.43002637164E+02  0.66170280795E+03 -0.13147043166E+04  0.14724635431E+04  0.12699999809E+01 0.  1.
</event>
<event>
 5   0  0.2982385E-05  0.2294490E+04  0.7818609E-02  0.8480097E-01
        1   -1    0    0  501    0  0.00000000000E+00  0.00000000000E+00  0.82773515605E+03  0.82773515607E+03  0.50400001928E-02 0. -1.
       -1   -1    0    0    0  501  0.00000000000E+00  0.00000000000E+00 -0.15900871886E+04  0.15900871886E+04  0.50400001928E-02 0.  1.
    10030    2    1    2    0    0  0.00000000000E+00  0.00000000000E+00 -0.76235203254E+03  0.24178223447E+04  0.22944899801E+04 0.  0.
        4    1    3    3  502    0 -0.39801879169E+03  0.27121756472E+03  0.71603769499E+03  0.86295394981E+03  0.12699999809E+01 0. -1.
       -4    1    3    3    0  502  0.39801879169E+03 -0.27121756472E+03 -0.14783897275E+04  0.15548683949E+04  0.12699999809E+01 0.  1.
</event>
<event>
 5   0  0.6495405E-05  0.2286964E+04  0.7818609E-02  0.8483079E-01
        2   -1    0    0  501    0  0.00000000000E+00  0.00000000000E+00  0.16046799906E+04  0.16046799906E+04  0.25500000920E-02 0.  1.
       -2   -1    0    0    0  501  0.00000000000E+00  0.00000000000E+00 -0.81483627608E+03  0.81483627609E+03  0.25500000920E-02 0. -1.
    10030    2    1    2    0    0  0.00000000000E+00  0.00000000000E+00  0.78984371455E+03  0.24195162667E+04  0.22869643354E+04 0.  0.
        5    1    3    3  502    0  0.52016563620E+03  0.52208049478E+03 -0.53004544717E+03  0.90780537461E+03  0.46999998093E+01 0. -1.
       -5    1    3    3    0  502 -0.52016563620E+03 -0.52208049478E+03  0.13198891617E+04  0.15117108921E+04  0.46999998093E+01 0.  1.
</event>
<event>
 5   0  0.3118614E-05  0.2296219E+04  0.7818609E-02  0.8479413E-01
       -1   -1    0    0    0  501  0.00000000000E+00  0.00000000000E+00  0.11733194756E+04  0.11733194756E+04  0.50400001928E-02 0. -1.
        1   -1    0    0  501    0  0.00000000000E+00  0.00000000000E+00 -0.11234415345E+04  0.11234415345E+04  0.50400001928E-02 0.  1.
    10030    2    1    2    0    0  0.00000000000E+00  0.00000000000E+00  0.49877941034E+02  0.22967610101E+04  0.22962193555E+04 0.  0.
        3    1    3    3  502    0  0.11098898892E+04  0.21870237324E+03  0.22112173965E+03  0.11526409364E+04  0.10100000352E+00 0. -1.
       -3    1    3    3    0  502 -0.11098898892E+04 -0.21870237324E+03 -0.17124379861E+03  0.11441200737E+04  0.10100000352E+00 0.  1.
</event>
<event>
 5   0  0.6676612E-05  0.2294616E+04  0.7818609E-02  0.8480047E-01
       -2   -1    0    0    0  501  0.00000000000E+00  0.00000000000E+00  0.10314322842E+04  0.10314322842E+04  0.25500000920E-02 0. -1.
        2   -1    0    0  501    0  0.00000000000E+00  0.00000000000E+00 -0.12762019699E+04  0.12762019699E+04  0.25500000920E-02 0.  1.
    10030    2    1    2    0    0  0.00000000000E+00  0.00000000000E+00 -0.24476968570E+03  0.23076342542E+04  0.22946162320E+04 0.  0.
        2    1    3    3  502    0 -0.56337995752E+03  0.29976045637E+03 -0.10812417744E+04  0.12555226332E+04  0.25500000920E-02 0.  1.
       -2    1    3    3    0  502  0.56337995752E+03 -0.29976045637E+03  0.83647208873E+03  0.10521116210E+04  0.25500000920E-02 0. -1.
</event>
<event>
 5   0  0.6702421E-05  0.2354067E+04  0.7818609E-02  0.8456903E-01
       -2   -1    0    0    0  501  0.00000000000E+00  0.00000000000E+00  0.15922859646E+04  0.15922859646E+04  0.25500000920E-02 0.  1.
        2   -1    0    0  501    0  0.00000000000E+00  0.00000000000E+00 -0.87007483714E+03  0.87007483715E+03  0.25500000920E-02 0. -1.
    10030    2    1    2    0    0  0.00000000000E+00  0.00000000000E+00  0.72221112744E+03  0.24623608017E+04  0.23540670775E+04 0.  0.
        4    1    3    3  502    0 -0.33149899694E+03 -0.80129801209E+03 -0.47139456983E+03  0.98700787358E+03  0.12699999809E+01 0. -1.
       -4    1    3    3    0  502  0.33149899694E+03  0.80129801209E+03  0.11936056973E+04  0.14753529282E+04  0.12699999809E+01 0.  1.
</event>
<event>
 5   0  0.6676612E-05  0.2366356E+04  0.7818609E-02  0.8452208E-01
        2   -1    0    0  501    0  0.00000000000E+00  0.00000000000E+00  0.14446060989E+04  0.14446060989E+04  0.25500000920E-02 0.  1.
       -2   -1    0    0    0  501  0.00000000000E+00  0.00000000000E+00 -0.96906015224E+03  0.96906015224E+03  0.25500000920E-02 0. -1.
    10030    2    1    2    0    0  0.00000000000E+00  0.00000000000E+00  0.47554594668E+03  0.24136662512E+04  0.23663560224E+04 0.  0.
        2    1    3    3  502    0 -0.31850334161E+03  0.21444265447E+03  0.13792904441E+04  0.14317374619E+04  0.25500000920E-02 0.  1.
       -2    1    3    3    0  502  0.31850334161E+03 -0.21444265447E+03 -0.90374449738E+03  0.98192878928E+03  0.25500000920E-02 0. -1.
</event>
<event>
 5   0  0.2982385E-05  0.2312949E+04  0.7818609E-02  0.8472833E-01
        1   -1    0    0  501    0  0.00000000000E+00  0.00000000000E+00  0.17512792231E+04  0.17512792231E+04  0.50400001928E-02 0. -1.
       -1   -1    0    0    0  501  0.00000000000E+00  0.00000000000E+00 -0.76368954720E+03  0.76368954722E+03  0.50400001928E-02 0.  1.
    10030    2    1    2    0    0  0.00000000000E+00  0.00000000000E+00  0.98758967588E+03  0.25149687703E+04  0.23129493180E+04 0.  0.
        4    1    3    3  502    0 -0.34613020847E+03  0.90531588136E+03  0.11797944488E+04  0.15268659144E+04  0.12699999809E+01 0. -1.
       -4    1    3    3    0  502  0.34613020847E+03 -0.90531588136E+03 -0.19220477289E+03  0.98810285592E+03  0.12699999809E+01 0.  1.
</event>
<event>
 5   0  0.6495405E-05  0.2326075E+04  0.7818609E-02  0.8467711E-01
       -2   -1    0    0    0  501  0.00000000000E+00  0.00000000000E+00  0.80117166381E+03  0.80117166381E+03  0.25500000920E-02 0.  1.
        2   -1    0    0  501    0  0.00000000000E+00  0.00000000000E+00 -0.16883475549E+04  0.16883475549E+04  0.25500000920E-02 0. -1.
    10030    2    1    2    0    0  0.00000000000E+00  0.00000000000E+00 -0.88717589112E+03  0.24895192187E+04  0.23260749942E+04 0.  0.
        5    1    3    3  502    0 -0.70314121655E+03 -0.58622964970E+03 -0.12113212041E+04  0.15183523708E+04  0.46999998093E+01 0. -1.
       -5    1    3    3    0  502  0.70314121655E+03  0.58622964970E+03  0.32414531293E+03  0.97116684792E+03  0.46999998093E+01 0.  1.
</event>
<event>
 5   0  0.3006265E-05  0.2184730E+04  0.7818609E-02  0.8524811E-01
        1   -1    0    0  501    0  0.00000000000E+00  0.00000000000E+00  0.12253301106E+04  0.12253301106E+04  0.50400001928E-02 0. -1.
       -1   -1    0    0    0  501  0.00000000000E+00  0.00000000000E+00 -0.97382855031E+03  0.97382855032E+03  0.50400001928E-02 0.  1.
    10030    2    1    2    0    0  0.00000000000E+00  0.00000000000E+00  0.25150156028E+03  0.21991586609E+04  0.21847301392E+04 0.  0.
        2    1    3    3  502    0  0.68619138569E+02  0.10117469061E+04  0.53453753710E+03  0.11463292576E+04  0.25500000920E-02 0. -1.
       -2    1    3    3    0  502 -0.68619138569E+02 -0.10117469061E+04 -0.28303597682E+03  0.10528294033E+04  0.25500000920E-02 0.  1.
</event>
<event>
 5   0  0.2962279E-05  0.2316438E+04  0.7818609E-02  0.8471468E-01
       -1   -1    0    0    0  501  0.00000000000E+00  0.00000000000E+00  0.80325736126E+03  0.80325736127E+03  0.50400001928E-02 0. -1.
        1   -1    0    0  501    0  0.00000000000E+00  0.00000000000E+00 -0.16700391650E+04  0.16700391650E+04  0.50400001928E-02 0.  1.
    10030    2    1    2    0    0  0.00000000000E+00  0.00000000000E+00 -0.86678180376E+03  0.24732965263E+04  0.23164380008E+04 0.  0.
        1    1    3    3  502    0  0.11560565546E+04 -0.83593182213E+01 -0.50839452439E+03  0.12629337386E+04  0.50400001928E-02 0. -1.
       -1    1    3    3    0  502 -0.11560565546E+04  0.83593182213E+01 -0.35838727937E+03  0.12103627877E+04  0.50400001928E-02 0.  1.
</event>
<event>
 5   0  0.2944089E-05  0.2293055E+04  0.7818609E-02  0.8480665E-01
       -1   -1    0    0    0  501  0.00000000000E+00  0.00000000000E+00  0.82320131870E+03  0.82320131871E+03  0.50400001928E-02 0. -1.
        1   -1    0    0  501    0  0.00000000000E+00  0.00000000000E+00 -0.15968451967E+04  0.15968451967E+04  0.50400001928E-02 0.  1.
    10030    2    1    2    0    0  0.00000000000E+00  0.00000000000E+00 -0.77364387800E+03  0.24200465154E+04  0.22930547937E+04 0.  0.
        5    1    3    3  502    0 -0.11210577019E+04 -0.15381382442E+03 -0.19200786932E+03  0.11477448216E+04  0.46999998093E+01 0. -1.
       -5    1    3    3    0  502  0.11210577019E+04  0.15381382442E+03 -0.58163600868E+03  0.12723016938E+04  0.46999998093E+01 0.  1.
</event>
<event>
 5   0  0.2982385E-05  0.2291867E+04  0.7818609E-02  0.8481135E-01
        1   -1    0    0  501    0  0.00000000000E+00  0.00000000000E+00  0.11924821645E+04  0.11924821645E+04  0.50400001928E-02 0.  1.
       -1   -1    0    0    0  501  0.00000000000E+00  0.00000000000E+00 -0.11012019773E+04  0.11012019773E+04  0.50400001928E-02 0. -1.
    10030    2    1    2    0    0  0.00000000000E+00  0.00000000000E+00  0.91280187195E+02  0.22936841418E+04  0.22918671144E+04 0.  0.
        4    1    3    3  502    0  0.59244897996E+03  0.55715713073E+03 -0.76230549529E+03  0.11146888100E+04  0.12699999809E+01 0. -1.
       -4    1    3    3    0  502 -0.59244897996E+03 -0.55715713073E+03  0.85358568248E+03  0.11789953318E+04  0.12699999809E+01 0.  1.
</event>
<event>
 5   0  0.6814789E-05  0.2296700E+04  0.7818609E-02  0.8479223E-01
        2   -1    0    0  501    0  0.00000000000E+00  0.00000000000E+00  0.14224994219E+04  0.14224994219E+04  0.25500000920E-02 0.  1.
       -2   -1    0    0    0  501  0.00000000000E+00  0.00000000000E+00 -0.92703584550E+03  0.92703584550E+03  0.25500000920E-02 0. -1.
    10030    2    1    2    0    0  0.00000000000E+00  0.00000000000E+00  0.49546357642E+03  0.23495352674E+04  0.22967002019E+04 0.  0.
        1    1    3    3  502    0 -0.90130255132E+03  0.26628373543E+03  0.92280227218E+03  0.13171246525E+04  0.50400001928E-02 0.  1.
       -1    1    3    3    0  502  0.90130255132E+03 -0.26628373543E+03 -0.42733869577E+03  0.10324106149E+04  0.50400001928E-02 0. -1.
</event>
<event>
 5   0  0.2962279E-05  0.2253706E+04  0.7818609E-02  0.8496401E-01
        1   -1    0    0  501    0  0.00000000000E+00  0.00000000000E+00  0.18279469487E+04  0.18279469487E+04  0.50400001928E-02 0. -1.
       -1   -1    0    0    0  501  0.00000000000E+00  0.00000000000E+00 -0.69465754919E+03  0.69465754920E+03  0.50400001928E-02 0.  1.
    10030    2    1    2    0    0  0.00000000000E+00  0.00000000000E+00  0.11332893995E+04  0.25226044979E+04  0.22537055242E+04 0.  0.
        1    1    3    3  502    0 -0.86377738147E+03 -0.53363372602E+03  0.11137601802E+04  0.15070959018E+04  0.50400001928E-02 0. -1.
       -1    1    3    3    0  502  0.86377738147E+03  0.53363372602E+03  0.19529219313E+02  0.10155085961E+04  0.50400001928E-02 0.  1.
</event>
<event>
 5   0  0.6468758E-05  0.2196260E+04  0.7818609E-02  0.8519986E-01
        2   -1    0    0  501    0  0.00000000000E+00  0.00000000000E+00  0.16069962617E+04  0.16069962617E+04  0.25500000920E-02 0. -1.
       -2   -1    0    0    0  501  0.00000000000E+00  0.00000000000E+00 -0.75039996317E+03  0.75039996317E+03  0.25500000920E-02 0.  1.
    10030    2    1    2    0    0  0.00000000000E+00  0.00000000000E+00  0.85659629856E+03  0.23573962249E+04  0.21962603995E+04 0.  0.
        3    1    3    3  502    0  0.23906288588E+03 -0.67006266481E+03  0.13261852305E+04  0.15049592399E+04  0.10100000352E+00 0. -1.
       -3    1    3    3    0  502 -0.23906288588E+03  0.67006266481E+03 -0.46958893190E+03  0.85243698497E+03  0.10100000352E+00 0.  1.
</event>
<event>
 5   0  0.6814789E-05  0.2277850E+04  0.7818609E-02  0.8486706E-01
       -2   -1    0    0    0  501  0.00000000000E+00  0.00000000000E+00  0.65851315063E+03  0.65851315064E+03  0.25500000920E-02 0. -1.
        2   -1    0    0  501    0  0.00000000000E+00  0.00000000000E+00 -0.19698172690E+04  0.19698172690E+04  0.25500000920E-02 0.  1.
    10030    2    1    2    0    0  0.00000000000E+00  0.00000000000E+00 -0.13113041184E+04  0.26283304196E+04  0.22778503691E+04 0.  0.
        1    1    3    3  502    0 -0.23299229853E+03 -0.54108353163E+03 -0.17803554542E+04  0.18752926019E+04  0.50400001928E-02 0.  1.
       -1    1    3    3    0  502  0.23299229853E+03  0.54108353163E+03  0.46905133579E+03  0.75303781778E+03  0.50400001928E-02 0. -1.
</event>
<event>
 5   0  0.6814789E-05  0.2286347E+04  0.7818609E-02  0.8483324E-01
        2   -1    0    0  501    0  0.00000000000E+00  0.00000000000E+00  0.11798605274E+04  0.11798605274E+04  0.25500000920E-02 0. -1.
       -2   -1    0    0    0  501  0.00000000000E+00  0.00000000000E+00 -0.11076273357E+04  0.11076273357E+04  0.25500000920E-02 0.  1.
    10030    2    1    2    0    0  0.00000000000E+00  0.00000000000E+00  0.72233191697E+02  0.22874878632E+04  0.22863471062E+04 0.  0.
        1    1    3    3  502    0 -0.47288728274E+03  0.20525705819E+02 -0.10049803585E+04  0.11108686726E+04  0.50400001928E-02 0.  1.
       -1    1    3    3    0  502  0.47288728274E+03 -0.20525705819E+02  0.10772135502E+04  0.11766191906E+04  0.50400001928E-02 0. -1.
</event>
<event>
 5   0  0.6495405E-05  0.2357932E+04  0.7818609E-02  0.8455423E-01
       -2   -1    0    0    0  501  0.00000000000E+00  0.00000000000E+00  0.56452182252E+03  0.56452182253E+03  0.25500000920E-02 0.  1.
        2   -1    0    0  501    0  0.00000000000E+00  0.00000000000E+00 -0.24621906697E+04  0.24621906697E+04  0.25500000920E-02 0. -1.
    10030    2    1    2    0    0  0.00000000000E+00  0.00000000000E+00 -0.18976688472E+04  0.30267124923E+04  0.23579316057E+04 0.  0.
        5    1    3    3  502    0 -0.60641931303E+03 -0.95698299662E+03 -0.13674975605E+04  0.17758469830E+04  0.46999998093E+01 0. -1.
       -5    1    3    3    0  502  0.60641931303E+03  0.95698299662E+03 -0.53017128671E+03  0.12508655093E+04  0.46999998093E+01 0.  1.
</event>
<event>
 5   0  0.2944089E-05  0.2126965E+04  0.7818609E-02  0.8549457E-01
        1   -1    0    0  501    0  0.00000000000E+00  0.00000000000E+00  0.11940351906E+04  0.11940351906E+04  0.50400001928E-02 0.  1.
       -1   -1    0    0    0  501  0.00000000000E+00  0.00000000000E+00 -0.94720408612E+03  0.94720408613E+03  0.50400001928E-02 0. -1.
    10030    2    1    2    0    0  0.00000000000E+00  0.00000000000E+00  0.24683110448E+03  0.21412392767E+04  0.21269649847E+04 0.  0.
        5    1    3    3  502    0 -0.87059092863E+03 -0.55750918882E+03  0.37454480062E+03  0.10995685328E+04  0.46999998093E+01 0.  1.
       -5    1    3    3    0  502  0.87059092863E+03  0.55750918882E+03 -0.12771369614E+03  0.10416707440E+04  0.46999998093E+01 0. -1.
</event>
<event>
 5   0  0.6468758E-05  0.2255073E+04  0.7818609E-02  0.8495849E-01
        2   -1    0    0  501    0  0.00000000000E+00  0.00000000000E+00  0.13401412585E+04  0.13401412585E+04  0.25500000920E-02 0.  1.
       -2   -1    0    0    0  501  0.00000000000E+00  0.00000000000E+00 -0.94865991668E+03  0.94865991669E+03  0.25500000920E-02 0. -1.
    10030    2    1    2    0    0  0.00000000000E+00  0.00000000000E+00  0.39148134178E+03  0.22888011752E+04  0.22550727657E+04 0.  0.
        3    1    3    3  502    0  0.23749350823E+02 -0.10665247332E+04 -0.17482173266E+03  0.10810188188E+04  0.10100000352E+00 0. -1.
       -3    1    3    3    0  502 -0.23749350823E+02  0.10665247332E+04  0.56630307444E+03  0.12077823564E+04  0.10100000352E+00 0.  1.
</event>
<event>
 5   0  0.3006265E-05  0.2290955E+04  0.7818609E-02  0.8481496E-01
        1   -1    0    0  501    0  0.00000000000E+00  0.00000000000E+00  0.22000684616E+04  0.22000684616E+04  0.50400001928E-02 0. -1.
       -1   -1    0    0    0  501  0.00000000000E+00  0.00000000000E+00 -0.59639928815E+03  0.59639928817E+03  0.50400001928E-02 0.  1.
    10030    2    1    2    0    0  0.00000000000E+00  0.00000000000E+00  0.16036691734E+04  0.27964677498E+04  0.22909554901E+04 0.  0.
        2    1    3    3  502    0  0.77159678525E+03 -0.27990504889E+03 -0.17347678105E+03  0.83892945411E+03  0.25500000920E-02 0.  1.
       -2    1    3    3    0  502 -0.77159678525E+03  0.27990504889E+03  0.17771459545E+04  0.19575382957E+04  0.25500000920E-02 0. -1.
</event>
<event>
 5   0  0.2962279E-05  0.2261546E+04  0.7818609E-02  0.8493239E-01
       -1   -1    0    0    0  501  0.00000000000E+00  0.00000000000E+00  0.11980935746E+04  0.11980935746E+04  0.50400001928E-02 0. -1.
        1   -1    0    0  501    0  0.00000000000E+00  0.00000000000E+00 -0.10672355302E+04  0.10672355302E+04  0.50400001928E-02 0.  1.
    10030    2    1    2    0    0  0.00000000000E+00  0.00000000000E+00  0.13085804441E+03  0.22653291048E+04  0.22615464013E+04 0.  0.
        1    1    3    3  502    0  0.10224720002E+03  0.40374775585E+03  0.11184634354E+04  0.11934936936E+04  0.50400001928E-02 0. -1.
       -1    1    3    3    0  502 -0.10224720002E+03 -0.40374775585E+03 -0.98760539101E+03  0.10718354112E+04  0.50400001928E-02 0.  1.
</event>
<event>
 5   0  0.3118614E-05  0.2304194E+04  0.7818609E-02  0.8476269E-01
        1   -1    0    0  501    0  0.00000000000E+00  0.00000000000E+00  0.15309157184E+04  0.15309157184E+04  0.50400001928E-02 0. -1.
       -1   -1    0    0    0  501  0.00000000000E+00  0.00000000000E+00 -0.86701549525E+03  0.86701549526E+03  0.50400001928E-02 0.  1.
    10030    2    1    2    0    0  0.00000000000E+00  0.00000000000E+00  0.66390022313E+03  0.23979312136E+04  0.23041941322E+04 0.  0.
        3    1    3    3  502    0  0.10035618822E+04  0.48566919273E+03  0.29764168822E+02  0.11153012741E+04  0.10100000352E+00 0. -1.
       -3    1    3    3    0  502 -0.10035618822E+04 -0.48566919273E+03  0.63413605430E+03  0.12826299395E+04  0.10100000352E+00 0.  1.
</event>
<event>
 5   0  0.3118614E-05  0.2299296E+04  0.7818609E-02  0.8478199E-01
        1   -1    0    0  501    0  0.00000000000E+00  0.00000000000E+00  0.23069116411E+04  0.23069116411E+04  0.50400001928E-02 0. -1.
       -1   -1    0    0    0  501  0.00000000000E+00  0.00000000000E+00 -0.57292641472E+03  0.57292641475E+03  0.50400001928E-02 0.  1.
    10030    2    1    2    0    0  0.00000000000E+00  0.00000000000E+00  0.17339852264E+04  0.28798380559E+04  0.22992960798E+04 0.  0.
        3    1    3    3  502    0  0.87066151759E+02  0.21463784833E+02 -0.56853946923E+03  0.57556784754E+03  0.10100000352E+00 0.  1.
       -3    1    3    3    0  502 -0.87066151759E+02 -0.21463784833E+02  0.23025246956E+04  0.23042702083E+04  0.10100000352E+00 0. -1.
</event>
<event>
 5   0  0.6676612E-05  0.2294593E+04  0.7818609E-02  0.8480056E-01
        2   -1    0    0  501    0  0.00000000000E+00  0.00000000000E+00  0.18196161387E+04  0.18196161387E+04  0.25500000920E-02 0.  1.
       -2   -1    0    0    0  501  0.00000000000E+00  0.00000000000E+00 -0.72338868772E+03  0.72338868772E+03  0.25500000920E-02 0. -1.
    10030    2    1    2    0    0  0.00000000000E+00  0.00000000000E+00  0.10962274510E+04  0.25430048264E+04  0.22945934113E+04 0.  0.
        2    1    3    3  502    0 -0.28622136945E+03 -0.92274070970E+03  0.12339075382E+04  0.15671314248E+04  0.25500000920E-02 0.  1.
       -2    1    3    3    0  502  0.28622136945E+03  0.92274070970E+03 -0.13768008719E+03  0.97587340167E+03  0.25500000920E-02 0. -1.
</event>
<event>
 5   0  0.2944089E-05  0.2272595E+04  0.7818609E-02  0.8488806E-01
       -1   -1    0    0    0  501  0.00000000000E+00  0.00000000000E+00  0.10466194902E+04  0.10466194902E+04  0.50400001928E-02 0.  1.
        1   -1    0    0  501    0  0.00000000000E+00  0.00000000000E+00 -0.12336592115E+04  0.12336592115E+04  0.50400001928E-02 0. -1.
    10030    2    1    2    0    0  0.00000000000E+00  0.00000000000E+00 -0.18703972131E+03  0.22802787017E+04  0.22725947945E+04 0.  0.
        5    1    3    3  502    0  0.73321315335E+03  0.83506564336E+03  0.14437570385E+03  0.11206259817E+04  0.46999998093E+01 0.  1.
       -5    1    3    3    0  502 -0.73321315335E+03 -0.83506564336E+03 -0.33141542516E+03  0.11596527200E+04  0.46999998093E+01 0. -1.
</event>
<event>
 5   0  0.6495405E-05  0.2355219E+04  0.7818609E-02  0.8456462E-01
        2   -1    0    0  501    0  0.00000000000E+00  0.00000000000E+00  0.13134722593E+04  0.13134722593E+04  0.25500000920E-02 0.  1.
       -2   -1    0    0    0  501  0.00000000000E+00  0.00000000000E+00 -0.10558001407E+04  0.10558001407E+04  0.25500000920E-02 0. -1.
    10030    2    1    2    0    0  0.00000000000E+00  0.00000000000E+00  0.25767211859E+03  0.23692723999E+04  0.23552190523E+04 0.  0.
        5    1    3    3  502    0 -0.20113343795E+03  0.15334986936E+03 -0.10281445098E+04  0.10588078510E+04  0.46999998093E+01 0. -1.
       -5    1    3    3    0  502  0.20113343795E+03 -0.15334986936E+03  0.12858166284E+04  0.13104645490E+04  0.46999998093E+01 0.  1.
</event>
<event>
 5   0  0.3006265E-05  0.2293880E+04  0.7818609E-02  0.8480338E-01
        1   -1    0    0  501    0  0.00000000000E+00  0.00000000000E+00  0.12645727519E+04  0.12645727519E+04  0.50400001928E-02 0.  1.
       -1   -1    0    0    0  501  0.00000000000E+00  0.00000000000E+00 -0.10402496689E+04  0.10402496689E+04  0.50400001928E-02 0. -1.
    10030    2    1    2    0    0  0.00000000000E+00  0.00000000000E+00  0.22432308297E+03  0.23048224209E+04  0.22938800200E+04 0.  0.
        2    1    3    3  502    0 -0.20153628589E+03  0.91504268767E+03  0.77679363140E+03  0.12170983282E+04  0.25500000920E-02 0.  1.
       -2    1    3    3    0  502  0.20153628589E+03 -0.91504268767E+03 -0.55247054843E+03  0.10877240926E+04  0.25500000920E-02 0. -1.
</event>
<event>
 5   0  0.6495405E-05  0.2240163E+04  0.7818609E-02  0.8501895E-01
        2   -1    0    0  501    0  0.00000000000E+00  0.00000000000E+00  0.92517037914E+03  0.92517037915E+03  0.25500000920E-02 0.  1.
       -2   -1    0    0    0  501  0.00000000000E+00  0.00000000000E+00 -0.13560554820E+04  0.13560554820E+04  0.25500000920E-02 0. -1.
    10030    2    1    2    0    0  0.00000000000E+00  0.00000000000E+00 -0.43088510282E+03  0.22812258611E+04  0.22401628194E+04 0.  0.
        5    1    3    3  502    0 -0.97209393889E+03  0.54212654119E+03 -0.87876756293E+02  0.11165179027E+04  0.46999998093E+01 0.  1.
       -5    1    3    3    0  502  0.97209393889E+03 -0.54212654119E+03 -0.34300834653E+03  0.11647079584E+04  0.46999998093E+01 0. -1.
</event>
<event>
 5   0  0.2962279E-05  0.2272248E+04  0.7818609E-02  0.8488944E-01
       -1   -1    0    0    0  501  0.00000000000E+00  0.00000000000E+00  0.82835870450E+03  0.82835870452E+03  0.50400001928E-02 0. -1.
        1   -1    0    0  501    0  0.00000000000E+00  0.00000000000E+00 -0.15582357111E+04  0.15582357111E+04  0.50400001928E-02 0.  1.
    10030    2    1    2    0    0  0.00000000000E+00  0.00000000000E+00 -0.72987700657E+03  0.23865944156E+04  0.22722483271E+04 0.  0.
        1    1    3    3  502    0  0.95396950645E+03 -0.60458299418E+03 -0.49442972234E+03  0.12328986846E+04  0.50400001928E-02 0.  1.
       -1    1    3    3    0  502 -0.95396950645E+03  0.60458299418E+03 -0.23544728423E+03  0.11536957310E+04  0.50400001928E-02 0. -1.
</event>
<event>
 5   0  0.3006265E-05  0.2277451E+04  0.7818609E-02  0.8486865E-01
       -1   -1    0    0    0  501  0.00000000000E+00  0.00000000000E+00  0.63716447867E+03  0.63716447869E+03  0.50400001928E-02 0.  1.
        1   -1    0    0  501    0  0.00000000000E+00  0.00000000000E+00 -0.20351030973E+04  0.20351030973E+04  0.50400001928E-02 0. -1.
    10030    2    1    2    0    0  0.00000000000E+00  0.00000000000E+00 -0.13979386187E+04  0.26722675760E+04  0.22774506836E+04 0.  0.
        2    1    3    3  502    0  0.97064121037E+02 -0.83327287149E+03 -0.16024789196E+04  0.18087851751E+04  0.25500000920E-02 0. -1.
       -2    1    3    3    0  502 -0.97064121037E+02  0.83327287149E+03  0.20454030095E+03  0.86348240090E+03  0.25500000920E-02 0.  1.
</event>
<event>
 5   0  0.6814789E-05  0.2341243E+04  0.7818609E-02  0.8461835E-01
        2   -1    0    0  501    0  0.00000000000E+00  0.00000000000E+00  0.18516671347E+04  0.18516671347E+04  0.25500000920E-02 0.  1.
       -2   -1    0    0    0  501  0.00000000000E+00  0.00000000000E+00 -0.74006564852E+03  0.74006564853E+03  0.25500000920E-02 0. -1.
    10030    2    1    2    0    0  0.00000000000E+00  0.00000000000E+00  0.11116014862E+04  0.25917327832E+04  0.23412434636E+04 0.  0.
        1    1    3    3  502    0  0.75756481051E+03  0.43937417383E+03  0.14156982794E+04  0.16646788655E+04  0.50400001928E-02 0. -1.
       -1    1    3    3    0  502 -0.75756481051E+03 -0.43937417383E+03 -0.30409679325E+03  0.92705391776E+03  0.50400001928E-02 0.  1.
</event>
<event>
 5   0  0.6814789E-05  0.2313112E+04  0.7818609E-02  0.8472769E-01
        2   -1    0    0  501    0  0.00000000000E+00  0.00000000000E+00  0.20960219615E+04  0.20960219615E+04  0.25500000920E-02 0.  1.
       -2   -1    0    0    0  501  0.00000000000E+00  0.00000000000E+00 -0.63817155607E+03  0.63817155608E+03  0.25500000920E-02 0. -1.
    10030    2    1    2    0    0  0.00000000000E+00  0.00000000000E+00  0.14578504055E+04  0.27341935176E+04  0.23131118406E+04 0.  0.
        1    1    3    3  502    0 -0.31010465876E+03  0.60338400375E+03  0.18361290393E+04  0.19574491065E+04  0.50400001928E-02 0.  1.
       -1    1    3    3    0  502  0.31010465876E+03 -0.60338400375E+03 -0.37827863387E+03  0.77674441113E+03  0.50400001928E-02 0. -1.
</event>
<event>
 5   0  0.2342500E-05  0.2324608E+04  0.7818609E-02  0.8468281E-01
       -3   -1    0    0    0  501  0.00000000000E+00  0.00000000000E+00  0.97032214121E+03  0.97032214647E+03  0.10100000352E+00 0. -1.
        3   -1    0    0  501    0  0.00000000000E+00  0.00000000000E+00 -0.13922707672E+04  0.13922707708E+04  0.10100000352E+00 0.  1.
    10030    2    1    2    0    0  0.00000000000E+00  0.00000000000E+00 -0.42194862595E+03  0.23625929173E+04  0.23246084939E+04 0.  0.
        3    1    3    3  502    0 -0.10070485108E+04  0.33025047629E+03  0.27404368057E+03  0.10946743942E+04  0.10100000352E+00 0. -1.
       -3    1    3    3    0  502  0.10070485108E+04 -0.33025047629E+03 -0.69599230652E+03  0.12679185231E+04  0.10100000352E+00 0.  1.
</event>
<event>
 5   0  0.2982385E-05  0.2274410E+04  0.7818609E-02  0.8488080E-01
       -1   -1    0    0    0  501  0.00000000000E+00  0.00000000000E+00  0.92666084186E+03  0.92666084188E+03  0.50400001928E-02 0. -1.
        1   -1    0    0  501    0  0.00000000000E+00  0.00000000000E+00 -0.13955867443E+04  0.13955867443E+04  0.50400001928E-02 0.  1.
    10030    2    1    2    0    0  0.00000000000E+00  0.00000000000E+00 -0.46892590244E+03  0.23222475862E+04  0.22744103301E+04 0.  0.
        4    1    3    3  502    0 -0.64902697923E+03 -0.22713255911E+03 -0.11592779065E+04  0.13478694657E+04  0.12699999809E+01 0.  1.
       -4    1    3    3    0  502  0.64902697923E+03  0.22713255911E+03  0.69035200409E+03  0.97437812046E+03  0.12699999809E+01 0. -1.
</event>
<event>
 5   0  0.6495405E-05  0.2261040E+04  0.7818609E-02  0.8493443E-01
        2   -1    0    0  501    0  0.00000000000E+00  0.00000000000E+00  0.11910136240E+04  0.11910136240E+04  0.25500000920E-02 0.  1.
       -2   -1    0    0    0  501  0.00000000000E+00  0.00000000000E+00 -0.10730985850E+04  0.10730985850E+04  0.25500000920E-02 0. -1.
    10030    2    1    2    0    0  0.00000000000E+00  0.00000000000E+00  0.11791503894E+03  0.22641122090E+04  0.22610396145E+04 0.  0.
        5    1    3    3  502    0  0.21333664100E+03 -0.90554176892E+03  0.70211885213E+03  0.11655519680E+04  0.46999998093E+01 0.  1.
       -5    1    3    3    0  502 -0.21333664100E+03  0.90554176892E+03 -0.58420381319E+03  0.10985602409E+04  0.46999998093E+01 0. -1.
</event>
<event>
 5   0  0.2944089E-05  0.2307496E+04  0.7818609E-02  0.8474971E-01
        1   -1    0    0  501    0  0.00000000000E+00  0.00000000000E+00  0.24898072213E+04  0.24898072213E+04  0.50400001928E-02 0.  1.
       -1   -1    0    0    0  501  0.00000000000E+00  0.00000000000E+00 -0.53463355485E+03  0.53463355487E+03  0.50400001928E-02 0. -1.
    10030    2    1    2    0    0  0.00000000000E+00  0.00000000000E+00  0.19551736664E+04  0.30244407762E+04  0.23074960331E+04 0.  0.
        5    1    3    3  502    0  0.60127920096E+03  0.96650117626E+03  0.73080137940E+03  0.13526839791E+04  0.46999998093E+01 0. -1.
       -5    1    3    3    0  502 -0.60127920096E+03 -0.96650117626E+03  0.12243722870E+04  0.16717567970E+04  0.46999998093E+01 0.  1.
</event>
<event>
 5   0  0.3006265E-05  0.2144320E+04  0.7818609E-02  0.8541967E-01
       -1   -1    0    0    0  501  0.00000000000E+00  0.00000000000E+00  0.11263737359E+04  0.11263737359E+04  0.50400001928E-02 0.  1.
        1   -1    0    0  501    0  0.00000000000E+00  0.00000000000E+00 -0.10205559879E+04  0.10205559879E+04  0.50400001928E-02 0. -1.
    10030    2    1    2    0    0  0.00000000000E+00  0.00000000000E+00  0.10581774806E+03  0.21469297238E+04  0.21443203686E+04 0.  0.
        2    1    3    3  502    0  0.97112354078E+03 -0.44201146204E+03 -0.52444628324E+02  0.10682722046E+04  0.25500000920E-02 0. -1.
       -2    1    3    3    0  502 -0.97112354078E+03  0.44201146204E+03  0.15826237638E+03  0.10786575192E+04  0.25500000920E-02 0.  1.
</event>
<event>
 5   0  0.6495405E-05  0.2295549E+04  0.7818609E-02  0.8479678E-01
        2   -1    0    0  501    0  0.00000000000E+00  0.00000000000E+00  0.25515400677E+04  0.25515400677E+04  0.25500000920E-02 0.  1.
       -2   -1    0    0    0  501  0.00000000000E+00  0.00000000000E+00 -0.51631043490E+03  0.51631043491E+03  0.25500000920E-02 0. -1.
    10030    2    1    2    0    0  0.00000000000E+00  0.00000000000E+00  0.20352296328E+04  0.30678505026E+04  0.22955494001E+04 0.  0.
        5    1    3    3  502    0 -0.21817305593E+03  0.77171239572E+03  0.21149770999E+04  0.22619216890E+04  0.46999998093E+01 0.  1.
       -5    1    3    3    0  502  0.21817305593E+03 -0.77171239572E+03 -0.79747467145E+02  0.80592881358E+03  0.46999998093E+01 0. -1.
</event>
<event>
 5   0  0.6814789E-05  0.2271530E+04  0.7818609E-02  0.8489232E-01
       -2   -1    0    0    0  501  0.00000000000E+00  0.00000000000E+00  0.11992250994E+04  0.11992250994E+04  0.25500000920E-02 0.  1.
        2   -1    0    0  501    0  0.00000000000E+00  0.00000000000E+00 -0.10756634635E+04  0.10756634635E+04  0.25500000920E-02 0. -1.
    10030    2    1    2    0    0  0.00000000000E+00  0.00000000000E+00  0.12356163590E+03  0.22748885628E+04  0.22715304302E+04 0.  0.
        1    1    3    3  502    0 -0.93087502765E+03 -0.49290626637E+03  0.48723555667E+03  0.11605530545E+04  0.50400001928E-02 0. -1.
       -1    1    3    3    0  502  0.93087502765E+03  0.49290626637E+03 -0.36367392077E+03  0.11143355084E+04  0.50400001928E-02 0.  1.
</event>
<event>
 5   0  0.3006265E-05  0.2278586E+04  0.7818609E-02  0.8486413E-01
        1   -1    0    0  501    0  0.00000000000E+00  0.00000000000E+00  0.97816213427E+03  0.97816213428E+03  0.50400001928E-02 0.  1.
       -1   -1    0    0    0  501  0.00000000000E+00  0.00000000000E+00 -0.13269663393E+04  0.13269663393E+04  0.50400001928E-02 0. -1.
    10030    2    1    2    0    0  0.00000000000E+00  0.00000000000E+00 -0.34880420501E+03  0.23051284736E+04  0.22785857250E+04 0.  0.
        2    1    3    3  502    0  0.42650322814E+03 -0.68175618830E+03 -0.99082944759E+03  0.12761032474E+04  0.25500000920E-02 0. -1.
       -2    1    3    3    0  502 -0.42650322814E+03  0.68175618830E+03  0.64202524258E+03  0.10290252261E+04  0.25500000920E-02 0.  1.
</event>
<event>
 5   0  0.2944089E-05  0.2283689E+04  0.7818609E-02  0.8484380E-01
        1   -1    0    0  501    0  0.00000000000E+00  0.00000000000E+00  0.94890405194E+03  0.94890405195E+03  0.50400001928E-02 0. -1.
       -1   -1    0    0    0  501  0.00000000000E+00  0.00000000000E+00 -0.13740151949E+04  0.13740151949E+04  0.50400001928E-02 0.  1.
    10030    2    1    2    0    0  0.00000000000E+00  0.00000000000E+00 -0.42511114292E+03  0.23229192468E+04  0.22836887580E+04 0.  0.
        5    1    3    3  502    0  0.10657367660E+04  0.35978647559E+03 -0.12853255490E+02  0.11249126449E+04  0.46999998093E+01 0.  1.
       -5    1    3    3    0  502 -0.10657367660E+04 -0.35978647559E+03 -0.41225788743E+03  0.11980066019E+04  0.46999998093E+01 0. -1.
</event>
<event>
 5   0  0.3118614E-05  0.2325124E+04  0.7818609E-02  0.8468080E-01
       -1   -1    0    0    0  501  0.00000000000E+00  0.00000000000E+00  0.71823111275E+03  0.71823111277E+03  0.50400001928E-02 0.  1.
        1   -1    0    0  501    0  0.00000000000E+00  0.00000000000E+00 -0.18817766109E+04  0.18817766109E+04  0.50400001928E-02 0. -1.
    10030    2    1    2    0    0  0.00000000000E+00  0.00000000000E+00 -0.11635454981E+04  0.26000077237E+04  0.23251240906E+04 0.  0.
        3    1    3    3  502    0 -0.60921211603E+03  0.20779031366E+03 -0.16643342672E+04  0.17844676461E+04  0.10100000352E+00 0.  1.
       -3    1    3    3    0  502  0.60921211603E+03 -0.20779031366E+03  0.50078876904E+03  0.81554007760E+03  0.10100000352E+00 0. -1.
</event>
<event>
 5   0  0.3118614E-05  0.2287849E+04  0.7818609E-02  0.8482728E-01
        1   -1    0    0  501    0  0.00000000000E+00  0.00000000000E+00  0.12106563071E+04  0.12106563071E+04  0.50400001928E-02 0.  1.
       -1   -1    0    0    0  501  0.00000000000E+00  0.00000000000E+00 -0.10808707379E+04  0.10808707379E+04  0.50400001928E-02 0. -1.
    10030    2    1    2    0    0  0.00000000000E+00  0.00000000000E+00  0.12978556922E+03  0.22915270450E+04  0.22878487502E+04 0.  0.
        3    1    3    3  502    0 -0.17326985472E+02  0.57406800685E+03  0.10557803854E+04  0.12018845757E+04  0.10100000352E+00 0.  1.
       -3    1    3    3    0  502  0.17326985472E+02 -0.57406800685E+03 -0.92599481620E+03  0.10896424692E+04  0.10100000352E+00 0. -1.
</event>
<event>
 5   0  0.2944089E-05  0.2198509E+04  0.7818609E-02  0.8519049E-01
        1   -1    0    0  501    0  0.00000000000E+00  0.00000000000E+00  0.11513828409E+04  0.11513828409E+04  0.50400001928E-02 0.  1.
       -1   -1    0    0    0  501  0.00000000000E+00  0.00000000000E+00 -0.10494863890E+04  0.10494863890E+04  0.50400001928E-02 0. -1.
    10030    2    1    2    0    0  0.00000000000E+00  0.00000000000E+00  0.10189645192E+03  0.22008692299E+04  0.21985091495E+04 0.  0.
        5    1    3    3  502    0 -0.51078921351E+03  0.12533836580E+03  0.10172425241E+04  0.11451723755E+04  0.46999998093E+01 0.  1.
       -5    1    3    3    0  502  0.51078921351E+03 -0.12533836580E+03 -0.91534607223E+03  0.10556968545E+04  0.46999998093E+01 0. -1.
</event>
<event>
 5   0  0.2982385E-05  0.2258120E+04  0.7818609E-02  0.8494619E-01
        1   -1    0    0  501    0  0.00000000000E+00  0.00000000000E+00  0.15449937902E+04  0.15449937902E+04  0.50400001928E-02 0.  1.
       -1   -1    0    0    0  501  0.00000000000E+00  0.00000000000E+00 -0.82510136740E+03  0.82510136741E+03  0.50400001928E-02 0. -1.
    10030    2    1    2    0    0  0.00000000000E+00  0.00000000000E+00  0.71989242283E+03  0.23700951576E+04  0.22581200048E+04 0.  0.
        4    1    3    3  502    0 -0.88298394670E+03 -0.16976360745E+03 -0.35677281148E+03  0.96735142759E+03  0.12699999809E+01 0. -1.
       -4    1    3    3    0  502  0.88298394670E+03  0.16976360745E+03  0.10766652343E+04  0.14027437301E+04  0.12699999809E+01 0.  1.
</event>
<event>
 5   0  0.2944089E-05  0.2156014E+04  0.7818609E-02  0.8536962E-01
        1   -1    0    0  501    0  0.00000000000E+00  0.00000000000E+00  0.12096758862E+04  0.12096758862E+04  0.50400001928E-02 0.  1.
       -1   -1    0    0    0  501  0.00000000000E+00  0.00000000000E+00 -0.96067014800E+03  0.96067014801E+03  0.50400001928E-02 0. -1.
    10030    2    1    2    0    0  0.00000000000E+00  0.00000000000E+00  0.24900573815E+03  0.21703460342E+04  0.21560143901E+04 0.  0.
        5    1    3    3  502    0  0.96673349294E+02  0.48418335001E+03  0.10891515756E+04  0.11958480244E+04  0.46999998093E+01 0.  1.
       -5    1    3    3    0  502 -0.96673349294E+02 -0.48418335001E+03 -0.84014583743E+03  0.97449800977E+03  0.46999998093E+01 0. -1.
</event>
<event>
 5   0  0.6702421E-05  0.2382356E+04  0.7818609E-02  0.8446139E-01
       -2   -1    0    0    0  501  0.00000000000E+00  0.00000000000E+00  0.92700175638E+03  0.92700175638E+03  0.25500000920E-02 0.  1.
        2   -1    0    0  501    0  0.00000000000E+00  0.00000000000E+00 -0.15306384000E+04  0.15306384000E+04  0.25500000920E-02 0. -1.
    10030    2    1    2    0    0  0.00000000000E+00  0.00000000000E+00 -0.60363664367E+03  0.24576401564E+04  0.23823555446E+04 0.  0.
        4    1    3    3  502    0 -0.57077832836E+02  0.82411941028E+03  0.58348051660E+03  0.10113761949E+04  0.12699999809E+01 0.  1.
       -4    1    3    3    0  502  0.57077832836E+02 -0.82411941028E+03 -0.11871171603E+04  0.14462639616E+04  0.12699999809E+01 0. -1.
</event>
<event>
 5   0  0.2944089E-05  0.2251117E+04  0.7818609E-02  0.8497448E-01
       -1   -1    0    0    0  501  0.00000000000E+00  0.00000000000E+00  0.66920104369E+03  0.66920104371E+03  0.50400001928E-02 0. -1.
        1   -1    0    0  501    0  0.00000000000E+00  0.00000000000E+00 -0.18931257177E+04  0.18931257177E+04  0.50400001928E-02 0.  1.
    10030    2    1    2    0    0  0.00000000000E+00  0.00000000000E+00 -0.12239246740E+04  0.25623267614E+04  0.22511167950E+04 0.  0.
        5    1    3    3  502    0 -0.54726884543E+03 -0.25848516324E+03 -0.16921231904E+04  0.17971145624E+04  0.46999998093E+01 0.  1.
       -5    1    3    3    0  502  0.54726884543E+03  0.25848516324E+03  0.46819851640E+03  0.76521219904E+03  0.46999998093E+01 0. -1.
</event>
<event>
 5   0  0.6468758E-05  0.2251598E+04  0.7818609E-02  0.8497253E-01
        2   -1    0    0  501    0  0.00000000000E+00  0.00000000000E+00  0.10894566188E+04  0.10894566188E+04  0.25500000920E-02 0. -1.
       -2   -1    0    0    0  501  0.00000000000E+00  0.00000000000E+00 -0.11633542053E+04  0.11633542053E+04  0.25500000920E-02 0.  1.
    10030    2    1    2    0    0  0.00000000000E+00  0.00000000000E+00 -0.73897586492E+02  0.22528108241E+04  0.22515984891E+04 0.  0.
        3    1    3    3  502    0  0.82182485332E+03  0.65529183236E+03 -0.44042818716E+03  0.11396405018E+04  0.10100000352E+00 0.  1.
       -3    1    3    3    0  502 -0.82182485332E+03 -0.65529183236E+03  0.36653060066E+03  0.11131703223E+04  0.10100000352E+00 0. -1.
</event>
<event>
 5   0  0.6468758E-05  0.2058165E+04  0.7818609E-02  0.8579899E-01
       -2   -1    0    0    0  501  0.00000000000E+00  0.00000000000E+00  0.52364210639E+03  0.52364210639E+03  0.25500000920E-02 0.  1.
        2   -1    0    0  501    0  0.00000000000E+00  0.00000000000E+00 -0.20223946120E+04  0.20223946120E+04  0.25500000920E-02 0. -1.
    10030    2    1    2    0    0  0.00000000000E+00  0.00000000000E+00 -0.14987525057E+04  0.25460367184E+04  0.20581651776E+04 0.  0.
        3    1    3    3  502    0  0.28296300598E+03  0.93174693414E+03 -0.11611283317E+04  0.15154007473E+04  0.10100000352E+00 0. -1.
       -3    1    3    3    0  502 -0.28296300598E+03 -0.93174693414E+03 -0.33762417401E+03  0.10306359712E+04  0.10100000352E+00 0.  1.
</event>
<event>
 5   0  0.2342500E-05  0.2304095E+04  0.7818609E-02  0.8476308E-01
       -4   -1    0    0    0  501  0.00000000000E+00  0.00000000000E+00  0.91904160767E+03  0.91904248516E+03  0.12699999809E+01 0.  1.
        4   -1    0    0  501    0  0.00000000000E+00  0.00000000000E+00 -0.14441260690E+04  0.14441266274E+04  0.12699999809E+01 0. -1.
    10030    2    1    2    0    0  0.00000000000E+00  0.00000000000E+00 -0.52508446128E+03  0.23631691125E+04  0.23040951723E+04 0.  0.
        4    1    3    3  502    0 -0.27319444252E+03 -0.87220366805E+03  0.45674979361E+03  0.10217614344E+04  0.12699999809E+01 0.  1.
       -4    1    3    3    0  502  0.27319444252E+03  0.87220366805E+03 -0.98183425489E+03  0.13414076781E+04  0.12699999809E+01 0. -1.
</event>
<event>
 5   0  0.6495405E-05  0.2309540E+04  0.7818609E-02  0.8474169E-01
       -2   -1    0    0    0  501  0.00000000000E+00  0.00000000000E+00  0.10035805885E+04  0.10035805885E+04  0.25500000920E-02 0.  1.
        2   -1    0    0  501    0  0.00000000000E+00  0.00000000000E+00 -0.13287358309E+04  0.13287358309E+04  0.25500000920E-02 0. -1.
    10030    2    1    2    0    0  0.00000000000E+00  0.00000000000E+00 -0.32515524237E+03  0.23323164193E+04  0.23095397698E+04 0.  0.
        5    1    3    3  502    0  0.20111542827E+03  0.72291689368E+02 -0.13085809516E+04  0.13259259786E+04  0.46999998093E+01 0. -1.
       -5    1    3    3    0  502 -0.20111542827E+03 -0.72291689368E+02  0.98342570918E+03  0.10063904408E+04  0.46999998093E+01 0.  1.
</event>
<event>
 5   0  0.2944089E-05  0.2375284E+04  0.7818609E-02  0.8448815E-01
        1   -1    0    0  501    0  0.00000000000E+00  0.00000000000E+00  0.11665911264E+04  0.11665911264E+04  0.50400001928E-02 0. -1.
       -1   -1    0    0    0  501  0.00000000000E+00  0.00000000000E+00 -0.12090723385E+04  0.12090723385E+04  0.50400001928E-02 0.  1.
    10030    2    1    2    0    0  0.00000000000E+00  0.00000000000E+00 -0.42481212115E+02  0.23756634649E+04  0.23752836136E+04 0.  0.
        5    1    3    3  502    0  0.40541827404E+03  0.10906269444E+04 -0.25926997299E+03  0.11920881333E+04  0.46999998093E+01 0. -1.
       -5    1    3    3    0  502 -0.40541827404E+03 -0.10906269444E+04  0.21678876087E+03  0.11835753316E+04  0.46999998093E+01 0.  1.
</event>
<event>
 5   0  0.3006265E-05  0.2295581E+04  0.7818609E-02  0.8479666E-01
       -1   -1    0    0    0  501  0.00000000000E+00  0.00000000000E+00  0.11193731074E+04  0.11193731074E+04  0.50400001928E-02 0. -1.
        1   -1    0    0  501    0  0.00000000000E+00  0.00000000000E+00 -0.11769288853E+04  0.11769288854E+04  0.50400001928E-02 0.  1.
    10030    2    1    2    0    0  0.00000000000E+00  0.00000000000E+00 -0.57555777946E+02  0.22963019928E+04  0.22955805746E+04 0.  0.
        2    1    3    3  502    0  0.10849338303E+04  0.23395875708E+02 -0.40278542692E+03  0.11575253273E+04  0.25500000920E-02 0.  1.
       -2    1    3    3    0  502 -0.10849338303E+04 -0.23395875708E+02  0.34522964897E+03  0.11387766654E+04  0.25500000920E-02 0. -1.
</event>
<event>
 5   0  0.6495405E-05  0.2266139E+04  0.7818609E-02  0.8491393E-01
       -2   -1    0    0    0  501  0.00000000000E+00  0.00000000000E+00  0.26941434736E+04  0.26941434736E+04  0.25500000920E-02 0.  1.
        2   -1    0    0  501    0  0.00000000000E+00  0.00000000000E+00 -0.47653229585E+03  0.47653229585E+03  0.25500000920E-02 0. -1.
    10030    2    1    2    0    0  0.00000000000E+00  0.00000000000E+00  0.22176111778E+04  0.31706757695E+04  0.22661388967E+04 0.  0.
        5    1    3    3  502    0 -0.81686760538E+03 -0.63163092580E+03  0.45614296868E+03  0.11288573023E+04  0.46999998093E+01 0. -1.
       -5    1    3    3    0  502  0.81686760538E+03  0.63163092580E+03  0.17614682091E+04  0.20418184671E+04  0.46999998093E+01 0.  1.
</event>
<event>
 5   0  0.6814789E-05  0.2281916E+04  0.7818609E-02  0.8485086E-01
       -2   -1    0    0    0  501  0.00000000000E+00  0.00000000000E+00  0.42238300491E+03  0.42238300492E+03  0.25500000920E-02 0.  1.
        2   -1    0    0  501    0  0.00000000000E+00  0.00000000000E+00 -0.30820019158E+04  0.30820019158E+04  0.25500000920E-02 0. -1.
    10030    2    1    2    0    0  0.00000000000E+00  0.00000000000E+00 -0.26596189109E+04  0.35043849207E+04  0.22819160636E+04 0.  0.
        1    1    3    3  502    0 -0.78909748991E+03 -0.78283667609E+03 -0.93444834078E+03  0.14521369810E+04  0.50400001928E-02 0.  1.
       -1    1    3    3    0  502  0.78909748991E+03  0.78283667609E+03 -0.17251705701E+04  0.20522479397E+04  0.50400001928E-02 0. -1.
</event>
<event>
 5   0  0.3006265E-05  0.2297207E+04  0.7818609E-02  0.8479023E-01
       -1   -1    0    0    0  501  0.00000000000E+00  0.00000000000E+00  0.12622651164E+04  0.12622651164E+04  0.50400001928E-02 0.  1.
        1   -1    0    0  501    0  0.00000000000E+00  0.00000000000E+00 -0.10451766447E+04  0.10451766448E+04  0.50400001928E-02 0. -1.
    10030    2    1    2    0    0  0.00000000000E+00  0.00000000000E+00  0.21708847166E+03  0.23074417612E+04  0.22972070165E+04 0.  0.
        2    1    3    3  502    0 -0.43177899528E+03 -0.48717401602E+03  0.10590787050E+04  0.12431489557E+04  0.25500000920E-02 0.  1.
       -2    1    3    3    0  502  0.43177899528E+03  0.48717401602E+03 -0.84199023336E+03  0.10642928054E+04  0.25500000920E-02 0. -1.
</event>
<event>
 5   0  0.6814789E-05  0.2341139E+04  0.7818609E-02  0.8461875E-01
        2   -1    0    0  501    0  0.00000000000E+00  0.00000000000E+00  0.10673427612E+04  0.10673427612E+04  0.25500000920E-02 0. -1.
       -2   -1    0    0    0  501  0.00000000000E+00  0.00000000000E+00 -0.12837794965E+04  0.12837794965E+04  0.25500000920E-02 0.  1.
    10030    2    1    2    0    0  0.00000000000E+00  0.00000000000E+00 -0.21643673531E+03  0.23511222576E+04  0.23411388276E+04 0.  0.
        1    1    3    3  502    0 -0.68341500938E+03 -0.37908901881E+03 -0.98340936215E+03  0.12561283903E+04  0.50400001928E-02 0.  1.
       -1    1    3    3    0  502  0.68341500938E+03  0.37908901881E+03  0.76697262684E+03  0.10949938674E+04  0.50400001928E-02 0. -1.
</event>
<event>
 5   0  0.2982385E-05  0.2005895E+04  0.7818609E-02  0.8603869E-01
        1   -1    0    0  501    0  0.00000000000E+00  0.00000000000E+00  0.11828300673E+04  0.11828300673E+04  0.50400001928E-02 0.  1.
       -1   -1    0    0    0  501  0.00000000000E+00  0.00000000000E+00 -0.85042134580E+03  0.85042134581E+03  0.50400001928E-02 0. -1.
    10030    2    1    2    0    0  0.00000000000E+00  0.00000000000E+00  0.33240872152E+03  0.20332514131E+04  0.20058952492E+04 0.  0.
        4    1    3    3  502    0 -0.49128503471E+03  0.78842489503E+03 -0.21700911151E+03  0.95397555934E+03  0.12699999809E+01 0.  1.
       -4    1    3    3    0  502  0.49128503471E+03 -0.78842489503E+03  0.54941783304E+03  0.10792758538E+04  0.12699999809E+01 0. -1.
</event>
<event>
 5   0  0.6468758E-05  0.2303029E+04  0.7818609E-02  0.8476728E-01
       -2   -1    0    0    0  501  0.00000000000E+00  0.00000000000E+00  0.97613114248E+03  0.97613114248E+03  0.25500000920E-02 0.  1.
        2   -1    0    0  501    0  0.00000000000E+00  0.00000000000E+00 -0.13584089495E+04  0.13584089495E+04  0.25500000920E-02 0. -1.
    10030    2    1    2    0    0  0.00000000000E+00  0.00000000000E+00 -0.38227780707E+03  0.23345400920E+04  0.23030286840E+04 0.  0.
        3    1    3    3  502    0  0.40772278779E+03 -0.98939348217E+03 -0.62221978988E+03  0.12378589626E+04  0.10100000352E+00 0. -1.
       -3    1    3    3    0  502 -0.40772278779E+03  0.98939348217E+03  0.23994198282E+03  0.10966811294E+04  0.10100000352E+00 0.  1.
</event>
<event>
 5   0  0.2982385E-05  0.2285529E+04  0.7818609E-02  0.8483649E-01
        1   -1    0    0  501    0  0.00000000000E+00  0.00000000000E+00  0.20159643185E+04  0.20159643185E+04  0.50400001928E-02 0.  1.
       -1   -1    0    0    0  501  0.00000000000E+00  0.00000000000E+00 -0.64778480552E+03  0.64778480554E+03  0.50400001928E-02 0. -1.
    10030    2    1    2    0    0  0.00000000000E+00  0.00000000000E+00  0.13681795130E+04  0.26637491241E+04  0.22855293077E+04 0.  0.
        4    1    3    3  502    0 -0.73846603345E+03 -0.27776577939E+03 -0.27940973327E+03  0.83699302429E+03  0.12699999809E+01 0. -1.
       -4    1    3    3    0  502  0.73846603345E+03  0.27776577939E+03  0.16475892463E+04  0.18267560998E+04  0.12699999809E+01 0.  1.
</event>
<event>
 5   0  0.6468758E-05  0.2201076E+04  0.7818609E-02  0.8517980E-01
       -2   -1    0    0    0  501  0.00000000000E+00  0.00000000000E+00  0.28315483711E+04  0.28315483711E+04  0.25500000920E-02 0.  1.
        2   -1    0    0  501    0  0.00000000000E+00  0.00000000000E+00 -0.42774622862E+03  0.42774622863E+03  0.25500000920E-02 0. -1.
    10030    2    1    2    0    0  0.00000000000E+00  0.00000000000E+00  0.24038021425E+04  0.32592945997E+04  0.22010762249E+04 0.  0.
        3    1    3    3  502    0 -0.34025562924E+03 -0.39564193454E+01 -0.34789240427E+03  0.48664019730E+03  0.10100000352E+00 0. -1.
       -3    1    3    3    0  502  0.34025562924E+03  0.39564193454E+01  0.27516945468E+04  0.27726544024E+04  0.10100000352E+00 0.  1.
</event>
<event>
 5   0  0.6702421E-05  0.2225980E+04  0.7818609E-02  0.8507692E-01
        2   -1    0    0  501    0  0.00000000000E+00  0.00000000000E+00  0.10593428181E+04  0.10593428181E+04  0.25500000920E-02 0.  1.
       -2   -1    0    0    0  501  0.00000000000E+00  0.00000000000E+00 -0.11693535456E+04  0.11693535456E+04  0.25500000920E-02 0. -1.
    10030    2    1    2    0    0  0.00000000000E+00  0.00000000000E+00 -0.11001072752E+03  0.22286963637E+04  0.22259795869E+04 0.  0.
        4    1    3    3  502    0  0.23213366927E+03  0.58381205900E+03  0.86482266268E+03  0.10689445315E+04  0.12699999809E+01 0.  1.
       -4    1    3    3    0  502 -0.23213366927E+03 -0.58381205900E+03 -0.97483339020E+03  0.11597518322E+04  0.12699999809E+01 0. -1.
</event>
<event>
 5   0  0.6676612E-05  0.2287111E+04  0.7818609E-02  0.8483020E-01
       -2   -1    0    0    0  501  0.00000000000E+00  0.00000000000E+00  0.58115295144E+03  0.58115295144E+03  0.25500000920E-02 0.  1.
        2   -1    0    0  501    0  0.00000000000E+00  0.00000000000E+00 -0.22502158289E+04  0.22502158289E+04  0.25500000920E-02 0. -1.
    10030    2    1    2    0    0  0.00000000000E+00  0.00000000000E+00 -0.16690628774E+04  0.28313687803E+04  0.22871113399E+04 0.  0.
        2    1    3    3  502    0 -0.32543100248E+03 -0.50535923694E+03 -0.20388809096E+04  0.21256360599E+04  0.25500000920E-02 0. -1.
       -2    1    3    3    0  502  0.32543100248E+03  0.50535923694E+03  0.36981803214E+03  0.70573272040E+03  0.25500000920E-02 0.  1.
</event>
<event>
 5   0  0.6676612E-05  0.2277382E+04  0.7818609E-02  0.8486893E-01
       -2   -1    0    0    0  501  0.00000000000E+00  0.00000000000E+00  0.68568731807E+03  0.68568731808E+03  0.25500000920E-02 0.  1.
        2   -1    0    0  501    0  0.00000000000E+00  0.00000000000E+00 -0.18909751298E+04  0.18909751298E+04  0.25500000920E-02 0. -1.
    10030    2    1    2    0    0  0.00000000000E+00  0.00000000000E+00 -0.12052878117E+04  0.25766624478E+04  0.22773824143E+04 0.  0.
        2    1    3    3  502    0 -0.86512589832E+03  0.67350162486E+03 -0.95057976745E+03  0.14510855085E+04  0.25500000920E-02 0. -1.
       -2    1    3    3    0  502  0.86512589832E+03 -0.67350162486E+03 -0.25470804425E+03  0.11255769394E+04  0.25500000920E-02 0.  1.
</event>
<event>
 5   0  0.2982385E-05  0.2282753E+04  0.7818609E-02  0.8484752E-01
        1   -1    0    0  501    0  0.00000000000E+00  0.00000000000E+00  0.19149306180E+04  0.19149306180E+04  0.50400001928E-02 0. -1.
       -1   -1    0    0    0  501  0.00000000000E+00  0.00000000000E+00 -0.68030698770E+03  0.68030698772E+03  0.50400001928E-02 0.  1.
    10030    2    1    2    0    0  0.00000000000E+00  0.00000000000E+00  0.12346236303E+04  0.25952376057E+04  0.22827533204E+04 0.  0.
        4    1    3    3  502    0  0.32116801315E+02 -0.84422858806E+03  0.14898220029E+04  0.17126951308E+04  0.12699999809E+01 0. -1.
       -4    1    3    3    0  502 -0.32116801315E+02  0.84422858806E+03 -0.25519837258E+03  0.88254247495E+03  0.12699999809E+01 0.  1.
</event>
<event>
 5   0  0.6676612E-05  0.2297711E+04  0.7818609E-02  0.8478824E-01
       -2   -1    0    0    0  501  0.00000000000E+00  0.00000000000E+00  0.82799734030E+03  0.82799734031E+03  0.25500000920E-02 0. -1.
        2   -1    0    0  501    0  0.00000000000E+00  0.00000000000E+00 -0.15940497753E+04  0.15940497753E+04  0.25500000920E-02 0.  1.
    10030    2    1    2    0    0  0.00000000000E+00  0.00000000000E+00 -0.76605243503E+03  0.24220471156E+04  0.22977110125E+04 0.  0.
        2    1    3    3  502    0  0.61671283226E+03 -0.67909482043E+02  0.63621036022E+03  0.88865631022E+03  0.25500000920E-02 0. -1.
       -2    1    3    3    0  502 -0.61671283226E+03  0.67909482043E+02 -0.14022627952E+04  0.15333908054E+04  0.25500000920E-02 0.  1.
</event>
<event>
 5   0  0.6495405E-05  0.2313708E+04  0.7818609E-02  0.8472536E-01
        2   -1    0    0  501    0  0.00000000000E+00  0.00000000000E+00  0.30573534863E+04  0.30573534863E+04  0.25500000920E-02 0. -1.
       -2   -1    0    0    0  501  0.00000000000E+00  0.00000000000E+00 -0.43773506637E+03  0.43773506638E+03  0.25500000920E-02 0.  1.
    10030    2    1    2    0    0  0.00000000000E+00  0.00000000000E+00  0.26196184199E+04  0.34950885527E+04  0.23137077008E+04 0.  0.
        5    1    3    3  502    0 -0.79296291353E+03 -0.84193316281E+03  0.13482363616E+04  0.17763459713E+04  0.46999998093E+01 0. -1.
       -5    1    3    3    0  502  0.79296291353E+03  0.84193316281E+03  0.12713820583E+04  0.17187425814E+04  0.46999998093E+01 0.  1.
</event>
<event>
 5   0  0.6495405E-05  0.2247034E+04  0.7818609E-02  0.8499103E-01
        2   -1    0    0  501    0  0.00000000000E+00  0.00000000000E+00  0.10057374493E+04  0.10057374493E+04  0.25500000920E-02 0.  1.
       -2   -1    0    0    0  501  0.00000000000E+00  0.00000000000E+00 -0.12550889161E+04  0.12550889161E+04  0.25500000920E-02 0. -1.
    10030    2    1    2    0    0  0.00000000000E+00  0.00000000000E+00 -0.24935146688E+03  0.22608263654E+04  0.22470335335E+04 0.  0.
        5    1    3    3  502    0 -0.50989982106E+03 -0.39005077802E+02  0.88183903981E+03  0.10194024749E+04  0.46999998093E+01 0.  1.
       -5    1    3    3    0  502  0.50989982106E+03  0.39005077802E+02 -0.11311905067E+04  0.12414238906E+04  0.46999998093E+01 0. -1.
</event>
<event>
 5   0  0.6468758E-05  0.2444563E+04  0.7818609E-02  0.8423006E-01
        2   -1    0    0  501    0  0.00000000000E+00  0.00000000000E+00  0.16875005138E+04  0.16875005138E+04  0.25500000920E-02 0.  1.
       -2   -1    0    0    0  501  0.00000000000E+00  0.00000000000E+00 -0.88531666098E+03  0.88531666099E+03  0.25500000920E-02 0. -1.
    10030    2    1    2    0    0  0.00000000000E+00  0.00000000000E+00  0.80218385278E+03  0.25728171748E+04  0.24445632086E+04 0.  0.
        3    1    3    3  502    0  0.75807617117E+03  0.42124061263E+03  0.13075870329E+04  0.15690465238E+04  0.10100000352E+00 0.  1.
       -3    1    3    3    0  502 -0.75807617117E+03 -0.42124061263E+03 -0.50540318013E+03  0.10037706510E+04  0.10100000352E+00 0. -1.
</event>
<event>
 5   0  0.2944089E-05  0.2294622E+04  0.7818609E-02  0.8480045E-01
        1   -1    0    0  501    0  0.00000000000E+00  0.00000000000E+00  0.14670845009E+04  0.14670845009E+04  0.50400001928E-02 0. -1.
       -1   -1    0    0    0  501  0.00000000000E+00  0.00000000000E+00 -0.89723690257E+03  0.89723690259E+03  0.50400001928E-02 0.  1.
    10030    2    1    2    0    0  0.00000000000E+00  0.00000000000E+00  0.56984759828E+03  0.23643214034E+04  0.22946218454E+04 0.  0.
        5    1    3    3  502    0  0.84021929560E+03 -0.26565632432E+03 -0.47207491444E+03  0.99970923882E+03  0.46999998093E+01 0.  1.
       -5    1    3    3    0  502 -0.84021929560E+03  0.26565632432E+03  0.10419225127E+04  0.13646121646E+04  0.46999998093E+01 0. -1.
</event>
<event>
 5   0  0.2962279E-05  0.2273998E+04  0.7818609E-02  0.8488244E-01
       -1   -1    0    0    0  501  0.00000000000E+00  0.00000000000E+00  0.10509052541E+04  0.10509052541E+04  0.50400001928E-02 0.  1.
        1   -1    0    0  501    0  0.00000000000E+00  0.00000000000E+00 -0.12301458327E+04  0.12301458328E+04  0.50400001928E-02 0. -1.
    10030    2    1    2    0    0  0.00000000000E+00  0.00000000000E+00 -0.17924057867E+03  0.22810510869E+04  0.22739979938E+04 0.  0.
        1    1    3    3  502    0 -0.25393080359E+03  0.65472458278E+03 -0.98660943893E+03  0.12110092144E+04  0.50400001928E-02 0. -1.
       -1    1    3    3    0  502  0.25393080359E+03 -0.65472458278E+03  0.80736886026E+03  0.10700418725E+04  0.50400001928E-02 0.  1.
</event>
<event>
 5   0  0.6468758E-05  0.2544313E+04  0.7818609E-02  0.8387367E-01
        2   -1    0    0  501    0  0.00000000000E+00  0.00000000000E+00  0.11674159108E+04  0.11674159108E+04  0.25500000920E-02 0.  1.
       -2   -1    0    0    0  501  0.00000000000E+00  0.00000000000E+00 -0.13862949271E+04  0.13862949271E+04  0.25500000920E-02 0. -1.
    10030    2    1    2    0    0  0.00000000000E+00  0.00000000000E+00 -0.21887901626E+03  0.25537108379E+04  0.25443134672E+04 0.  0.
        3    1    3    3  502    0 -0.98148321310E+03  0.88776156750E+02 -0.91689344057E+03  0.13460624410E+04  0.10100000352E+00 0. -1.
       -3    1    3    3    0  502  0.98148321310E+03 -0.88776156750E+02  0.69801442431E+03  0.12076483968E+04  0.10100000352E+00 0.  1.
</event>
<event>
 5   0  0.3006265E-05  0.2315016E+04  0.7818609E-02  0.8472024E-01
       -1   -1    0    0    0  501  0.00000000000E+00  0.00000000000E+00  0.16375934038E+04  0.16375934038E+04  0.50400001928E-02 0.  1.
        1   -1    0    0  501    0  0.00000000000E+00  0.00000000000E+00 -0.81816715359E+03  0.81816715360E+03  0.50400001928E-02 0. -1.
    10030    2    1    2    0    0  0.00000000000E+00  0.00000000000E+00  0.81942625021E+03  0.24557605574E+04  0.23150163144E+04 0.  0.
        2    1    3    3  502    0  0.92421697982E+03  0.15750248029E+03 -0.31041132273E+03  0.98759265205E+03  0.25500000920E-02 0. -1.
       -2    1    3    3    0  502 -0.92421697982E+03 -0.15750248029E+03  0.11298375729E+04  0.14681679054E+04  0.25500000920E-02 0.  1.
</event>
<event>
 5   0  0.6702421E-05  0.2308760E+04  0.7818609E-02  0.8474475E-01
       -2   -1    0    0    0  501  0.00000000000E+00  0.00000000000E+00  0.12545262141E+04  0.12545262141E+04  0.25500000920E-02 0.  1.
        2   -1    0    0  501    0  0.00000000000E+00  0.00000000000E+00 -0.10622283149E+04  0.10622283149E+04  0.25500000920E-02 0. -1.
    10030    2    1    2    0    0  0.00000000000E+00  0.00000000000E+00  0.19229789919E+03  0.23167545290E+04  0.23087600711E+04 0.  0.
        4    1    3    3  502    0  0.96566046308E+03  0.62943857105E+03  0.15880399505E+03  0.11635778300E+04  0.12699999809E+01 0. -1.
       -4    1    3    3    0  502 -0.96566046308E+03 -0.62943857105E+03  0.33493904137E+02  0.11531766990E+04  0.12699999809E+01 0.  1.
</event>
<event>
 5   0  0.2982385E-05  0.2271487E+04  0.7818609E-02  0.8489249E-01
        1   -1    0    0  501    0  0.00000000000E+00  0.00000000000E+00  0.16026656823E+04  0.16026656823E+04  0.50400001928E-02 0.  1.
       -1   -1    0    0    0  501  0.00000000000E+00  0.00000000000E+00 -0.80485492592E+03  0.80485492594E+03  0.50400001928E-02 0. -1.
    10030    2    1    2    0    0  0.00000000000E+00  0.00000000000E+00  0.79781075634E+03  0.24075206082E+04  0.22714870627E+04 0.  0.
        4    1    3    3  502    0 -0.81082772271E+03 -0.58886938082E+03 -0.16761711217E+03  0.10160245336E+04  0.12699999809E+01 0. -1.
       -4    1    3    3    0  502  0.81082772271E+03  0.58886938082E+03  0.96542786851E+03  0.13914960747E+04  0.12699999809E+01 0.  1.
</event>
<event>
 5   0  0.6702421E-05  0.2328510E+04  0.7818609E-02  0.8466764E-01
        2   -1    0    0  501    0  0.00000000000E+00  0.00000000000E+00  0.90923282042E+03  0.90923282042E+03  0.25500000920E-02 0. -1.
       -2   -1    0    0    0  501  0.00000000000E+00  0.00000000000E+00 -0.14908055024E+04  0.14908055024E+04  0.25500000920E-02 0.  1.
    10030    2    1    2    0    0  0.00000000000E+00  0.00000000000E+00 -0.58157268198E+03  0.24000383228E+04  0.23285096449E+04 0.  0.
        4    1    3    3  502    0 -0.10017619685E+04 -0.68094401930E+02 -0.89823195510E+03  0.13472142173E+04  0.12699999809E+01 0.  1.
       -4    1    3    3    0  502  0.10017619685E+04  0.68094401930E+02  0.31665927312E+03  0.10528241056E+04  0.12699999809E+01 0. -1.
</event>
<event>
 5   0  0.6814789E-05  0.2313936E+04  0.7818609E-02  0.8472447E-01
       -2   -1    0    0    0  501  0.00000000000E+00  0.00000000000E+00  0.18245270274E+04  0.18245270274E+04  0.25500000920E-02 0. -1.
        2   -1    0    0  501    0  0.00000000000E+00  0.00000000000E+00 -0.73365578415E+03  0.73365578416E+03  0.25500000920E-02 0.  1.
    10030    2    1    2    0    0  0.00000000000E+00  0.00000000000E+00  0.10908712432E+04  0.25581828115E+04  0.23139358738E+04 0.  0.
        1    1    3    3  502    0  0.23813849184E+03  0.79209141166E+03 -0.34894113598E+03  0.89770744796E+03  0.50400001928E-02 0.  1.
       -1    1    3    3    0  502 -0.23813849184E+03 -0.79209141166E+03  0.14398123792E+04  0.16604753636E+04  0.50400001928E-02 0. -1.
</event>
<event>
 5   0  0.6676612E-05  0.2303622E+04  0.7818609E-02  0.8476494E-01
        2   -1    0    0  501    0  0.00000000000E+00  0.00000000000E+00  0.17328669306E+04  0.17328669306E+04  0.25500000920E-02 0.  1.
       -2   -1    0    0    0  501  0.00000000000E+00  0.00000000000E+00 -0.76559165355E+03  0.76559165355E+03  0.25500000920E-02 0. -1.
    10030    2    1    2    0    0  0.00000000000E+00  0.00000000000E+00  0.96727527708E+03  0.24984585842E+04  0.23036218950E+04 0.  0.
        2    1    3    3  502    0 -0.60502579331E+03 -0.63711525114E+03 -0.32413405945E+03  0.93650143743E+03  0.25500000920E-02 0. -1.
       -2    1    3    3    0  502  0.60502579331E+03  0.63711525114E+03  0.12914093365E+04  0.15619571468E+04  0.25500000920E-02 0.  1.
</event>
<event>
 5   0  0.3118614E-05  0.2215905E+04  0.7818609E-02  0.8511837E-01
       -1   -1    0    0    0  501  0.00000000000E+00  0.00000000000E+00  0.73112173119E+03  0.73112173120E+03  0.50400001928E-02 0. -1.
        1   -1    0    0  501    0  0.00000000000E+00  0.00000000000E+00 -0.16790068961E+04  0.16790068962E+04  0.50400001928E-02 0.  1.
    10030    2    1    2    0    0  0.00000000000E+00  0.00000000000E+00 -0.94788516496E+03  0.24101286274E+04  0.22159047169E+04 0.  0.
        3    1    3    3  502    0  0.71355949516E+02  0.55026004952E+03 -0.15169986600E+04  0.16152902953E+04  0.10100000352E+00 0.  1.
       -3    1    3    3    0  502 -0.71355949516E+02 -0.55026004952E+03  0.56911349502E+03  0.79483833202E+03  0.10100000352E+00 0. -1.
</event>
<event>
 5   0  0.2962279E-05  0.2191148E+04  0.7818609E-02  0.8522122E-01
       -1   -1    0    0    0  501  0.00000000000E+00  0.00000000000E+00  0.47655537829E+03  0.47655537832E+03  0.50400001928E-02 0.  1.
        1   -1    0    0  501    0  0.00000000000E+00  0.00000000000E+00 -0.25186618545E+04  0.25186618545E+04  0.50400001928E-02 0. -1.
    10030    2    1    2    0    0  0.00000000000E+00  0.00000000000E+00 -0.20421064762E+04  0.29952172328E+04  0.21911475102E+04 0.  0.
        1    1    3    3  502    0  0.66511877151E+03  0.86459756909E+03 -0.88185160411E+03  0.14027024590E+04  0.50400001928E-02 0.  1.
       -1    1    3    3    0  502 -0.66511877151E+03 -0.86459756909E+03 -0.11602548721E+04  0.15925147739E+04  0.50400001928E-02 0. -1.
</event>
<event>
 5   0  0.3006265E-05  0.2308852E+04  0.7818609E-02  0.8474439E-01
       -1   -1    0    0    0  501  0.00000000000E+00  0.00000000000E+00  0.93408796927E+03  0.93408796928E+03  0.50400001928E-02 0.  1.
        1   -1    0    0  501    0  0.00000000000E+00  0.00000000000E+00 -0.14267391728E+04  0.14267391728E+04  0.50400001928E-02 0. -1.
    10030    2    1    2    0    0  0.00000000000E+00  0.00000000000E+00 -0.49265120351E+03  0.23608271421E+04  0.23088524393E+04 0.  0.
        2    1    3    3  502    0 -0.81386725425E+03 -0.49606612970E+03  0.41967250068E+03  0.10414348373E+04  0.25500000920E-02 0.  1.
       -2    1    3    3    0  502  0.81386725425E+03  0.49606612970E+03 -0.91232370419E+03  0.13193923047E+04  0.25500000920E-02 0. -1.
</event>
<event>
 5   0  0.6676612E-05  0.2284092E+04  0.7818609E-02  0.8484220E-01
       -2   -1    0    0    0  501  0.00000000000E+00  0.00000000000E+00  0.64210733917E+03  0.64210733918E+03  0.25500000920E-02 0. -1.
        2   -1    0    0  501    0  0.00000000000E+00  0.00000000000E+00 -0.20312315319E+04  0.20312315319E+04  0.25500000920E-02 0.  1.
    10030    2    1    2    0    0  0.00000000000E+00  0.00000000000E+00 -0.13891241927E+04  0.26733388711E+04  0.22840916568E+04 0.  0.
        2    1    3    3  502    0 -0.90744833117E+03 -0.62141275831E+03 -0.33447607288E+03  0.11495610176E+04  0.25500000920E-02 0. -1.
       -2    1    3    3    0  502  0.90744833117E+03  0.62141275831E+03 -0.10546481198E+04  0.15237778534E+04  0.25500000920E-02 0.  1.
</event>
<event>
 5   0  0.6495405E-05  0.2296967E+04  0.7818609E-02  0.8479118E-01
        2   -1    0    0  501    0  0.00000000000E+00  0.00000000000E+00  0.78273593015E+03  0.78273593016E+03  0.25500000920E-02 0.  1.
       -2   -1    0    0    0  501  0.00000000000E+00  0.00000000000E+00 -0.16851328338E+04  0.16851328338E+04  0.25500000920E-02 0. -1.
    10030    2    1    2    0    0  0.00000000000E+00  0.00000000000E+00 -0.90239690362E+03  0.24678687639E+04  0.22969667095E+04 0.  0.
        5    1    3    3  502    0 -0.85841749679E+03 -0.51716338047E+03 -0.10538739709E+04  0.14543077382E+04  0.46999998093E+01 0. -1.
       -5    1    3    3    0  502  0.85841749679E+03  0.51716338047E+03  0.15147706731E+03  0.10135610257E+04  0.46999998093E+01 0.  1.
</event>
<event>
 5   0  0.2962279E-05  0.2260744E+04  0.7818609E-02  0.8493562E-01
       -1   -1    0    0    0  501  0.00000000000E+00  0.00000000000E+00  0.14714510430E+04  0.14714510430E+04  0.50400001928E-02 0.  1.
        1   -1    0    0  501    0  0.00000000000E+00  0.00000000000E+00 -0.86835394517E+03  0.86835394518E+03  0.50400001928E-02 0. -1.
    10030    2    1    2    0    0  0.00000000000E+00  0.00000000000E+00  0.60309709785E+03  0.23398049882E+04  0.22607435223E+04 0.  0.
        1    1    3    3  502    0  0.72713766375E+03  0.79279874433E+03  0.66079142686E+03  0.12624992439E+04  0.50400001928E-02 0.  1.
       -1    1    3    3    0  502 -0.72713766375E+03 -0.79279874433E+03 -0.57694329009E+02  0.10773057443E+04  0.50400001928E-02 0. -1.
</event>
<event>
 5   0  0.6814789E-05  0.2193877E+04  0.7818609E-02  0.8520981E-01
       -2   -1    0    0    0  501  0.00000000000E+00  0.00000000000E+00  0.56035436231E+03  0.56035436232E+03  0.25500000920E-02 0.  1.
        2   -1    0    0  501    0  0.00000000000E+00  0.00000000000E+00 -0.21473443514E+04  0.21473443514E+04  0.25500000920E-02 0. -1.
    10030    2    1    2    0    0  0.00000000000E+00  0.00000000000E+00 -0.15869899891E+04  0.27076987137E+04  0.21938767283E+04 0.  0.
        1    1    3    3  502    0  0.88101484033E+03  0.49064649207E+02  0.10806094153E+02  0.88244617987E+03  0.50400001928E-02 0.  1.
       -1    1    3    3    0  502 -0.88101484033E+03 -0.49064649207E+02 -0.15977960832E+04  0.18252525338E+04  0.50400001928E-02 0. -1.
</event>
<event>
 5   0  0.2962279E-05  0.2301153E+04  0.7818609E-02  0.8477467E-01
        1   -1    0    0  501    0  0.00000000000E+00  0.00000000000E+00  0.99799626848E+03  0.99799626850E+03  0.50400001928E-02 0. -1.
       -1   -1    0    0    0  501  0.00000000000E+00  0.00000000000E+00 -0.13264839664E+04  0.13264839664E+04  0.50400001928E-02 0.  1.
    10030    2    1    2    0    0  0.00000000000E+00  0.00000000000E+00 -0.32848769789E+03  0.23244802349E+04  0.23011527969E+04 0.  0.
        1    1    3    3  502    0  0.64621633579E+03 -0.29333169517E+03  0.75057866666E+03  0.10329604886E+04  0.50400001928E-02 0. -1.
       -1    1    3    3    0  502 -0.64621633579E+03  0.29333169517E+03 -0.10790663646E+04  0.12915197463E+04  0.50400001928E-02 0.  1.
</event>
<event>
 5   0  0.6495405E-05  0.2379488E+04  0.7818609E-02  0.8447223E-01
        2   -1    0    0  501    0  0.00000000000E+00  0.00000000000E+00  0.26470761359E+04  0.26470761359E+04  0.25500000920E-02 0.  1.
       -2   -1    0    0    0  501  0.00000000000E+00  0.00000000000E+00 -0.53473729488E+03  0.53473729488E+03  0.25500000920E-02 0. -1.
    10030    2    1    2    0    0  0.00000000000E+00  0.00000000000E+00  0.21123388410E+04  0.31818134308E+04  0.23794876190E+04 0.  0.
        5    1    3    3  502    0 -0.67135383221E+03 -0.75482995205E+03  0.18965597047E+04  0.21488241036E+04  0.46999998093E+01 0.  1.
       -5    1    3    3    0  502  0.67135383221E+03  0.75482995205E+03  0.21577913634E+03  0.10329893272E+04  0.46999998093E+01 0. -1.
</event>
<event>
 5   0  0.6702421E-05  0.2264035E+04  0.7818609E-02  0.8492238E-01
        2   -1    0    0  501    0  0.00000000000E+00  0.00000000000E+00  0.90251796304E+03  0.90251796304E+03  0.25500000920E-02 0. -1.
       -2   -1    0    0    0  501  0.00000000000E+00  0.00000000000E+00 -0.14198764351E+04  0.14198764351E+04  0.25500000920E-02 0.  1.
    10030    2    1    2    0    0  0.00000000000E+00  0.00000000000E+00 -0.51735847205E+03  0.23223943981E+04  0.22640353248E+04 0.  0.
        4    1    3    3  502    0  0.73037344851E+03 -0.85641761320E+03 -0.13487912621E+03  0.11336183194E+04  0.12699999809E+01 0. -1.
       -4    1    3    3    0  502 -0.73037344851E+03  0.85641761320E+03 -0.38247934584E+03  0.11887760787E+04  0.12699999809E+01 0.  1.
</event>
<event>
 5   0  0.6495405E-05  0.2297376E+04  0.7818609E-02  0.8478957E-01
       -2   -1    0    0    0  501  0.00000000000E+00  0.00000000000E+00  0.79156466418E+03  0.79156466418E+03  0.25500000920E-02 0.  1.
        2   -1    0    0  501    0  0.00000000000E+00  0.00000000000E+00 -0.16669308383E+04  0.16669308383E+04  0.25500000920E-02 0. -1.
    10030    2    1    2    0    0  0.00000000000E+00  0.00000000000E+00 -0.87536617410E+03  0.24584955025E+04  0.22973755019E+04 0.  0.
        5    1    3    3  502    0 -0.53510388761E+03 -0.81431184576E+03  0.21327183624E+03  0.99747025961E+03  0.46999998093E+01 0.  1.
       -5    1    3    3    0  502  0.53510388761E+03  0.81431184576E+03 -0.10886380103E+04  0.14610252428E+04  0.46999998093E+01 0. -1.
</event>
<event>
 5   0  0.6495405E-05  0.2402186E+04  0.7818609E-02  0.8438686E-01
       -2   -1    0    0    0  501  0.00000000000E+00  0.00000000000E+00  0.91774833131E+03  0.91774833131E+03  0.25500000920E-02 0.  1.
        2   -1    0    0  501    0  0.00000000000E+00  0.00000000000E+00 -0.15719166716E+04  0.15719166716E+04  0.25500000920E-02 0. -1.
    10030    2    1    2    0    0  0.00000000000E+00  0.00000000000E+00 -0.65416834026E+03  0.24896650029E+04  0.24021855901E+04 0.  0.
        5    1    3    3  502    0 -0.78810492740E+02  0.23452318453E+01 -0.15692220916E+04  0.15712086611E+04  0.46999998093E+01 0. -1.
       -5    1    3    3    0  502  0.78810492740E+02 -0.23452318453E+01  0.91505375136E+03  0.91845634178E+03  0.46999998093E+01 0.  1.
</event>
<event>
 5   0  0.2342500E-05  0.2308117E+04  0.7818609E-02  0.8474728E-01
       -4   -1    0    0    0  501  0.00000000000E+00  0.00000000000E+00  0.12592675839E+04  0.12592682243E+04  0.12699999809E+01 0.  1.
        4   -1    0    0  501    0  0.00000000000E+00  0.00000000000E+00 -0.10576378783E+04  0.10576386408E+04  0.12699999809E+01 0. -1.
    10030    2    1    2    0    0  0.00000000000E+00  0.00000000000E+00  0.20162970563E+03  0.23169068651E+04  0.23081167395E+04 0.  0.
        4    1    3    3  502    0 -0.10257693533E+04 -0.47962214146E+03 -0.12276403570E+03  0.11389963943E+04  0.12699999809E+01 0. -1.
       -4    1    3    3    0  502  0.10257693533E+04  0.47962214146E+03  0.32439374133E+03  0.11779104708E+04  0.12699999809E+01 0.  1.
</event>
<event>
 5   0  0.6814789E-05  0.2309865E+04  0.7818609E-02  0.8474041E-01
        2   -1    0    0  501    0  0.00000000000E+00  0.00000000000E+00  0.29499835171E+04  0.29499835171E+04  0.25500000920E-02 0.  1.
       -2   -1    0    0    0  501  0.00000000000E+00  0.00000000000E+00 -0.45216167893E+03  0.45216167893E+03  0.25500000920E-02 0. -1.
    10030    2    1    2    0    0  0.00000000000E+00  0.00000000000E+00  0.24978218382E+04  0.34021451961E+04  0.23098653640E+04 0.  0.
        1    1    3    3  502    0 -0.28415805786E+03 -0.55276755362E+03 -0.18483510085E+03  0.64843024661E+03  0.50400001928E-02 0. -1.
       -1    1    3    3    0  502  0.28415805786E+03  0.55276755362E+03  0.26826569391E+04  0.27537149495E+04  0.50400001928E-02 0.  1.
</event>
<event>
 5   0  0.3006265E-05  0.2345206E+04  0.7818609E-02  0.8460307E-01
       -1   -1    0    0    0  501  0.00000000000E+00  0.00000000000E+00  0.17677109081E+04  0.17677109081E+04  0.50400001928E-02 0. -1.
        1   -1    0    0  501    0  0.00000000000E+00  0.00000000000E+00 -0.77784072794E+03  0.77784072796E+03  0.50400001928E-02 0.  1.
    10030    2    1    2    0    0  0.00000000000E+00  0.00000000000E+00  0.98987018016E+03  0.25455516361E+04  0.23452057817E+04 0.  0.
        2    1    3    3  502    0  0.10553958523E+04  0.50006462589E+03  0.60915028532E+03  0.13171898516E+04  0.25500000920E-02 0.  1.
       -2    1    3    3    0  502 -0.10553958523E+04 -0.50006462589E+03  0.38071989484E+03  0.12283617844E+04  0.25500000920E-02 0. -1.
</event>
<event>
 5   0  0.6702421E-05  0.2182906E+04  0.7818609E-02  0.8525577E-01
        2   -1    0    0  501    0  0.00000000000E+00  0.00000000000E+00  0.74286593798E+03  0.74286593799E+03  0.25500000920E-02 0. -1.
       -2   -1    0    0    0  501  0.00000000000E+00  0.00000000000E+00 -0.16036134455E+04  0.16036134455E+04  0.25500000920E-02 0.  1.
    10030    2    1    2    0    0  0.00000000000E+00  0.00000000000E+00 -0.86074750753E+03  0.23464793835E+04  0.21829061422E+04 0.  0.
        4    1    3    3  502    0  0.26575334989E+03  0.80866366558E+03 -0.11647245506E+04  0.14426179878E+04  0.12699999809E+01 0.  1.
       -4    1    3    3    0  502 -0.26575334989E+03 -0.80866366558E+03  0.30397704310E+03  0.90386139570E+03  0.12699999809E+01 0. -1.
</event>
<event>
 5   0  0.3118614E-05  0.2319324E+04  0.7818609E-02  0.8470341E-01
        1   -1    0    0  501    0  0.00000000000E+00  0.00000000000E+00  0.86560219424E+03  0.86560219425E+03  0.50400001928E-02 0. -1.
       -1   -1    0    0    0  501  0.00000000000E+00  0.00000000000E+00 -0.15536183925E+04  0.15536183925E+04  0.50400001928E-02 0.  1.
    10030    2    1    2    0    0  0.00000000000E+00  0.00000000000E+00 -0.68801619824E+03  0.24192205867E+04  0.23193235993E+04 0.  0.
        3    1    3    3  502    0  0.33652590951E+03 -0.74786845597E+03 -0.11992368537E+04  0.14528337677E+04  0.10100000352E+00 0.  1.
       -3    1    3    3    0  502 -0.33652590951E+03  0.74786845597E+03  0.51122065545E+03  0.96638681901E+03  0.10100000352E+00 0. -1.
</event>
<event>
 5   0  0.6468758E-05  0.2291792E+04  0.7818609E-02  0.8481164E-01
       -2   -1    0    0    0  501  0.00000000000E+00  0.00000000000E+00  0.65423049603E+03  0.65423049604E+03  0.25500000920E-02 0. -1.
        2   -1    0    0  501    0  0.00000000000E+00  0.00000000000E+00 -0.20070566442E+04  0.20070566442E+04  0.25500000920E-02 0.  1.
    10030    2    1    2    0    0  0.00000000000E+00  0.00000000000E+00 -0.13528261481E+04  0.26612871402E+04  0.22917920184E+04 0.  0.
        3    1    3    3  502    0 -0.29042929916E+03 -0.11026719154E+04 -0.54481429783E+03  0.12637472691E+04  0.10100000352E+00 0. -1.
       -3    1    3    3    0  502  0.29042929916E+03  0.11026719154E+04 -0.80801185029E+03  0.13975398711E+04  0.10100000352E+00 0.  1.
</event>
<event>
 5   0  0.2982385E-05  0.2299137E+04  0.7818609E-02  0.8478261E-01
        1   -1    0    0  501    0  0.00000000000E+00  0.00000000000E+00  0.10191513375E+04  0.10191513375E+04  0.50400001928E-02 0. -1.
       -1   -1    0    0    0  501  0.00000000000E+00  0.00000000000E+00 -0.12966749355E+04  0.12966749355E+04  0.50400001928E-02 0.  1.
    10030    2    1    2    0    0  0.00000000000E+00  0.00000000000E+00 -0.27752359800E+03  0.23158262730E+04  0.22991372250E+04 0.  0.
        4    1    3    3  502    0 -0.38551530088E+03  0.32051592158E+03  0.90322975450E+03  0.10330431286E+04  0.12699999809E+01 0. -1.
       -4    1    3    3    0  502  0.38551530088E+03 -0.32051592158E+03 -0.11807533525E+04  0.12827831444E+04  0.12699999809E+01 0.  1.
</event>
<event>
 5   0  0.6814789E-05  0.2328727E+04  0.7818609E-02  0.8466680E-01
       -2   -1    0    0    0  501  0.00000000000E+00  0.00000000000E+00  0.54519408893E+03  0.54519408894E+03  0.25500000920E-02 0.  1.
        2   -1    0    0  501    0  0.00000000000E+00  0.00000000000E+00 -0.24867148190E+04  0.24867148190E+04  0.25500000920E-02 0. -1.
    10030    2    1    2    0    0  0.00000000000E+00  0.00000000000E+00 -0.19415207301E+04  0.30319089080E+04  0.23287268798E+04 0.  0.
        1    1    3    3  502    0  0.53979380434E+03 -0.15504496366E+03  0.35719141121E+03  0.66558395130E+03  0.50400001928E-02 0.  1.
       -1    1    3    3    0  502 -0.53979380434E+03  0.15504496366E+03 -0.22987121413E+04  0.23663249567E+04  0.50400001928E-02 0. -1.
</event>
<event>
 5   0  0.2944089E-05  0.2281951E+04  0.7818609E-02  0.8485072E-01
       -1   -1    0    0    0  501  0.00000000000E+00  0.00000000000E+00  0.85292086116E+03  0.85292086118E+03  0.50400001928E-02 0. -1.
        1   -1    0    0  501    0  0.00000000000E+00  0.00000000000E+00 -0.15263136141E+04  0.15263136141E+04  0.50400001928E-02 0.  1.
    10030    2    1    2    0    0  0.00000000000E+00  0.00000000000E+00 -0.67339275296E+03  0.23792344753E+04  0.22819506762E+04 0.  0.
        5    1    3    3  502    0  0.73516327984E+03  0.24672237667E+03 -0.12093148714E+04  0.14365937239E+04  0.46999998093E+01 0.  1.
       -5    1    3    3    0  502 -0.73516327984E+03 -0.24672237667E+03  0.53592211848E+03  0.94264075143E+03  0.46999998093E+01 0. -1.
</event>
<event>
 5   0  0.2982385E-05  0.2276486E+04  0.7818609E-02  0.8487250E-01
        1   -1    0    0  501    0  0.00000000000E+00  0.00000000000E+00  0.88987170074E+03  0.88987170076E+03  0.50400001928E-02 0. -1.
       -1   -1    0    0    0  501  0.00000000000E+00  0.00000000000E+00 -0.14559375210E+04  0.14559375210E+04  0.50400001928E-02 0.  1.
    10030    2    1    2    0    0  0.00000000000E+00  0.00000000000E+00 -0.56606582021E+03  0.23458092217E+04  0.22764864137E+04 0.  0.
        4    1    3    3  502    0  0.28339451621E+03 -0.85189477888E+03 -0.10040242789E+04  0.13468866068E+04  0.12699999809E+01 0.  1.
       -4    1    3    3    0  502 -0.28339451621E+03  0.85189477888E+03  0.43795845871E+03  0.99892261489E+03  0.12699999809E+01 0. -1.
</event>
<event>
 5   0  0.6468758E-05  0.2396287E+04  0.7818609E-02  0.8440895E-01
        2   -1    0    0  501    0  0.00000000000E+00  0.00000000000E+00  0.18638275218E+04  0.18638275218E+04  0.25500000920E-02 0. -1.
       -2   -1    0    0    0  501  0.00000000000E+00  0.00000000000E+00 -0.77021466207E+03  0.77021466207E+03  0.25500000920E-02 0.  1.
    10030    2    1    2    0    0  0.00000000000E+00  0.00000000000E+00  0.10936128597E+04  0.26340421838E+04  0.23962865311E+04 0.  0.
        3    1    3    3  502    0 -0.83159011584E+03  0.35847452858E+03 -0.31557306033E+03  0.95897469988E+03  0.10100000352E+00 0.  1.
       -3    1    3    3    0  502  0.83159011584E+03 -0.35847452858E+03  0.14091859200E+04  0.16750674840E+04  0.10100000352E+00 0. -1.
</event>
<event>
 5   0  0.2944089E-05  0.2283233E+04  0.7818609E-02  0.8484562E-01
       -1   -1    0    0    0  501  0.00000000000E+00  0.00000000000E+00  0.72819947994E+03  0.72819947996E+03  0.50400001928E-02 0. -1.
        1   -1    0    0  501    0  0.00000000000E+00  0.00000000000E+00 -0.17897407761E+04  0.17897407761E+04  0.50400001928E-02 0.  1.
    10030    2    1    2    0    0  0.00000000000E+00  0.00000000000E+00 -0.10615412962E+04  0.25179402561E+04  0.22832330608E+04 0.  0.
        5    1    3    3  502    0  0.81478465496E+03  0.35680540515E+03  0.25838917472E+03  0.92626734084E+03  0.46999998093E+01 0. -1.
       -5    1    3    3    0  502 -0.81478465496E+03 -0.35680540515E+03 -0.13199304709E+04  0.15916729152E+04  0.46999998093E+01 0.  1.
</event>
<event>
 5   0  0.3118614E-05  0.2369446E+04  0.7818609E-02  0.8451032E-01
       -1   -1    0    0    0  501  0.00000000000E+00  0.00000000000E+00  0.11219676501E+04  0.11219676501E+04  0.50400001928E-02 0. -1.
        1   -1    0    0  501    0  0.00000000000E+00  0.00000000000E+00 -0.12509888179E+04  0.12509888179E+04  0.50400001928E-02 0.  1.
    10030    2    1    2    0    0  0.00000000000E+00  0.00000000000E+00 -0.12902116775E+03  0.23729564680E+04  0.23694463356E+04 0.  0.
        3    1    3    3  502    0  0.10148879636E+04 -0.52504224745E+03  0.24884594734E+03  0.11694405740E+04  0.10100000352E+00 0. -1.
       -3    1    3    3    0  502 -0.10148879636E+04  0.52504224745E+03 -0.37786711509E+03  0.12035158940E+04  0.10100000352E+00 0.  1.
</event>
<event>
 5   0  0.3006265E-05  0.2290429E+04  0.7818609E-02  0.8481704E-01
        1   -1    0    0  501    0  0.00000000000E+00  0.00000000000E+00  0.62403904157E+03  0.62403904159E+03  0.50400001928E-02 0.  1.
       -1   -1    0    0    0  501  0.00000000000E+00  0.00000000000E+00 -0.21016575686E+04  0.21016575686E+04  0.50400001928E-02 0. -1.
    10030    2    1    2    0    0  0.00000000000E+00  0.00000000000E+00 -0.14776185270E+04  0.27256966101E+04  0.22904291081E+04 0.  0.
        2    1    3    3  502    0  0.10800551034E+04  0.20092628990E+03 -0.35388045296E+03  0.11541757992E+04  0.25500000920E-02 0.  1.
       -2    1    3    3    0  502 -0.10800551034E+04 -0.20092628990E+03 -0.11237380740E+04  0.15715208110E+04  0.25500000920E-02 0. -1.
</event>
<event>
 5   0  0.6676612E-05  0.2268510E+04  0.7818609E-02  0.8490442E-01
       -2   -1    0    0    0  501  0.00000000000E+00  0.00000000000E+00  0.83518797234E+03  0.83518797235E+03  0.25500000920E-02 0.  1.
        2   -1    0    0  501    0  0.00000000000E+00  0.00000000000E+00 -0.15404132077E+04  0.15404132077E+04  0.25500000920E-02 0. -1.
    10030    2    1    2    0    0  0.00000000000E+00  0.00000000000E+00 -0.70522523538E+03  0.23756011801E+04  0.22685101574E+04 0.  0.
        2    1    3    3  502    0 -0.77058868345E+03  0.35084512713E+03 -0.11429841233E+04  0.14224316955E+04  0.25500000920E-02 0. -1.
       -2    1    3    3    0  502  0.77058868345E+03 -0.35084512713E+03  0.43775888793E+03  0.95316948454E+03  0.25500000920E-02 0.  1.
</event>
<event>
 5   0  0.3006265E-05  0.2302586E+04  0.7818609E-02  0.8476902E-01
       -1   -1    0    0    0  501  0.00000000000E+00  0.00000000000E+00  0.95197796245E+03  0.95197796247E+03  0.50400001928E-02 0. -1.
        1   -1    0    0  501    0  0.00000000000E+00  0.00000000000E+00 -0.13923386565E+04  0.13923386565E+04  0.50400001928E-02 0.  1.
    10030    2    1    2    0    0  0.00000000000E+00  0.00000000000E+00 -0.44036069404E+03  0.23443166190E+04  0.23025861263E+04 0.  0.
        2    1    3    3  502    0 -0.46758026021E+03  0.42159323045E+03  0.76118890367E+03  0.98781612599E+03  0.25500000920E-02 0. -1.
       -2    1    3    3    0  502  0.46758026021E+03 -0.42159323045E+03 -0.12015495977E+04  0.13565004930E+04  0.25500000920E-02 0.  1.
</event>
<event>
 5   0  0.3006265E-05  0.2273715E+04  0.7818609E-02  0.8488358E-01
       -1   -1    0    0    0  501  0.00000000000E+00  0.00000000000E+00  0.70683882019E+03  0.70683882021E+03  0.50400001928E-02 0.  1.
        1   -1    0    0  501    0  0.00000000000E+00  0.00000000000E+00 -0.18284858484E+04  0.18284858484E+04  0.50400001928E-02 0. -1.
    10030    2    1    2    0    0  0.00000000000E+00  0.00000000000E+00 -0.11216470282E+04  0.25353246686E+04  0.22737148281E+04 0.  0.
        2    1    3    3  502    0  0.36016671570E+03  0.54473170902E+03  0.47683522643E+03  0.80859416958E+03  0.25500000920E-02 0.  1.
       -2    1    3    3    0  502 -0.36016671570E+03 -0.54473170902E+03 -0.15984822546E+04  0.17267304990E+04  0.25500000920E-02 0. -1.
</event>
<event>
 5   0  0.3118614E-05  0.2290226E+04  0.7818609E-02  0.8481785E-01
        1   -1    0    0  501    0  0.00000000000E+00  0.00000000000E+00  0.13031138510E+04  0.13031138510E+04  0.50400001928E-02 0.  1.
       -1   -1    0    0    0  501  0.00000000000E+00  0.00000000000E+00 -0.10062697561E+04  0.10062697561E+04  0.50400001928E-02 0. -1.
    10030    2    1    2    0    0  0.00000000000E+00  0.00000000000E+00  0.29684409485E+03  0.23093836071E+04  0.22902262395E+04 0.  0.
        3    1    3    3  502    0 -0.11113295512E+04  0.84360879689E+01 -0.12985651881E+03  0.11189223676E+04  0.10100000352E+00 0. -1.
       -3    1    3    3    0  502  0.11113295512E+04 -0.84360879689E+01  0.42670061366E+03  0.11904612396E+04  0.10100000352E+00 0.  1.
</event>
<event>
 5   0  0.6814789E-05  0.2302978E+04  0.7818609E-02  0.8476748E-01
       -2   -1    0    0    0  501  0.00000000000E+00  0.00000000000E+00  0.72316141222E+03  0.72316141222E+03  0.25500000920E-02 0.  1.
        2   -1    0    0  501    0  0.00000000000E+00  0.00000000000E+00 -0.18335143188E+04  0.18335143188E+04  0.25500000920E-02 0. -1.
    10030    2    1    2    0    0  0.00000000000E+00  0.00000000000E+00 -0.11103529066E+04  0.25566757311E+04  0.23029779019E+04 0.  0.
        1    1    3    3  502    0  0.10103553212E+04  0.24734847567E+02 -0.11677771273E+04  0.15443876155E+04  0.50400001928E-02 0. -1.
       -1    1    3    3    0  502 -0.10103553212E+04 -0.24734847567E+02  0.57424220702E+02  0.10122881156E+04  0.50400001928E-02 0.  1.
</event>
<event>
 5   0  0.6702421E-05  0.2304636E+04  0.7818609E-02  0.8476095E-01
       -2   -1    0    0    0  501  0.00000000000E+00  0.00000000000E+00  0.10512511799E+04  0.10512511799E+04  0.25500000920E-02 0. -1.
        2   -1    0    0  501    0  0.00000000000E+00  0.00000000000E+00 -0.12631012647E+04  0.12631012647E+04  0.25500000920E-02 0.  1.
    10030    2    1    2    0    0  0.00000000000E+00  0.00000000000E+00 -0.21185008475E+03  0.23143524446E+04  0.23046359321E+04 0.  0.
        4    1    3    3  502    0 -0.71751912401E+03  0.42700573168E+03 -0.90341898216E+03  0.12301768403E+04  0.12699999809E+01 0.  1.
       -4    1    3    3    0  502  0.71751912401E+03 -0.42700573168E+03  0.69156889741E+03  0.10841756043E+04  0.12699999809E+01 0. -1.
</event>
<event>
 5   0  0.2962279E-05  0.2313082E+04  0.7818609E-02  0.8472781E-01
        1   -1    0    0  501    0  0.00000000000E+00  0.00000000000E+00  0.14732460214E+04  0.14732460214E+04  0.50400001928E-02 0.  1.
       -1   -1    0    0    0  501  0.00000000000E+00  0.00000000000E+00 -0.90791840699E+03  0.90791840700E+03  0.50400001928E-02 0. -1.
    10030    2    1    2    0    0  0.00000000000E+00  0.00000000000E+00  0.56532761440E+03  0.23811644284E+04  0.23130820832E+04 0.  0.
        1    1    3    3  502    0  0.44466012192E+03 -0.69089312938E+03 -0.55525419724E+03  0.99164669305E+03  0.50400001928E-02 0. -1.
       -1    1    3    3    0  502 -0.44466012192E+03  0.69089312938E+03  0.11205818116E+04  0.13895177354E+04  0.50400001928E-02 0.  1.
</event>
<event>
 5   0  0.6814789E-05  0.2415804E+04  0.7818609E-02  0.8433611E-01
       -2   -1    0    0    0  501  0.00000000000E+00  0.00000000000E+00  0.16444947523E+04  0.16444947523E+04  0.25500000920E-02 0.  1.
        2   -1    0    0  501    0  0.00000000000E+00  0.00000000000E+00 -0.88721884788E+03  0.88721884789E+03  0.25500000920E-02 0. -1.
    10030    2    1    2    0    0  0.00000000000E+00  0.00000000000E+00  0.75727590441E+03  0.25317136002E+04  0.24158035843E+04 0.  0.
        1    1    3    3  502    0  0.36890542108E+03 -0.19755369381E+03 -0.80882458538E+03  0.91066782175E+03  0.50400001928E-02 0. -1.
       -1    1    3    3    0  502 -0.36890542108E+03  0.19755369381E+03  0.15661004898E+04  0.16210457784E+04  0.50400001928E-02 0.  1.
</event>
<event>
 5   0  0.6702421E-05  0.2199005E+04  0.7818609E-02  0.8518842E-01
       -2   -1    0    0    0  501  0.00000000000E+00  0.00000000000E+00  0.61990813638E+03  0.61990813639E+03  0.25500000920E-02 0.  1.
        2   -1    0    0  501    0  0.00000000000E+00  0.00000000000E+00 -0.19501371381E+04  0.19501371381E+04  0.25500000920E-02 0. -1.
    10030    2    1    2    0    0  0.00000000000E+00  0.00000000000E+00 -0.13302290018E+04  0.25700452745E+04  0.21990051196E+04 0.  0.
        4    1    3    3  502    0 -0.13829306201E+03  0.57539095921E+03 -0.17481343416E+04  0.18455825682E+04  0.12699999809E+01 0. -1.
       -4    1    3    3    0  502  0.13829306201E+03 -0.57539095921E+03  0.41790533980E+03  0.72446270634E+03  0.12699999809E+01 0.  1.
</event>
<event>
 5   0  0.6495405E-05  0.2303048E+04  0.7818609E-02  0.8476720E-01
       -2   -1    0    0    0  501  0.00000000000E+00  0.00000000000E+00  0.68016933399E+03  0.68016933400E+03  0.25500000920E-02 0. -1.
        2   -1    0    0  501    0  0.00000000000E+00  0.00000000000E+00 -0.19495249308E+04  0.19495249308E+04  0.25500000920E-02 0.  1.
    10030    2    1    2    0    0  0.00000000000E+00  0.00000000000E+00 -0.12693555968E+04  0.26296942648E+04  0.23030476103E+04 0.  0.
        5    1    3    3  502    0  0.88488374361E+03 -0.36740808503E+03 -0.13640012961E+04  0.16668921880E+04  0.46999998093E+01 0.  1.
       -5    1    3    3    0  502 -0.88488374361E+03  0.36740808503E+03  0.94645699321E+02  0.96280207678E+03  0.46999998093E+01 0. -1.
</event>
<event>
 5   0  0.6814789E-05  0.2267878E+04  0.7818609E-02  0.8490695E-01
       -2   -1    0    0    0  501  0.00000000000E+00  0.00000000000E+00  0.64148057848E+03  0.64148057848E+03  0.25500000920E-02 0. -1.
        2   -1    0    0  501    0  0.00000000000E+00  0.00000000000E+00 -0.20044526052E+04  0.20044526052E+04  0.25500000920E-02 0.  1.
    10030    2    1    2    0    0  0.00000000000E+00  0.00000000000E+00 -0.13629720267E+04  0.26459331837E+04  0.22678777892E+04 0.  0.
        1    1    3    3  502    0 -0.22832575662E+03  0.87494894186E+03  0.11678678100E+03  0.91176063429E+03  0.50400001928E-02 0. -1.
       -1    1    3    3    0  502  0.22832575662E+03 -0.87494894186E+03 -0.14797588077E+04  0.17341725494E+04  0.50400001928E-02 0.  1.
</event>
<event>
 5   0  0.6495405E-05  0.2295820E+04  0.7818609E-02  0.8479571E-01
        2   -1    0    0  501    0  0.00000000000E+00  0.00000000000E+00  0.17256660547E+04  0.17256660547E+04  0.25500000920E-02 0.  1.
       -2   -1    0    0    0  501  0.00000000000E+00  0.00000000000E+00 -0.76358776181E+03  0.76358776182E+03  0.25500000920E-02 0. -1.
    10030    2    1    2    0    0  0.00000000000E+00  0.00000000000E+00  0.96207829289E+03  0.24892538165E+04  0.22958200978E+04 0.  0.
        5    1    3    3  502    0 -0.76969753787E+03 -0.72476010180E+03  0.96588882452E+03  0.14320177430E+04  0.46999998093E+01 0.  1.
       -5    1    3    3    0  502  0.76969753787E+03  0.72476010180E+03 -0.38105316308E+01  0.10572360735E+04  0.46999998093E+01 0. -1.
</event>
<event>
 5   0  0.6814789E-05  0.2250748E+04  0.7818609E-02  0.8497598E-01
        2   -1    0    0  501    0  0.00000000000E+00  0.00000000000E+00  0.95419787178E+03  0.95419787178E+03  0.25500000920E-02 0. -1.
       -2   -1    0    0    0  501  0.00000000000E+00  0.00000000000E+00 -0.13272574423E+04  0.13272574423E+04  0.25500000920E-02 0.  1.
    10030    2    1    2    0    0  0.00000000000E+00  0.00000000000E+00 -0.37305957052E+03  0.22814553141E+04  0.22507476329E+04 0.  0.
        1    1    3    3  502    0  0.10457021945E+04 -0.41488874504E+03 -0.21591628847E+03  0.11455328865E+04  0.50400001928E-02 0.  1.
       -1    1    3    3    0  502 -0.10457021945E+04  0.41488874504E+03 -0.15714328205E+03  0.11359224276E+04  0.50400001928E-02 0. -1.
</event>
<event>
 5   0  0.2982385E-05  0.2313782E+04  0.7818609E-02  0.8472507E-01
       -1   -1    0    0    0  501  0.00000000000E+00  0.00000000000E+00  0.84617013127E+03  0.84617013128E+03  0.50400001928E-02 0. -1.
        1   -1    0    0  501    0  0.00000000000E+00  0.00000000000E+00 -0.15817111059E+04  0.15817111059E+04  0.50400001928E-02 0.  1.
    10030    2    1    2    0    0  0.00000000000E+00  0.00000000000E+00 -0.73554097464E+03  0.24278812372E+04  0.23137819207E+04 0.  0.
        4    1    3    3  502    0 -0.79727541010E+03  0.80027268945E+03 -0.10583999058E+03  0.11345872261E+04  0.12699999809E+01 0.  1.
       -4    1    3    3    0  502  0.79727541010E+03 -0.80027268945E+03 -0.62970098406E+03  0.12932940111E+04  0.12699999809E+01 0. -1.
</event>
<event>
 5   0  0.3118614E-05  0.2310338E+04  0.7818609E-02  0.8473856E-01
       -1   -1    0    0    0  501  0.00000000000E+00  0.00000000000E+00  0.76350528998E+03  0.76350529000E+03  0.50400001928E-02 0. -1.
        1   -1    0    0  501    0  0.00000000000E+00  0.00000000000E+00 -0.17477481355E+04  0.17477481356E+04  0.50400001928E-02 0.  1.
    10030    2    1    2    0    0  0.00000000000E+00  0.00000000000E+00 -0.98424284557E+03  0.25112534256E+04  0.23103375918E+04 0.  0.
        3    1    3    3  502    0 -0.66826100210E+03 -0.42411879040E+02  0.53103632109E+03  0.85461752786E+03  0.10100000352E+00 0. -1.
       -3    1    3    3    0  502  0.66826100210E+03  0.42411879040E+02 -0.15152791667E+04  0.16566358977E+04  0.10100000352E+00 0.  1.
</event>
<event>
 5   0  0.6814789E-05  0.2307307E+04  0.7818609E-02  0.8475046E-01
       -2   -1    0    0    0  501  0.00000000000E+00  0.00000000000E+00  0.14999367264E+04  0.14999367264E+04  0.25500000920E-02 0.  1.
        2   -1    0    0  501    0  0.00000000000E+00  0.00000000000E+00 -0.88731505815E+03  0.88731505816E+03  0.25500000920E-02 0. -1.
    10030    2    1    2    0    0  0.00000000000E+00  0.00000000000E+00  0.61262166825E+03  0.23872517846E+04  0.23073070395E+04 0.  0.
        1    1    3    3  502    0 -0.78737836876E+02 -0.11497751114E+04  0.36041008809E+03  0.12075089588E+04  0.50400001928E-02 0.  1.
       -1    1    3    3    0  502  0.78737836876E+02  0.11497751114E+04  0.25221158016E+03  0.11797428258E+04  0.50400001928E-02 0. -1.
</event>
<event>
 5   0  0.3006265E-05  0.1938291E+04  0.7818609E-02  0.8636028E-01
       -1   -1    0    0    0  501  0.00000000000E+00  0.00000000000E+00  0.13611926137E+04  0.13611926137E+04  0.50400001928E-02 0.  1.
        1   -1    0    0  501    0  0.00000000000E+00  0.00000000000E+00 -0.69001467344E+03  0.69001467346E+03  0.50400001928E-02 0. -1.
    10030    2    1    2    0    0  0.00000000000E+00  0.00000000000E+00  0.67117794029E+03  0.20512072872E+04  0.19382908728E+04 0.  0.
        2    1    3    3  502    0 -0.20015661114E+02  0.94637365547E+03  0.11558590432E+03  0.95361618261E+03  0.25500000920E-02 0.  1.
       -2    1    3    3    0  502  0.20015661114E+02 -0.94637365547E+03  0.55559203598E+03  0.10975911046E+04  0.25500000920E-02 0. -1.
</event>
<event>
 5   0  0.6676612E-05  0.2345073E+04  0.7818609E-02  0.8460359E-01
        2   -1    0    0  501    0  0.00000000000E+00  0.00000000000E+00  0.19377433521E+04  0.19377433521E+04  0.25500000920E-02 0. -1.
       -2   -1    0    0    0  501  0.00000000000E+00  0.00000000000E+00 -0.70950649996E+03  0.70950649996E+03  0.25500000920E-02 0.  1.
    10030    2    1    2    0    0  0.00000000000E+00  0.00000000000E+00  0.12282368521E+04  0.26472498520E+04  0.23450727098E+04 0.  0.
        2    1    3    3  502    0  0.83732543530E+03 -0.18147271382E+03  0.15177642995E+04  0.17428868866E+04  0.25500000920E-02 0. -1.
       -2    1    3    3    0  502 -0.83732543530E+03  0.18147271382E+03 -0.28952744743E+03  0.90436296545E+03  0.25500000920E-02 0.  1.
</event>
<event>
 5   0  0.2982385E-05  0.2301711E+04  0.7818609E-02  0.8477247E-01
       -1   -1    0    0    0  501  0.00000000000E+00  0.00000000000E+00  0.11640961264E+04  0.11640961264E+04  0.50400001928E-02 0.  1.
        1   -1    0    0  501    0  0.00000000000E+00  0.00000000000E+00 -0.11377650773E+04  0.11377650773E+04  0.50400001928E-02 0. -1.
    10030    2    1    2    0    0  0.00000000000E+00  0.00000000000E+00  0.26331049124E+02  0.23018612037E+04  0.23017105980E+04 0.  0.
        4    1    3    3  502    0 -0.38183746461E+02  0.24070777927E+03  0.11379915690E+04  0.11637975157E+04  0.12699999809E+01 0.  1.
       -4    1    3    3    0  502  0.38183746461E+02 -0.24070777927E+03 -0.11116605199E+04  0.11380636880E+04  0.12699999809E+01 0. -1.
</event>
<event>
 5   0  0.6495405E-05  0.2291254E+04  0.7818609E-02  0.8481378E-01
       -2   -1    0    0    0  501  0.00000000000E+00  0.00000000000E+00  0.12945436976E+04  0.12945436976E+04  0.25500000920E-02 0.  1.
        2   -1    0    0  501    0  0.00000000000E+00  0.00000000000E+00 -0.10138406477E+04  0.10138406477E+04  0.25500000920E-02 0. -1.
    10030    2    1    2    0    0  0.00000000000E+00  0.00000000000E+00  0.28070304989E+03  0.23083843452E+04  0.22912538234E+04 0.  0.
        5    1    3    3  502    0 -0.59913548196E+03 -0.23719849858E+03  0.10946463528E+04  0.12702358762E+04  0.46999998093E+01 0.  1.
       -5    1    3    3    0  502  0.59913548196E+03  0.23719849858E+03 -0.81394330289E+03  0.10381484691E+04  0.46999998093E+01 0. -1.
</event>
<event>
 5   0  0.2982385E-05  0.2255525E+04  0.7818609E-02  0.8495666E-01
       -1   -1    0    0    0  501  0.00000000000E+00  0.00000000000E+00  0.72608429688E+03  0.72608429690E+03  0.50400001928E-02 0.  1.
        1   -1    0    0  501    0  0.00000000000E+00  0.00000000000E+00 -0.17516532168E+04  0.17516532168E+04  0.50400001928E-02 0. -1.
    10030    2    1    2    0    0  0.00000000000E+00  0.00000000000E+00 -0.10255689199E+04  0.24777375137E+04  0.22555246790E+04 0.  0.
        4    1    3    3  502    0 -0.42087086072E+03 -0.51085118702E+03  0.49026962518E+03  0.82369116479E+03  0.12699999809E+01 0.  1.
       -4    1    3    3    0  502  0.42087086072E+03  0.51085118702E+03 -0.15158385451E+04  0.16540463489E+04  0.12699999809E+01 0. -1.
</event>
<event>
 5   0  0.6814789E-05  0.2278619E+04  0.7818609E-02  0.8486399E-01
       -2   -1    0    0    0  501  0.00000000000E+00  0.00000000000E+00  0.91905876357E+03  0.91905876357E+03  0.25500000920E-02 0. -1.
        2   -1    0    0  501    0  0.00000000000E+00  0.00000000000E+00 -0.14123427218E+04  0.14123427218E+04  0.25500000920E-02 0.  1.
    10030    2    1    2    0    0  0.00000000000E+00  0.00000000000E+00 -0.49328395824E+03  0.23314014854E+04  0.22786188410E+04 0.  0.
        1    1    3    3  502    0  0.58686682875E+03 -0.82889211613E+03  0.28160334017E+03  0.10539332313E+04  0.50400001928E-02 0. -1.
       -1    1    3    3    0  502 -0.58686682875E+03  0.82889211613E+03 -0.77488729841E+03  0.12774682541E+04  0.50400001928E-02 0.  1.
</event>
<event>
 5   0  0.3006265E-05  0.2333553E+04  0.7818609E-02  0.8464808E-01
       -1   -1    0    0    0  501  0.00000000000E+00  0.00000000000E+00  0.60327631233E+03  0.60327631235E+03  0.50400001928E-02 0.  1.
        1   -1    0    0  501    0  0.00000000000E+00  0.00000000000E+00 -0.22566225235E+04  0.22566225235E+04  0.50400001928E-02 0. -1.
    10030    2    1    2    0    0  0.00000000000E+00  0.00000000000E+00 -0.16533462112E+04  0.28598988359E+04  0.23335525830E+04 0.  0.
        2    1    3    3  502    0  0.84022082624E+03 -0.16634527992E+03 -0.17976699880E+04  0.19912958532E+04  0.25500000920E-02 0. -1.
       -2    1    3    3    0  502 -0.84022082624E+03  0.16634527992E+03  0.14432377685E+03  0.86860298270E+03  0.25500000920E-02 0.  1.
</event>
<event>
 5   0  0.3006265E-05  0.2301147E+04  0.7818609E-02  0.8477469E-01
       -1   -1    0    0    0  501  0.00000000000E+00  0.00000000000E+00  0.65446578662E+03  0.65446578664E+03  0.50400001928E-02 0.  1.
        1   -1    0    0  501    0  0.00000000000E+00  0.00000000000E+00 -0.20227477999E+04  0.20227477999E+04  0.50400001928E-02 0. -1.
    10030    2    1    2    0    0  0.00000000000E+00  0.00000000000E+00 -0.13682820133E+04  0.26772135866E+04  0.23011468706E+04 0.  0.
        2    1    3    3  502    0  0.76163854625E+03 -0.77283822492E+03 -0.11293654203E+04  0.15661540313E+04  0.25500000920E-02 0.  1.
       -2    1    3    3    0  502 -0.76163854625E+03  0.77283822492E+03 -0.23891659300E+03  0.11110595553E+04  0.25500000920E-02 0. -1.
</event>
<event>
 5   0  0.3118614E-05  0.2301190E+04  0.7818609E-02  0.8477452E-01
       -1   -1    0    0    0  501  0.00000000000E+00  0.00000000000E+00  0.13485181790E+04  0.13485181790E+04  0.50400001928E-02 0. -1.
        1   -1    0    0  501    0  0.00000000000E+00  0.00000000000E+00 -0.98172095565E+03  0.98172095566E+03  0.50400001928E-02 0.  1.
    10030    2    1    2    0    0  0.00000000000E+00  0.00000000000E+00  0.36679722339E+03  0.23302391347E+04  0.23011897405E+04 0.  0.
        3    1    3    3  502    0  0.83538450080E+03 -0.46675540410E+03 -0.46352499792E+03  0.10632889096E+04  0.10100000352E+00 0.  1.
       -3    1    3    3    0  502 -0.83538450080E+03  0.46675540410E+03  0.83032222130E+03  0.12669502251E+04  0.10100000352E+00 0. -1.
</event>
<event>
 5   0  0.2944089E-05  0.2353045E+04  0.7818609E-02  0.8457295E-01
        1   -1    0    0  501    0  0.00000000000E+00  0.00000000000E+00  0.12140092663E+04  0.12140092664E+04  0.50400001928E-02 0.  1.
       -1   -1    0    0    0  501  0.00000000000E+00  0.00000000000E+00 -0.11401930985E+04  0.11401930985E+04  0.50400001928E-02 0. -1.
    10030    2    1    2    0    0  0.00000000000E+00  0.00000000000E+00  0.73816167889E+02  0.23542023648E+04  0.23530448249E+04 0.  0.
        5    1    3    3  502    0 -0.11467595654E+04 -0.20098959960E+03 -0.13267036094E+03  0.11717840393E+04  0.46999998093E+01 0.  1.
       -5    1    3    3    0  502  0.11467595654E+04  0.20098959960E+03  0.20648652883E+03  0.11824183256E+04  0.46999998093E+01 0. -1.
</event>
<event>
 5   0  0.2982385E-05  0.2287186E+04  0.7818609E-02  0.8482991E-01
       -1   -1    0    0    0  501  0.00000000000E+00  0.00000000000E+00  0.12025738379E+04  0.12025738379E+04  0.50400001928E-02 0.  1.
        1   -1    0    0  501    0  0.00000000000E+00  0.00000000000E+00 -0.10875050777E+04  0.10875050778E+04  0.50400001928E-02 0. -1.
    10030    2    1    2    0    0  0.00000000000E+00  0.00000000000E+00  0.11506876018E+03  0.22900789157E+04  0.22871861797E+04 0.  0.
        4    1    3    3  502    0  0.60014205174E+03  0.68320341416E+03  0.75185655477E+03  0.11799268110E+04  0.12699999809E+01 0.  1.
       -4    1    3    3    0  502 -0.60014205174E+03 -0.68320341416E+03 -0.63678779459E+03  0.11101521047E+04  0.12699999809E+01 0. -1.
</event>
<event>
 5   0  0.6702421E-05  0.2233944E+04  0.7818609E-02  0.8504431E-01
        2   -1    0    0  501    0  0.00000000000E+00  0.00000000000E+00  0.12551991940E+04  0.12551991940E+04  0.25500000920E-02 0.  1.
       -2   -1    0    0    0  501  0.00000000000E+00  0.00000000000E+00 -0.99396668163E+03  0.99396668163E+03  0.25500000920E-02 0. -1.
    10030    2    1    2    0    0  0.00000000000E+00  0.00000000000E+00  0.26123251233E+03  0.22491658756E+04  0.22339437572E+04 0.  0.
        4    1    3    3  502    0  0.73195029191E+03 -0.75990891032E+03  0.49973654902E+03  0.11674549298E+04  0.12699999809E+01 0.  1.
       -4    1    3    3    0  502 -0.73195029191E+03  0.75990891032E+03 -0.23850403669E+03  0.10817109458E+04  0.12699999809E+01 0. -1.
</event>
<event>
 5   0  0.6814789E-05  0.2295365E+04  0.7818609E-02  0.8479751E-01
       -2   -1    0    0    0  501  0.00000000000E+00  0.00000000000E+00  0.11289805358E+04  0.11289805358E+04  0.25500000920E-02 0.  1.
        2   -1    0    0  501    0  0.00000000000E+00  0.00000000000E+00 -0.11666940949E+04  0.11666940949E+04  0.25500000920E-02 0. -1.
    10030    2    1    2    0    0  0.00000000000E+00  0.00000000000E+00 -0.37713559114E+02  0.22956746307E+04  0.22953648289E+04 0.  0.
        1    1    3    3  502    0 -0.83676784938E+03 -0.23872351629E+01 -0.80444913632E+03  0.11607431006E+04  0.50400001928E-02 0. -1.
       -1    1    3    3    0  502  0.83676784938E+03  0.23872351629E+01  0.76673557720E+03  0.11349315301E+04  0.50400001928E-02 0.  1.
</event>
<event>
 5   0  0.6495405E-05  0.2218037E+04  0.7818609E-02  0.8510958E-01
        2   -1    0    0  501    0  0.00000000000E+00  0.00000000000E+00  0.85353372314E+03  0.85353372315E+03  0.25500000920E-02 0.  1.
       -2   -1    0    0    0  501  0.00000000000E+00  0.00000000000E+00 -0.14409762596E+04  0.14409762596E+04  0.25500000920E-02 0. -1.
    10030    2    1    2    0    0  0.00000000000E+00  0.00000000000E+00 -0.58744253643E+03  0.22945099827E+04  0.22180368183E+04 0.  0.
        5    1    3    3  502    0 -0.84620967974E+03  0.42968866182E+03 -0.88725971207E+03  0.12992132446E+04  0.46999998093E+01 0.  1.
       -5    1    3    3    0  502  0.84620967974E+03 -0.42968866182E+03  0.29981717564E+03  0.99529673816E+03  0.46999998093E+01 0. -1.
</event>
<event>
 5   0  0.6676612E-05  0.2362240E+04  0.7818609E-02  0.8453777E-01
        2   -1    0    0  501    0  0.00000000000E+00  0.00000000000E+00  0.12390847852E+04  0.12390847852E+04  0.25500000920E-02 0.  1.
       -2   -1    0    0    0  501  0.00000000000E+00  0.00000000000E+00 -0.11258665939E+04  0.11258665939E+04  0.25500000920E-02 0. -1.
    10030    2    1    2    0    0  0.00000000000E+00  0.00000000000E+00  0.11321819130E+03  0.23649513790E+04  0.23622397563E+04 0.  0.
        2    1    3    3  502    0 -0.61269979281E+03 -0.47685478189E+03 -0.83449838955E+03  0.11398153716E+04  0.25500000920E-02 0. -1.
       -2    1    3    3    0  502  0.61269979281E+03  0.47685478189E+03  0.94771658085E+03  0.12251360074E+04  0.25500000920E-02 0.  1.
</event>
<event>
 5   0  0.3006265E-05  0.2309374E+04  0.7818609E-02  0.8474234E-01
       -1   -1    0    0    0  501  0.00000000000E+00  0.00000000000E+00  0.80152634539E+03  0.80152634541E+03  0.50400001928E-02 0. -1.
        1   -1    0    0  501    0  0.00000000000E+00  0.00000000000E+00 -0.16634541662E+04  0.16634541663E+04  0.50400001928E-02 0.  1.
    10030    2    1    2    0    0  0.00000000000E+00  0.00000000000E+00 -0.86192782085E+03  0.24649805117E+04  0.23093742344E+04 0.  0.
        2    1    3    3  502    0  0.70700274249E+03  0.30452223597E+02  0.54294214341E+03  0.89194528246E+03  0.25500000920E-02 0. -1.
       -2    1    3    3    0  502 -0.70700274249E+03 -0.30452223597E+02 -0.14048699643E+04  0.15730352292E+04  0.25500000920E-02 0.  1.
</event>
<event>
 5   0  0.2962279E-05  0.2326230E+04  0.7818609E-02  0.8467650E-01
       -1   -1    0    0    0  501  0.00000000000E+00  0.00000000000E+00  0.78185875352E+03  0.78185875353E+03  0.50400001928E-02 0. -1.
        1   -1    0    0  501    0  0.00000000000E+00  0.00000000000E+00 -0.17302818038E+04  0.17302818038E+04  0.50400001928E-02 0.  1.
    10030    2    1    2    0    0  0.00000000000E+00  0.00000000000E+00 -0.94842305028E+03  0.25121405573E+04  0.23262295453E+04 0.  0.
        1    1    3    3  502    0  0.63498156784E+03  0.85453170928E+02  0.57410726264E+03  0.86029238341E+03  0.50400001928E-02 0. -1.
       -1    1    3    3    0  502 -0.63498156784E+03 -0.85453170928E+02 -0.15225303129E+04  0.16518481739E+04  0.50400001928E-02 0.  1.
</event>
<event>
 5   0  0.6495405E-05  0.2298846E+04  0.7818609E-02  0.8478376E-01
        2   -1    0    0  501    0  0.00000000000E+00  0.00000000000E+00  0.71410430909E+03  0.71410430910E+03  0.25500000920E-02 0. -1.
       -2   -1    0    0    0  501  0.00000000000E+00  0.00000000000E+00 -0.18501126660E+04  0.18501126660E+04  0.25500000920E-02 0.  1.
    10030    2    1    2    0    0  0.00000000000E+00  0.00000000000E+00 -0.11360083569E+04  0.25642169751E+04  0.22988461689E+04 0.  0.
        5    1    3    3  502    0  0.32930009945E+03  0.10168245808E+04 -0.10396380625E+04  0.14910533775E+04  0.46999998093E+01 0.  1.
       -5    1    3    3    0  502 -0.32930009945E+03 -0.10168245808E+04 -0.96370294414E+02  0.10731635976E+04  0.46999998093E+01 0. -1.
</event>
<event>
 5   0  0.6814789E-05  0.2267440E+04  0.7818609E-02  0.8490871E-01
        2   -1    0    0  501    0  0.00000000000E+00  0.00000000000E+00  0.67842942329E+03  0.67842942330E+03  0.25500000920E-02 0. -1.
       -2   -1    0    0    0  501  0.00000000000E+00  0.00000000000E+00 -0.18945540887E+04  0.18945540887E+04  0.25500000920E-02 0.  1.
    10030    2    1    2    0    0  0.00000000000E+00  0.00000000000E+00 -0.12161246654E+04  0.25729835120E+04  0.22674401759E+04 0.  0.
        1    1    3    3  502    0  0.26571413905E+03  0.76611415478E+02  0.63957108981E+03  0.69679587515E+03  0.50400001928E-02 0. -1.
       -1    1    3    3    0  502 -0.26571413905E+03 -0.76611415478E+02 -0.18556957552E+04  0.18761876369E+04  0.50400001928E-02 0.  1.
</event>
<event>
 5   0  0.2944089E-05  0.2293800E+04  0.7818609E-02  0.8480370E-01
        1   -1    0    0  501    0  0.00000000000E+00  0.00000000000E+00  0.18324680475E+04  0.18324680475E+04  0.50400001928E-02 0. -1.
       -1   -1    0    0    0  501  0.00000000000E+00  0.00000000000E+00 -0.71781855377E+03  0.71781855379E+03  0.50400001928E-02 0.  1.
    10030    2    1    2    0    0  0.00000000000E+00  0.00000000000E+00  0.11146494937E+04  0.25502866013E+04  0.22937999596E+04 0.  0.
        5    1    3    3  502    0 -0.91292093146E+03 -0.48242108429E+03  0.23031807837E+01  0.10325609543E+04  0.46999998093E+01 0.  1.
       -5    1    3    3    0  502  0.91292093146E+03  0.48242108429E+03  0.11123463129E+04  0.15177256470E+04  0.46999998093E+01 0. -1.
</event>
<event>
 5   0  0.3118614E-05  0.2310884E+04  0.7818609E-02  0.8473642E-01
       -1   -1    0    0    0  501  0.00000000000E+00  0.00000000000E+00  0.86306145376E+03  0.86306145378E+03  0.50400001928E-02 0.  1.
        1   -1    0    0  501    0  0.00000000000E+00  0.00000000000E+00 -0.15468727642E+04  0.15468727642E+04  0.50400001928E-02 0. -1.
    10030    2    1    2    0    0  0.00000000000E+00  0.00000000000E+00 -0.68381131041E+03  0.24099342180E+04  0.23108840357E+04 0.  0.
        3    1    3    3  502    0 -0.35415594826E+03 -0.30668002495E+03  0.75956998994E+03  0.89242683353E+03  0.10100000352E+00 0.  1.
       -3    1    3    3    0  502  0.35415594826E+03  0.30668002495E+03 -0.14433813004E+04  0.15175073844E+04  0.10100000352E+00 0. -1.
</event>
<event>
 5   0  0.6495405E-05  0.2237337E+04  0.7818609E-02  0.8503046E-01
        2   -1    0    0  501    0  0.00000000000E+00  0.00000000000E+00  0.17439763403E+04  0.17439763403E+04  0.25500000920E-02 0. -1.
       -2   -1    0    0    0  501  0.00000000000E+00  0.00000000000E+00 -0.71756689913E+03  0.71756689914E+03  0.25500000920E-02 0.  1.
    10030    2    1    2    0    0  0.00000000000E+00  0.00000000000E+00  0.10264094411E+04  0.24615432394E+04  0.22373374306E+04 0.  0.
        5    1    3    3  502    0  0.65341542912E+03 -0.16210704725E+03 -0.46972601506E+03  0.82091110176E+03  0.46999998093E+01 0.  1.
       -5    1    3    3    0  502 -0.65341542912E+03  0.16210704725E+03  0.14961354562E+04  0.16406321376E+04  0.46999998093E+01 0. -1.
</event>
<event>
 5   0  0.3118614E-05  0.2293268E+04  0.7818609E-02  0.8480580E-01
        1   -1    0    0  501    0  0.00000000000E+00  0.00000000000E+00  0.13232862279E+04  0.13232862279E+04  0.50400001928E-02 0.  1.
       -1   -1    0    0    0  501  0.00000000000E+00  0.00000000000E+00 -0.99356360191E+03  0.99356360192E+03  0.50400001928E-02 0. -1.
    10030    2    1    2    0    0  0.00000000000E+00  0.00000000000E+00  0.32972262601E+03  0.23168498298E+04  0.22932675648E+04 0.  0.
        3    1    3    3  502    0 -0.11239293690E+04 -0.19849934862E+03  0.53501684185E+02  0.11425767625E+04  0.10100000352E+00 0.  1.
       -3    1    3    3    0  502  0.11239293690E+04  0.19849934862E+03  0.27622094182E+03  0.11742730673E+04  0.10100000352E+00 0. -1.
</event>
<event>
 5   0  0.6468758E-05  0.2348737E+04  0.7818609E-02  0.8458949E-01
       -2   -1    0    0    0  501  0.00000000000E+00  0.00000000000E+00  0.13629887638E+04  0.13629887638E+04  0.25500000920E-02 0. -1.
        2   -1    0    0  501    0  0.00000000000E+00  0.00000000000E+00 -0.10118509273E+04  0.10118509273E+04  0.25500000920E-02 0.  1.
    10030    2    1    2    0    0  0.00000000000E+00  0.00000000000E+00  0.35113783648E+03  0.23748396910E+04  0.23487370602E+04 0.  0.
        3    1    3    3  502    0  0.81501077425E+03  0.83709787398E+03  0.55225083226E+02  0.11696261081E+04  0.10100000352E+00 0.  1.
       -3    1    3    3    0  502 -0.81501077425E+03 -0.83709787398E+03  0.29591275325E+03  0.12052135829E+04  0.10100000352E+00 0. -1.
</event>
<event>
 5   0  0.3006265E-05  0.2316840E+04  0.7818609E-02  0.8471311E-01
        1   -1    0    0  501    0  0.00000000000E+00  0.00000000000E+00  0.15178570249E+04  0.15178570249E+04  0.50400001928E-02 0.  1.
       -1   -1    0    0    0  501  0.00000000000E+00  0.00000000000E+00 -0.88409971256E+03  0.88409971257E+03  0.50400001928E-02 0. -1.
    10030    2    1    2    0    0  0.00000000000E+00  0.00000000000E+00  0.63375731229E+03  0.24019567374E+04  0.23168400544E+04 0.  0.
        2    1    3    3  502    0 -0.11808951548E+03 -0.10874819876E+04  0.71216664861E+03  0.13052752746E+04  0.25500000920E-02 0.  1.
       -2    1    3    3    0  502  0.11808951548E+03  0.10874819876E+04 -0.78409336321E+02  0.10966814629E+04  0.25500000920E-02 0. -1.
</event>
<event>
 5   0  0.6814789E-05  0.2347200E+04  0.7818609E-02  0.8459540E-01
       -2   -1    0    0    0  501  0.00000000000E+00  0.00000000000E+00  0.11837591127E+04  0.11837591127E+04  0.25500000920E-02 0.  1.
        2   -1    0    0  501    0  0.00000000000E+00  0.00000000000E+00 -0.11635280008E+04  0.11635280008E+04  0.25500000920E-02 0. -1.
    10030    2    1    2    0    0  0.00000000000E+00  0.00000000000E+00  0.20231111844E+02  0.23472871135E+04  0.23471999266E+04 0.  0.
        1    1    3    3  502    0  0.32116520891E+03 -0.49784043083E+03 -0.10030087881E+04  0.11649115053E+04  0.50400001928E-02 0. -1.
       -1    1    3    3    0  502 -0.32116520891E+03  0.49784043083E+03  0.10232399000E+04  0.11823756082E+04  0.50400001928E-02 0.  1.
</event>
<event>
 5   0  0.3006265E-05  0.2293713E+04  0.7818609E-02  0.8480404E-01
        1   -1    0    0  501    0  0.00000000000E+00  0.00000000000E+00  0.19100041372E+04  0.19100041372E+04  0.50400001928E-02 0.  1.
       -1   -1    0    0    0  501  0.00000000000E+00  0.00000000000E+00 -0.68862689318E+03  0.68862689320E+03  0.50400001928E-02 0. -1.
    10030    2    1    2    0    0  0.00000000000E+00  0.00000000000E+00  0.12213772440E+04  0.25986310304E+04  0.22937133343E+04 0.  0.
        2    1    3    3  502    0  0.87834476868E+03  0.24333383902E+03  0.13993451839E+04  0.16699903693E+04  0.25500000920E-02 0. -1.
       -2    1    3    3    0  502 -0.87834476868E+03 -0.24333383902E+03 -0.17796793984E+03  0.92864066113E+03  0.25500000920E-02 0.  1.
</event>
<event>
 5   0  0.6702421E-05  0.2184054E+04  0.7818609E-02  0.8525094E-01
       -2   -1    0    0    0  501  0.00000000000E+00  0.00000000000E+00  0.12256785643E+04  0.12256785643E+04  0.25500000920E-02 0.  1.
        2   -1    0    0  501    0  0.00000000000E+00  0.00000000000E+00 -0.97294952103E+03  0.97294952104E+03  0.25500000920E-02 0. -1.
    10030    2    1    2    0    0  0.00000000000E+00  0.00000000000E+00  0.25272904331E+03  0.21986280854E+04  0.21840543694E+04 0.  0.
        4    1    3    3  502    0  0.63178397303E+03 -0.15365324956E+03 -0.75685041410E+03  0.99778979344E+03  0.12699999809E+01 0. -1.
       -4    1    3    3    0  502 -0.63178397303E+03  0.15365324956E+03  0.10095794574E+04  0.12008382919E+04  0.12699999809E+01 0.  1.
</event>
<event>
 5   0  0.2982385E-05  0.2293705E+04  0.7818609E-02  0.8480407E-01
        1   -1    0    0  501    0  0.00000000000E+00  0.00000000000E+00  0.15358687056E+04  0.15358687056E+04  0.50400001928E-02 0. -1.
       -1   -1    0    0    0  501  0.00000000000E+00  0.00000000000E+00 -0.85636889879E+03  0.85636889881E+03  0.50400001928E-02 0.  1.
    10030    2    1    2    0    0  0.00000000000E+00  0.00000000000E+00  0.67949980681E+03  0.23922376044E+04  0.22937045949E+04 0.  0.
        4    1    3    3  502    0 -0.78641470583E+03 -0.81948759029E+03  0.17398656705E+03  0.11490347856E+04  0.12699999809E+01 0.  1.
       -4    1    3    3    0  502  0.78641470583E+03  0.81948759029E+03  0.50551323975E+03  0.12432028188E+04  0.12699999809E+01 0. -1.
</event>
<event>
 5   0  0.2342500E-05  0.2298874E+04  0.7818609E-02  0.8478365E-01
        4   -1    0    0  501    0  0.00000000000E+00  0.00000000000E+00  0.12719738905E+04  0.12719745245E+04  0.12699999809E+01 0.  1.
       -4   -1    0    0    0  501  0.00000000000E+00  0.00000000000E+00 -0.10387033538E+04  0.10387041302E+04  0.12699999809E+01 0. -1.
    10030    2    1    2    0    0  0.00000000000E+00  0.00000000000E+00  0.23327053663E+03  0.23106786547E+04  0.22988737899E+04 0.  0.
        1    1    3    3  502    0 -0.26614340673E+03 -0.89324511807E+03 -0.55948975177E+03  0.10870823043E+04  0.50400001928E-02 0. -1.
       -1    1    3    3    0  502  0.26614340673E+03  0.89324511807E+03  0.79276028841E+03  0.12235963504E+04  0.50400001928E-02 0.  1.
</event>
<event>
 5   0  0.2944089E-05  0.2239061E+04  0.7818609E-02  0.8502344E-01
        1   -1    0    0  501    0  0.00000000000E+00  0.00000000000E+00  0.12071410843E+04  0.12071410843E+04  0.50400001928E-02 0. -1.
       -1   -1    0    0    0  501  0.00000000000E+00  0.00000000000E+00 -0.10382782530E+04  0.10382782530E+04  0.50400001928E-02 0.  1.
    10030    2    1    2    0    0  0.00000000000E+00  0.00000000000E+00  0.16886283134E+03  0.22454193373E+04  0.22390608175E+04 0.  0.
        5    1    3    3  502    0  0.78219426452E+03  0.10777871668E+03  0.88033637529E+03  0.11825643081E+04  0.46999998093E+01 0. -1.
       -5    1    3    3    0  502 -0.78219426452E+03 -0.10777871668E+03 -0.71147354395E+03  0.10628550291E+04  0.46999998093E+01 0.  1.
</event>
<event>
 5   0  0.3006265E-05  0.2294234E+04  0.7818609E-02  0.8480198E-01
       -1   -1    0    0    0  501  0.00000000000E+00  0.00000000000E+00  0.12449077047E+04  0.12449077047E+04  0.50400001928E-02 0. -1.
        1   -1    0    0  501    0  0.00000000000E+00  0.00000000000E+00 -0.10570083074E+04  0.10570083074E+04  0.50400001928E-02 0.  1.
    10030    2    1    2    0    0  0.00000000000E+00  0.00000000000E+00  0.18789939731E+03  0.23019160121E+04  0.22942343261E+04 0.  0.
        2    1    3    3  502    0  0.46047398170E+03 -0.89286412810E+03 -0.46165085108E+03  0.11056057830E+04  0.25500000920E-02 0.  1.
       -2    1    3    3    0  502 -0.46047398170E+03  0.89286412810E+03  0.64955024839E+03  0.11963102291E+04  0.25500000920E-02 0. -1.
</event>
<event>
 5   0  0.3118614E-05  0.2318760E+04  0.7818609E-02  0.8470561E-01
        1   -1    0    0  501    0  0.00000000000E+00  0.00000000000E+00  0.85986888072E+03  0.85986888073E+03  0.50400001928E-02 0. -1.
       -1   -1    0    0    0  501  0.00000000000E+00  0.00000000000E+00 -0.15632180227E+04  0.15632180227E+04  0.50400001928E-02 0.  1.
    10030    2    1    2    0    0  0.00000000000E+00  0.00000000000E+00 -0.70334914197E+03  0.24230869034E+04  0.23187604719E+04 0.  0.
        3    1    3    3  502    0 -0.57803983115E+03  0.66001379381E+03 -0.11436755365E+04  0.14414374760E+04  0.10100000352E+00 0.  1.
       -3    1    3    3    0  502  0.57803983115E+03 -0.66001379381E+03  0.44032639448E+03  0.98164942739E+03  0.10100000352E+00 0. -1.
</event>
<event>
 5   0  0.2944089E-05  0.2294786E+04  0.7818609E-02  0.8479980E-01
       -1   -1    0    0    0  501  0.00000000000E+00  0.00000000000E+00  0.66354405613E+03  0.66354405615E+03  0.50400001928E-02 0.  1.
        1   -1    0    0  501    0  0.00000000000E+00  0.00000000000E+00 -0.19840593151E+04  0.19840593151E+04  0.50400001928E-02 0. -1.
    10030    2    1    2    0    0  0.00000000000E+00  0.00000000000E+00 -0.13205152590E+04  0.26476033713E+04  0.22947860602E+04 0.  0.
        5    1    3    3  502    0  0.37664885893E+03 -0.56256427561E+03 -0.17290448441E+04  0.18568686249E+04  0.46999998093E+01 0. -1.
       -5    1    3    3    0  502 -0.37664885893E+03  0.56256427561E+03  0.40852958517E+03  0.79073474635E+03  0.46999998093E+01 0.  1.
</event>
<event>
 5   0  0.2944089E-05  0.2302454E+04  0.7818609E-02  0.8476954E-01
       -1   -1    0    0    0  501  0.00000000000E+00  0.00000000000E+00  0.69919098103E+03  0.69919098104E+03  0.50400001928E-02 0.  1.
        1   -1    0    0  501    0  0.00000000000E+00  0.00000000000E+00 -0.18955096315E+04  0.18955096315E+04  0.50400001928E-02 0. -1.
    10030    2    1    2    0    0  0.00000000000E+00  0.00000000000E+00 -0.11963186505E+04  0.25947006126E+04  0.23024536815E+04 0.  0.
        5    1    3    3  502    0 -0.63563570542E+03 -0.93099349507E+03 -0.33502813638E+03  0.11760304333E+04  0.46999998093E+01 0. -1.
       -5    1    3    3    0  502  0.63563570542E+03  0.93099349507E+03 -0.86129051410E+03  0.14186701793E+04  0.46999998093E+01 0.  1.
</event>
<event>
 5   0  0.2944089E-05  0.2281001E+04  0.7818609E-02  0.8485450E-01
        1   -1    0    0  501    0  0.00000000000E+00  0.00000000000E+00  0.13113226999E+04  0.13113227000E+04  0.50400001928E-02 0.  1.
       -1   -1    0    0    0  501  0.00000000000E+00  0.00000000000E+00 -0.99193054000E+03  0.99193054002E+03  0.50400001928E-02 0. -1.
    10030    2    1    2    0    0  0.00000000000E+00  0.00000000000E+00  0.31939215994E+03  0.23032532400E+04  0.22810006873E+04 0.  0.
        5    1    3    3  502    0 -0.58663515746E+03 -0.60873978143E+03 -0.61328751277E+03  0.10444369741E+04  0.46999998093E+01 0. -1.
       -5    1    3    3    0  502  0.58663515746E+03  0.60873978143E+03  0.93267967271E+03  0.12588162659E+04  0.46999998093E+01 0.  1.
</event>
<event>
 5   0  0.6702421E-05  0.2303778E+04  0.7818609E-02  0.8476433E-01
        2   -1    0    0  501    0  0.00000000000E+00  0.00000000000E+00  0.15030918072E+04  0.15030918072E+04  0.25500000920E-02 0. -1.
       -2   -1    0    0    0  501  0.00000000000E+00  0.00000000000E+00 -0.88274633208E+03  0.88274633209E+03  0.25500000920E-02 0.  1.
    10030    2    1    2    0    0  0.00000000000E+00  0.00000000000E+00  0.62034547508E+03  0.23858381393E+04  0.23037784438E+04 0.  0.
        4    1    3    3  502    0 -0.94156935708E+03  0.33923712611E+03  0.90075972152E+03  0.13464785073E+04  0.12699999809E+01 0. -1.
       -4    1    3    3    0  502  0.94156935708E+03 -0.33923712611E+03 -0.28041424644E+03  0.10393596319E+04  0.12699999809E+01 0.  1.
</event>
<event>
 5   0  0.2982385E-05  0.2279488E+04  0.7818609E-02  0.8486053E-01
       -1   -1    0    0    0  501  0.00000000000E+00  0.00000000000E+00  0.14677522457E+04  0.14677522457E+04  0.50400001928E-02 0. -1.
        1   -1    0    0  501    0  0.00000000000E+00  0.00000000000E+00 -0.88503804266E+03  0.88503804268E+03  0.50400001928E-02 0.  1.
    10030    2    1    2    0    0  0.00000000000E+00  0.00000000000E+00  0.58271420306E+03  0.23527902884E+04  0.22794881660E+04 0.  0.
        4    1    3    3  502    0 -0.10924292989E+04  0.13869989951E+03  0.59470516782E+03  0.12515251834E+04  0.12699999809E+01 0. -1.
       -4    1    3    3    0  502  0.10924292989E+04 -0.13869989951E+03 -0.11990964762E+02  0.11012651050E+04  0.12699999809E+01 0.  1.
</event>
<event>
 5   0  0.6468758E-05  0.2316299E+04  0.7818609E-02  0.8471522E-01
        2   -1    0    0  501    0  0.00000000000E+00  0.00000000000E+00  0.12497286846E+04  0.12497286846E+04  0.25500000920E-02 0. -1.
       -2   -1    0    0    0  501  0.00000000000E+00  0.00000000000E+00 -0.10732807707E+04  0.10732807707E+04  0.25500000920E-02 0.  1.
    10030    2    1    2    0    0  0.00000000000E+00  0.00000000000E+00  0.17644791387E+03  0.23230094553E+04  0.23162985696E+04 0.  0.
        3    1    3    3  502    0 -0.93809005479E+03 -0.10033613524E+03  0.76190629860E+03  0.12126753519E+04  0.10100000352E+00 0. -1.
       -3    1    3    3    0  502  0.93809005479E+03  0.10033613524E+03 -0.58545838473E+03  0.11103341035E+04  0.10100000352E+00 0.  1.
</event>
<event>
 5   0  0.6814789E-05  0.2257049E+04  0.7818609E-02  0.8495051E-01
       -2   -1    0    0    0  501  0.00000000000E+00  0.00000000000E+00  0.67809047332E+03  0.67809047332E+03  0.25500000920E-02 0. -1.
        2   -1    0    0  501    0  0.00000000000E+00  0.00000000000E+00 -0.18781669777E+04  0.18781669777E+04  0.25500000920E-02 0.  1.
    10030    2    1    2    0    0  0.00000000000E+00  0.00000000000E+00 -0.12000765043E+04  0.25562574510E+04  0.22570486347E+04 0.  0.
        1    1    3    3  502    0 -0.20197521556E+02  0.13470106777E+03  0.66874693758E+03  0.68247694766E+03  0.50400001928E-02 0. -1.
       -1    1    3    3    0  502  0.20197521556E+02 -0.13470106777E+03 -0.18688234419E+04  0.18737805033E+04  0.50400001928E-02 0.  1.
</event>
<event>
 5   0  0.2982385E-05  0.2292319E+04  0.7818609E-02  0.8480956E-01
        1   -1    0    0  501    0  0.00000000000E+00  0.00000000000E+00  0.14014000974E+04  0.14014000974E+04  0.50400001928E-02 0. -1.
       -1   -1    0    0    0  501  0.00000000000E+00  0.00000000000E+00 -0.93740630015E+03  0.93740630017E+03  0.50400001928E-02 0.  1.
    10030    2    1    2    0    0  0.00000000000E+00  0.00000000000E+00  0.46399379724E+03  0.23388063976E+04  0.22923187216E+04 0.  0.
        4    1    3    3  502    0  0.14847815829E+03  0.15110780141E+03 -0.91725681120E+03  0.94140374002E+03  0.12699999809E+01 0.  1.
       -4    1    3    3    0  502 -0.14847815829E+03 -0.15110780141E+03  0.13812506084E+04  0.13974026576E+04  0.12699999809E+01 0. -1.
</event>
<event>
 5   0  0.6814789E-05  0.2268096E+04  0.7818609E-02  0.8490608E-01
        2   -1    0    0  501    0  0.00000000000E+00  0.00000000000E+00  0.10782258944E+04  0.10782258944E+04  0.25500000920E-02 0.  1.
       -2   -1    0    0    0  501  0.00000000000E+00  0.00000000000E+00 -0.11927603869E+04  0.11927603869E+04  0.25500000920E-02 0. -1.
    10030    2    1    2    0    0  0.00000000000E+00  0.00000000000E+00 -0.11453449255E+03  0.22709862813E+04  0.22680962369E+04 0.  0.
        1    1    3    3  502    0  0.92137062355E+03 -0.26676210658E+03 -0.66300031864E+03  0.11660425678E+04  0.50400001928E-02 0.  1.
       -1    1    3    3    0  502 -0.92137062355E+03  0.26676210658E+03  0.54846582609E+03  0.11049437134E+04  0.50400001928E-02 0. -1.
</event>
<event>
 5   0  0.6468758E-05  0.2316660E+04  0.7818609E-02  0.8471381E-01
       -2   -1    0    0    0  501  0.00000000000E+00  0.00000000000E+00  0.10576922080E+04  0.10576922080E+04  0.25500000920E-02 0. -1.
        2   -1    0    0  501    0  0.00000000000E+00  0.00000000000E+00 -0.12685437699E+04  0.12685437699E+04  0.25500000920E-02 0.  1.
    10030    2    1    2    0    0  0.00000000000E+00  0.00000000000E+00 -0.21085156194E+03  0.23262359779E+04  0.23166604075E+04 0.  0.
        3    1    3    3  502    0 -0.10234632889E+04 -0.29462349780E+03 -0.56277379143E+03  0.12045723140E+04  0.10100000352E+00 0.  1.
       -3    1    3    3    0  502  0.10234632889E+04  0.29462349780E+03  0.35192222949E+03  0.11216636639E+04  0.10100000352E+00 0. -1.
</event>
<event>
 5   0  0.3006265E-05  0.2303418E+04  0.7818609E-02  0.8476575E-01
        1   -1    0    0  501    0  0.00000000000E+00  0.00000000000E+00  0.12645506310E+04  0.12645506310E+04  0.50400001928E-02 0.  1.
       -1   -1    0    0    0  501  0.00000000000E+00  0.00000000000E+00 -0.10489366434E+04  0.10489366434E+04  0.50400001928E-02 0. -1.
    10030    2    1    2    0    0  0.00000000000E+00  0.00000000000E+00  0.21561398760E+03  0.23134872744E+04  0.23034178902E+04 0.  0.
        2    1    3    3  502    0 -0.88122444792E+03 -0.72443416253E+03  0.26684093749E+03  0.11715653927E+04  0.25500000920E-02 0. -1.
       -2    1    3    3    0  502  0.88122444792E+03  0.72443416253E+03 -0.51226949891E+02  0.11419218817E+04  0.25500000920E-02 0.  1.
</event>
<event>
 5   0  0.6468758E-05  0.1650931E+04  0.7818609E-02  0.8789856E-01
       -2   -1    0    0    0  501  0.00000000000E+00  0.00000000000E+00  0.28376159665E+03  0.28376159666E+03  0.25500000920E-02 0. -1.
        2   -1    0    0  501    0  0.00000000000E+00  0.00000000000E+00 -0.24012885931E+04  0.24012885931E+04  0.25500000920E-02 0.  1.
    10030    2    1    2    0    0  0.00000000000E+00  0.00000000000E+00 -0.21175269964E+04  0.26850501897E+04  0.16509312344E+04 0.  0.
        3    1    3    3  502    0  0.48856936160E+03 -0.12088305445E+03 -0.21228728717E+04  0.21817199576E+04  0.10100000352E+00 0.  1.
       -3    1    3    3    0  502 -0.48856936160E+03  0.12088305445E+03  0.53458752846E+01  0.50333023209E+03  0.10100000352E+00 0. -1.
</event>
<event>
 5   0  0.2982385E-05  0.2277596E+04  0.7818609E-02  0.8486807E-01
        1   -1    0    0  501    0  0.00000000000E+00  0.00000000000E+00  0.10616323521E+04  0.10616323522E+04  0.50400001928E-02 0. -1.
       -1   -1    0    0    0  501  0.00000000000E+00  0.00000000000E+00 -0.12215725975E+04  0.12215725975E+04  0.50400001928E-02 0.  1.
    10030    2    1    2    0    0  0.00000000000E+00  0.00000000000E+00 -0.15994024535E+03  0.22832049496E+04  0.22775960924E+04 0.  0.
        4    1    3    3  502    0  0.10783111517E+03  0.47640135233E+03  0.95128748423E+03  0.10693620942E+04  0.12699999809E+01 0. -1.
       -4    1    3    3    0  502 -0.10783111517E+03 -0.47640135233E+03 -0.11112277296E+04  0.12138428555E+04  0.12699999809E+01 0.  1.
</event>
<event>
 5   0  0.3006265E-05  0.2311997E+04  0.7818609E-02  0.8473206E-01
        1   -1    0    0  501    0  0.00000000000E+00  0.00000000000E+00  0.15119482274E+04  0.15119482274E+04  0.50400001928E-02 0. -1.
       -1   -1    0    0    0  501  0.00000000000E+00  0.00000000000E+00 -0.88384819663E+03  0.88384819665E+03  0.50400001928E-02 0.  1.
    10030    2    1    2    0    0  0.00000000000E+00  0.00000000000E+00  0.62810003078E+03  0.23957964241E+04  0.23119971576E+04 0.  0.
        2    1    3    3  502    0  0.41527061846E+03 -0.10762511679E+04  0.39136288945E+03  0.12181671373E+04  0.25500000920E-02 0. -1.
       -2    1    3    3    0  502 -0.41527061846E+03  0.10762511679E+04  0.23673714132E+03  0.11776292868E+04  0.25500000920E-02 0.  1.
</event>
<event>
 5   0  0.2982385E-05  0.2270536E+04  0.7818609E-02  0.8489630E-01
        1   -1    0    0  501    0  0.00000000000E+00  0.00000000000E+00  0.19199455640E+04  0.19199455640E+04  0.50400001928E-02 0. -1.
       -1   -1    0    0    0  501  0.00000000000E+00  0.00000000000E+00 -0.67128666365E+03  0.67128666367E+03  0.50400001928E-02 0.  1.
    10030    2    1    2    0    0  0.00000000000E+00  0.00000000000E+00  0.12486589003E+04  0.25912322277E+04  0.22705363702E+04 0.  0.
        4    1    3    3  502    0 -0.32049700636E+03  0.98054645458E+03  0.11652380569E+04  0.15562683004E+04  0.12699999809E+01 0. -1.
       -4    1    3    3    0  502  0.32049700636E+03 -0.98054645458E+03  0.83420843404E+02  0.10349639272E+04  0.12699999809E+01 0.  1.
</event>
<event>
 5   0  0.6814789E-05  0.2282046E+04  0.7818609E-02  0.8485034E-01
       -2   -1    0    0    0  501  0.00000000000E+00  0.00000000000E+00  0.10918902974E+04  0.10918902974E+04  0.25500000920E-02 0. -1.
        2   -1    0    0  501    0  0.00000000000E+00  0.00000000000E+00 -0.11923665566E+04  0.11923665566E+04  0.25500000920E-02 0.  1.
    10030    2    1    2    0    0  0.00000000000E+00  0.00000000000E+00 -0.10047625922E+03  0.22842568540E+04  0.22820459891E+04 0.  0.
        1    1    3    3  502    0  0.10184775465E+04  0.28559609266E+03 -0.47852159641E+03  0.11609670793E+04  0.50400001928E-02 0.  1.
       -1    1    3    3    0  502 -0.10184775465E+04 -0.28559609266E+03  0.37804533719E+03  0.11232897747E+04  0.50400001928E-02 0. -1.
</event>
<event>
 5   0  0.2962279E-05  0.2318322E+04  0.7818609E-02  0.8470732E-01
       -1   -1    0    0    0  501  0.00000000000E+00  0.00000000000E+00  0.11157430602E+04  0.11157430602E+04  0.50400001928E-02 0.  1.
        1   -1    0    0  501    0  0.00000000000E+00  0.00000000000E+00 -0.12042685914E+04  0.12042685914E+04  0.50400001928E-02 0. -1.
    10030    2    1    2    0    0  0.00000000000E+00  0.00000000000E+00 -0.88525531204E+02  0.23200116516E+04  0.23183220859E+04 0.  0.
        1    1    3    3  502    0 -0.30925806935E+03 -0.31296586176E+03 -0.11174556930E+04  0.12009560400E+04  0.50400001928E-02 0. -1.
       -1    1    3    3    0  502  0.30925806935E+03  0.31296586176E+03  0.10289301618E+04  0.11190556116E+04  0.50400001928E-02 0.  1.
</event>
<event>
 5   0  0.2982385E-05  0.2254489E+04  0.7818609E-02  0.8496085E-01
        1   -1    0    0  501    0  0.00000000000E+00  0.00000000000E+00  0.15022754038E+04  0.15022754038E+04  0.50400001928E-02 0.  1.
       -1   -1    0    0    0  501  0.00000000000E+00  0.00000000000E+00 -0.84583687574E+03  0.84583687576E+03  0.50400001928E-02 0. -1.
    10030    2    1    2    0    0  0.00000000000E+00  0.00000000000E+00  0.65643852806E+03  0.23481122796E+04  0.22544887971E+04 0.  0.
        4    1    3    3  502    0  0.58996543885E+03 -0.36758450397E+03  0.12524837414E+04  0.14324436191E+04  0.12699999809E+01 0.  1.
       -4    1    3    3    0  502 -0.58996543885E+03  0.36758450397E+03 -0.59604521330E+03  0.91566866048E+03  0.12699999809E+01 0. -1.
</event>
<event>
 5   0  0.6676612E-05  0.2310971E+04  0.7818609E-02  0.8473608E-01
        2   -1    0    0  501    0  0.00000000000E+00  0.00000000000E+00  0.11074769621E+04  0.11074769621E+04  0.25500000920E-02 0.  1.
       -2   -1    0    0    0  501  0.00000000000E+00  0.00000000000E+00 -0.12055755914E+04  0.12055755914E+04  0.25500000920E-02 0. -1.
    10030    2    1    2    0    0  0.00000000000E+00  0.00000000000E+00 -0.98098629305E+02  0.23130525535E+04  0.23109713919E+04 0.  0.
        2    1    3    3  502    0  0.63906627596E+03  0.16871253149E+03  0.89957927393E+03  0.11162940891E+04  0.25500000920E-02 0.  1.
       -2    1    3    3    0  502 -0.63906627596E+03 -0.16871253149E+03 -0.99767790323E+03  0.11967584643E+04  0.25500000920E-02 0. -1.
</event>
<event>
 5   0  0.6676612E-05  0.2173681E+04  0.7818609E-02  0.8529463E-01
       -2   -1    0    0    0  501  0.00000000000E+00  0.00000000000E+00  0.18946696084E+04  0.18946696084E+04  0.25500000920E-02 0. -1.
        2   -1    0    0  501    0  0.00000000000E+00  0.00000000000E+00 -0.62344481894E+03  0.62344481894E+03  0.25500000920E-02 0.  1.
    10030    2    1    2    0    0  0.00000000000E+00  0.00000000000E+00  0.12712247895E+04  0.25181144274E+04  0.21736807042E+04 0.  0.
        2    1    3    3  502    0  0.28548775774E+03 -0.99150359799E+03  0.23997058915E+03  0.10593245623E+04  0.25500000920E-02 0.  1.
       -2    1    3    3    0  502 -0.28548775774E+03  0.99150359799E+03  0.10312542003E+04  0.14587898650E+04  0.25500000920E-02 0. -1.
</event>
<event>
 5   0  0.6495405E-05  0.2307337E+04  0.7818609E-02  0.8475034E-01
        2   -1    0    0  501    0  0.00000000000E+00  0.00000000000E+00  0.14455568928E+04  0.14455568928E+04  0.25500000920E-02 0.  1.
       -2   -1    0    0    0  501  0.00000000000E+00  0.00000000000E+00 -0.92071891696E+03  0.92071891696E+03  0.25500000920E-02 0. -1.
    10030    2    1    2    0    0  0.00000000000E+00  0.00000000000E+00  0.52483797585E+03  0.23662758098E+04  0.23073374931E+04 0.  0.
        5    1    3    3  502    0 -0.15158847166E+03 -0.40450200103E+03  0.13594770367E+04  0.14264644534E+04  0.46999998093E+01 0.  1.
       -5    1    3    3    0  502  0.15158847166E+03  0.40450200103E+03 -0.83463906086E+03  0.93981135634E+03  0.46999998093E+01 0. -1.
</event>
<event>
 5   0  0.6814789E-05  0.2308551E+04  0.7818609E-02  0.8474557E-01
        2   -1    0    0  501    0  0.00000000000E+00  0.00000000000E+00  0.83324795527E+03  0.83324795528E+03  0.25500000920E-02 0.  1.
       -2   -1    0    0    0  501  0.00000000000E+00  0.00000000000E+00 -0.15989866134E+04  0.15989866134E+04  0.25500000920E-02 0. -1.
    10030    2    1    2    0    0  0.00000000000E+00  0.00000000000E+00 -0.76573865811E+03  0.24322345687E+04  0.23085513433E+04 0.  0.
        1    1    3    3  502    0  0.76048933519E+03  0.29375871259E+01 -0.12977227071E+04  0.15041399147E+04  0.50400001928E-02 0. -1.
       -1    1    3    3    0  502 -0.76048933519E+03 -0.29375871259E+01  0.53198404899E+03  0.92809465399E+03  0.50400001928E-02 0.  1.
</event>
<event>
 5   0  0.3118614E-05  0.2294852E+04  0.7818609E-02  0.8479954E-01
        1   -1    0    0  501    0  0.00000000000E+00  0.00000000000E+00  0.14973671416E+04  0.14973671416E+04  0.50400001928E-02 0.  1.
       -1   -1    0    0    0  501  0.00000000000E+00  0.00000000000E+00 -0.87926730862E+03  0.87926730864E+03  0.50400001928E-02 0. -1.
    10030    2    1    2    0    0  0.00000000000E+00  0.00000000000E+00  0.61809983293E+03  0.23766344502E+04  0.22948516088E+04 0.  0.
        3    1    3    3  502    0  0.10892491865E+04 -0.22436343316E+03  0.16524520280E+02  0.11122390977E+04  0.10100000352E+00 0.  1.
       -3    1    3    3    0  502 -0.10892491865E+04  0.22436343316E+03  0.60157531265E+03  0.12643953525E+04  0.10100000352E+00 0. -1.
</event>
<event>
 5   0  0.6702421E-05  0.2285007E+04  0.7818609E-02  0.8483856E-01
       -2   -1    0    0    0  501  0.00000000000E+00  0.00000000000E+00  0.89907009327E+03  0.89907009328E+03  0.25500000920E-02 0.  1.
        2   -1    0    0  501    0  0.00000000000E+00  0.00000000000E+00 -0.14518486375E+04  0.14518486375E+04  0.25500000920E-02 0. -1.
    10030    2    1    2    0    0  0.00000000000E+00  0.00000000000E+00 -0.55277854424E+03  0.23509187308E+04  0.22850065120E+04 0.  0.
        4    1    3    3  502    0  0.27517657795E+03 -0.93146874549E+03 -0.89537125327E+03  0.13210024478E+04  0.12699999809E+01 0. -1.
       -4    1    3    3    0  502 -0.27517657795E+03  0.93146874549E+03  0.34259270903E+03  0.10299162830E+04  0.12699999809E+01 0.  1.
</event>
<event>
 5   0  0.6495405E-05  0.2331652E+04  0.7818609E-02  0.8465545E-01
       -2   -1    0    0    0  501  0.00000000000E+00  0.00000000000E+00  0.29478037096E+04  0.29478037096E+04  0.25500000920E-02 0. -1.
        2   -1    0    0  501    0  0.00000000000E+00  0.00000000000E+00 -0.46107204806E+03  0.46107204807E+03  0.25500000920E-02 0.  1.
    10030    2    1    2    0    0  0.00000000000E+00  0.00000000000E+00  0.24867316615E+04  0.34088757577E+04  0.23316516838E+04 0.  0.
        5    1    3    3  502    0  0.91125393962E+02  0.61244907406E+03 -0.20078432142E+03  0.65094864580E+03  0.46999998093E+01 0.  1.
       -5    1    3    3    0  502 -0.91125393962E+02 -0.61244907406E+03  0.26875159830E+04  0.27579271119E+04  0.46999998093E+01 0. -1.
</event>
<event>
 5   0  0.6468758E-05  0.2244870E+04  0.7818609E-02  0.8499981E-01
        2   -1    0    0  501    0  0.00000000000E+00  0.00000000000E+00  0.90056662067E+03  0.90056662067E+03  0.25500000920E-02 0. -1.
       -2   -1    0    0    0  501  0.00000000000E+00  0.00000000000E+00 -0.13989640353E+04  0.13989640353E+04  0.25500000920E-02 0.  1.
    10030    2    1    2    0    0  0.00000000000E+00  0.00000000000E+00 -0.49839741458E+03  0.22995306559E+04  0.22448699861E+04 0.  0.
        3    1    3    3  502    0 -0.82158072705E+03  0.27275640655E+03  0.48266944315E+03  0.99114113522E+03  0.10100000352E+00 0. -1.
       -3    1    3    3    0  502  0.82158072705E+03 -0.27275640655E+03 -0.98106685773E+03  0.13083895207E+04  0.10100000352E+00 0.  1.
</event>
<event>
 5   0  0.2962279E-05  0.2297347E+04  0.7818609E-02  0.8478968E-01
       -1   -1    0    0    0  501  0.00000000000E+00  0.00000000000E+00  0.75418381058E+03  0.75418381059E+03  0.50400001928E-02 0.  1.
        1   -1    0    0  501    0  0.00000000000E+00  0.00000000000E+00 -0.17495080592E+04  0.17495080592E+04  0.50400001928E-02 0. -1.
    10030    2    1    2    0    0  0.00000000000E+00  0.00000000000E+00 -0.99532424865E+03  0.25036918698E+04  0.22973468652E+04 0.  0.
        1    1    3    3  502    0  0.10006146279E+03 -0.91106580905E+03 -0.12522366975E+04  0.15518214947E+04  0.50400001928E-02 0. -1.
       -1    1    3    3    0  502 -0.10006146279E+03  0.91106580905E+03  0.25691244883E+03  0.95187037517E+03  0.50400001928E-02 0.  1.
</event>
<event>
 5   0  0.2342500E-05  0.2294008E+04  0.7818609E-02  0.8480287E-01
       -4   -1    0    0    0  501  0.00000000000E+00  0.00000000000E+00  0.72726139131E+03  0.72726250019E+03  0.12699999809E+01 0.  1.
        4   -1    0    0  501    0  0.00000000000E+00  0.00000000000E+00 -0.18090004004E+04  0.18090008462E+04  0.12699999809E+01 0. -1.
    10030    2    1    2    0    0  0.00000000000E+00  0.00000000000E+00 -0.10817390090E+04  0.25362633463E+04  0.22940079508E+04 0.  0.
        3    1    3    3  502    0  0.11416676715E+04  0.97043619279E+02 -0.48241272755E+03  0.12431993348E+04  0.10100000352E+00 0.  1.
       -3    1    3    3    0  502 -0.11416676715E+04 -0.97043619279E+02 -0.59932628149E+03  0.12930640116E+04  0.10100000352E+00 0. -1.
</event>
<event>
 5   0  0.3006265E-05  0.2223808E+04  0.7818609E-02  0.8508584E-01
        1   -1    0    0  501    0  0.00000000000E+00  0.00000000000E+00  0.13297577955E+04  0.13297577955E+04  0.50400001928E-02 0.  1.
       -1   -1    0    0    0  501  0.00000000000E+00  0.00000000000E+00 -0.92974118589E+03  0.92974118590E+03  0.50400001928E-02 0. -1.
    10030    2    1    2    0    0  0.00000000000E+00  0.00000000000E+00  0.40001660964E+03  0.22594989814E+04  0.22238080761E+04 0.  0.
        2    1    3    3  502    0 -0.76221195803E+01  0.56730315697E+03  0.11716191736E+04  0.13017612902E+04  0.25500000920E-02 0.  1.
       -2    1    3    3    0  502  0.76221195803E+01 -0.56730315697E+03 -0.77160256395E+03  0.95773769129E+03  0.25500000920E-02 0. -1.
</event>
<event>
 5   0  0.6676612E-05  0.2226030E+04  0.7818609E-02  0.8507671E-01
       -2   -1    0    0    0  501  0.00000000000E+00  0.00000000000E+00  0.96867338373E+03  0.96867338373E+03  0.25500000920E-02 0.  1.
        2   -1    0    0  501    0  0.00000000000E+00  0.00000000000E+00 -0.12788654350E+04  0.12788654350E+04  0.25500000920E-02 0. -1.
    10030    2    1    2    0    0  0.00000000000E+00  0.00000000000E+00 -0.31019205128E+03  0.22475388187E+04  0.22260304654E+04 0.  0.
        2    1    3    3  502    0 -0.73503209691E+03  0.52849199217E+03  0.49863739627E+03  0.10335449783E+04  0.25500000920E-02 0.  1.
       -2    1    3    3    0  502  0.73503209691E+03 -0.52849199217E+03 -0.80882944755E+03  0.12139938404E+04  0.25500000920E-02 0. -1.
</event>
<event>
 5   0  0.6702421E-05  0.2282776E+04  0.7818609E-02  0.8484743E-01
        2   -1    0    0  501    0  0.00000000000E+00  0.00000000000E+00  0.23859878596E+04  0.23859878596E+04  0.25500000920E-02 0.  1.
       -2   -1    0    0    0  501  0.00000000000E+00  0.00000000000E+00 -0.54600723824E+03  0.54600723824E+03  0.25500000920E-02 0. -1.
    10030    2    1    2    0    0  0.00000000000E+00  0.00000000000E+00  0.18399806214E+04  0.29319950979E+04  0.22827760659E+04 0.  0.
        4    1    3    3  502    0 -0.11397576297E+04 -0.53780677269E+02  0.95688662687E+03  0.14891519215E+04  0.12699999809E+01 0.  1.
       -4    1    3    3    0  502  0.11397576297E+04  0.53780677269E+02  0.88309399454E+03  0.14428431764E+04  0.12699999809E+01 0. -1.
</event>
<event>
 5   0  0.6495405E-05  0.2202633E+04  0.7818609E-02  0.8517333E-01
        2   -1    0    0  501    0  0.00000000000E+00  0.00000000000E+00  0.22278327922E+04  0.22278327922E+04  0.25500000920E-02 0.  1.
       -2   -1    0    0    0  501  0.00000000000E+00  0.00000000000E+00 -0.54442958044E+03  0.54442958044E+03  0.25500000920E-02 0. -1.
    10030    2    1    2    0    0  0.00000000000E+00  0.00000000000E+00  0.16834032117E+04  0.27722623726E+04  0.22026330356E+04 0.  0.
        5    1    3    3  502    0  0.16553110071E+03 -0.89754840685E+03  0.65960673143E+02  0.91507736741E+03  0.46999998093E+01 0. -1.
       -5    1    3    3    0  502 -0.16553110071E+03  0.89754840685E+03  0.16174425386E+04  0.18571850052E+04  0.46999998093E+01 0.  1.
</event>
<event>
 5   0  0.2962279E-05  0.2293670E+04  0.7818609E-02  0.8480421E-01
       -1   -1    0    0    0  501  0.00000000000E+00  0.00000000000E+00  0.65186006418E+03  0.65186006420E+03  0.50400001928E-02 0.  1.
        1   -1    0    0  501    0  0.00000000000E+00  0.00000000000E+00 -0.20176571757E+04  0.20176571757E+04  0.50400001928E-02 0. -1.
    10030    2    1    2    0    0  0.00000000000E+00  0.00000000000E+00 -0.13657971115E+04  0.26695172399E+04  0.22936696676E+04 0.  0.
        1    1    3    3  502    0 -0.83500912386E+03  0.57716254259E+03 -0.13040932400E+04  0.16525785961E+04  0.50400001928E-02 0. -1.
       -1    1    3    3    0  502  0.83500912386E+03 -0.57716254259E+03 -0.61703871469E+02  0.10169386438E+04  0.50400001928E-02 0.  1.
</event>
<event>
 5   0  0.2982385E-05  0.1961549E+04  0.7818609E-02  0.8624812E-01
        1   -1    0    0  501    0  0.00000000000E+00  0.00000000000E+00  0.99992933936E+03  0.99992933937E+03  0.50400001928E-02 0.  1.
       -1   -1    0    0    0  501  0.00000000000E+00  0.00000000000E+00 -0.96198676140E+03  0.96198676141E+03  0.50400001928E-02 0. -1.
    10030    2    1    2    0    0  0.00000000000E+00  0.00000000000E+00  0.37942577956E+02  0.19619161008E+04  0.19615491702E+04 0.  0.
        4    1    3    3  502    0  0.43717854536E+03  0.27861527325E+03 -0.81375013894E+03  0.96485359125E+03  0.12699999809E+01 0.  1.
       -4    1    3    3    0  502 -0.43717854536E+03 -0.27861527325E+03  0.85169271690E+03  0.99706250954E+03  0.12699999809E+01 0. -1.
</event>
<event>
 5   0  0.6676612E-05  0.2264916E+04  0.7818609E-02  0.8491884E-01
       -2   -1    0    0    0  501  0.00000000000E+00  0.00000000000E+00  0.98248795439E+03  0.98248795440E+03  0.25500000920E-02 0.  1.
        2   -1    0    0  501    0  0.00000000000E+00  0.00000000000E+00 -0.13053197192E+04  0.13053197192E+04  0.25500000920E-02 0. -1.
    10030    2    1    2    0    0  0.00000000000E+00  0.00000000000E+00 -0.32283176478E+03  0.22878076736E+04  0.22649158048E+04 0.  0.
        2    1    3    3  502    0  0.10538893085E+04  0.12892267824E+03 -0.55929704088E+03  0.12000487121E+04  0.25500000920E-02 0. -1.
       -2    1    3    3    0  502 -0.10538893085E+04 -0.12892267824E+03  0.23646527610E+03  0.10877589615E+04  0.25500000920E-02 0.  1.
</event>
<event>
 5   0  0.6814789E-05  0.1926725E+04  0.7818609E-02  0.8641667E-01
       -2   -1    0    0    0  501  0.00000000000E+00  0.00000000000E+00  0.81600209179E+03  0.81600209179E+03  0.25500000920E-02 0. -1.
        2   -1    0    0  501    0  0.00000000000E+00  0.00000000000E+00 -0.11373349477E+04  0.11373349477E+04  0.25500000920E-02 0.  1.
    10030    2    1    2    0    0  0.00000000000E+00  0.00000000000E+00 -0.32133285592E+03  0.19533370395E+04  0.19267254048E+04 0.  0.
        1    1    3    3  502    0 -0.51911002624E+03 -0.58678641164E+03 -0.72901099829E+03  0.10701637949E+04  0.50400001928E-02 0.  1.
       -1    1    3    3    0  502  0.51911002624E+03  0.58678641164E+03  0.40767814236E+03  0.88317324462E+03  0.50400001928E-02 0. -1.
</event>
<event>
 5   0  0.6814789E-05  0.2189467E+04  0.7818609E-02  0.8522825E-01
        2   -1    0    0  501    0  0.00000000000E+00  0.00000000000E+00  0.19772657068E+04  0.19772657068E+04  0.25500000920E-02 0.  1.
       -2   -1    0    0    0  501  0.00000000000E+00  0.00000000000E+00 -0.60611038129E+03  0.60611038129E+03  0.25500000920E-02 0. -1.
    10030    2    1    2    0    0  0.00000000000E+00  0.00000000000E+00  0.13711553255E+04  0.25833760881E+04  0.21894668497E+04 0.  0.
        1    1    3    3  502    0  0.90001229007E+03  0.55984477000E+03  0.10086944894E+04  0.14631858603E+04  0.50400001928E-02 0. -1.
       -1    1    3    3    0  502 -0.90001229007E+03 -0.55984477000E+03  0.36246083616E+03  0.11201902278E+04  0.50400001928E-02 0.  1.
</event>
<event>
 5   0  0.3006265E-05  0.2277022E+04  0.7818609E-02  0.8487037E-01
       -1   -1    0    0    0  501  0.00000000000E+00  0.00000000000E+00  0.98096817796E+03  0.98096817797E+03  0.50400001928E-02 0.  1.
        1   -1    0    0  501    0  0.00000000000E+00  0.00000000000E+00 -0.13213545865E+04  0.13213545865E+04  0.50400001928E-02 0. -1.
    10030    2    1    2    0    0  0.00000000000E+00  0.00000000000E+00 -0.34038640850E+03  0.23023227644E+04  0.22770215644E+04 0.  0.
        2    1    3    3  502    0 -0.26799748238E+03 -0.10205617343E+04  0.26215351998E+03  0.10872411748E+04  0.25500000920E-02 0.  1.
       -2    1    3    3    0  502  0.26799748238E+03  0.10205617343E+04 -0.60253992849E+03  0.12150815897E+04  0.25500000920E-02 0. -1.
</event>
<event>
 5   0  0.6495405E-05  0.2310327E+04  0.7818609E-02  0.8473860E-01
       -2   -1    0    0    0  501  0.00000000000E+00  0.00000000000E+00  0.12436562606E+04  0.12436562606E+04  0.25500000920E-02 0. -1.
        2   -1    0    0  501    0  0.00000000000E+00  0.00000000000E+00 -0.10729678781E+04  0.10729678781E+04  0.25500000920E-02 0.  1.
    10030    2    1    2    0    0  0.00000000000E+00  0.00000000000E+00  0.17068838250E+03  0.23166241387E+04  0.23103274392E+04 0.  0.
        5    1    3    3  502    0 -0.21348458037E+03 -0.84865344440E+03  0.84145024797E+03  0.12140218056E+04  0.46999998093E+01 0. -1.
       -5    1    3    3    0  502  0.21348458037E+03  0.84865344440E+03 -0.67076186546E+03  0.11026023331E+04  0.46999998093E+01 0.  1.
</event>
<event>
 5   0  0.2982385E-05  0.2300507E+04  0.7818609E-02  0.8477721E-01
       -1   -1    0    0    0  501  0.00000000000E+00  0.00000000000E+00  0.85147029846E+03  0.85147029847E+03  0.50400001928E-02 0.  1.
        1   -1    0    0  501    0  0.00000000000E+00  0.00000000000E+00 -0.15538801565E+04  0.15538801565E+04  0.50400001928E-02 0. -1.
    10030    2    1    2    0    0  0.00000000000E+00  0.00000000000E+00 -0.70240985807E+03  0.24053504550E+04  0.23005067274E+04 0.  0.
        4    1    3    3  502    0 -0.67257743847E+03  0.98717249413E+02  0.61897055523E+03  0.91936481725E+03  0.12699999809E+01 0.  1.
       -4    1    3    3    0  502  0.67257743847E+03 -0.98717249413E+02 -0.13213804133E+04  0.14859856378E+04  0.12699999809E+01 0. -1.
</event>
<event>
 5   0  0.2962279E-05  0.2252848E+04  0.7818609E-02  0.8496748E-01
       -1   -1    0    0    0  501  0.00000000000E+00  0.00000000000E+00  0.11173347593E+04  0.11173347593E+04  0.50400001928E-02 0.  1.
        1   -1    0    0  501    0  0.00000000000E+00  0.00000000000E+00 -0.11355870821E+04  0.11355870821E+04  0.50400001928E-02 0. -1.
    10030    2    1    2    0    0  0.00000000000E+00  0.00000000000E+00 -0.18252322795E+02  0.22529218413E+04  0.22528479034E+04 0.  0.
        1    1    3    3  502    0 -0.30813380332E+03 -0.25083206004E+03 -0.10631853061E+04  0.11350005102E+04  0.50400001928E-02 0. -1.
       -1    1    3    3    0  502  0.30813380332E+03  0.25083206004E+03  0.10449329833E+04  0.11179213311E+04  0.50400001928E-02 0.  1.
</event>
<event>
 5   0  0.2962279E-05  0.2311713E+04  0.7818609E-02  0.8473317E-01
       -1   -1    0    0    0  501  0.00000000000E+00  0.00000000000E+00  0.75152535040E+03  0.75152535042E+03  0.50400001928E-02 0. -1.
        1   -1    0    0  501    0  0.00000000000E+00  0.00000000000E+00 -0.17777237706E+04  0.17777237706E+04  0.50400001928E-02 0.  1.
    10030    2    1    2    0    0  0.00000000000E+00  0.00000000000E+00 -0.10261984201E+04  0.25292491210E+04  0.23117131999E+04 0.  0.
        1    1    3    3  502    0  0.29646771551E+03  0.17029653840E+03  0.69493486348E+03  0.77448594683E+03  0.50400001928E-02 0. -1.
       -1    1    3    3    0  502 -0.29646771551E+03 -0.17029653840E+03 -0.17211332836E+04  0.17547631742E+04  0.50400001928E-02 0.  1.
</event>
<event>
 5   0  0.3006265E-05  0.2307847E+04  0.7818609E-02  0.8474834E-01
       -1   -1    0    0    0  501  0.00000000000E+00  0.00000000000E+00  0.86083495573E+03  0.86083495575E+03  0.50400001928E-02 0. -1.
        1   -1    0    0  501    0  0.00000000000E+00  0.00000000000E+00 -0.15467998419E+04  0.15467998419E+04  0.50400001928E-02 0.  1.
    10030    2    1    2    0    0  0.00000000000E+00  0.00000000000E+00 -0.68596488617E+03  0.24076347977E+04  0.23078469390E+04 0.  0.
        2    1    3    3  502    0 -0.10810547944E+04 -0.17299451794E+03 -0.72334669042E+03  0.13121878701E+04  0.25500000920E-02 0. -1.
       -2    1    3    3    0  502  0.10810547944E+04  0.17299451794E+03  0.37381804253E+02  0.10954469276E+04  0.25500000920E-02 0.  1.
</event>
<event>
 5   0  0.2962279E-05  0.2335613E+04  0.7818609E-02  0.8464010E-01
       -1   -1    0    0    0  501  0.00000000000E+00  0.00000000000E+00  0.55422783929E+03  0.55422783931E+03  0.50400001928E-02 0. -1.
        1   -1    0    0  501    0  0.00000000000E+00  0.00000000000E+00 -0.24606712378E+04  0.24606712378E+04  0.50400001928E-02 0.  1.
    10030    2    1    2    0    0  0.00000000000E+00  0.00000000000E+00 -0.19064433985E+04  0.30148990771E+04  0.23356134127E+04 0.  0.
        1    1    3    3  502    0 -0.33390831904E+03  0.40523940310E+03  0.39325236961E+03  0.65601918080E+03  0.50400001928E-02 0. -1.
       -1    1    3    3    0  502  0.33390831904E+03 -0.40523940310E+03 -0.22996957681E+04  0.23588798963E+04  0.50400001928E-02 0.  1.
</event>
<event>
 5   0  0.6468758E-05  0.2274859E+04  0.7818609E-02  0.8487900E-01
       -2   -1    0    0    0  501  0.00000000000E+00  0.00000000000E+00  0.13421833298E+04  0.13421833298E+04  0.25500000920E-02 0.  1.
        2   -1    0    0  501    0  0.00000000000E+00  0.00000000000E+00 -0.96391156268E+03  0.96391156268E+03  0.25500000920E-02 0. -1.
    10030    2    1    2    0    0  0.00000000000E+00  0.00000000000E+00  0.37827176712E+03  0.23060948925E+04  0.22748591436E+04 0.  0.
        3    1    3    3  502    0  0.34792140410E+03  0.42377436606E+03 -0.82109764621E+03  0.98733751654E+03  0.10100000352E+00 0. -1.
       -3    1    3    3    0  502 -0.34792140410E+03 -0.42377436606E+03  0.11993694133E+04  0.13187573759E+04  0.10100000352E+00 0.  1.
</event>
<event>
 5   0  0.3118614E-05  0.2274039E+04  0.7818609E-02  0.8488228E-01
        1   -1    0    0  501    0  0.00000000000E+00  0.00000000000E+00  0.89049448486E+03  0.89049448487E+03  0.50400001928E-02 0. -1.
       -1   -1    0    0    0  501  0.00000000000E+00  0.00000000000E+00 -0.14517929240E+04  0.14517929240E+04  0.50400001928E-02 0.  1.
    10030    2    1    2    0    0  0.00000000000E+00  0.00000000000E+00 -0.56129843912E+03  0.23422874089E+04  0.22740392187E+04 0.  0.
        3    1    3    3  502    0 -0.13384612249E+03  0.87710666175E+03  0.45173391782E+03  0.99563769680E+03  0.10100000352E+00 0. -1.
       -3    1    3    3    0  502  0.13384612249E+03 -0.87710666175E+03 -0.10130323569E+04  0.13466497121E+04  0.10100000352E+00 0.  1.
</event>
<event>
 5   0  0.6702421E-05  0.2239348E+04  0.7818609E-02  0.8502227E-01
        2   -1    0    0  501    0  0.00000000000E+00  0.00000000000E+00  0.11366877073E+04  0.11366877073E+04  0.25500000920E-02 0. -1.
       -2   -1    0    0    0  501  0.00000000000E+00  0.00000000000E+00 -0.11029151769E+04  0.11029151769E+04  0.25500000920E-02 0.  1.
    10030    2    1    2    0    0  0.00000000000E+00  0.00000000000E+00  0.33772530419E+02  0.22396028842E+04  0.22393482300E+04 0.  0.
        4    1    3    3  502    0 -0.10102797814E+04  0.47520290599E+03  0.10166307023E+03  0.11210798506E+04  0.12699999809E+01 0.  1.
       -4    1    3    3    0  502  0.10102797814E+04 -0.47520290599E+03 -0.67890539814E+02  0.11185230337E+04  0.12699999809E+01 0. -1.
</event>
<event>
 5   0  0.6468758E-05  0.2304413E+04  0.7818609E-02  0.8476183E-01
       -2   -1    0    0    0  501  0.00000000000E+00  0.00000000000E+00  0.22070077123E+04  0.22070077123E+04  0.25500000920E-02 0. -1.
        2   -1    0    0  501    0  0.00000000000E+00  0.00000000000E+00 -0.60152937619E+03  0.60152937620E+03  0.25500000920E-02 0.  1.
    10030    2    1    2    0    0  0.00000000000E+00  0.00000000000E+00  0.16054783362E+04  0.28085370885E+04  0.23044131335E+04 0.  0.
        3    1    3    3  502    0 -0.56550122590E+03 -0.37485198113E+03  0.19377449260E+04  0.20530857392E+04  0.10100000352E+00 0. -1.
       -3    1    3    3    0  502  0.56550122590E+03  0.37485198113E+03 -0.33226658984E+03  0.75545134931E+03  0.10100000352E+00 0.  1.
</event>
<event>
 5   0  0.6676612E-05  0.2332553E+04  0.7818609E-02  0.8465195E-01
        2   -1    0    0  501    0  0.00000000000E+00  0.00000000000E+00  0.76977903730E+03  0.76977903731E+03  0.25500000920E-02 0. -1.
       -2   -1    0    0    0  501  0.00000000000E+00  0.00000000000E+00 -0.17670021829E+04  0.17670021829E+04  0.25500000920E-02 0.  1.
    10030    2    1    2    0    0  0.00000000000E+00  0.00000000000E+00 -0.99722314564E+03  0.25367812203E+04  0.23325533128E+04 0.  0.
        2    1    3    3  502    0 -0.96143359338E+03 -0.12950761982E+03 -0.12026510842E+04  0.15451525518E+04  0.25500000920E-02 0.  1.
       -2    1    3    3    0  502  0.96143359338E+03  0.12950761982E+03  0.20542793857E+03  0.99162866842E+03  0.25500000920E-02 0. -1.
</event>
<event>
 5   0  0.2944089E-05  0.2413386E+04  0.7818609E-02  0.8434509E-01
        1   -1    0    0  501    0  0.00000000000E+00  0.00000000000E+00  0.10121233643E+04  0.10121233644E+04  0.50400001928E-02 0. -1.
       -1   -1    0    0    0  501  0.00000000000E+00  0.00000000000E+00 -0.14386661871E+04  0.14386661871E+04  0.50400001928E-02 0.  1.
    10030    2    1    2    0    0  0.00000000000E+00  0.00000000000E+00 -0.42654282275E+03  0.24507895515E+04  0.24133857226E+04 0.  0.
        5    1    3    3  502    0  0.10407775440E+04 -0.41464035198E+03 -0.66848332396E+03  0.13046212332E+04  0.46999998093E+01 0. -1.
       -5    1    3    3    0  502 -0.10407775440E+04  0.41464035198E+03  0.24194050120E+03  0.11461683183E+04  0.46999998093E+01 0.  1.
</event>
<event>
 5   0  0.2962279E-05  0.2323273E+04  0.7818609E-02  0.8468801E-01
       -1   -1    0    0    0  501  0.00000000000E+00  0.00000000000E+00  0.20113821675E+04  0.20113821676E+04  0.50400001928E-02 0. -1.
        1   -1    0    0  501    0  0.00000000000E+00  0.00000000000E+00 -0.67088179968E+03  0.67088179970E+03  0.50400001928E-02 0.  1.
    10030    2    1    2    0    0  0.00000000000E+00  0.00000000000E+00  0.13405003679E+04  0.26822639673E+04  0.23232732843E+04 0.  0.
        1    1    3    3  502    0 -0.77485231497E+03 -0.23875908120E+03 -0.29015287822E+03  0.86115660692E+03  0.50400001928E-02 0.  1.
       -1    1    3    3    0  502  0.77485231497E+03  0.23875908120E+03  0.16306532461E+04  0.18211073603E+04  0.50400001928E-02 0. -1.
</event>
<event>
 5   0  0.6702421E-05  0.2288493E+04  0.7818609E-02  0.8482472E-01
        2   -1    0    0  501    0  0.00000000000E+00  0.00000000000E+00  0.11433285102E+04  0.11433285102E+04  0.25500000920E-02 0.  1.
       -2   -1    0    0    0  501  0.00000000000E+00  0.00000000000E+00 -0.11451651456E+04  0.11451651456E+04  0.25500000920E-02 0. -1.
    10030    2    1    2    0    0  0.00000000000E+00  0.00000000000E+00 -0.18366353496E+01  0.22884936558E+04  0.22884929188E+04 0.  0.
        4    1    3    3  502    0 -0.79426911998E+03 -0.50363275805E+03  0.65084025004E+03  0.11437237577E+04  0.12699999809E+01 0.  1.
       -4    1    3    3    0  502  0.79426911998E+03  0.50363275805E+03 -0.65267688539E+03  0.11447698981E+04  0.12699999809E+01 0. -1.
</event>
<event>
 5   0  0.6702421E-05  0.2307719E+04  0.7818609E-02  0.8474884E-01
        2   -1    0    0  501    0  0.00000000000E+00  0.00000000000E+00  0.24353846148E+04  0.24353846148E+04  0.25500000920E-02 0. -1.
       -2   -1    0    0    0  501  0.00000000000E+00  0.00000000000E+00 -0.54668642541E+03  0.54668642541E+03  0.25500000920E-02 0.  1.
    10030    2    1    2    0    0  0.00000000000E+00  0.00000000000E+00  0.18886981894E+04  0.29820710402E+04  0.23077189686E+04 0.  0.
        4    1    3    3  502    0 -0.45510702965E+03 -0.36777934051E+03 -0.34074384744E+03  0.67712039861E+03  0.12699999809E+01 0.  1.
       -4    1    3    3    0  502  0.45510702965E+03  0.36777934051E+03  0.22294420368E+04  0.23049506416E+04  0.12699999809E+01 0. -1.
</event>
<event>
 5   0  0.6495405E-05  0.2339065E+04  0.7818609E-02  0.8462676E-01
       -2   -1    0    0    0  501  0.00000000000E+00  0.00000000000E+00  0.13192557832E+04  0.13192557832E+04  0.25500000920E-02 0.  1.
        2   -1    0    0  501    0  0.00000000000E+00  0.00000000000E+00 -0.10368015320E+04  0.10368015320E+04  0.25500000920E-02 0. -1.
    10030    2    1    2    0    0  0.00000000000E+00  0.00000000000E+00  0.28245425125E+03  0.23560573152E+04  0.23390651270E+04 0.  0.
        5    1    3    3  502    0 -0.10950207445E+04 -0.26711989967E+02  0.55408317335E+03  0.12275236105E+04  0.46999998093E+01 0.  1.
       -5    1    3    3    0  502  0.10950207445E+04  0.26711989967E+02 -0.27162892210E+03  0.11285337047E+04  0.46999998093E+01 0. -1.
</event>
<event>
 5   0  0.6468758E-05  0.2280118E+04  0.7818609E-02  0.8485802E-01
       -2   -1    0    0    0  501  0.00000000000E+00  0.00000000000E+00  0.71747833011E+03  0.71747833011E+03  0.25500000920E-02 0. -1.
        2   -1    0    0  501    0  0.00000000000E+00  0.00000000000E+00 -0.18115307307E+04  0.18115307307E+04  0.25500000920E-02 0.  1.
    10030    2    1    2    0    0  0.00000000000E+00  0.00000000000E+00 -0.10940524006E+04  0.25290090608E+04  0.22801175791E+04 0.  0.
        3    1    3    3  502    0  0.80449271335E+02  0.61478099175E+03 -0.16081751867E+04  0.17235588746E+04  0.10100000352E+00 0.  1.
       -3    1    3    3    0  502 -0.80449271335E+02 -0.61478099175E+03  0.51412278607E+03  0.80545018619E+03  0.10100000352E+00 0. -1.
</event>
<event>
 5   0  0.6702421E-05  0.2249122E+04  0.7818609E-02  0.8498256E-01
       -2   -1    0    0    0  501  0.00000000000E+00  0.00000000000E+00  0.14398541778E+04  0.14398541778E+04  0.25500000920E-02 0.  1.
        2   -1    0    0  501    0  0.00000000000E+00  0.00000000000E+00 -0.87830946219E+03  0.87830946219E+03  0.25500000920E-02 0. -1.
    10030    2    1    2    0    0  0.00000000000E+00  0.00000000000E+00  0.56154471559E+03  0.23181636400E+04  0.22491220941E+04 0.  0.
        4    1    3    3  502    0 -0.11033538159E+03 -0.73096189328E+03 -0.59268293572E+03  0.94749873934E+03  0.12699999809E+01 0. -1.
       -4    1    3    3    0  502  0.11033538159E+03  0.73096189328E+03  0.11542276513E+04  0.13706649006E+04  0.12699999809E+01 0.  1.
</event>
<event>
 5   0  0.2944089E-05  0.2343895E+04  0.7818609E-02  0.8460812E-01
        1   -1    0    0  501    0  0.00000000000E+00  0.00000000000E+00  0.10235470582E+04  0.10235470582E+04  0.50400001928E-02 0.  1.
       -1   -1    0    0    0  501  0.00000000000E+00  0.00000000000E+00 -0.13418636869E+04  0.13418636869E+04  0.50400001928E-02 0. -1.
    10030    2    1    2    0    0  0.00000000000E+00  0.00000000000E+00 -0.31831662871E+03  0.23654107452E+04  0.23438947325E+04 0.  0.
        5    1    3    3  502    0 -0.42201320468E+03  0.81904927658E+03 -0.89003128807E+03  0.12810599698E+04  0.46999998093E+01 0. -1.
       -5    1    3    3    0  502  0.42201320468E+03 -0.81904927658E+03  0.57171465936E+03  0.10843507754E+04  0.46999998093E+01 0.  1.
</event>
<event>
 5   0  0.3006265E-05  0.2269760E+04  0.7818609E-02  0.8489941E-01
       -1   -1    0    0    0  501  0.00000000000E+00  0.00000000000E+00  0.13245272236E+04  0.13245272237E+04  0.50400001928E-02 0. -1.
        1   -1    0    0  501    0  0.00000000000E+00  0.00000000000E+00 -0.97238624409E+03  0.97238624411E+03  0.50400001928E-02 0.  1.
    10030    2    1    2    0    0  0.00000000000E+00  0.00000000000E+00  0.35214097955E+03  0.22969134678E+04  0.22697595046E+04 0.  0.
        2    1    3    3  502    0  0.87683318320E+02  0.37046595915E+03  0.12579812776E+04  0.13143250306E+04  0.25500000920E-02 0. -1.
       -2    1    3    3    0  502 -0.87683318320E+02 -0.37046595915E+03 -0.90584029808E+03  0.98258843715E+03  0.25500000920E-02 0.  1.
</event>
<event>
 5   0  0.6702421E-05  0.2272800E+04  0.7818609E-02  0.8488724E-01
       -2   -1    0    0    0  501  0.00000000000E+00  0.00000000000E+00  0.83805215148E+03  0.83805215149E+03  0.25500000920E-02 0. -1.
        2   -1    0    0  501    0  0.00000000000E+00  0.00000000000E+00 -0.15409596918E+04  0.15409596918E+04  0.25500000920E-02 0.  1.
    10030    2    1    2    0    0  0.00000000000E+00  0.00000000000E+00 -0.70290754029E+03  0.23790118433E+04  0.22727996700E+04 0.  0.
        4    1    3    3  502    0 -0.11114504646E+04  0.87616852606E+01 -0.10374279985E+03  0.11163167489E+04  0.12699999809E+01 0. -1.
       -4    1    3    3    0  502  0.11114504646E+04 -0.87616852606E+01 -0.59916474044E+03  0.12626950944E+04  0.12699999809E+01 0.  1.
</event>
<event>
 5   0  0.6468758E-05  0.2336187E+04  0.7818609E-02  0.8463788E-01
       -2   -1    0    0    0  501  0.00000000000E+00  0.00000000000E+00  0.10128706403E+04  0.10128706403E+04  0.25500000920E-02 0. -1.
        2   -1    0    0  501    0  0.00000000000E+00  0.00000000000E+00 -0.13471042759E+04  0.13471042759E+04  0.25500000920E-02 0.  1.
    10030    2    1    2    0    0  0.00000000000E+00  0.00000000000E+00 -0.33423363560E+03  0.23599749163E+04  0.23361869536E+04 0.  0.
        3    1    3    3  502    0 -0.42698388620E+03 -0.10816656533E+04 -0.27835865879E+03  0.11957421870E+04  0.10100000352E+00 0. -1.
       -3    1    3    3    0  502  0.42698388620E+03  0.10816656533E+04 -0.55874976813E+02  0.11642327293E+04  0.10100000352E+00 0.  1.
</event>
<event>
 5   0  0.2342500E-05  0.2303937E+04  0.7818609E-02  0.8476370E-01
        3   -1    0    0  501    0  0.00000000000E+00  0.00000000000E+00  0.88093034262E+03  0.88093034841E+03  0.10100000352E+00 0. -1.
       -3   -1    0    0    0  501  0.00000000000E+00  0.00000000000E+00 -0.15063981912E+04  0.15063981946E+04  0.10100000352E+00 0.  1.
    10030    2    1    2    0    0  0.00000000000E+00  0.00000000000E+00 -0.62546784859E+03  0.23873285430E+04  0.23039373999E+04 0.  0.
        4    1    3    3  502    0  0.21742921563E+03  0.12087336269E+03  0.85276417940E+03  0.88830973888E+03  0.12699999809E+01 0. -1.
       -4    1    3    3    0  502 -0.21742921563E+03 -0.12087336269E+03 -0.14782320280E+04  0.14990188041E+04  0.12699999809E+01 0.  1.
</event>
<event>
 5   0  0.6676612E-05  0.2204041E+04  0.7818609E-02  0.8516748E-01
        2   -1    0    0  501    0  0.00000000000E+00  0.00000000000E+00  0.12280255077E+04  0.12280255077E+04  0.25500000920E-02 0. -1.
       -2   -1    0    0    0  501  0.00000000000E+00  0.00000000000E+00 -0.98894490129E+03  0.98894490129E+03  0.25500000920E-02 0.  1.
    10030    2    1    2    0    0  0.00000000000E+00  0.00000000000E+00  0.23908060643E+03  0.22169704090E+04  0.22040413467E+04 0.  0.
        2    1    3    3  502    0  0.56728189358E+03 -0.37492620823E+02 -0.83005007458E+03  0.10060802998E+04  0.25500000920E-02 0.  1.
       -2    1    3    3    0  502 -0.56728189358E+03  0.37492620823E+02  0.10691306810E+04  0.12108901092E+04  0.25500000920E-02 0. -1.
</event>
<event>
 5   0  0.6702421E-05  0.2381278E+04  0.7818609E-02  0.8446546E-01
       -2   -1    0    0    0  501  0.00000000000E+00  0.00000000000E+00  0.76599354395E+03  0.76599354395E+03  0.25500000920E-02 0.  1.
        2   -1    0    0  501    0  0.00000000000E+00  0.00000000000E+00 -0.18506962609E+04  0.18506962609E+04  0.25500000920E-02 0. -1.
    10030    2    1    2    0    0  0.00000000000E+00  0.00000000000E+00 -0.10847027170E+04  0.26166898049E+04  0.23812781338E+04 0.  0.
        4    1    3    3  502    0  0.72102948510E+02  0.11865813046E+04 -0.61561938607E+03  0.13387168741E+04  0.12699999809E+01 0.  1.
       -4    1    3    3    0  502 -0.72102948510E+02 -0.11865813046E+04 -0.46908333091E+03  0.12779729308E+04  0.12699999809E+01 0. -1.
</event>
<event>
 5   0  0.2962279E-05  0.2321413E+04  0.7818609E-02  0.8469526E-01
        1   -1    0    0  501    0  0.00000000000E+00  0.00000000000E+00  0.23789758002E+04  0.23789758002E+04  0.50400001928E-02 0.  1.
       -1   -1    0    0    0  501  0.00000000000E+00  0.00000000000E+00 -0.56631059936E+03  0.56631059938E+03  0.50400001928E-02 0. -1.
    10030    2    1    2    0    0  0.00000000000E+00  0.00000000000E+00  0.18126652008E+04  0.29452863995E+04  0.23214126831E+04 0.  0.
        1    1    3    3  502    0  0.28558500134E+03  0.10507013990E+04  0.14165315656E+04  0.17866431931E+04  0.50400001928E-02 0.  1.
       -1    1    3    3    0  502 -0.28558500134E+03 -0.10507013990E+04  0.39613363516E+03  0.11586432065E+04  0.50400001928E-02 0. -1.
</event>
<event>
 5   0  0.6676612E-05  0.2281268E+04  0.7818609E-02  0.8485344E-01
        2   -1    0    0  501    0  0.00000000000E+00  0.00000000000E+00  0.17058098048E+04  0.17058098048E+04  0.25500000920E-02 0. -1.
       -2   -1    0    0    0  501  0.00000000000E+00  0.00000000000E+00 -0.76271425989E+03  0.76271425990E+03  0.25500000920E-02 0.  1.
    10030    2    1    2    0    0  0.00000000000E+00  0.00000000000E+00  0.94309554496E+03  0.24685240647E+04  0.22812675975E+04 0.  0.
        2    1    3    3  502    0 -0.10276973967E+03  0.31474541880E+03  0.16526661428E+04  0.16855063565E+04  0.25500000920E-02 0. -1.
       -2    1    3    3    0  502  0.10276973967E+03 -0.31474541880E+03 -0.70957059789E+03  0.78301770826E+03  0.25500000920E-02 0.  1.
</event>
<event>
 5   0  0.2944089E-05  0.2298354E+04  0.7818609E-02  0.8478570E-01
        1   -1    0    0  501    0  0.00000000000E+00  0.00000000000E+00  0.15014128642E+04  0.15014128642E+04  0.50400001928E-02 0. -1.
       -1   -1    0    0    0  501  0.00000000000E+00  0.00000000000E+00 -0.87957696224E+03  0.87957696225E+03  0.50400001928E-02 0.  1.
    10030    2    1    2    0    0  0.00000000000E+00  0.00000000000E+00  0.62183590195E+03  0.23809898264E+04  0.22983543384E+04 0.  0.
        5    1    3    3  502    0 -0.74455066055E+03 -0.14815709317E+03 -0.58281689320E+03  0.95708089072E+03  0.46999998093E+01 0.  1.
       -5    1    3    3    0  502  0.74455066055E+03  0.14815709317E+03  0.12046527952E+04  0.14239089357E+04  0.46999998093E+01 0. -1.
</event>
<event>
 5   0  0.3118614E-05  0.2074879E+04  0.7818609E-02  0.8572391E-01
        1   -1    0    0  501    0  0.00000000000E+00  0.00000000000E+00  0.18193222687E+04  0.18193222687E+04  0.50400001928E-02 0. -1.
       -1   -1    0    0    0  501  0.00000000000E+00  0.00000000000E+00 -0.59158338319E+03  0.59158338321E+03  0.50400001928E-02 0.  1.
    10030    2    1    2    0    0  0.00000000000E+00  0.00000000000E+00  0.12277388855E+04  0.24109056519E+04  0.20748791028E+04 0.  0.
        3    1    3    3  502    0 -0.26104914570E+03 -0.94360752882E+03  0.21516822036E+03  0.10024166789E+04  0.10100000352E+00 0.  1.
       -3    1    3    3    0  502  0.26104914570E+03  0.94360752882E+03  0.10125706651E+04  0.14084889730E+04  0.10100000352E+00 0. -1.
</event>
<event>
 5   0  0.6495405E-05  0.2300893E+04  0.7818609E-02  0.8477569E-01
       -2   -1    0    0    0  501  0.00000000000E+00  0.00000000000E+00  0.12076374248E+04  0.12076374248E+04  0.25500000920E-02 0.  1.
        2   -1    0    0  501    0  0.00000000000E+00  0.00000000000E+00 -0.10959642030E+04  0.10959642030E+04  0.25500000920E-02 0. -1.
    10030    2    1    2    0    0  0.00000000000E+00  0.00000000000E+00  0.11167322180E+03  0.23036016277E+04  0.23008932072E+04 0.  0.
        5    1    3    3  502    0  0.23775278638E+03  0.52798394353E+03  0.10510952290E+04  0.12000486251E+04  0.46999998093E+01 0.  1.
       -5    1    3    3    0  502 -0.23775278638E+03 -0.52798394353E+03 -0.93942200720E+03  0.11035530027E+04  0.46999998093E+01 0. -1.
</event>
<event>
 5   0  0.2944089E-05  0.2322244E+04  0.7818609E-02  0.8469202E-01
        1   -1    0    0  501    0  0.00000000000E+00  0.00000000000E+00  0.66314895611E+03  0.66314895613E+03  0.50400001928E-02 0.  1.
       -1   -1    0    0    0  501  0.00000000000E+00  0.00000000000E+00 -0.20330335431E+04  0.20330335431E+04  0.50400001928E-02 0. -1.
    10030    2    1    2    0    0  0.00000000000E+00  0.00000000000E+00 -0.13698845870E+04  0.26961824993E+04  0.23222438045E+04 0.  0.
        5    1    3    3  502    0  0.23408406142E+03 -0.10194308046E+04 -0.12702501678E+04  0.16454762508E+04  0.46999998093E+01 0. -1.
       -5    1    3    3    0  502 -0.23408406142E+03  0.10194308046E+04 -0.99634419239E+02  0.10507062485E+04  0.46999998093E+01 0.  1.
</event>
<event>
 5   0  0.6468758E-05  0.2309630E+04  0.7818609E-02  0.8474134E-01
        2   -1    0    0  501    0  0.00000000000E+00  0.00000000000E+00  0.22562410007E+04  0.22562410007E+04  0.25500000920E-02 0. -1.
       -2   -1    0    0    0  501  0.00000000000E+00  0.00000000000E+00 -0.59107058757E+03  0.59107058758E+03  0.25500000920E-02 0.  1.
    10030    2    1    2    0    0  0.00000000000E+00  0.00000000000E+00  0.16651704131E+04  0.28473115883E+04  0.23096300085E+04 0.  0.
        3    1    3    3  502    0 -0.28411614868E+03  0.72913483812E+03  0.18795495909E+04  0.20359435829E+04  0.10100000352E+00 0. -1.
       -3    1    3    3    0  502  0.28411614868E+03 -0.72913483812E+03 -0.21437917772E+03  0.81136800537E+03  0.10100000352E+00 0.  1.
</event>
<event>
 5   0  0.2962279E-05  0.2328056E+04  0.7818609E-02  0.8466940E-01
        1   -1    0    0  501    0  0.00000000000E+00  0.00000000000E+00  0.97982089113E+03  0.97982089115E+03  0.50400001928E-02 0.  1.
       -1   -1    0    0    0  501  0.00000000000E+00  0.00000000000E+00 -0.13828663838E+04  0.13828663838E+04  0.50400001928E-02 0. -1.
    10030    2    1    2    0    0  0.00000000000E+00  0.00000000000E+00 -0.40304549265E+03  0.23626872749E+04  0.23280561613E+04 0.  0.
        1    1    3    3  502    0  0.14514571756E+03  0.38772499640E+03  0.90257762639E+03  0.99299764544E+03  0.50400001928E-02 0.  1.
       -1    1    3    3    0  502 -0.14514571756E+03 -0.38772499640E+03 -0.13056231190E+04  0.13696896295E+04  0.50400001928E-02 0. -1.
</event>
<event>
 5   0  0.2944089E-05  0.2296229E+04  0.7818609E-02  0.8479410E-01
       -1   -1    0    0    0  501  0.00000000000E+00  0.00000000000E+00  0.15219133076E+04  0.15219133076E+04  0.50400001928E-02 0.  1.
        1   -1    0    0  501    0  0.00000000000E+00  0.00000000000E+00 -0.86612449291E+03  0.86612449292E+03  0.50400001928E-02 0. -1.
    10030    2    1    2    0    0  0.00000000000E+00  0.00000000000E+00  0.65578881468E+03  0.23880378005E+04  0.22962285529E+04 0.  0.
        5    1    3    3  502    0 -0.84553874877E+03  0.69546734140E+03 -0.31665509386E+02  0.10952786829E+04  0.46999998093E+01 0. -1.
       -5    1    3    3    0  502  0.84553874877E+03 -0.69546734140E+03  0.68745432406E+03  0.12927591177E+04  0.46999998093E+01 0.  1.
</event>
<event>
 5   0  0.6468758E-05  0.2276205E+04  0.7818609E-02  0.8487363E-01
       -2   -1    0    0    0  501  0.00000000000E+00  0.00000000000E+00  0.77768239156E+03  0.77768239157E+03  0.25500000920E-02 0.  1.
        2   -1    0    0  501    0  0.00000000000E+00  0.00000000000E+00 -0.16655610835E+04  0.16655610835E+04  0.25500000920E-02 0. -1.
    10030    2    1    2    0    0  0.00000000000E+00  0.00000000000E+00 -0.88787869195E+03  0.24432434751E+04  0.22762051988E+04 0.  0.
        3    1    3    3  502    0  0.44029652762E+03  0.11420744384E+03  0.67587040567E+03  0.81468103447E+03  0.10100000352E+00 0.  1.
       -3    1    3    3    0  502 -0.44029652762E+03 -0.11420744384E+03 -0.15637490976E+04  0.16285624406E+04  0.10100000352E+00 0. -1.
</event>
<event>
 5   0  0.6495405E-05  0.2305692E+04  0.7818609E-02  0.8475680E-01
       -2   -1    0    0    0  501  0.00000000000E+00  0.00000000000E+00  0.52301410190E+03  0.52301410190E+03  0.25500000920E-02 0. -1.
        2   -1    0    0  501    0  0.00000000000E+00  0.00000000000E+00 -0.25411441316E+04  0.25411441316E+04  0.25500000920E-02 0.  1.
    10030    2    1    2    0    0  0.00000000000E+00  0.00000000000E+00 -0.20181300297E+04  0.30641582335E+04  0.23056922742E+04 0.  0.
        5    1    3    3  502    0 -0.79341931770E+03  0.25407923184E+03 -0.20680348618E+04  0.22295427220E+04  0.46999998093E+01 0.  1.
       -5    1    3    3    0  502  0.79341931770E+03 -0.25407923184E+03  0.49904832078E+02  0.83461551149E+03  0.46999998093E+01 0. -1.
</event>
<event>
 5   0  0.6495405E-05  0.2201061E+04  0.7818609E-02  0.8517987E-01
        2   -1    0    0  501    0  0.00000000000E+00  0.00000000000E+00  0.14007611535E+04  0.14007611535E+04  0.25500000920E-02 0.  1.
       -2   -1    0    0    0  501  0.00000000000E+00  0.00000000000E+00 -0.86464946151E+03  0.86464946151E+03  0.25500000920E-02 0. -1.
    10030    2    1    2    0    0  0.00000000000E+00  0.00000000000E+00  0.53611169196E+03  0.22654106150E+04  0.22010609960E+04 0.  0.
        5    1    3    3  502    0  0.29016281084E+03  0.67112447026E+03 -0.57851339259E+03  0.93236384893E+03  0.46999998093E+01 0. -1.
       -5    1    3    3    0  502 -0.29016281084E+03 -0.67112447026E+03  0.11146250845E+04  0.13330467661E+04  0.46999998093E+01 0.  1.
</event>
<event>
 5   0  0.2982385E-05  0.2300046E+04  0.7818609E-02  0.8477903E-01
       -1   -1    0    0    0  501  0.00000000000E+00  0.00000000000E+00  0.51875846802E+03  0.51875846805E+03  0.50400001928E-02 0.  1.
        1   -1    0    0  501    0  0.00000000000E+00  0.00000000000E+00 -0.25494584863E+04  0.25494584863E+04  0.50400001928E-02 0. -1.
    10030    2    1    2    0    0  0.00000000000E+00  0.00000000000E+00 -0.20307000182E+04  0.30682169543E+04  0.23000462419E+04 0.  0.
        4    1    3    3  502    0 -0.66001782523E+03  0.93449667790E+03 -0.11711689600E+04  0.16372372816E+04  0.12699999809E+01 0. -1.
       -4    1    3    3    0  502  0.66001782523E+03 -0.93449667790E+03 -0.85953105829E+03  0.14309796727E+04  0.12699999809E+01 0.  1.
</event>
<event>
 5   0  0.2342500E-05  0.2274547E+04  0.7818609E-02  0.8488025E-01
       -3   -1    0    0    0  501  0.00000000000E+00  0.00000000000E+00  0.80414392644E+03  0.80414393278E+03  0.10100000352E+00 0. -1.
        3   -1    0    0  501    0  0.00000000000E+00  0.00000000000E+00 -0.16084073215E+04  0.16084073247E+04  0.10100000352E+00 0.  1.
    10030    2    1    2    0    0  0.00000000000E+00  0.00000000000E+00 -0.80426339507E+03  0.24125512575E+04  0.22745469793E+04 0.  0.
        2    1    3    3  502    0  0.74252957552E+03 -0.84036389015E+03 -0.20136063654E+03  0.11393453139E+04  0.25500000920E-02 0. -1.
       -2    1    3    3    0  502 -0.74252957552E+03  0.84036389015E+03 -0.60290275854E+03  0.12732059435E+04  0.25500000920E-02 0.  1.
</event>
<event>
 5   0  0.2982385E-05  0.2338736E+04  0.7818609E-02  0.8462803E-01
        1   -1    0    0  501    0  0.00000000000E+00  0.00000000000E+00  0.25607094672E+04  0.25607094672E+04  0.50400001928E-02 0. -1.
       -1   -1    0    0    0  501  0.00000000000E+00  0.00000000000E+00 -0.53400099314E+03  0.53400099316E+03  0.50400001928E-02 0.  1.
    10030    2    1    2    0    0  0.00000000000E+00  0.00000000000E+00  0.20267084740E+04  0.30947104604E+04  0.23387358967E+04 0.  0.
        4    1    3    3  502    0  0.39417180702E+03  0.38466055403E+03  0.23783362435E+04  0.24412742688E+04  0.12699999809E+01 0. -1.
       -4    1    3    3    0  502 -0.39417180702E+03 -0.38466055403E+03 -0.35162776948E+03  0.65343619157E+03  0.12699999809E+01 0.  1.
</event>
<event>
 5   0  0.3118614E-05  0.2139432E+04  0.7818609E-02  0.8544069E-01
        1   -1    0    0  501    0  0.00000000000E+00  0.00000000000E+00  0.21874290235E+04  0.21874290235E+04  0.50400001928E-02 0.  1.
       -1   -1    0    0    0  501  0.00000000000E+00  0.00000000000E+00 -0.52312199717E+03  0.52312199720E+03  0.50400001928E-02 0. -1.
    10030    2    1    2    0    0  0.00000000000E+00  0.00000000000E+00  0.16643070263E+04  0.27105510207E+04  0.21394319241E+04 0.  0.
        3    1    3    3  502    0 -0.52981073109E+03 -0.78611021346E+03  0.20424825902E+03  0.96973503598E+03  0.10100000352E+00 0. -1.
       -3    1    3    3    0  502  0.52981073109E+03  0.78611021346E+03  0.14600587673E+04  0.17408159847E+04  0.10100000352E+00 0.  1.
</event>
<event>
 5   0  0.2982385E-05  0.2295466E+04  0.7818609E-02  0.8479711E-01
        1   -1    0    0  501    0  0.00000000000E+00  0.00000000000E+00  0.14678620282E+04  0.14678620282E+04  0.50400001928E-02 0.  1.
       -1   -1    0    0    0  501  0.00000000000E+00  0.00000000000E+00 -0.89742142835E+03  0.89742142836E+03  0.50400001928E-02 0. -1.
    10030    2    1    2    0    0  0.00000000000E+00  0.00000000000E+00  0.57044059980E+03  0.23652834565E+04  0.22954658246E+04 0.  0.
        4    1    3    3  502    0 -0.95273536698E+03 -0.34562163266E+03  0.84024058481E+03  0.13164971879E+04  0.12699999809E+01 0.  1.
       -4    1    3    3    0  502  0.95273536698E+03  0.34562163266E+03 -0.26979998501E+03  0.10487862686E+04  0.12699999809E+01 0. -1.
</event>
<event>
 5   0  0.6468758E-05  0.2257518E+04  0.7818609E-02  0.8494862E-01
       -2   -1    0    0    0  501  0.00000000000E+00  0.00000000000E+00  0.79355738181E+03  0.79355738181E+03  0.25500000920E-02 0.  1.
        2   -1    0    0  501    0  0.00000000000E+00  0.00000000000E+00 -0.16055504395E+04  0.16055504395E+04  0.25500000920E-02 0. -1.
    10030    2    1    2    0    0  0.00000000000E+00  0.00000000000E+00 -0.81199305767E+03  0.23991078213E+04  0.22575175774E+04 0.  0.
        3    1    3    3  502    0 -0.37722224721E+03 -0.37361461932E+03  0.65257653432E+03  0.84127323201E+03  0.10100000352E+00 0.  1.
       -3    1    3    3    0  502  0.37722224721E+03  0.37361461932E+03 -0.14645695920E+04  0.15578345893E+04  0.10100000352E+00 0. -1.
</event>
<event>
 5   0  0.6495405E-05  0.2286195E+04  0.7818609E-02  0.8483384E-01
        2   -1    0    0  501    0  0.00000000000E+00  0.00000000000E+00  0.14974724810E+04  0.14974724810E+04  0.25500000920E-02 0.  1.
       -2   -1    0    0    0  501  0.00000000000E+00  0.00000000000E+00 -0.87258479504E+03  0.87258479504E+03  0.25500000920E-02 0. -1.
    10030    2    1    2    0    0  0.00000000000E+00  0.00000000000E+00  0.62488768591E+03  0.23700572760E+04  0.22861948455E+04 0.  0.
        5    1    3    3  502    0 -0.43534829391E+03  0.72589645136E+03  0.11088666157E+04  0.13950129234E+04  0.46999998093E+01 0. -1.
       -5    1    3    3    0  502  0.43534829391E+03 -0.72589645136E+03 -0.48397892975E+03  0.97504435260E+03  0.46999998093E+01 0.  1.
</event>
<event>
 5   0  0.6495405E-05  0.2299522E+04  0.7818609E-02  0.8478109E-01
       -2   -1    0    0    0  501  0.00000000000E+00  0.00000000000E+00  0.63054400613E+03  0.63054400614E+03  0.25500000920E-02 0. -1.
        2   -1    0    0  501    0  0.00000000000E+00  0.00000000000E+00 -0.20965241886E+04  0.20965241886E+04  0.25500000920E-02 0.  1.
    10030    2    1    2    0    0  0.00000000000E+00  0.00000000000E+00 -0.14659801824E+04  0.27270681947E+04  0.22995223511E+04 0.  0.
        5    1    3    3  502    0  0.47572367165E+03  0.97629972289E+03 -0.11805966740E+04  0.16041523485E+04  0.46999998093E+01 0. -1.
       -5    1    3    3    0  502 -0.47572367165E+03 -0.97629972289E+03 -0.28538350844E+03  0.11229158462E+04  0.46999998093E+01 0.  1.
</event>
<event>
 5   0  0.2962279E-05  0.2322320E+04  0.7818609E-02  0.8469172E-01
        1   -1    0    0  501    0  0.00000000000E+00  0.00000000000E+00  0.10203647960E+04  0.10203647960E+04  0.50400001928E-02 0. -1.
       -1   -1    0    0    0  501  0.00000000000E+00  0.00000000000E+00 -0.13213823355E+04  0.13213823355E+04  0.50400001928E-02 0.  1.
    10030    2    1    2    0    0  0.00000000000E+00  0.00000000000E+00 -0.30101753947E+03  0.23417471315E+04  0.23223195450E+04 0.  0.
        1    1    3    3  502    0 -0.30930392898E+03 -0.85774807378E+03 -0.87547478299E+03  0.12640635958E+04  0.50400001928E-02 0.  1.
       -1    1    3    3    0  502  0.30930392898E+03  0.85774807378E+03  0.57445724352E+03  0.10776835357E+04  0.50400001928E-02 0. -1.
</event>
<event>
 5   0  0.6814789E-05  0.2288392E+04  0.7818609E-02  0.8482512E-01
       -2   -1    0    0    0  501  0.00000000000E+00  0.00000000000E+00  0.12874732252E+04  0.12874732252E+04  0.25500000920E-02 0.  1.
        2   -1    0    0  501    0  0.00000000000E+00  0.00000000000E+00 -0.10168638367E+04  0.10168638368E+04  0.25500000920E-02 0. -1.
    10030    2    1    2    0    0  0.00000000000E+00  0.00000000000E+00  0.27060938848E+03  0.23043370620E+04  0.22883924170E+04 0.  0.
        1    1    3    3  502    0 -0.43214336223E+02  0.18016126832E+03 -0.10016591403E+04  0.10186493974E+04  0.50400001928E-02 0. -1.
       -1    1    3    3    0  502  0.43214336223E+02 -0.18016126832E+03  0.12722685288E+04  0.12856876646E+04  0.50400001928E-02 0.  1.
</event>
<event>
 5   0  0.6814789E-05  0.2227786E+04  0.7818609E-02  0.8506951E-01
       -2   -1    0    0    0  501  0.00000000000E+00  0.00000000000E+00  0.84638361264E+03  0.84638361264E+03  0.25500000920E-02 0.  1.
        2   -1    0    0  501    0  0.00000000000E+00  0.00000000000E+00 -0.14659515384E+04  0.14659515384E+04  0.25500000920E-02 0. -1.
    10030    2    1    2    0    0  0.00000000000E+00  0.00000000000E+00 -0.61956792574E+03  0.23123351510E+04  0.22277857698E+04 0.  0.
        1    1    3    3  502    0  0.36731116891E+02 -0.10149883427E+04 -0.78453432425E+03  0.12833723609E+04  0.50400001928E-02 0. -1.
       -1    1    3    3    0  502 -0.36731116891E+02  0.10149883427E+04  0.16496639851E+03  0.10289627901E+04  0.50400001928E-02 0.  1.
</event>
<event>
 5   0  0.3118614E-05  0.2275306E+04  0.7818609E-02  0.8487722E-01
       -1   -1    0    0    0  501  0.00000000000E+00  0.00000000000E+00  0.74891896212E+03  0.74891896214E+03  0.50400001928E-02 0. -1.
        1   -1    0    0  501    0  0.00000000000E+00  0.00000000000E+00 -0.17281626874E+04  0.17281626874E+04  0.50400001928E-02 0.  1.
    10030    2    1    2    0    0  0.00000000000E+00  0.00000000000E+00 -0.97924372525E+03  0.24770816495E+04  0.22753055234E+04 0.  0.
        3    1    3    3  502    0  0.14155372216E+02 -0.63135667001E+03  0.54057298662E+03  0.83128261343E+03  0.10100000352E+00 0. -1.
       -3    1    3    3    0  502 -0.14155372216E+02  0.63135667001E+03 -0.15198167119E+04  0.16457990361E+04  0.10100000352E+00 0.  1.
</event>
<event>
 5   0  0.6702421E-05  0.2263915E+04  0.7818609E-02  0.8492286E-01
       -2   -1    0    0    0  501  0.00000000000E+00  0.00000000000E+00  0.95350825527E+03  0.95350825527E+03  0.25500000920E-02 0.  1.
        2   -1    0    0  501    0  0.00000000000E+00  0.00000000000E+00 -0.13438037694E+04  0.13438037694E+04  0.25500000920E-02 0. -1.
    10030    2    1    2    0    0  0.00000000000E+00  0.00000000000E+00 -0.39029551410E+03  0.22973120246E+04  0.22639151818E+04 0.  0.
        4    1    3    3  502    0 -0.61575367445E+03  0.10705480903E+03  0.76255060087E+03  0.98595048127E+03  0.12699999809E+01 0.  1.
       -4    1    3    3    0  502  0.61575367445E+03 -0.10705480903E+03 -0.11528461150E+04  0.13113615434E+04  0.12699999809E+01 0. -1.
</event>
<event>
 5   0  0.3006265E-05  0.2251134E+04  0.7818609E-02  0.8497441E-01
        1   -1    0    0  501    0  0.00000000000E+00  0.00000000000E+00  0.11555381768E+04  0.11555381768E+04  0.50400001928E-02 0.  1.
       -1   -1    0    0    0  501  0.00000000000E+00  0.00000000000E+00 -0.10963732913E+04  0.10963732913E+04  0.50400001928E-02 0. -1.
    10030    2    1    2    0    0  0.00000000000E+00  0.00000000000E+00  0.59164885487E+02  0.22519114681E+04  0.22511341090E+04 0.  0.
        2    1    3    3  502    0 -0.59523394151E+03 -0.79754842322E+03 -0.49644537572E+03  0.11121353081E+04  0.25500000920E-02 0. -1.
       -2    1    3    3    0  502  0.59523394151E+03  0.79754842322E+03  0.55561026121E+03  0.11397761600E+04  0.25500000920E-02 0.  1.
</event>
<event>
 5   0  0.6676612E-05  0.2316985E+04  0.7818609E-02  0.8471254E-01
       -2   -1    0    0    0  501  0.00000000000E+00  0.00000000000E+00  0.11339665179E+04  0.11339665179E+04  0.25500000920E-02 0.  1.
        2   -1    0    0  501    0  0.00000000000E+00  0.00000000000E+00 -0.11835490547E+04  0.11835490547E+04  0.25500000920E-02 0. -1.
    10030    2    1    2    0    0  0.00000000000E+00  0.00000000000E+00 -0.49582536812E+02  0.23175155726E+04  0.23169851103E+04 0.  0.
        2    1    3    3  502    0 -0.79119682604E+03  0.81304246577E+03 -0.25952463325E+03  0.11637798348E+04  0.25500000920E-02 0. -1.
       -2    1    3    3    0  502  0.79119682604E+03 -0.81304246577E+03  0.20994209644E+03  0.11537357377E+04  0.25500000920E-02 0.  1.
</event>
<event>
 5   0  0.2962279E-05  0.2251570E+04  0.7818609E-02  0.8497265E-01
        1   -1    0    0  501    0  0.00000000000E+00  0.00000000000E+00  0.12921221527E+04  0.12921221527E+04  0.50400001928E-02 0.  1.
       -1   -1    0    0    0  501  0.00000000000E+00  0.00000000000E+00 -0.98086111275E+03  0.98086111276E+03  0.50400001928E-02 0. -1.
    10030    2    1    2    0    0  0.00000000000E+00  0.00000000000E+00  0.31126103994E+03  0.22729832655E+04  0.22515704497E+04 0.  0.
        1    1    3    3  502    0  0.26344921359E+01 -0.10448644930E+04 -0.26745376255E+03  0.10785547109E+04  0.50400001928E-02 0. -1.
       -1    1    3    3    0  502 -0.26344921359E+01  0.10448644930E+04  0.57871480249E+03  0.11944285546E+04  0.50400001928E-02 0.  1.
</event>
<event>
 5   0  0.6676612E-05  0.2238037E+04  0.7818609E-02  0.8502761E-01
        2   -1    0    0  501    0  0.00000000000E+00  0.00000000000E+00  0.94413306486E+03  0.94413306486E+03  0.25500000920E-02 0.  1.
       -2   -1    0    0    0  501  0.00000000000E+00  0.00000000000E+00 -0.13262986544E+04  0.13262986544E+04  0.25500000920E-02 0. -1.
    10030    2    1    2    0    0  0.00000000000E+00  0.00000000000E+00 -0.38216558958E+03  0.22704317193E+04  0.22380370091E+04 0.  0.
        2    1    3    3  502    0  0.10304348486E+04  0.11857887240E+03 -0.61709629004E+03  0.12069236750E+04  0.25500000920E-02 0. -1.
       -2    1    3    3    0  502 -0.10304348486E+04 -0.11857887240E+03  0.23493070046E+03  0.10635080443E+04  0.25500000920E-02 0.  1.
</event>
<event>
 5   0  0.6495405E-05  0.2306975E+04  0.7818609E-02  0.8475176E-01
       -2   -1    0    0    0  501  0.00000000000E+00  0.00000000000E+00  0.98792215451E+03  0.98792215451E+03  0.25500000920E-02 0. -1.
        2   -1    0    0  501    0  0.00000000000E+00  0.00000000000E+00 -0.13468001314E+04  0.13468001314E+04  0.25500000920E-02 0.  1.
    10030    2    1    2    0    0  0.00000000000E+00  0.00000000000E+00 -0.35887797687E+03  0.23347222859E+04  0.23069752383E+04 0.  0.
        5    1    3    3  502    0 -0.22784112681E+02  0.87777445307E+03  0.57755788241E+03  0.10510006203E+04  0.46999998093E+01 0. -1.
       -5    1    3    3    0  502  0.22784112681E+02 -0.87777445307E+03 -0.93643585928E+03  0.12837216656E+04  0.46999998093E+01 0.  1.
</event>
<event>
 5   0  0.6495405E-05  0.2074927E+04  0.7818609E-02  0.8572369E-01
        2   -1    0    0  501    0  0.00000000000E+00  0.00000000000E+00  0.18730450113E+04  0.18730450113E+04  0.25500000920E-02 0.  1.
       -2   -1    0    0    0  501  0.00000000000E+00  0.00000000000E+00 -0.57464215990E+03  0.57464215990E+03  0.25500000920E-02 0. -1.
    10030    2    1    2    0    0  0.00000000000E+00  0.00000000000E+00  0.12984028514E+04  0.24476871712E+04  0.20749271128E+04 0.  0.
        5    1    3    3  502    0  0.26948564891E+03  0.99546335457E+03  0.78234377882E+03  0.12944704259E+04  0.46999998093E+01 0.  1.
       -5    1    3    3    0  502 -0.26948564891E+03 -0.99546335457E+03  0.51605907257E+03  0.11532167453E+04  0.46999998093E+01 0. -1.
</event>
<event>
 5   0  0.6495405E-05  0.2201853E+04  0.7818609E-02  0.8517657E-01
       -2   -1    0    0    0  501  0.00000000000E+00  0.00000000000E+00  0.67221569239E+03  0.67221569240E+03  0.25500000920E-02 0. -1.
        2   -1    0    0  501    0  0.00000000000E+00  0.00000000000E+00 -0.18030509872E+04  0.18030509872E+04  0.25500000920E-02 0.  1.
    10030    2    1    2    0    0  0.00000000000E+00  0.00000000000E+00 -0.11308352949E+04  0.24752666796E+04  0.22018530086E+04 0.  0.
        5    1    3    3  502    0  0.15735185962E+03  0.90118922932E+03 -0.12539369889E+04  0.15521861025E+04  0.46999998093E+01 0.  1.
       -5    1    3    3    0  502 -0.15735185962E+03 -0.90118922932E+03  0.12310169405E+03  0.92308057711E+03  0.46999998093E+01 0. -1.
</event>
<event>
 5   0  0.2962279E-05  0.2201499E+04  0.7818609E-02  0.8517805E-01
       -1   -1    0    0    0  501  0.00000000000E+00  0.00000000000E+00  0.15646606999E+04  0.15646606999E+04  0.50400001928E-02 0.  1.
        1   -1    0    0  501    0  0.00000000000E+00  0.00000000000E+00 -0.77438458088E+03  0.77438458090E+03  0.50400001928E-02 0. -1.
    10030    2    1    2    0    0  0.00000000000E+00  0.00000000000E+00  0.79027611904E+03  0.23390452808E+04  0.22014986899E+04 0.  0.
        1    1    3    3  502    0  0.69418300216E+03  0.83952335588E+03  0.56299493585E+03  0.12262352154E+04  0.50400001928E-02 0.  1.
       -1    1    3    3    0  502 -0.69418300216E+03 -0.83952335588E+03  0.22728118319E+03  0.11128100655E+04  0.50400001928E-02 0. -1.
</event>
<event>
 5   0  0.3118614E-05  0.2292829E+04  0.7818609E-02  0.8480754E-01
        1   -1    0    0  501    0  0.00000000000E+00  0.00000000000E+00  0.12618535257E+04  0.12618535257E+04  0.50400001928E-02 0. -1.
       -1   -1    0    0    0  501  0.00000000000E+00  0.00000000000E+00 -0.10415359208E+04  0.10415359208E+04  0.50400001928E-02 0.  1.
    10030    2    1    2    0    0  0.00000000000E+00  0.00000000000E+00  0.22031760487E+03  0.23033894465E+04  0.22928286231E+04 0.  0.
        3    1    3    3  502    0  0.71550787823E+03  0.15505203896E+03 -0.77610250517E+03  0.10669244431E+04  0.10100000352E+00 0.  1.
       -3    1    3    3    0  502 -0.71550787823E+03 -0.15505203896E+03  0.99642011004E+03  0.12364650033E+04  0.10100000352E+00 0. -1.
</event>
<event>
 5   0  0.3118614E-05  0.2282087E+04  0.7818609E-02  0.8485018E-01
        1   -1    0    0  501    0  0.00000000000E+00  0.00000000000E+00  0.10331077114E+04  0.10331077114E+04  0.50400001928E-02 0.  1.
       -1   -1    0    0    0  501  0.00000000000E+00  0.00000000000E+00 -0.12602559128E+04  0.12602559128E+04  0.50400001928E-02 0. -1.
    10030    2    1    2    0    0  0.00000000000E+00  0.00000000000E+00 -0.22714820137E+03  0.22933636242E+04  0.22820868536E+04 0.  0.
        3    1    3    3  502    0  0.96272584100E+03  0.53022005099E+03 -0.42169272247E+03  0.11771996899E+04  0.10100000352E+00 0. -1.
       -3    1    3    3    0  502 -0.96272584100E+03 -0.53022005099E+03  0.19454452110E+03  0.11161639343E+04  0.10100000352E+00 0.  1.
</event>
<event>
 5   0  0.6814789E-05  0.1764510E+04  0.7818609E-02  0.8725404E-01
       -2   -1    0    0    0  501  0.00000000000E+00  0.00000000000E+00  0.80181837940E+03  0.80181837941E+03  0.25500000920E-02 0.  1.
        2   -1    0    0  501    0  0.00000000000E+00  0.00000000000E+00 -0.97076105929E+03  0.97076105929E+03  0.25500000920E-02 0. -1.
    10030    2    1    2    0    0  0.00000000000E+00  0.00000000000E+00 -0.16894267988E+03  0.17725794387E+04  0.17645101976E+04 0.  0.
        1    1    3    3  502    0  0.61378863985E+03 -0.30138559102E+03 -0.64451906491E+03  0.93966727832E+03  0.50400001928E-02 0. -1.
       -1    1    3    3    0  502 -0.61378863985E+03  0.30138559102E+03  0.47557638503E+03  0.83291216038E+03  0.50400001928E-02 0.  1.
</event>
<event>
 5   0  0.2944089E-05  0.2308911E+04  0.7818609E-02  0.8474416E-01
       -1   -1    0    0    0  501  0.00000000000E+00  0.00000000000E+00  0.11515741524E+04  0.11515741525E+04  0.50400001928E-02 0.  1.
        1   -1    0    0  501    0  0.00000000000E+00  0.00000000000E+00 -0.11573435802E+04  0.11573435802E+04  0.50400001928E-02 0. -1.
    10030    2    1    2    0    0  0.00000000000E+00  0.00000000000E+00 -0.57694277863E+01  0.23089177327E+04  0.23089105245E+04 0.  0.
        5    1    3    3  502    0  0.28453828668E+03 -0.30469295838E+03  0.10736617381E+04  0.11517688368E+04  0.46999998093E+01 0.  1.
       -5    1    3    3    0  502 -0.28453828668E+03  0.30469295838E+03 -0.10794311659E+04  0.11571488959E+04  0.46999998093E+01 0. -1.
</event>
<event>
 5   0  0.6814789E-05  0.2349158E+04  0.7818609E-02  0.8458787E-01
        2   -1    0    0  501    0  0.00000000000E+00  0.00000000000E+00  0.16973567046E+04  0.16973567046E+04  0.25500000920E-02 0. -1.
       -2   -1    0    0    0  501  0.00000000000E+00  0.00000000000E+00 -0.81281409762E+03  0.81281409762E+03  0.25500000920E-02 0.  1.
    10030    2    1    2    0    0  0.00000000000E+00  0.00000000000E+00  0.88454260701E+03  0.25101708023E+04  0.23491576858E+04 0.  0.
        1    1    3    3  502    0 -0.27568744685E+02 -0.10156534289E+04 -0.18746424559E+03  0.10331770259E+04  0.50400001928E-02 0.  1.
       -1    1    3    3    0  502  0.27568744685E+02  0.10156534289E+04  0.10720068526E+04  0.14769937764E+04  0.50400001928E-02 0. -1.
</event>
<event>
 5   0  0.6468758E-05  0.2308964E+04  0.7818609E-02  0.8474395E-01
        2   -1    0    0  501    0  0.00000000000E+00  0.00000000000E+00  0.14530702831E+04  0.14530702831E+04  0.25500000920E-02 0.  1.
       -2   -1    0    0    0  501  0.00000000000E+00  0.00000000000E+00 -0.91724998943E+03  0.91724998943E+03  0.25500000920E-02 0. -1.
    10030    2    1    2    0    0  0.00000000000E+00  0.00000000000E+00  0.53582029368E+03  0.23703202725E+04  0.23089640117E+04 0.  0.
        3    1    3    3  502    0  0.10097601950E+04  0.14256378949E+03  0.82348311368E+03  0.13107496077E+04  0.10100000352E+00 0. -1.
       -3    1    3    3    0  502 -0.10097601950E+04 -0.14256378949E+03 -0.28766282000E+03  0.10595706648E+04  0.10100000352E+00 0.  1.
</event>
<event>
 5   0  0.6676612E-05  0.2495704E+04  0.7818609E-02  0.8404518E-01
        2   -1    0    0  501    0  0.00000000000E+00  0.00000000000E+00  0.10100905822E+04  0.10100905822E+04  0.25500000920E-02 0. -1.
       -2   -1    0    0    0  501  0.00000000000E+00  0.00000000000E+00 -0.15415786639E+04  0.15415786639E+04  0.25500000920E-02 0.  1.
    10030    2    1    2    0    0  0.00000000000E+00  0.00000000000E+00 -0.53148808164E+03  0.25516692461E+04  0.24957035802E+04 0.  0.
        2    1    3    3  502    0  0.78700958178E+03 -0.39443382975E+02  0.72352486062E+03  0.10697794568E+04  0.25500000920E-02 0. -1.
       -2    1    3    3    0  502 -0.78700958178E+03  0.39443382975E+02 -0.12550129423E+04  0.14818897893E+04  0.25500000920E-02 0.  1.
</event>
<event>
 5   0  0.3006265E-05  0.2318768E+04  0.7818609E-02  0.8470558E-01
        1   -1    0    0  501    0  0.00000000000E+00  0.00000000000E+00  0.11225208227E+04  0.11225208227E+04  0.50400001928E-02 0.  1.
       -1   -1    0    0    0  501  0.00000000000E+00  0.00000000000E+00 -0.11974573522E+04  0.11974573522E+04  0.50400001928E-02 0. -1.
    10030    2    1    2    0    0  0.00000000000E+00  0.00000000000E+00 -0.74936529571E+02  0.23199781749E+04  0.23187676142E+04 0.  0.
        2    1    3    3  502    0 -0.42442344327E+03 -0.13704542713E+03 -0.11081924231E+04  0.11945740475E+04  0.25500000920E-02 0. -1.
       -2    1    3    3    0  502  0.42442344327E+03  0.13704542713E+03  0.10332558936E+04  0.11254041274E+04  0.25500000920E-02 0.  1.
</event>
<event>
 5   0  0.6495405E-05  0.2298547E+04  0.7818609E-02  0.8478494E-01
        2   -1    0    0  501    0  0.00000000000E+00  0.00000000000E+00  0.77890759097E+03  0.77890759097E+03  0.25500000920E-02 0. -1.
       -2   -1    0    0    0  501  0.00000000000E+00  0.00000000000E+00 -0.16957466782E+04  0.16957466782E+04  0.25500000920E-02 0.  1.
    10030    2    1    2    0    0  0.00000000000E+00  0.00000000000E+00 -0.91683908724E+03  0.24746542692E+04  0.22985473326E+04 0.  0.
        5    1    3    3  502    0  0.54066380575E+03  0.48973039418E+03 -0.14145221859E+04  0.15915553129E+04  0.46999998093E+01 0.  1.
       -5    1    3    3    0  502 -0.54066380575E+03 -0.48973039418E+03  0.49768309864E+03  0.88309895624E+03  0.46999998093E+01 0. -1.
</event>
<event>
 5   0  0.2342500E-05  0.2236872E+04  0.7818609E-02  0.8503236E-01
       -3   -1    0    0    0  501  0.00000000000E+00  0.00000000000E+00  0.10357385146E+04  0.10357385195E+04  0.10100000352E+00 0.  1.
        3   -1    0    0  501    0  0.00000000000E+00  0.00000000000E+00 -0.12077367282E+04  0.12077367324E+04  0.10100000352E+00 0. -1.
    10030    2    1    2    0    0  0.00000000000E+00  0.00000000000E+00 -0.17199821359E+03  0.22434752520E+04  0.22368723300E+04 0.  0.
        3    1    3    3  502    0 -0.42358152950E+03 -0.56220927323E+03 -0.95770152355E+03  0.11885675401E+04  0.10100000352E+00 0. -1.
       -3    1    3    3    0  502  0.42358152950E+03  0.56220927323E+03  0.78570330995E+03  0.10549077118E+04  0.10100000352E+00 0.  1.
</event>
<event>
 5   0  0.6495405E-05  0.2300795E+04  0.7818609E-02  0.8477608E-01
        2   -1    0    0  501    0  0.00000000000E+00  0.00000000000E+00  0.21576341220E+04  0.21576341220E+04  0.25500000920E-02 0. -1.
       -2   -1    0    0    0  501  0.00000000000E+00  0.00000000000E+00 -0.61336394790E+03  0.61336394791E+03  0.25500000920E-02 0.  1.
    10030    2    1    2    0    0  0.00000000000E+00  0.00000000000E+00  0.15442701741E+04  0.27709980699E+04  0.23007955000E+04 0.  0.
        5    1    3    3  502    0 -0.10393079300E+04  0.36053709696E+03  0.36684351620E+03  0.11596310737E+04  0.46999998093E+01 0.  1.
       -5    1    3    3    0  502  0.10393079300E+04 -0.36053709696E+03  0.11774266579E+04  0.16113669962E+04  0.46999998093E+01 0. -1.
</event>
<event>
 5   0  0.6814789E-05  0.2335230E+04  0.7818609E-02  0.8464159E-01
        2   -1    0    0  501    0  0.00000000000E+00  0.00000000000E+00  0.13476004798E+04  0.13476004798E+04  0.25500000920E-02 0.  1.
       -2   -1    0    0    0  501  0.00000000000E+00  0.00000000000E+00 -0.10116681561E+04  0.10116681561E+04  0.25500000920E-02 0. -1.
    10030    2    1    2    0    0  0.00000000000E+00  0.00000000000E+00  0.33593232372E+03  0.23592686360E+04  0.23352297469E+04 0.  0.
        1    1    3    3  502    0 -0.57621976533E+03 -0.50866945317E+03 -0.72003035972E+03  0.10531939752E+04  0.50400001928E-02 0. -1.
       -1    1    3    3    0  502  0.57621976533E+03  0.50866945317E+03  0.10559626834E+04  0.13060746607E+04  0.50400001928E-02 0.  1.
</event>
<event>
 5   0  0.6702421E-05  0.2209770E+04  0.7818609E-02  0.8514373E-01
        2   -1    0    0  501    0  0.00000000000E+00  0.00000000000E+00  0.16837947503E+04  0.16837947503E+04  0.25500000920E-02 0.  1.
       -2   -1    0    0    0  501  0.00000000000E+00  0.00000000000E+00 -0.72501164431E+03  0.72501164432E+03  0.25500000920E-02 0. -1.
    10030    2    1    2    0    0  0.00000000000E+00  0.00000000000E+00  0.95878310600E+03  0.24088063946E+04  0.22097699433E+04 0.  0.
        4    1    3    3  502    0  0.10031930902E+04 -0.29140963793E+03  0.87159489154E+03  0.13605128523E+04  0.12699999809E+01 0.  1.
       -4    1    3    3    0  502 -0.10031930902E+04  0.29140963793E+03  0.87188214460E+02  0.10482935424E+04  0.12699999809E+01 0. -1.
</event>
<event>
 5   0  0.3006265E-05  0.2059825E+04  0.7818609E-02  0.8579150E-01
        1   -1    0    0  501    0  0.00000000000E+00  0.00000000000E+00  0.20181832509E+04  0.20181832509E+04  0.50400001928E-02 0. -1.
       -1   -1    0    0    0  501  0.00000000000E+00  0.00000000000E+00 -0.52558130666E+03  0.52558130668E+03  0.50400001928E-02 0.  1.
    10030    2    1    2    0    0  0.00000000000E+00  0.00000000000E+00  0.14926019443E+04  0.25437645576E+04  0.20598246432E+04 0.  0.
        2    1    3    3  502    0 -0.32298666976E+03 -0.55684967852E+03 -0.24651692808E+03  0.68932760655E+03  0.25500000920E-02 0.  1.
       -2    1    3    3    0  502  0.32298666976E+03  0.55684967852E+03  0.17391188724E+04  0.18544369511E+04  0.25500000920E-02 0. -1.
</event>
<event>
 5   0  0.3006265E-05  0.2244545E+04  0.7818609E-02  0.8500113E-01
       -1   -1    0    0    0  501  0.00000000000E+00  0.00000000000E+00  0.10093927502E+04  0.10093927503E+04  0.50400001928E-02 0.  1.
        1   -1    0    0  501    0  0.00000000000E+00  0.00000000000E+00 -0.12477758234E+04  0.12477758234E+04  0.50400001928E-02 0. -1.
    10030    2    1    2    0    0  0.00000000000E+00  0.00000000000E+00 -0.23838307314E+03  0.22571685737E+04  0.22445452725E+04 0.  0.
        2    1    3    3  502    0  0.80742678964E+03  0.60972751252E+03 -0.60750478804E+03  0.11801558065E+04  0.25500000920E-02 0. -1.
       -2    1    3    3    0  502 -0.80742678964E+03 -0.60972751252E+03  0.36912171490E+03  0.10770127671E+04  0.25500000920E-02 0.  1.
</event>
<event>
 5   0  0.6495405E-05  0.2237609E+04  0.7818609E-02  0.8502936E-01
       -2   -1    0    0    0  501  0.00000000000E+00  0.00000000000E+00  0.78278614144E+03  0.78278614145E+03  0.25500000920E-02 0.  1.
        2   -1    0    0  501    0  0.00000000000E+00  0.00000000000E+00 -0.15990617838E+04  0.15990617838E+04  0.25500000920E-02 0. -1.
    10030    2    1    2    0    0  0.00000000000E+00  0.00000000000E+00 -0.81627564234E+03  0.23818479252E+04  0.22376089057E+04 0.  0.
        5    1    3    3  502    0  0.28501188797E+03 -0.38922083327E+03 -0.14826515535E+04  0.15591671984E+04  0.46999998093E+01 0. -1.
       -5    1    3    3    0  502 -0.28501188797E+03  0.38922083327E+03  0.66637591118E+03  0.82268072686E+03  0.46999998093E+01 0.  1.
</event>
<event>
 5   0  0.6468758E-05  0.2293611E+04  0.7818609E-02  0.8480444E-01
        2   -1    0    0  501    0  0.00000000000E+00  0.00000000000E+00  0.14741756380E+04  0.14741756380E+04  0.25500000920E-02 0. -1.
       -2   -1    0    0    0  501  0.00000000000E+00  0.00000000000E+00 -0.89213452954E+03  0.89213452954E+03  0.25500000920E-02 0.  1.
    10030    2    1    2    0    0  0.00000000000E+00  0.00000000000E+00  0.58204110847E+03  0.23663101676E+04  0.22936111172E+04 0.  0.
        3    1    3    3  502    0  0.62735972422E+03 -0.93667260276E+03  0.50798899202E+03  0.12365227918E+04  0.10100000352E+00 0.  1.
       -3    1    3    3    0  502 -0.62735972422E+03  0.93667260276E+03  0.74052116449E+02  0.11297873758E+04  0.10100000352E+00 0. -1.
</event>
<event>
 5   0  0.3006265E-05  0.2230653E+04  0.7818609E-02  0.8505777E-01
        1   -1    0    0  501    0  0.00000000000E+00  0.00000000000E+00  0.16739018388E+04  0.16739018388E+04  0.50400001928E-02 0.  1.
       -1   -1    0    0    0  501  0.00000000000E+00  0.00000000000E+00 -0.74314559014E+03  0.74314559015E+03  0.50400001928E-02 0. -1.
    10030    2    1    2    0    0  0.00000000000E+00  0.00000000000E+00  0.93075624865E+03  0.24170474290E+04  0.22306526129E+04 0.  0.
        2    1    3    3  502    0  0.62040604314E+03  0.12944333512E+03  0.14598327326E+04  0.15914681406E+04  0.25500000920E-02 0.  1.
       -2    1    3    3    0  502 -0.62040604314E+03 -0.12944333512E+03 -0.52907648399E+03  0.82557928831E+03  0.25500000920E-02 0. -1.
</event>
<event>
 5   0  0.6702421E-05  0.2343321E+04  0.7818609E-02  0.8461033E-01
       -2   -1    0    0    0  501  0.00000000000E+00  0.00000000000E+00  0.64743491226E+03  0.64743491226E+03  0.25500000920E-02 0.  1.
        2   -1    0    0  501    0  0.00000000000E+00  0.00000000000E+00 -0.21203502352E+04  0.21203502352E+04  0.25500000920E-02 0. -1.
    10030    2    1    2    0    0  0.00000000000E+00  0.00000000000E+00 -0.14729153229E+04  0.27677851474E+04  0.23433213766E+04 0.  0.
        4    1    3    3  502    0 -0.98741817470E+03 -0.47948215445E+03 -0.12204206128E+04  0.16414401826E+04  0.12699999809E+01 0. -1.
       -4    1    3    3    0  502  0.98741817470E+03  0.47948215445E+03 -0.25249471015E+03  0.11263449648E+04  0.12699999809E+01 0.  1.
</event>
<event>
 5   0  0.2982385E-05  0.2235325E+04  0.7818609E-02  0.8503867E-01
        1   -1    0    0  501    0  0.00000000000E+00  0.00000000000E+00  0.13415056672E+04  0.13415056672E+04  0.50400001928E-02 0.  1.
       -1   -1    0    0    0  501  0.00000000000E+00  0.00000000000E+00 -0.93116986920E+03  0.93116986922E+03  0.50400001928E-02 0. -1.
    10030    2    1    2    0    0  0.00000000000E+00  0.00000000000E+00  0.41033579802E+03  0.22726755364E+04  0.22353251725E+04 0.  0.
        4    1    3    3  502    0 -0.83473472700E+03  0.21304488759E+03  0.92910325814E+03  0.12670456447E+04  0.12699999809E+01 0.  1.
       -4    1    3    3    0  502  0.83473472700E+03 -0.21304488759E+03 -0.51876746012E+03  0.10056298917E+04  0.12699999809E+01 0. -1.
</event>
<event>
 5   0  0.3118614E-05  0.2281186E+04  0.7818609E-02  0.8485376E-01
       -1   -1    0    0    0  501  0.00000000000E+00  0.00000000000E+00  0.12860786533E+04  0.12860786533E+04  0.50400001928E-02 0. -1.
        1   -1    0    0  501    0  0.00000000000E+00  0.00000000000E+00 -0.10115653780E+04  0.10115653780E+04  0.50400001928E-02 0.  1.
    10030    2    1    2    0    0  0.00000000000E+00  0.00000000000E+00  0.27451327531E+03  0.22976440313E+04  0.22811862169E+04 0.  0.
        3    1    3    3  502    0  0.11270684709E+04  0.56726997606E+02  0.30413643716E+03  0.11687601435E+04  0.10100000352E+00 0. -1.
       -3    1    3    3    0  502 -0.11270684709E+04 -0.56726997606E+02 -0.29623161854E+02  0.11288838879E+04  0.10100000352E+00 0.  1.
</event>
<event>
 5   0  0.6814789E-05  0.2295823E+04  0.7818609E-02  0.8479570E-01
        2   -1    0    0  501    0  0.00000000000E+00  0.00000000000E+00  0.19663737040E+04  0.19663737040E+04  0.25500000920E-02 0.  1.
       -2   -1    0    0    0  501  0.00000000000E+00  0.00000000000E+00 -0.67011747498E+03  0.67011747498E+03  0.25500000920E-02 0. -1.
    10030    2    1    2    0    0  0.00000000000E+00  0.00000000000E+00  0.12962562290E+04  0.26364911790E+04  0.22958234962E+04 0.  0.
        1    1    3    3  502    0  0.70161416288E+03 -0.68742980425E+03 -0.34054840360E+02  0.98284378286E+03  0.50400001928E-02 0. -1.
       -1    1    3    3    0  502 -0.70161416288E+03  0.68742980425E+03  0.13303110694E+04  0.16536473961E+04  0.50400001928E-02 0.  1.
</event>
<event>
 5   0  0.3006265E-05  0.2286506E+04  0.7818609E-02  0.8483261E-01
       -1   -1    0    0    0  501  0.00000000000E+00  0.00000000000E+00  0.13422934727E+04  0.13422934727E+04  0.50400001928E-02 0. -1.
        1   -1    0    0  501    0  0.00000000000E+00  0.00000000000E+00 -0.97372722372E+03  0.97372722373E+03  0.50400001928E-02 0.  1.
    10030    2    1    2    0    0  0.00000000000E+00  0.00000000000E+00  0.36856624897E+03  0.23160206964E+04  0.22865062402E+04 0.  0.
        2    1    3    3  502    0 -0.10090068379E+04 -0.46482883799E+03  0.45770649711E+03  0.12015223198E+04  0.25500000920E-02 0. -1.
       -2    1    3    3    0  502  0.10090068379E+04  0.46482883799E+03 -0.89140248137E+02  0.11144983766E+04  0.25500000920E-02 0.  1.
</event>
<event>
 5   0  0.6814789E-05  0.2301296E+04  0.7818609E-02  0.8477410E-01
       -2   -1    0    0    0  501  0.00000000000E+00  0.00000000000E+00  0.62924295162E+03  0.62924295162E+03  0.25500000920E-02 0. -1.
        2   -1    0    0  501    0  0.00000000000E+00  0.00000000000E+00 -0.21041019010E+04  0.21041019010E+04  0.25500000920E-02 0.  1.
    10030    2    1    2    0    0  0.00000000000E+00  0.00000000000E+00 -0.14748589494E+04  0.27333448526E+04  0.23012964092E+04 0.  0.
        1    1    3    3  502    0 -0.61601406227E+03  0.23422360868E+02  0.41655726066E+03  0.74400395385E+03  0.50400001928E-02 0. -1.
       -1    1    3    3    0  502  0.61601406227E+03 -0.23422360868E+02 -0.18914162101E+04  0.19893408988E+04  0.50400001928E-02 0.  1.
</event>
<event>
 5   0  0.6468758E-05  0.2297699E+04  0.7818609E-02  0.8478829E-01
        2   -1    0    0  501    0  0.00000000000E+00  0.00000000000E+00  0.14021092155E+04  0.14021092155E+04  0.25500000920E-02 0.  1.
       -2   -1    0    0    0  501  0.00000000000E+00  0.00000000000E+00 -0.94133562966E+03  0.94133562966E+03  0.25500000920E-02 0. -1.
    10030    2    1    2    0    0  0.00000000000E+00  0.00000000000E+00  0.46077358582E+03  0.23434448451E+04  0.22976991633E+04 0.  0.
        3    1    3    3  502    0  0.26484098021E+03  0.16142543516E+03 -0.89782677862E+03  0.94989044133E+03  0.10100000352E+00 0. -1.
       -3    1    3    3    0  502 -0.26484098021E+03 -0.16142543516E+03  0.13586003644E+04  0.13935544038E+04  0.10100000352E+00 0.  1.
</event>
<event>
 5   0  0.2962279E-05  0.2284033E+04  0.7818609E-02  0.8484243E-01
       -1   -1    0    0    0  501  0.00000000000E+00  0.00000000000E+00  0.12532857610E+04  0.12532857610E+04  0.50400001928E-02 0.  1.
        1   -1    0    0  501    0  0.00000000000E+00  0.00000000000E+00 -0.10406262144E+04  0.10406262144E+04  0.50400001928E-02 0. -1.
    10030    2    1    2    0    0  0.00000000000E+00  0.00000000000E+00  0.21265954656E+03  0.22939119754E+04  0.22840332896E+04 0.  0.
        1    1    3    3  502    0 -0.55276097162E+03 -0.83998283745E+03  0.65004559794E+03  0.11973617408E+04  0.50400001928E-02 0.  1.
       -1    1    3    3    0  502  0.55276097162E+03  0.83998283745E+03 -0.43738605137E+03  0.10965502346E+04  0.50400001928E-02 0. -1.
</event>
<event>
 5   0  0.2962279E-05  0.2273455E+04  0.7818609E-02  0.8488461E-01
        1   -1    0    0  501    0  0.00000000000E+00  0.00000000000E+00  0.15079852693E+04  0.15079852693E+04  0.50400001928E-02 0.  1.
       -1   -1    0    0    0  501  0.00000000000E+00  0.00000000000E+00 -0.85687153213E+03  0.85687153215E+03  0.50400001928E-02 0. -1.
    10030    2    1    2    0    0  0.00000000000E+00  0.00000000000E+00  0.65111373721E+03  0.23648568015E+04  0.22734552102E+04 0.  0.
        1    1    3    3  502    0  0.10164514057E+04  0.25841128070E+03  0.78158843894E+03  0.13079871322E+04  0.50400001928E-02 0. -1.
       -1    1    3    3    0  502 -0.10164514057E+04 -0.25841128070E+03 -0.13047470173E+03  0.10568696693E+04  0.50400001928E-02 0.  1.
</event>
<event>
 5   0  0.6814789E-05  0.2270438E+04  0.7818609E-02  0.8489669E-01
       -2   -1    0    0    0  501  0.00000000000E+00  0.00000000000E+00  0.86732699166E+03  0.86732699167E+03  0.25500000920E-02 0.  1.
        2   -1    0    0  501    0  0.00000000000E+00  0.00000000000E+00 -0.14858555907E+04  0.14858555907E+04  0.25500000920E-02 0. -1.
    10030    2    1    2    0    0  0.00000000000E+00  0.00000000000E+00 -0.61852859908E+03  0.23531825824E+04  0.22704384242E+04 0.  0.
        1    1    3    3  502    0  0.43408179919E+03  0.68687085397E+03 -0.11309390625E+04  0.13925666022E+04  0.50400001928E-02 0. -1.
       -1    1    3    3    0  502 -0.43408179919E+03 -0.68687085397E+03  0.51241046342E+03  0.96061598022E+03  0.50400001928E-02 0.  1.
</event>
<event>
 5   0  0.3006265E-05  0.2289284E+04  0.7818609E-02  0.8482158E-01
       -1   -1    0    0    0  501  0.00000000000E+00  0.00000000000E+00  0.14088283869E+04  0.14088283869E+04  0.50400001928E-02 0. -1.
        1   -1    0    0  501    0  0.00000000000E+00  0.00000000000E+00 -0.92999636718E+03  0.92999636720E+03  0.50400001928E-02 0.  1.
    10030    2    1    2    0    0  0.00000000000E+00  0.00000000000E+00  0.47883201968E+03  0.23388247541E+04  0.22892839770E+04 0.  0.
        2    1    3    3  502    0  0.89938715985E+02 -0.11248777239E+04  0.43531114851E+03  0.12095183596E+04  0.25500000920E-02 0. -1.
       -2    1    3    3    0  502 -0.89938715985E+02  0.11248777239E+04  0.43520871174E+02  0.11293063944E+04  0.25500000920E-02 0.  1.
</event>
<event>
 5   0  0.2962279E-05  0.2293537E+04  0.7818609E-02  0.8480474E-01
       -1   -1    0    0    0  501  0.00000000000E+00  0.00000000000E+00  0.85687259056E+03  0.85687259058E+03  0.50400001928E-02 0. -1.
        1   -1    0    0  501    0  0.00000000000E+00  0.00000000000E+00 -0.15347416038E+04  0.15347416038E+04  0.50400001928E-02 0.  1.
    10030    2    1    2    0    0  0.00000000000E+00  0.00000000000E+00 -0.67786901326E+03  0.23916141944E+04  0.22935370186E+04 0.  0.
        1    1    3    3  502    0 -0.10644978806E+04 -0.19647821847E+03  0.55828660895E+02  0.10839170944E+04  0.50400001928E-02 0. -1.
       -1    1    3    3    0  502  0.10644978806E+04  0.19647821847E+03 -0.73369767415E+03  0.13076971000E+04  0.50400001928E-02 0.  1.
</event>
<event>
 5   0  0.6468758E-05  0.2308913E+04  0.7818609E-02  0.8474415E-01
        2   -1    0    0  501    0  0.00000000000E+00  0.00000000000E+00  0.13890170900E+04  0.13890170900E+04  0.25500000920E-02 0. -1.
       -2   -1    0    0    0  501  0.00000000000E+00  0.00000000000E+00 -0.95950595867E+03  0.95950595867E+03  0.25500000920E-02 0.  1.
    10030    2    1    2    0    0  0.00000000000E+00  0.00000000000E+00  0.42951113132E+03  0.23485230487E+04  0.23089133154E+04 0.  0.
        3    1    3    3  502    0 -0.92901279769E+03 -0.11896890482E+03 -0.47176898908E+03  0.10487060445E+04  0.10100000352E+00 0.  1.
       -3    1    3    3    0  502  0.92901279769E+03  0.11896890482E+03  0.90128012040E+03  0.12998170041E+04  0.10100000352E+00 0. -1.
</event>
<event>
 5   0  0.2982385E-05  0.2333501E+04  0.7818609E-02  0.8464828E-01
       -1   -1    0    0    0  501  0.00000000000E+00  0.00000000000E+00  0.88914844600E+03  0.88914844602E+03  0.50400001928E-02 0.  1.
        1   -1    0    0  501    0  0.00000000000E+00  0.00000000000E+00 -0.15310226865E+04  0.15310226865E+04  0.50400001928E-02 0. -1.
    10030    2    1    2    0    0  0.00000000000E+00  0.00000000000E+00 -0.64187424048E+03  0.24201711325E+04  0.23335007542E+04 0.  0.
        4    1    3    3  502    0 -0.28623078917E+03  0.66500698006E+03  0.62800084298E+03  0.95840963052E+03  0.12699999809E+01 0.  1.
       -4    1    3    3    0  502  0.28623078917E+03 -0.66500698006E+03 -0.12698750835E+04  0.14617615020E+04  0.12699999809E+01 0. -1.
</event>
<event>
 5   0  0.2962279E-05  0.2297682E+04  0.7818609E-02  0.8478835E-01
        1   -1    0    0  501    0  0.00000000000E+00  0.00000000000E+00  0.97861458975E+03  0.97861458976E+03  0.50400001928E-02 0. -1.
       -1   -1    0    0    0  501  0.00000000000E+00  0.00000000000E+00 -0.13486781148E+04  0.13486781148E+04  0.50400001928E-02 0.  1.
    10030    2    1    2    0    0  0.00000000000E+00  0.00000000000E+00 -0.37006352506E+03  0.23272927046E+04  0.22976823802E+04 0.  0.
        1    1    3    3  502    0 -0.11140679517E+04  0.28021008652E+03 -0.17178707227E+03  0.11615403100E+04  0.50400001928E-02 0. -1.
       -1    1    3    3    0  502  0.11140679517E+04 -0.28021008652E+03 -0.19827645278E+03  0.11657523945E+04  0.50400001928E-02 0.  1.
</event>
<event>
 5   0  0.2982385E-05  0.2307867E+04  0.7818609E-02  0.8474826E-01
        1   -1    0    0  501    0  0.00000000000E+00  0.00000000000E+00  0.85982647706E+03  0.85982647707E+03  0.50400001928E-02 0. -1.
       -1   -1    0    0    0  501  0.00000000000E+00  0.00000000000E+00 -0.15486413484E+04  0.15486413485E+04  0.50400001928E-02 0.  1.
    10030    2    1    2    0    0  0.00000000000E+00  0.00000000000E+00 -0.68881487139E+03  0.24084678255E+04  0.23078672708E+04 0.  0.
        4    1    3    3  502    0  0.62269767509E+03 -0.59979451856E+03  0.45314092887E+03  0.97613737423E+03  0.12699999809E+01 0. -1.
       -4    1    3    3    0  502 -0.62269767509E+03  0.59979451856E+03 -0.11419558003E+04  0.14323304513E+04  0.12699999809E+01 0.  1.
</event>
<event>
 5   0  0.6676612E-05  0.2292788E+04  0.7818609E-02  0.8480770E-01
        2   -1    0    0  501    0  0.00000000000E+00  0.00000000000E+00  0.11875482371E+04  0.11875482371E+04  0.25500000920E-02 0. -1.
       -2   -1    0    0    0  501  0.00000000000E+00  0.00000000000E+00 -0.11066658545E+04  0.11066658545E+04  0.25500000920E-02 0.  1.
    10030    2    1    2    0    0  0.00000000000E+00  0.00000000000E+00  0.80882382678E+02  0.22942140916E+04  0.22927878965E+04 0.  0.
        2    1    3    3  502    0  0.66861177259E+03 -0.22037271839E+03 -0.86489409274E+03  0.11151895037E+04  0.25500000920E-02 0.  1.
       -2    1    3    3    0  502 -0.66861177259E+03  0.22037271839E+03  0.94577647542E+03  0.11790245879E+04  0.25500000920E-02 0. -1.
</event>
<event>
 5   0  0.6702421E-05  0.2285433E+04  0.7818609E-02  0.8483687E-01
       -2   -1    0    0    0  501  0.00000000000E+00  0.00000000000E+00  0.10962482176E+04  0.10962482176E+04  0.25500000920E-02 0.  1.
        2   -1    0    0  501    0  0.00000000000E+00  0.00000000000E+00 -0.11911542747E+04  0.11911542747E+04  0.25500000920E-02 0. -1.
    10030    2    1    2    0    0  0.00000000000E+00  0.00000000000E+00 -0.94906057104E+02  0.22874024922E+04  0.22854327822E+04 0.  0.
        4    1    3    3  502    0 -0.35502681123E+02  0.10620262570E+04 -0.46809959266E+03  0.11611541898E+04  0.12699999809E+01 0. -1.
       -4    1    3    3    0  502  0.35502681123E+02 -0.10620262570E+04  0.37319353556E+03  0.11262483024E+04  0.12699999809E+01 0.  1.
</event>
<event>
 5   0  0.6468758E-05  0.2173251E+04  0.7818609E-02  0.8529645E-01
       -2   -1    0    0    0  501  0.00000000000E+00  0.00000000000E+00  0.13022343757E+04  0.13022343757E+04  0.25500000920E-02 0.  1.
        2   -1    0    0  501    0  0.00000000000E+00  0.00000000000E+00 -0.90671422932E+03  0.90671422932E+03  0.25500000920E-02 0. -1.
    10030    2    1    2    0    0  0.00000000000E+00  0.00000000000E+00  0.39552014634E+03  0.22089486050E+04  0.21732505040E+04 0.  0.
        3    1    3    3  502    0 -0.10751891525E+03  0.59775942974E+03  0.11136033230E+04  0.12684593112E+04  0.10100000352E+00 0.  1.
       -3    1    3    3    0  502  0.10751891525E+03 -0.59775942974E+03 -0.71808317664E+03  0.94048929380E+03  0.10100000352E+00 0. -1.
</event>
<event>
 5   0  0.3118614E-05  0.2274701E+04  0.7818609E-02  0.8487963E-01
       -1   -1    0    0    0  501  0.00000000000E+00  0.00000000000E+00  0.10605248741E+04  0.10605248741E+04  0.50400001928E-02 0. -1.
        1   -1    0    0  501    0  0.00000000000E+00  0.00000000000E+00 -0.12197418316E+04  0.12197418316E+04  0.50400001928E-02 0.  1.
    10030    2    1    2    0    0  0.00000000000E+00  0.00000000000E+00 -0.15921695744E+03  0.22802667057E+04  0.22747013452E+04 0.  0.
        3    1    3    3  502    0  0.26683338077E+03 -0.56484796498E+03 -0.10323617657E+04  0.12066582375E+04  0.10100000352E+00 0.  1.
       -3    1    3    3    0  502 -0.26683338077E+03  0.56484796498E+03  0.87314480827E+03  0.10736084682E+04  0.10100000352E+00 0. -1.
</event>
<event>
 5   0  0.6468758E-05  0.2305783E+04  0.7818609E-02  0.8475644E-01
        2   -1    0    0  501    0  0.00000000000E+00  0.00000000000E+00  0.81660282569E+03  0.81660282569E+03  0.25500000920E-02 0.  1.
       -2   -1    0    0    0  501  0.00000000000E+00  0.00000000000E+00 -0.16276690669E+04  0.16276690669E+04  0.25500000920E-02 0. -1.
    10030    2    1    2    0    0  0.00000000000E+00  0.00000000000E+00 -0.81106624122E+03  0.24442718926E+04  0.23057833023E+04 0.  0.
        3    1    3    3  502    0  0.41287338896E+03  0.91337214452E+03 -0.10093458471E+04  0.14224950471E+04  0.10100000352E+00 0. -1.
       -3    1    3    3    0  502 -0.41287338896E+03 -0.91337214452E+03  0.19827960592E+03  0.10217768455E+04  0.10100000352E+00 0.  1.
</event>
<event>
 5   0  0.6676612E-05  0.2267509E+04  0.7818609E-02  0.8490843E-01
       -2   -1    0    0    0  501  0.00000000000E+00  0.00000000000E+00  0.10367910664E+04  0.10367910664E+04  0.25500000920E-02 0.  1.
        2   -1    0    0  501    0  0.00000000000E+00  0.00000000000E+00 -0.12397859123E+04  0.12397859123E+04  0.25500000920E-02 0. -1.
    10030    2    1    2    0    0  0.00000000000E+00  0.00000000000E+00 -0.20299484594E+03  0.22765769787E+04  0.22675087282E+04 0.  0.
        2    1    3    3  502    0  0.70907299190E+03 -0.65996638308E+03 -0.69297041352E+03  0.11910281813E+04  0.25500000920E-02 0. -1.
       -2    1    3    3    0  502 -0.70907299190E+03  0.65996638308E+03  0.48997556759E+03  0.10855487974E+04  0.25500000920E-02 0.  1.
</event>
<event>
 5   0  0.3118614E-05  0.2289638E+04  0.7818609E-02  0.8482018E-01
        1   -1    0    0  501    0  0.00000000000E+00  0.00000000000E+00  0.19211911444E+04  0.19211911444E+04  0.50400001928E-02 0.  1.
       -1   -1    0    0    0  501  0.00000000000E+00  0.00000000000E+00 -0.68218651811E+03  0.68218651813E+03  0.50400001928E-02 0. -1.
    10030    2    1    2    0    0  0.00000000000E+00  0.00000000000E+00  0.12390046263E+04  0.26033776625E+04  0.22896381351E+04 0.  0.
        3    1    3    3  502    0 -0.10066711413E+04 -0.19106759687E+03  0.38931684312E+02  0.10253825138E+04  0.10100000352E+00 0. -1.
       -3    1    3    3    0  502  0.10066711413E+04  0.19106759687E+03  0.12000729420E+04  0.15779951488E+04  0.10100000352E+00 0.  1.
</event>
<event>
 5   0  0.6495405E-05  0.2307973E+04  0.7818609E-02  0.8474784E-01
        2   -1    0    0  501    0  0.00000000000E+00  0.00000000000E+00  0.14201195286E+04  0.14201195286E+04  0.25500000920E-02 0. -1.
       -2   -1    0    0    0  501  0.00000000000E+00  0.00000000000E+00 -0.93772699669E+03  0.93772699669E+03  0.25500000920E-02 0.  1.
    10030    2    1    2    0    0  0.00000000000E+00  0.00000000000E+00  0.48239253187E+03  0.23578465252E+04  0.23079726345E+04 0.  0.
        5    1    3    3  502    0  0.68665286717E+03  0.80548085986E+02 -0.70271894546E+03  0.98580736478E+03  0.46999998093E+01 0.  1.
       -5    1    3    3    0  502 -0.68665286717E+03 -0.80548085986E+02  0.11851114773E+04  0.13720391605E+04  0.46999998093E+01 0. -1.
</event>
<event>
 5   0  0.2342500E-05  0.2321618E+04  0.7818609E-02  0.8469446E-01
        3   -1    0    0  501    0  0.00000000000E+00  0.00000000000E+00  0.83577627518E+03  0.83577628129E+03  0.10100000352E+00 0.  1.
       -3   -1    0    0    0  501  0.00000000000E+00  0.00000000000E+00 -0.16122465739E+04  0.16122465770E+04  0.10100000352E+00 0. -1.
    10030    2    1    2    0    0  0.00000000000E+00  0.00000000000E+00 -0.77647029870E+03  0.24480228583E+04  0.23216179251E+04 0.  0.
        2    1    3    3  502    0  0.79096677900E+03  0.28717467797E+03  0.45491349167E+03  0.95657933599E+03  0.25500000920E-02 0.  1.
       -2    1    3    3    0  502 -0.79096677900E+03 -0.28717467797E+03 -0.12313837904E+04  0.14914435223E+04  0.25500000920E-02 0. -1.
</event>
<event>
 5   0  0.6495405E-05  0.2233066E+04  0.7818609E-02  0.8504790E-01
        2   -1    0    0  501    0  0.00000000000E+00  0.00000000000E+00  0.15634660251E+04  0.15634660252E+04  0.25500000920E-02 0.  1.
       -2   -1    0    0    0  501  0.00000000000E+00  0.00000000000E+00 -0.79736051030E+03  0.79736051030E+03  0.25500000920E-02 0. -1.
    10030    2    1    2    0    0  0.00000000000E+00  0.00000000000E+00  0.76610551485E+03  0.23608265355E+04  0.22330661143E+04 0.  0.
        5    1    3    3  502    0  0.47925541982E+03 -0.10084227430E+04  0.38798798300E+03  0.11820147846E+04  0.46999998093E+01 0.  1.
       -5    1    3    3    0  502 -0.47925541982E+03  0.10084227430E+04  0.37811753184E+03  0.11788117509E+04  0.46999998093E+01 0. -1.
</event>
<event>
 5   0  0.6814789E-05  0.2322274E+04  0.7818609E-02  0.8469190E-01
        2   -1    0    0  501    0  0.00000000000E+00  0.00000000000E+00  0.12562876842E+04  0.12562876842E+04  0.25500000920E-02 0.  1.
       -2   -1    0    0    0  501  0.00000000000E+00  0.00000000000E+00 -0.10731934266E+04  0.10731934266E+04  0.25500000920E-02 0. -1.
    10030    2    1    2    0    0  0.00000000000E+00  0.00000000000E+00  0.18309425759E+03  0.23294811108E+04  0.23222744753E+04 0.  0.
        1    1    3    3  502    0 -0.63611412707E+03  0.18189384266E+03  0.10487164082E+04  0.12399728455E+04  0.50400001928E-02 0.  1.
       -1    1    3    3    0  502  0.63611412707E+03 -0.18189384266E+03 -0.86562215059E+03  0.10895082654E+04  0.50400001928E-02 0. -1.
</event>
<event>
 5   0  0.6702421E-05  0.2323684E+04  0.7818609E-02  0.8468641E-01
        2   -1    0    0  501    0  0.00000000000E+00  0.00000000000E+00  0.94650876205E+03  0.94650876205E+03  0.25500000920E-02 0. -1.
       -2   -1    0    0    0  501  0.00000000000E+00  0.00000000000E+00 -0.14261637418E+04  0.14261637418E+04  0.25500000920E-02 0.  1.
    10030    2    1    2    0    0  0.00000000000E+00  0.00000000000E+00 -0.47965497980E+03  0.23726725039E+04  0.23236836943E+04 0.  0.
        4    1    3    3  502    0 -0.24187024489E+03  0.81891419786E+03  0.56466179780E+03  0.10237022212E+04  0.12699999809E+01 0.  1.
       -4    1    3    3    0  502  0.24187024489E+03 -0.81891419786E+03 -0.10443167776E+04  0.13489702827E+04  0.12699999809E+01 0. -1.
</event>
<event>
 5   0  0.3118614E-05  0.2312064E+04  0.7818609E-02  0.8473180E-01
       -1   -1    0    0    0  501  0.00000000000E+00  0.00000000000E+00  0.11567545156E+04  0.11567545156E+04  0.50400001928E-02 0. -1.
        1   -1    0    0  501    0  0.00000000000E+00  0.00000000000E+00 -0.11553098423E+04  0.11553098424E+04  0.50400001928E-02 0.  1.
    10030    2    1    2    0    0  0.00000000000E+00  0.00000000000E+00  0.14446732205E+01  0.23120643579E+04  0.23120639066E+04 0.  0.
        3    1    3    3  502    0 -0.69174458468E+03 -0.39849281106E+03  0.83684616051E+03  0.11565546236E+04  0.10100000352E+00 0. -1.
       -3    1    3    3    0  502  0.69174458468E+03  0.39849281106E+03 -0.83540148729E+03  0.11555097343E+04  0.10100000352E+00 0.  1.
</event>
<event>
 5   0  0.2982385E-05  0.2168045E+04  0.7818609E-02  0.8531848E-01
       -1   -1    0    0    0  501  0.00000000000E+00  0.00000000000E+00  0.74093121652E+03  0.74093121653E+03  0.50400001928E-02 0. -1.
        1   -1    0    0  501    0  0.00000000000E+00  0.00000000000E+00 -0.15859828988E+04  0.15859828988E+04  0.50400001928E-02 0.  1.
    10030    2    1    2    0    0  0.00000000000E+00  0.00000000000E+00 -0.84505168226E+03  0.23269141153E+04  0.21680445001E+04 0.  0.
        4    1    3    3  502    0 -0.10501114055E+04 -0.24021110947E+03 -0.55250898043E+03  0.12106622681E+04  0.12699999809E+01 0. -1.
       -4    1    3    3    0  502  0.10501114055E+04  0.24021110947E+03 -0.29254270183E+03  0.11162518472E+04  0.12699999809E+01 0.  1.
</event>
<event>
 5   0  0.6814789E-05  0.2299103E+04  0.7818609E-02  0.8478275E-01
        2   -1    0    0  501    0  0.00000000000E+00  0.00000000000E+00  0.27378576578E+04  0.27378576578E+04  0.25500000920E-02 0.  1.
       -2   -1    0    0    0  501  0.00000000000E+00  0.00000000000E+00 -0.48266512343E+03  0.48266512343E+03  0.25500000920E-02 0. -1.
    10030    2    1    2    0    0  0.00000000000E+00  0.00000000000E+00  0.22551925344E+04  0.32205227813E+04  0.22991027853E+04 0.  0.
        1    1    3    3  502    0 -0.31508404535E+03 -0.17995930354E+03 -0.40034232637E+03  0.54031221055E+03  0.50400001928E-02 0. -1.
       -1    1    3    3    0  502  0.31508404535E+03  0.17995930354E+03  0.26555348608E+04  0.26802105707E+04  0.50400001928E-02 0.  1.
</event>
<event>
 5   0  0.2962279E-05  0.2260727E+04  0.7818609E-02  0.8493569E-01
       -1   -1    0    0    0  501  0.00000000000E+00  0.00000000000E+00  0.12752153034E+04  0.12752153034E+04  0.50400001928E-02 0. -1.
        1   -1    0    0  501    0  0.00000000000E+00  0.00000000000E+00 -0.10019651802E+04  0.10019651802E+04  0.50400001928E-02 0.  1.
    10030    2    1    2    0    0  0.00000000000E+00  0.00000000000E+00  0.27325012319E+03  0.22771804836E+04  0.22607267250E+04 0.  0.
        1    1    3    3  502    0  0.17247524316E+03 -0.88477872788E+03 -0.55035057280E+03  0.10561566455E+04  0.50400001928E-02 0.  1.
       -1    1    3    3    0  502 -0.17247524316E+03  0.88477872788E+03  0.82360069599E+03  0.12210238381E+04  0.50400001928E-02 0. -1.
</event>
<event>
 5   0  0.6702421E-05  0.2379433E+04  0.7818609E-02  0.8447244E-01
        2   -1    0    0  501    0  0.00000000000E+00  0.00000000000E+00  0.13467818229E+04  0.13467818229E+04  0.25500000920E-02 0.  1.
       -2   -1    0    0    0  501  0.00000000000E+00  0.00000000000E+00 -0.10509685709E+04  0.10509685709E+04  0.25500000920E-02 0. -1.
    10030    2    1    2    0    0  0.00000000000E+00  0.00000000000E+00  0.29581325196E+03  0.23977503938E+04  0.23794330146E+04 0.  0.
        4    1    3    3  502    0 -0.32558963000E+03  0.10942078865E+04 -0.18952070818E+03  0.11572463946E+04  0.12699999809E+01 0. -1.
       -4    1    3    3    0  502  0.32558963000E+03 -0.10942078865E+04  0.48533396015E+03  0.12405039991E+04  0.12699999809E+01 0.  1.
</event>
<event>
 5   0  0.6495405E-05  0.2307349E+04  0.7818609E-02  0.8475029E-01
       -2   -1    0    0    0  501  0.00000000000E+00  0.00000000000E+00  0.70233406611E+03  0.70233406612E+03  0.25500000920E-02 0.  1.
        2   -1    0    0  501    0  0.00000000000E+00  0.00000000000E+00 -0.18950587128E+04  0.18950587128E+04  0.25500000920E-02 0. -1.
    10030    2    1    2    0    0  0.00000000000E+00  0.00000000000E+00 -0.11927246467E+04  0.25973927789E+04  0.23073485140E+04 0.  0.
        5    1    3    3  502    0 -0.73424045748E+03 -0.67660586842E+03 -0.12469744317E+04  0.15974579412E+04  0.46999998093E+01 0. -1.
       -5    1    3    3    0  502  0.73424045748E+03  0.67660586842E+03  0.54249784980E+02  0.99993483775E+03  0.46999998093E+01 0.  1.
</event>
<event>
 5   0  0.6495405E-05  0.2323127E+04  0.7818609E-02  0.8468858E-01
       -2   -1    0    0    0  501  0.00000000000E+00  0.00000000000E+00  0.80665154607E+03  0.80665154608E+03  0.25500000920E-02 0. -1.
        2   -1    0    0  501    0  0.00000000000E+00  0.00000000000E+00 -0.16726299416E+04  0.16726299416E+04  0.25500000920E-02 0.  1.
    10030    2    1    2    0    0  0.00000000000E+00  0.00000000000E+00 -0.86597839552E+03  0.24792814877E+04  0.23231267967E+04 0.  0.
        5    1    3    3  502    0 -0.47284193747E+03 -0.46399753142E+03  0.58525832041E+03  0.88398110760E+03  0.46999998093E+01 0. -1.
       -5    1    3    3    0  502  0.47284193747E+03  0.46399753142E+03 -0.14512367159E+04  0.15953003801E+04  0.46999998093E+01 0.  1.
</event>
<event>
 5   0  0.2982385E-05  0.2300614E+04  0.7818609E-02  0.8477679E-01
        1   -1    0    0  501    0  0.00000000000E+00  0.00000000000E+00  0.92584624050E+03  0.92584624051E+03  0.50400001928E-02 0. -1.
       -1   -1    0    0    0  501  0.00000000000E+00  0.00000000000E+00 -0.14291860462E+04  0.14291860462E+04  0.50400001928E-02 0.  1.
    10030    2    1    2    0    0  0.00000000000E+00  0.00000000000E+00 -0.50333980568E+03  0.23550322867E+04  0.23006142900E+04 0.  0.
        4    1    3    3  502    0  0.10931856974E+04  0.70797702655E+02  0.10754012328E+03  0.11007423744E+04  0.12699999809E+01 0. -1.
       -4    1    3    3    0  502 -0.10931856974E+04 -0.70797702655E+02 -0.61087992896E+03  0.12542899123E+04  0.12699999809E+01 0.  1.
</event>
<event>
 5   0  0.2982385E-05  0.2317587E+04  0.7818609E-02  0.8471019E-01
       -1   -1    0    0    0  501  0.00000000000E+00  0.00000000000E+00  0.95221578207E+03  0.95221578208E+03  0.50400001928E-02 0.  1.
        1   -1    0    0  501    0  0.00000000000E+00  0.00000000000E+00 -0.14101872319E+04  0.14101872319E+04  0.50400001928E-02 0. -1.
    10030    2    1    2    0    0  0.00000000000E+00  0.00000000000E+00 -0.45797144982E+03  0.23624030140E+04  0.23175871400E+04 0.  0.
        4    1    3    3  502    0  0.46479876919E+03  0.15199698440E+03 -0.12998527764E+04  0.13887979811E+04  0.12699999809E+01 0. -1.
       -4    1    3    3    0  502 -0.46479876919E+03 -0.15199698440E+03  0.84188132658E+03  0.97360503288E+03  0.12699999809E+01 0.  1.
</event>
<event>
 5   0  0.2962279E-05  0.2264044E+04  0.7818609E-02  0.8492234E-01
        1   -1    0    0  501    0  0.00000000000E+00  0.00000000000E+00  0.23558266333E+04  0.23558266333E+04  0.50400001928E-02 0. -1.
       -1   -1    0    0    0  501  0.00000000000E+00  0.00000000000E+00 -0.54395937569E+03  0.54395937571E+03  0.50400001928E-02 0.  1.
    10030    2    1    2    0    0  0.00000000000E+00  0.00000000000E+00  0.18118672576E+04  0.28997860090E+04  0.22640441557E+04 0.  0.
        1    1    3    3  502    0 -0.10135130776E+04 -0.12161679046E+03  0.27915992153E+03  0.10582672933E+04  0.50400001928E-02 0.  1.
       -1    1    3    3    0  502  0.10135130776E+04  0.12161679046E+03  0.15327073361E+04  0.18415187157E+04  0.50400001928E-02 0. -1.
</event>
<event>
 5   0  0.6495405E-05  0.2293483E+04  0.7818609E-02  0.8480495E-01
        2   -1    0    0  501    0  0.00000000000E+00  0.00000000000E+00  0.13676647764E+04  0.13676647764E+04  0.25500000920E-02 0.  1.
       -2   -1    0    0    0  501  0.00000000000E+00  0.00000000000E+00 -0.96150459040E+03  0.96150459041E+03  0.25500000920E-02 0. -1.
    10030    2    1    2    0    0  0.00000000000E+00  0.00000000000E+00  0.40616018599E+03  0.23291693668E+04  0.22934829065E+04 0.  0.
        5    1    3    3  502    0  0.10573065438E+04 -0.36586355614E+03  0.45846989865E+03  0.12091195173E+04  0.46999998093E+01 0.  1.
       -5    1    3    3    0  502 -0.10573065438E+04  0.36586355614E+03 -0.52309712665E+02  0.11200498495E+04  0.46999998093E+01 0. -1.
</event>
<event>
 5   0  0.6702421E-05  0.2308200E+04  0.7818609E-02  0.8474695E-01
        2   -1    0    0  501    0  0.00000000000E+00  0.00000000000E+00  0.18664913491E+04  0.18664913491E+04  0.25500000920E-02 0.  1.
       -2   -1    0    0    0  501  0.00000000000E+00  0.00000000000E+00 -0.71361015425E+03  0.71361015426E+03  0.25500000920E-02 0. -1.
    10030    2    1    2    0    0  0.00000000000E+00  0.00000000000E+00  0.11528811948E+04  0.25801015034E+04  0.23082003202E+04 0.  0.
        4    1    3    3  502    0  0.43746280245E+03 -0.50532354017E+03  0.16281333943E+04  0.17599845301E+04  0.12699999809E+01 0.  1.
       -4    1    3    3    0  502 -0.43746280245E+03  0.50532354017E+03 -0.47525219946E+03  0.82011697322E+03  0.12699999809E+01 0. -1.
</event>
<event>
 5   0  0.6814789E-05  0.2373288E+04  0.7818609E-02  0.8449572E-01
       -2   -1    0    0    0  501  0.00000000000E+00  0.00000000000E+00  0.96551535673E+03  0.96551535673E+03  0.25500000920E-02 0.  1.
        2   -1    0    0  501    0  0.00000000000E+00  0.00000000000E+00 -0.14584168815E+04  0.14584168815E+04  0.25500000920E-02 0. -1.
    10030    2    1    2    0    0  0.00000000000E+00  0.00000000000E+00 -0.49290152479E+03  0.24239322383E+04  0.23732879266E+04 0.  0.
        1    1    3    3  502    0 -0.27185764088E+03  0.10816941752E+04 -0.66025710440E+03  0.12961127688E+04  0.50400001928E-02 0. -1.
       -1    1    3    3    0  502  0.27185764088E+03 -0.10816941752E+04  0.16735557960E+03  0.11278194694E+04  0.50400001928E-02 0.  1.
</event>
<event>
 5   0  0.6814789E-05  0.2303015E+04  0.7818609E-02  0.8476733E-01
       -2   -1    0    0    0  501  0.00000000000E+00  0.00000000000E+00  0.74152175806E+03  0.74152175807E+03  0.25500000920E-02 0. -1.
        2   -1    0    0  501    0  0.00000000000E+00  0.00000000000E+00 -0.17881735525E+04  0.17881735525E+04  0.25500000920E-02 0.  1.
    10030    2    1    2    0    0  0.00000000000E+00  0.00000000000E+00 -0.10466517944E+04  0.25296953105E+04  0.23030150641E+04 0.  0.
        1    1    3    3  502    0  0.33603834686E+03  0.61695290299E+03  0.47884524312E+03  0.85020316510E+03  0.50400001928E-02 0. -1.
       -1    1    3    3    0  502 -0.33603834686E+03 -0.61695290299E+03 -0.15254970375E+04  0.16794921454E+04  0.50400001928E-02 0.  1.
</event>
<event>
 5   0  0.3006265E-05  0.2364268E+04  0.7818609E-02  0.8453003E-01
        1   -1    0    0  501    0  0.00000000000E+00  0.00000000000E+00  0.18810594136E+04  0.18810594136E+04  0.50400001928E-02 0.  1.
       -1   -1    0    0    0  501  0.00000000000E+00  0.00000000000E+00 -0.74290104686E+03  0.74290104687E+03  0.50400001928E-02 0. -1.
    10030    2    1    2    0    0  0.00000000000E+00  0.00000000000E+00  0.11381583667E+04  0.26239604604E+04  0.23642681807E+04 0.  0.
        2    1    3    3  502    0 -0.36791824924E+03 -0.36081851717E+03 -0.61168213487E+03  0.79981802592E+03  0.25500000920E-02 0. -1.
       -2    1    3    3    0  502  0.36791824924E+03  0.36081851717E+03  0.17498405016E+04  0.18241424345E+04  0.25500000920E-02 0.  1.
</event>
<event>
 5   0  0.2944089E-05  0.1820196E+04  0.7818609E-02  0.8695632E-01
       -1   -1    0    0    0  501  0.00000000000E+00  0.00000000000E+00  0.46145503702E+03  0.46145503705E+03  0.50400001928E-02 0.  1.
        1   -1    0    0  501    0  0.00000000000E+00  0.00000000000E+00 -0.17949284800E+04  0.17949284800E+04  0.50400001928E-02 0. -1.
    10030    2    1    2    0    0  0.00000000000E+00  0.00000000000E+00 -0.13334734430E+04  0.22563835171E+04  0.18201964600E+04 0.  0.
        5    1    3    3  502    0 -0.35529257755E+03  0.82985494513E+03 -0.52342771326E+03  0.10434992605E+04  0.46999998093E+01 0.  1.
       -5    1    3    3    0  502  0.35529257755E+03 -0.82985494513E+03 -0.81004572975E+03  0.12128842566E+04  0.46999998093E+01 0. -1.
</event>
<event>
 5   0  0.6495405E-05  0.2347680E+04  0.7818609E-02  0.8459355E-01
        2   -1    0    0  501    0  0.00000000000E+00  0.00000000000E+00  0.10591682193E+04  0.10591682193E+04  0.25500000920E-02 0. -1.
       -2   -1    0    0    0  501  0.00000000000E+00  0.00000000000E+00 -0.13009271056E+04  0.13009271056E+04  0.25500000920E-02 0.  1.
    10030    2    1    2    0    0  0.00000000000E+00  0.00000000000E+00 -0.24175888630E+03  0.23600953249E+04  0.23476802558E+04 0.  0.
        5    1    3    3  502    0  0.10700567555E+03 -0.77975819857E+03  0.75459068473E+03  0.10903679445E+04  0.46999998093E+01 0. -1.
       -5    1    3    3    0  502 -0.10700567555E+03  0.77975819857E+03 -0.99634957104E+03  0.12697273804E+04  0.46999998093E+01 0.  1.
</event>
<event>
 5   0  0.2982385E-05  0.2278751E+04  0.7818609E-02  0.8486347E-01
        1   -1    0    0  501    0  0.00000000000E+00  0.00000000000E+00  0.13535336618E+04  0.13535336618E+04  0.50400001928E-02 0. -1.
       -1   -1    0    0    0  501  0.00000000000E+00  0.00000000000E+00 -0.95910200308E+03  0.95910200309E+03  0.50400001928E-02 0.  1.
    10030    2    1    2    0    0  0.00000000000E+00  0.00000000000E+00  0.39443165867E+03  0.23126356649E+04  0.22787512776E+04 0.  0.
        4    1    3    3  502    0 -0.63597493663E+03  0.73666987251E+03 -0.40407080791E+03  0.10537653685E+04  0.12699999809E+01 0.  1.
       -4    1    3    3    0  502  0.63597493663E+03 -0.73666987251E+03  0.79850246658E+03  0.12588702964E+04  0.12699999809E+01 0. -1.
</event>
<event>
 5   0  0.6676612E-05  0.2325712E+04  0.7818609E-02  0.8467852E-01
       -2   -1    0    0    0  501  0.00000000000E+00  0.00000000000E+00  0.10142724608E+04  0.10142724608E+04  0.25500000920E-02 0. -1.
        2   -1    0    0  501    0  0.00000000000E+00  0.00000000000E+00 -0.13332058771E+04  0.13332058771E+04  0.25500000920E-02 0.  1.
    10030    2    1    2    0    0  0.00000000000E+00  0.00000000000E+00 -0.31893341635E+03  0.23474783379E+04  0.23257119389E+04 0.  0.
        2    1    3    3  502    0 -0.11172843449E+04  0.27833594840E+03 -0.32358860452E+03  0.11960371200E+04  0.25500000920E-02 0.  1.
       -2    1    3    3    0  502  0.11172843449E+04 -0.27833594840E+03  0.46551881651E+01  0.11514412179E+04  0.25500000920E-02 0. -1.
</event>
<event>
 5   0  0.2962279E-05  0.2332626E+04  0.7818609E-02  0.8465167E-01
        1   -1    0    0  501    0  0.00000000000E+00  0.00000000000E+00  0.11545516457E+04  0.11545516457E+04  0.50400001928E-02 0. -1.
       -1   -1    0    0    0  501  0.00000000000E+00  0.00000000000E+00 -0.11781942244E+04  0.11781942244E+04  0.50400001928E-02 0.  1.
    10030    2    1    2    0    0  0.00000000000E+00  0.00000000000E+00 -0.23642578658E+02  0.23327458701E+04  0.23326260572E+04 0.  0.
        1    1    3    3  502    0 -0.74494986840E+03 -0.71210170866E+02  0.88279991400E+03  0.11573058727E+04  0.50400001928E-02 0. -1.
       -1    1    3    3    0  502  0.74494986840E+03  0.71210170866E+02 -0.90644249265E+03  0.11754399974E+04  0.50400001928E-02 0.  1.
</event>
<event>
 5   0  0.6468758E-05  0.2304923E+04  0.7818609E-02  0.8475983E-01
        2   -1    0    0  501    0  0.00000000000E+00  0.00000000000E+00  0.17670401143E+04  0.17670401143E+04  0.25500000920E-02 0. -1.
       -2   -1    0    0    0  501  0.00000000000E+00  0.00000000000E+00 -0.75163415778E+03  0.75163415778E+03  0.25500000920E-02 0.  1.
    10030    2    1    2    0    0  0.00000000000E+00  0.00000000000E+00  0.10154059565E+04  0.25186742721E+04  0.23049231728E+04 0.  0.
        3    1    3    3  502    0  0.25337712768E+03  0.27277007609E+03 -0.68411380596E+03  0.77885505259E+03  0.10100000352E+00 0.  1.
       -3    1    3    3    0  502 -0.25337712768E+03 -0.27277007609E+03  0.16995197625E+04  0.17398192195E+04  0.10100000352E+00 0. -1.
</event>
<event>
 5   0  0.6495405E-05  0.2330492E+04  0.7818609E-02  0.8465995E-01
        2   -1    0    0  501    0  0.00000000000E+00  0.00000000000E+00  0.19971958898E+04  0.19971958898E+04  0.25500000920E-02 0. -1.
       -2   -1    0    0    0  501  0.00000000000E+00  0.00000000000E+00 -0.67985227026E+03  0.67985227027E+03  0.25500000920E-02 0.  1.
    10030    2    1    2    0    0  0.00000000000E+00  0.00000000000E+00  0.13173436196E+04  0.26770481601E+04  0.23304919308E+04 0.  0.
        5    1    3    3  502    0 -0.10180170079E+04 -0.52479522869E+03  0.90506146531E+03  0.14597695046E+04  0.46999998093E+01 0.  1.
       -5    1    3    3    0  502  0.10180170079E+04  0.52479522869E+03  0.41228215426E+03  0.12172786555E+04  0.46999998093E+01 0. -1.
</event>
<event>
 5   0  0.2962279E-05  0.2308067E+04  0.7818609E-02  0.8474747E-01
        1   -1    0    0  501    0  0.00000000000E+00  0.00000000000E+00  0.21254581011E+04  0.21254581011E+04  0.50400001928E-02 0.  1.
       -1   -1    0    0    0  501  0.00000000000E+00  0.00000000000E+00 -0.62659102998E+03  0.62659103001E+03  0.50400001928E-02 0. -1.
    10030    2    1    2    0    0  0.00000000000E+00  0.00000000000E+00  0.14988670711E+04  0.27520491311E+04  0.23080667068E+04 0.  0.
        1    1    3    3  502    0 -0.89955898231E+02 -0.95112481090E+03 -0.22441921333E+02  0.95563283190E+03  0.50400001928E-02 0. -1.
       -1    1    3    3    0  502  0.89955898231E+02  0.95112481090E+03  0.15213089924E+04  0.17964162992E+04  0.50400001928E-02 0.  1.
</event>
<event>
 5   0  0.2982385E-05  0.2300593E+04  0.7818609E-02  0.8477687E-01
       -1   -1    0    0    0  501  0.00000000000E+00  0.00000000000E+00  0.11373510451E+04  0.11373510451E+04  0.50400001928E-02 0.  1.
        1   -1    0    0  501    0  0.00000000000E+00  0.00000000000E+00 -0.11633896341E+04  0.11633896341E+04  0.50400001928E-02 0. -1.
    10030    2    1    2    0    0  0.00000000000E+00  0.00000000000E+00 -0.26038588994E+02  0.23007406792E+04  0.23005933289E+04 0.  0.
        4    1    3    3  502    0  0.31054944359E+03 -0.13370305525E+01  0.10946337225E+04  0.11378344976E+04  0.12699999809E+01 0.  1.
       -4    1    3    3    0  502 -0.31054944359E+03  0.13370305525E+01 -0.11206723115E+04  0.11629061816E+04  0.12699999809E+01 0. -1.
</event>
<event>
 5   0  0.2342500E-05  0.2176031E+04  0.7818609E-02  0.8528471E-01
       -3   -1    0    0    0  501  0.00000000000E+00  0.00000000000E+00  0.10332714375E+04  0.10332714425E+04  0.10100000352E+00 0.  1.
        3   -1    0    0  501    0  0.00000000000E+00  0.00000000000E+00 -0.11456595098E+04  0.11456595143E+04  0.10100000352E+00 0. -1.
    10030    2    1    2    0    0  0.00000000000E+00  0.00000000000E+00 -0.11238807230E+03  0.21789309567E+04  0.21760305686E+04 0.  0.
        2    1    3    3  502    0 -0.41505697628E+03  0.89007922036E+03  0.41268637663E+03  0.10652808820E+04  0.25500000920E-02 0.  1.
       -2    1    3    3    0  502  0.41505697628E+03 -0.89007922036E+03 -0.52507444893E+03  0.11136500748E+04  0.25500000920E-02 0. -1.
</event>
<event>
 5   0  0.2944089E-05  0.2364069E+04  0.7818609E-02  0.8453079E-01
        1   -1    0    0  501    0  0.00000000000E+00  0.00000000000E+00  0.23361862095E+04  0.23361862095E+04  0.50400001928E-02 0.  1.
       -1   -1    0    0    0  501  0.00000000000E+00  0.00000000000E+00 -0.59807132042E+03  0.59807132044E+03  0.50400001928E-02 0. -1.
    10030    2    1    2    0    0  0.00000000000E+00  0.00000000000E+00  0.17381148891E+04  0.29342575300E+04  0.23640693485E+04 0.  0.
        5    1    3    3  502    0 -0.72598946790E+03 -0.44919026114E+03 -0.14564897655E+03  0.86606484317E+03  0.46999998093E+01 0. -1.
       -5    1    3    3    0  502  0.72598946790E+03  0.44919026114E+03  0.18837638656E+04  0.20681926868E+04  0.46999998093E+01 0.  1.
</event>
<event>
 5   0  0.6495405E-05  0.2376310E+04  0.7818609E-02  0.8448426E-01
       -2   -1    0    0    0  501  0.00000000000E+00  0.00000000000E+00  0.51399865856E+03  0.51399865856E+03  0.25500000920E-02 0.  1.
        2   -1    0    0  501    0  0.00000000000E+00  0.00000000000E+00 -0.27465298617E+04  0.27465298617E+04  0.25500000920E-02 0. -1.
    10030    2    1    2    0    0  0.00000000000E+00  0.00000000000E+00 -0.22325312031E+04  0.32605285202E+04  0.23763103035E+04 0.  0.
        5    1    3    3  502    0  0.28933715804E+03  0.11374139031E+04 -0.13702488822E+04  0.18041702988E+04  0.46999998093E+01 0. -1.
       -5    1    3    3    0  502 -0.28933715804E+03 -0.11374139031E+04 -0.86228232090E+03  0.14563582214E+04  0.46999998093E+01 0.  1.
</event>
<event>
 5   0  0.6495405E-05  0.2345494E+04  0.7818609E-02  0.8460197E-01
        2   -1    0    0  501    0  0.00000000000E+00  0.00000000000E+00  0.14000286377E+04  0.14000286377E+04  0.25500000920E-02 0.  1.
       -2   -1    0    0    0  501  0.00000000000E+00  0.00000000000E+00 -0.98236214869E+03  0.98236214870E+03  0.25500000920E-02 0. -1.
    10030    2    1    2    0    0  0.00000000000E+00  0.00000000000E+00  0.41766648896E+03  0.23823907864E+04  0.23454936715E+04 0.  0.
        5    1    3    3  502    0  0.62599731124E+02  0.11250994274E+04  0.53882174665E+03  0.12490470017E+04  0.46999998093E+01 0. -1.
       -5    1    3    3    0  502 -0.62599731124E+02 -0.11250994274E+04 -0.12115525769E+03  0.11333437847E+04  0.46999998093E+01 0.  1.
</event>
<event>
 5   0  0.6468758E-05  0.2272642E+04  0.7818609E-02  0.8488787E-01
        2   -1    0    0  501    0  0.00000000000E+00  0.00000000000E+00  0.57082279398E+03  0.57082279398E+03  0.25500000920E-02 0. -1.
       -2   -1    0    0    0  501  0.00000000000E+00  0.00000000000E+00 -0.22620417467E+04  0.22620417467E+04  0.25500000920E-02 0.  1.
    10030    2    1    2    0    0  0.00000000000E+00  0.00000000000E+00 -0.16912189527E+04  0.28328645407E+04  0.22726416259E+04 0.  0.
        3    1    3    3  502    0 -0.37919376497E+03  0.36648322224E+03  0.40905274406E+03  0.66739944651E+03  0.10100000352E+00 0. -1.
       -3    1    3    3    0  502  0.37919376497E+03 -0.36648322224E+03 -0.21002716968E+04  0.21654650942E+04  0.10100000352E+00 0.  1.
</event>
<event>
 5   0  0.6495405E-05  0.1798561E+04  0.7818609E-02  0.8707065E-01
       -2   -1    0    0    0  501  0.00000000000E+00  0.00000000000E+00  0.29619322540E+03  0.29619322541E+03  0.25500000920E-02 0.  1.
        2   -1    0    0  501    0  0.00000000000E+00  0.00000000000E+00 -0.27303297358E+04  0.27303297358E+04  0.25500000920E-02 0. -1.
    10030    2    1    2    0    0  0.00000000000E+00  0.00000000000E+00 -0.24341365104E+04  0.30265229612E+04  0.17985607256E+04 0.  0.
        5    1    3    3  502    0 -0.16967002234E+03  0.63724153572E+03 -0.18822503859E+03  0.68579548444E+03  0.46999998093E+01 0.  1.
       -5    1    3    3    0  502  0.16967002234E+03 -0.63724153572E+03 -0.22459114718E+04  0.23407274768E+04  0.46999998093E+01 0. -1.
</event>
<event>
 5   0  0.3006265E-05  0.2270037E+04  0.7818609E-02  0.8489830E-01
        1   -1    0    0  501    0  0.00000000000E+00  0.00000000000E+00  0.59850718521E+03  0.59850718523E+03  0.50400001928E-02 0.  1.
       -1   -1    0    0    0  501  0.00000000000E+00  0.00000000000E+00 -0.21524669926E+04  0.21524669926E+04  0.50400001928E-02 0. -1.
    10030    2    1    2    0    0  0.00000000000E+00  0.00000000000E+00 -0.15539598074E+04  0.27509741779E+04  0.22700369698E+04 0.  0.
        2    1    3    3  502    0 -0.28208604203E+03 -0.24023962870E+03  0.52315180112E+03  0.64107364735E+03  0.25500000920E-02 0.  1.
       -2    1    3    3    0  502  0.28208604203E+03  0.24023962870E+03 -0.20771116085E+04  0.21099005305E+04  0.25500000920E-02 0. -1.
</event>
<event>
 5   0  0.6468758E-05  0.1959765E+04  0.7818609E-02  0.8625666E-01
       -2   -1    0    0    0  501  0.00000000000E+00  0.00000000000E+00  0.69494204996E+03  0.69494204996E+03  0.25500000920E-02 0.  1.
        2   -1    0    0  501    0  0.00000000000E+00  0.00000000000E+00 -0.13816540149E+04  0.13816540149E+04  0.25500000920E-02 0. -1.
    10030    2    1    2    0    0  0.00000000000E+00  0.00000000000E+00 -0.68671196493E+03  0.20765960649E+04  0.19597647547E+04 0.  0.
        3    1    3    3  502    0  0.38748650270E+03 -0.22721741925E+03 -0.12661315289E+04  0.13434517498E+04  0.10100000352E+00 0. -1.
       -3    1    3    3    0  502 -0.38748650270E+03  0.22721741925E+03  0.57941956397E+03  0.73314431505E+03  0.10100000352E+00 0.  1.
</event>
<event>
 5   0  0.6676612E-05  0.2345727E+04  0.7818609E-02  0.8460107E-01
       -2   -1    0    0    0  501  0.00000000000E+00  0.00000000000E+00  0.78248724811E+03  0.78248724811E+03  0.25500000920E-02 0. -1.
        2   -1    0    0  501    0  0.00000000000E+00  0.00000000000E+00 -0.17579958755E+04  0.17579958755E+04  0.25500000920E-02 0.  1.
    10030    2    1    2    0    0  0.00000000000E+00  0.00000000000E+00 -0.97550862740E+03  0.25404831236E+04  0.23457274819E+04 0.  0.
        2    1    3    3  502    0  0.26224856730E+02 -0.28026920099E+02  0.78180686366E+03  0.78274850586E+03  0.25500000920E-02 0. -1.
       -2    1    3    3    0  502 -0.26224856730E+02  0.28026920099E+02 -0.17573154911E+04  0.17577346178E+04  0.25500000920E-02 0.  1.
</event>
<event>
 5   0  0.6468758E-05  0.2326738E+04  0.7818609E-02  0.8467453E-01
        2   -1    0    0  501    0  0.00000000000E+00  0.00000000000E+00  0.75868150366E+03  0.75868150366E+03  0.25500000920E-02 0. -1.
       -2   -1    0    0    0  501  0.00000000000E+00  0.00000000000E+00 -0.17839197804E+04  0.17839197804E+04  0.25500000920E-02 0.  1.
    10030    2    1    2    0    0  0.00000000000E+00  0.00000000000E+00 -0.10252382768E+04  0.25426012841E+04  0.23267375799E+04 0.  0.
        3    1    3    3  502    0 -0.31124110928E+03 -0.17431885303E+03  0.69743832731E+03  0.78337623223E+03  0.10100000352E+00 0. -1.
       -3    1    3    3    0  502  0.31124110928E+03  0.17431885303E+03 -0.17226766041E+04  0.17592250519E+04  0.10100000352E+00 0.  1.
</event>
<event>
 5   0  0.3006265E-05  0.2307919E+04  0.7818609E-02  0.8474805E-01
       -1   -1    0    0    0  501  0.00000000000E+00  0.00000000000E+00  0.15767456987E+04  0.15767456987E+04  0.50400001928E-02 0.  1.
        1   -1    0    0  501    0  0.00000000000E+00  0.00000000000E+00 -0.84453829959E+03  0.84453829960E+03  0.50400001928E-02 0. -1.
    10030    2    1    2    0    0  0.00000000000E+00  0.00000000000E+00  0.73220739912E+03  0.24212839983E+04  0.23079186565E+04 0.  0.
        2    1    3    3  502    0  0.26724750626E+03 -0.92958044193E+03 -0.29415980960E+03  0.10109752822E+04  0.25500000920E-02 0. -1.
       -2    1    3    3    0  502 -0.26724750626E+03  0.92958044193E+03  0.10263672087E+04  0.14103087161E+04  0.25500000920E-02 0.  1.
</event>
<event>
 5   0  0.6676612E-05  0.2293505E+04  0.7818609E-02  0.8480486E-01
       -2   -1    0    0    0  501  0.00000000000E+00  0.00000000000E+00  0.13254500216E+04  0.13254500216E+04  0.25500000920E-02 0. -1.
        2   -1    0    0  501    0  0.00000000000E+00  0.00000000000E+00 -0.99214685432E+03  0.99214685432E+03  0.25500000920E-02 0.  1.
    10030    2    1    2    0    0  0.00000000000E+00  0.00000000000E+00  0.33330316725E+03  0.23175968759E+04  0.22935048022E+04 0.  0.
        2    1    3    3  502    0 -0.37699266215E+03  0.88391024587E+03 -0.46571779150E+03  0.10678547895E+04  0.25500000920E-02 0.  1.
       -2    1    3    3    0  502  0.37699266215E+03 -0.88391024587E+03  0.79902095875E+03  0.12497420864E+04  0.25500000920E-02 0. -1.
</event>
<event>
 5   0  0.2982385E-05  0.2277059E+04  0.7818609E-02  0.8487022E-01
       -1   -1    0    0    0  501  0.00000000000E+00  0.00000000000E+00  0.11244691363E+04  0.11244691363E+04  0.50400001928E-02 0.  1.
        1   -1    0    0  501    0  0.00000000000E+00  0.00000000000E+00 -0.11527654720E+04  0.11527654720E+04  0.50400001928E-02 0. -1.
    10030    2    1    2    0    0  0.00000000000E+00  0.00000000000E+00 -0.28296335634E+02  0.22772346083E+04  0.22770588000E+04 0.  0.
        4    1    3    3  502    0 -0.45505749438E+03 -0.49839295983E+03 -0.93115664711E+03  0.11500118173E+04  0.12699999809E+01 0. -1.
       -4    1    3    3    0  502  0.45505749438E+03  0.49839295983E+03  0.90286031147E+03  0.11272227910E+04  0.12699999809E+01 0.  1.
</event>
<event>
 5   0  0.2982385E-05  0.2325685E+04  0.7818609E-02  0.8467862E-01
        1   -1    0    0  501    0  0.00000000000E+00  0.00000000000E+00  0.13942732583E+04  0.13942732583E+04  0.50400001928E-02 0. -1.
       -1   -1    0    0    0  501  0.00000000000E+00  0.00000000000E+00 -0.96982576571E+03  0.96982576572E+03  0.50400001928E-02 0.  1.
    10030    2    1    2    0    0  0.00000000000E+00  0.00000000000E+00  0.42444749262E+03  0.23640990241E+04  0.23256845275E+04 0.  0.
        4    1    3    3  502    0 -0.75940957538E+03  0.25582683006E+03  0.10687869256E+04  0.13358358340E+04  0.12699999809E+01 0. -1.
       -4    1    3    3    0  502  0.75940957538E+03 -0.25582683006E+03 -0.64433943301E+03  0.10282631900E+04  0.12699999809E+01 0.  1.
</event>
<event>
 5   0  0.6702421E-05  0.2258435E+04  0.7818609E-02  0.8494492E-01
        2   -1    0    0  501    0  0.00000000000E+00  0.00000000000E+00  0.16624529489E+04  0.16624529489E+04  0.25500000920E-02 0.  1.
       -2   -1    0    0    0  501  0.00000000000E+00  0.00000000000E+00 -0.76701832447E+03  0.76701832448E+03  0.25500000920E-02 0. -1.
    10030    2    1    2    0    0  0.00000000000E+00  0.00000000000E+00  0.89543462444E+03  0.24294712734E+04  0.22584347459E+04 0.  0.
        4    1    3    3  502    0  0.16743294838E+03 -0.68999489011E+03  0.13922835155E+04  0.15628761118E+04  0.12699999809E+01 0.  1.
       -4    1    3    3    0  502 -0.16743294838E+03  0.68999489011E+03 -0.49684889105E+03  0.86659516155E+03  0.12699999809E+01 0. -1.
</event>
<event>
 5   0  0.3118614E-05  0.1729717E+04  0.7818609E-02  0.8744595E-01
        1   -1    0    0  501    0  0.00000000000E+00  0.00000000000E+00  0.81708343023E+03  0.81708343024E+03  0.50400001928E-02 0. -1.
       -1   -1    0    0    0  501  0.00000000000E+00  0.00000000000E+00 -0.91542650862E+03  0.91542650864E+03  0.50400001928E-02 0.  1.
    10030    2    1    2    0    0  0.00000000000E+00  0.00000000000E+00 -0.98343078399E+02  0.17325099389E+04  0.17297165453E+04 0.  0.
        3    1    3    3  502    0  0.13515718906E+03 -0.24551777377E+03  0.77033887437E+03  0.81973680811E+03  0.10100000352E+00 0. -1.
       -3    1    3    3    0  502 -0.13515718906E+03  0.24551777377E+03 -0.86868195277E+03  0.91277313077E+03  0.10100000352E+00 0.  1.
</event>
<event>
 5   0  0.2342500E-05  0.2306320E+04  0.7818609E-02  0.8475434E-01
       -4   -1    0    0    0  501  0.00000000000E+00  0.00000000000E+00  0.91032840754E+03  0.91032929343E+03  0.12699999809E+01 0.  1.
        4   -1    0    0  501    0  0.00000000000E+00  0.00000000000E+00 -0.14607648705E+04  0.14607654225E+04  0.12699999809E+01 0. -1.
    10030    2    1    2    0    0  0.00000000000E+00  0.00000000000E+00 -0.55043646293E+03  0.23710947160E+04  0.23063195469E+04 0.  0.
        5    1    3    3  502    0  0.19468016088E+03  0.10426150580E+04 -0.74048687133E+03  0.12935568874E+04  0.46999998093E+01 0. -1.
       -5    1    3    3    0  502 -0.19468016088E+03 -0.10426150580E+04  0.19005040840E+03  0.10775378286E+04  0.46999998093E+01 0.  1.
</event>
<event>
 5   0  0.6814789E-05  0.1877439E+04  0.7818609E-02  0.8666169E-01
       -2   -1    0    0    0  501  0.00000000000E+00  0.00000000000E+00  0.94535615608E+03  0.94535615608E+03  0.25500000920E-02 0.  1.
        2   -1    0    0  501    0  0.00000000000E+00  0.00000000000E+00 -0.93212900239E+03  0.93212900239E+03  0.25500000920E-02 0. -1.
    10030    2    1    2    0    0  0.00000000000E+00  0.00000000000E+00  0.13227153689E+02  0.18774851585E+04  0.18774385643E+04 0.  0.
        1    1    3    3  502    0  0.54076499913E+03  0.27289356728E+03  0.72377585637E+03  0.94379509092E+03  0.50400001928E-02 0.  1.
       -1    1    3    3    0  502 -0.54076499913E+03 -0.27289356728E+03 -0.71054870268E+03  0.93369006756E+03  0.50400001928E-02 0. -1.
</event>
<event>
 5   0  0.6468758E-05  0.2354489E+04  0.7818609E-02  0.8456741E-01
        2   -1    0    0  501    0  0.00000000000E+00  0.00000000000E+00  0.20338286066E+04  0.20338286066E+04  0.25500000920E-02 0.  1.
       -2   -1    0    0    0  501  0.00000000000E+00  0.00000000000E+00 -0.68142639832E+03  0.68142639833E+03  0.25500000920E-02 0. -1.
    10030    2    1    2    0    0  0.00000000000E+00  0.00000000000E+00  0.13524022083E+04  0.27152550049E+04  0.23544889061E+04 0.  0.
        3    1    3    3  502    0 -0.10680898473E+04 -0.24673878355E+03  0.11711596852E+04  0.16041542842E+04  0.10100000352E+00 0.  1.
       -3    1    3    3    0  502  0.10680898473E+04  0.24673878355E+03  0.18124252311E+03  0.11111007207E+04  0.10100000352E+00 0. -1.
</event>
<event>
 5   0  0.6676612E-05  0.2397135E+04  0.7818609E-02  0.8440577E-01
       -2   -1    0    0    0  501  0.00000000000E+00  0.00000000000E+00  0.80459540341E+03  0.80459540342E+03  0.25500000920E-02 0. -1.
        2   -1    0    0  501    0  0.00000000000E+00  0.00000000000E+00 -0.17854488300E+04  0.17854488300E+04  0.25500000920E-02 0.  1.
    10030    2    1    2    0    0  0.00000000000E+00  0.00000000000E+00 -0.98085342657E+03  0.25900442334E+04  0.23971348912E+04 0.  0.
        2    1    3    3  502    0 -0.39636917180E+03 -0.70659398259E+03 -0.14447866734E+04  0.16564395879E+04  0.25500000920E-02 0.  1.
       -2    1    3    3    0  502  0.39636917180E+03  0.70659398259E+03  0.46393324686E+03  0.93360464552E+03  0.25500000920E-02 0. -1.
</event>
<event>
 5   0  0.2962279E-05  0.1699757E+04  0.7818609E-02  0.8761503E-01
        1   -1    0    0  501    0  0.00000000000E+00  0.00000000000E+00  0.12869819133E+04  0.12869819133E+04  0.50400001928E-02 0.  1.
       -1   -1    0    0    0  501  0.00000000000E+00  0.00000000000E+00 -0.56123056549E+03  0.56123056551E+03  0.50400001928E-02 0. -1.
    10030    2    1    2    0    0  0.00000000000E+00  0.00000000000E+00  0.72575134779E+03  0.18482124788E+04  0.16997571438E+04 0.  0.
        1    1    3    3  502    0 -0.47928660358E+03 -0.52773493667E+03  0.86596691593E+03  0.11216588212E+04  0.50400001928E-02 0.  1.
       -1    1    3    3    0  502  0.47928660358E+03  0.52773493667E+03 -0.14021556814E+03  0.72655365757E+03  0.50400001928E-02 0. -1.
</event>
<event>
 5   0  0.6702421E-05  0.2280579E+04  0.7818609E-02  0.8485618E-01
       -2   -1    0    0    0  501  0.00000000000E+00  0.00000000000E+00  0.95905837661E+03  0.95905837661E+03  0.25500000920E-02 0.  1.
        2   -1    0    0  501    0  0.00000000000E+00  0.00000000000E+00 -0.13557669995E+04  0.13557669995E+04  0.25500000920E-02 0. -1.
    10030    2    1    2    0    0  0.00000000000E+00  0.00000000000E+00 -0.39670862291E+03  0.23148253761E+04  0.22805786087E+04 0.  0.
        4    1    3    3  502    0 -0.83968356376E+02 -0.51581516501E+03 -0.12270536405E+04  0.13337084460E+04  0.12699999809E+01 0. -1.
       -4    1    3    3    0  502  0.83968356376E+02  0.51581516501E+03  0.83034501764E+03  0.98111693011E+03  0.12699999809E+01 0.  1.
</event>
<event>
 5   0  0.3118614E-05  0.2318065E+04  0.7818609E-02  0.8470832E-01
        1   -1    0    0  501    0  0.00000000000E+00  0.00000000000E+00  0.17440403601E+04  0.17440403601E+04  0.50400001928E-02 0.  1.
       -1   -1    0    0    0  501  0.00000000000E+00  0.00000000000E+00 -0.77025512552E+03  0.77025512553E+03  0.50400001928E-02 0. -1.
    10030    2    1    2    0    0  0.00000000000E+00  0.00000000000E+00  0.97378523460E+03  0.25142954857E+04  0.23180647329E+04 0.  0.
        3    1    3    3  502    0  0.73104616676E+03 -0.82011464730E+03  0.88739174861E+03  0.14122608323E+04  0.10100000352E+00 0.  1.
       -3    1    3    3    0  502 -0.73104616676E+03  0.82011464730E+03  0.86393485993E+02  0.11020346534E+04  0.10100000352E+00 0. -1.
</event>
<event>
 5   0  0.6468758E-05  0.2290924E+04  0.7818609E-02  0.8481508E-01
        2   -1    0    0  501    0  0.00000000000E+00  0.00000000000E+00  0.12031864459E+04  0.12031864459E+04  0.25500000920E-02 0. -1.
       -2   -1    0    0    0  501  0.00000000000E+00  0.00000000000E+00 -0.10905073802E+04  0.10905073802E+04  0.25500000920E-02 0.  1.
    10030    2    1    2    0    0  0.00000000000E+00  0.00000000000E+00  0.11267906567E+03  0.22936938262E+04  0.22909244414E+04 0.  0.
        3    1    3    3  502    0  0.39057772374E+03 -0.98692515627E+03 -0.37489155232E+03  0.11256624310E+04  0.10100000352E+00 0.  1.
       -3    1    3    3    0  502 -0.39057772374E+03  0.98692515627E+03  0.48757061799E+03  0.11680313952E+04  0.10100000352E+00 0. -1.
</event>
<event>
 5   0  0.6468758E-05  0.2297972E+04  0.7818609E-02  0.8478721E-01
        2   -1    0    0  501    0  0.00000000000E+00  0.00000000000E+00  0.18696709169E+04  0.18696709169E+04  0.25500000920E-02 0. -1.
       -2   -1    0    0    0  501  0.00000000000E+00  0.00000000000E+00 -0.70609700288E+03  0.70609700289E+03  0.25500000920E-02 0.  1.
    10030    2    1    2    0    0  0.00000000000E+00  0.00000000000E+00  0.11635739140E+04  0.25757679198E+04  0.22979721763E+04 0.  0.
        3    1    3    3  502    0  0.67418113308E+03 -0.65679837087E+03  0.13204378689E+04  0.16215611231E+04  0.10100000352E+00 0. -1.
       -3    1    3    3    0  502 -0.67418113308E+03  0.65679837087E+03 -0.15686395493E+03  0.95420679663E+03  0.10100000352E+00 0.  1.
</event>
<event>
 5   0  0.2982385E-05  0.1879225E+04  0.7818609E-02  0.8665267E-01
        1   -1    0    0  501    0  0.00000000000E+00  0.00000000000E+00  0.14680574051E+04  0.14680574051E+04  0.50400001928E-02 0. -1.
       -1   -1    0    0    0  501  0.00000000000E+00  0.00000000000E+00 -0.60138768709E+03  0.60138768711E+03  0.50400001928E-02 0.  1.
    10030    2    1    2    0    0  0.00000000000E+00  0.00000000000E+00  0.86666971805E+03  0.20694450923E+04  0.18792249971E+04 0.  0.
        4    1    3    3  502    0 -0.57635898502E+01 -0.57509380477E+03  0.12515839792E+04  0.13773997870E+04  0.12699999809E+01 0. -1.
       -4    1    3    3    0  502  0.57635898502E+01  0.57509380477E+03 -0.38491426115E+03  0.69204530530E+03  0.12699999809E+01 0.  1.
</event>
<event>
 5   0  0.2962279E-05  0.2311997E+04  0.7818609E-02  0.8473206E-01
       -1   -1    0    0    0  501  0.00000000000E+00  0.00000000000E+00  0.14172617832E+04  0.14172617832E+04  0.50400001928E-02 0.  1.
        1   -1    0    0  501    0  0.00000000000E+00  0.00000000000E+00 -0.94289741409E+03  0.94289741410E+03  0.50400001928E-02 0. -1.
    10030    2    1    2    0    0  0.00000000000E+00  0.00000000000E+00  0.47436436911E+03  0.23601591973E+04  0.23119969468E+04 0.  0.
        1    1    3    3  502    0 -0.16167900321E+03  0.10226862848E+04 -0.28763354218E+03  0.10745977814E+04  0.50400001928E-02 0. -1.
       -1    1    3    3    0  502  0.16167900321E+03 -0.10226862848E+04  0.76199791129E+03  0.12855614159E+04  0.50400001928E-02 0.  1.
</event>
<event>
 5   0  0.6814789E-05  0.2327824E+04  0.7818609E-02  0.8467030E-01
       -2   -1    0    0    0  501  0.00000000000E+00  0.00000000000E+00  0.64824810269E+03  0.64824810269E+03  0.25500000920E-02 0. -1.
        2   -1    0    0  501    0  0.00000000000E+00  0.00000000000E+00 -0.20897734032E+04  0.20897734032E+04  0.25500000920E-02 0.  1.
    10030    2    1    2    0    0  0.00000000000E+00  0.00000000000E+00 -0.14415253005E+04  0.27380215059E+04  0.23278244295E+04 0.  0.
        1    1    3    3  502    0  0.91698257517E+03 -0.31621491297E+03 -0.14774287867E+04  0.17673835844E+04  0.50400001928E-02 0.  1.
       -1    1    3    3    0  502 -0.91698257517E+03  0.31621491297E+03  0.35903486244E+02  0.97063792152E+03  0.50400001928E-02 0. -1.
</event>
<event>
 5   0  0.2982385E-05  0.2319494E+04  0.7818609E-02  0.8470274E-01
       -1   -1    0    0    0  501  0.00000000000E+00  0.00000000000E+00  0.10975624035E+04  0.10975624035E+04  0.50400001928E-02 0.  1.
        1   -1    0    0  501    0  0.00000000000E+00  0.00000000000E+00 -0.12254551823E+04  0.12254551824E+04  0.50400001928E-02 0. -1.
    10030    2    1    2    0    0  0.00000000000E+00  0.00000000000E+00 -0.12789277881E+03  0.23230175859E+04  0.23194943720E+04 0.  0.
        4    1    3    3  502    0  0.45748061348E+03 -0.54895193403E+03 -0.97877526482E+03  0.12118743208E+04  0.12699999809E+01 0. -1.
       -4    1    3    3    0  502 -0.45748061348E+03  0.54895193403E+03  0.85088248601E+03  0.11111432651E+04  0.12699999809E+01 0.  1.
</event>
<event>
 5   0  0.6495405E-05  0.2349503E+04  0.7818609E-02  0.8458655E-01
        2   -1    0    0  501    0  0.00000000000E+00  0.00000000000E+00  0.25123115557E+04  0.25123115557E+04  0.25500000920E-02 0.  1.
       -2   -1    0    0    0  501  0.00000000000E+00  0.00000000000E+00 -0.54931124857E+03  0.54931124858E+03  0.25500000920E-02 0. -1.
    10030    2    1    2    0    0  0.00000000000E+00  0.00000000000E+00  0.19630003071E+04  0.30616228043E+04  0.23495029240E+04 0.  0.
        5    1    3    3  502    0  0.55818744250E+03 -0.75034706397E+03  0.55088432361E+02  0.93683016751E+03  0.46999998093E+01 0. -1.
       -5    1    3    3    0  502 -0.55818744250E+03  0.75034706397E+03  0.19079118748E+04  0.21247926368E+04  0.46999998093E+01 0.  1.
</event>
<event>
 5   0  0.3006265E-05  0.2288788E+04  0.7818609E-02  0.8482355E-01
        1   -1    0    0  501    0  0.00000000000E+00  0.00000000000E+00  0.13820922878E+04  0.13820922878E+04  0.50400001928E-02 0. -1.
       -1   -1    0    0    0  501  0.00000000000E+00  0.00000000000E+00 -0.94757577148E+03  0.94757577149E+03  0.50400001928E-02 0.  1.
    10030    2    1    2    0    0  0.00000000000E+00  0.00000000000E+00  0.43451651630E+03  0.23296680593E+04  0.22887875969E+04 0.  0.
        2    1    3    3  502    0 -0.29584062074E+03  0.13079280349E+03 -0.90007738152E+03  0.95643490267E+03  0.25500000920E-02 0.  1.
       -2    1    3    3    0  502  0.29584062074E+03 -0.13079280349E+03  0.13345938978E+04  0.13732331566E+04  0.25500000920E-02 0. -1.
</event>
<event>
 5   0  0.2944089E-05  0.2292628E+04  0.7818609E-02  0.8480833E-01
        1   -1    0    0  501    0  0.00000000000E+00  0.00000000000E+00  0.10813344165E+04  0.10813344165E+04  0.50400001928E-02 0.  1.
       -1   -1    0    0    0  501  0.00000000000E+00  0.00000000000E+00 -0.12151983261E+04  0.12151983261E+04  0.50400001928E-02 0. -1.
    10030    2    1    2    0    0  0.00000000000E+00  0.00000000000E+00 -0.13386390958E+03  0.22965327426E+04  0.22926279881E+04 0.  0.
        5    1    3    3  502    0  0.51572870476E+03 -0.81864540721E+02 -0.10891285920E+04  0.12078497753E+04  0.46999998093E+01 0. -1.
       -5    1    3    3    0  502 -0.51572870476E+03  0.81864540721E+02  0.95526468237E+03  0.10886829673E+04  0.46999998093E+01 0.  1.
</event>
<event>
 5   0  0.2962279E-05  0.2336719E+04  0.7818609E-02  0.8463582E-01
        1   -1    0    0  501    0  0.00000000000E+00  0.00000000000E+00  0.13764673084E+04  0.13764673084E+04  0.50400001928E-02 0.  1.
       -1   -1    0    0    0  501  0.00000000000E+00  0.00000000000E+00 -0.99171567276E+03  0.99171567278E+03  0.50400001928E-02 0. -1.
    10030    2    1    2    0    0  0.00000000000E+00  0.00000000000E+00  0.38475163559E+03  0.23681829811E+04  0.23367192410E+04 0.  0.
        1    1    3    3  502    0 -0.59159261922E+03 -0.93207767648E+03  0.58003586153E+03  0.12470734633E+04  0.50400001928E-02 0.  1.
       -1    1    3    3    0  502  0.59159261922E+03  0.93207767648E+03 -0.19528422595E+03  0.11211095179E+04  0.50400001928E-02 0. -1.
</event>
<event>
 5   0  0.6495405E-05  0.2330040E+04  0.7818609E-02  0.8466170E-01
        2   -1    0    0  501    0  0.00000000000E+00  0.00000000000E+00  0.13243781800E+04  0.13243781800E+04  0.25500000920E-02 0.  1.
       -2   -1    0    0    0  501  0.00000000000E+00  0.00000000000E+00 -0.10248367042E+04  0.10248367042E+04  0.25500000920E-02 0. -1.
    10030    2    1    2    0    0  0.00000000000E+00  0.00000000000E+00  0.29954147583E+03  0.23492148842E+04  0.23300398014E+04 0.  0.
        5    1    3    3  502    0 -0.22970122124E+03 -0.19942086775E+03 -0.98408093356E+03  0.10300333525E+04  0.46999998093E+01 0. -1.
       -5    1    3    3    0  502  0.22970122124E+03  0.19942086775E+03  0.12836224094E+04  0.13191815316E+04  0.46999998093E+01 0.  1.
</event>
<event>
 5   0  0.3006265E-05  0.2283518E+04  0.7818609E-02  0.8484448E-01
       -1   -1    0    0    0  501  0.00000000000E+00  0.00000000000E+00  0.64292912699E+03  0.64292912701E+03  0.50400001928E-02 0. -1.
        1   -1    0    0  501    0  0.00000000000E+00  0.00000000000E+00 -0.20276162791E+04  0.20276162791E+04  0.50400001928E-02 0.  1.
    10030    2    1    2    0    0  0.00000000000E+00  0.00000000000E+00 -0.13846871521E+04  0.26705454061E+04  0.22835179563E+04 0.  0.
        2    1    3    3  502    0  0.93399152954E+02 -0.52214113095E+03  0.49008785303E+03  0.72217786320E+03  0.25500000920E-02 0. -1.
       -2    1    3    3    0  502 -0.93399152954E+02  0.52214113095E+03 -0.18747750051E+04  0.19483675429E+04  0.25500000920E-02 0.  1.
</event>
<event>
 5   0  0.3118614E-05  0.2332606E+04  0.7818609E-02  0.8465175E-01
        1   -1    0    0  501    0  0.00000000000E+00  0.00000000000E+00  0.18060252213E+04  0.18060252213E+04  0.50400001928E-02 0.  1.
       -1   -1    0    0    0  501  0.00000000000E+00  0.00000000000E+00 -0.75318023259E+03  0.75318023261E+03  0.50400001928E-02 0. -1.
    10030    2    1    2    0    0  0.00000000000E+00  0.00000000000E+00  0.10528449887E+04  0.25592054539E+04  0.23326058358E+04 0.  0.
        3    1    3    3  502    0  0.10051675588E+04 -0.57752507096E+03  0.66677748702E+03  0.13373441054E+04  0.10100000352E+00 0.  1.
       -3    1    3    3    0  502 -0.10051675588E+04  0.57752507096E+03  0.38606750169E+03  0.12218613485E+04  0.10100000352E+00 0. -1.
</event>
<event>
 5   0  0.6468758E-05  0.2276193E+04  0.7818609E-02  0.8487367E-01
        2   -1    0    0  501    0  0.00000000000E+00  0.00000000000E+00  0.68250973323E+03  0.68250973324E+03  0.25500000920E-02 0. -1.
       -2   -1    0    0    0  501  0.00000000000E+00  0.00000000000E+00 -0.18977950597E+04  0.18977950597E+04  0.25500000920E-02 0.  1.
    10030    2    1    2    0    0  0.00000000000E+00  0.00000000000E+00 -0.12152853265E+04  0.25803047930E+04  0.22761929619E+04 0.  0.
        3    1    3    3  502    0 -0.21245900459E+03  0.11008924391E+04 -0.82908952099E+03  0.13944505854E+04  0.10100000352E+00 0.  1.
       -3    1    3    3    0  502  0.21245900459E+03 -0.11008924391E+04 -0.38619580549E+03  0.11858542075E+04  0.10100000352E+00 0. -1.
</event>
<event>
 5   0  0.6495405E-05  0.2268604E+04  0.7818609E-02  0.8490404E-01
        2   -1    0    0  501    0  0.00000000000E+00  0.00000000000E+00  0.12534690891E+04  0.12534690891E+04  0.25500000920E-02 0.  1.
       -2   -1    0    0    0  501  0.00000000000E+00  0.00000000000E+00 -0.10264640020E+04  0.10264640020E+04  0.25500000920E-02 0. -1.
    10030    2    1    2    0    0  0.00000000000E+00  0.00000000000E+00  0.22700508711E+03  0.22799330911E+04  0.22686038857E+04 0.  0.
        5    1    3    3  502    0  0.76516507673E+03 -0.30372390709E+03  0.89771533422E+03  0.12180479127E+04  0.46999998093E+01 0.  1.
       -5    1    3    3    0  502 -0.76516507673E+03  0.30372390709E+03 -0.67071024711E+03  0.10618851783E+04  0.46999998093E+01 0. -1.
</event>
<event>
 5   0  0.6814789E-05  0.2293744E+04  0.7818609E-02  0.8480392E-01
       -2   -1    0    0    0  501  0.00000000000E+00  0.00000000000E+00  0.12586405473E+04  0.12586405473E+04  0.25500000920E-02 0.  1.
        2   -1    0    0  501    0  0.00000000000E+00  0.00000000000E+00 -0.10450289387E+04  0.10450289387E+04  0.25500000920E-02 0. -1.
    10030    2    1    2    0    0  0.00000000000E+00  0.00000000000E+00  0.21361160866E+03  0.23036694860E+04  0.22937443583E+04 0.  0.
        1    1    3    3  502    0 -0.97482521116E+03 -0.13337183458E+03  0.69862937014E+03  0.12067125737E+04  0.50400001928E-02 0.  1.
       -1    1    3    3    0  502  0.97482521116E+03  0.13337183458E+03 -0.48501776148E+03  0.10969569123E+04  0.50400001928E-02 0. -1.
</event>
<event>
 5   0  0.2982385E-05  0.2315612E+04  0.7818609E-02  0.8471791E-01
        1   -1    0    0  501    0  0.00000000000E+00  0.00000000000E+00  0.18279619460E+04  0.18279619460E+04  0.50400001928E-02 0. -1.
       -1   -1    0    0    0  501  0.00000000000E+00  0.00000000000E+00 -0.73333834203E+03  0.73333834205E+03  0.50400001928E-02 0.  1.
    10030    2    1    2    0    0  0.00000000000E+00  0.00000000000E+00  0.10946236039E+04  0.25613002880E+04  0.23156118697E+04 0.  0.
        4    1    3    3  502    0  0.55745998667E+03  0.92748622476E+03  0.91898178855E+02  0.10860198995E+04  0.12699999809E+01 0. -1.
       -4    1    3    3    0  502 -0.55745998667E+03 -0.92748622476E+03  0.10027254251E+04  0.14752803886E+04  0.12699999809E+01 0.  1.
</event>
<event>
 5   0  0.2944089E-05  0.2302549E+04  0.7818609E-02  0.8476917E-01
        1   -1    0    0  501    0  0.00000000000E+00  0.00000000000E+00  0.23453277683E+04  0.23453277683E+04  0.50400001928E-02 0. -1.
       -1   -1    0    0    0  501  0.00000000000E+00  0.00000000000E+00 -0.56513757514E+03  0.56513757517E+03  0.50400001928E-02 0.  1.
    10030    2    1    2    0    0  0.00000000000E+00  0.00000000000E+00  0.17801901931E+04  0.29104653435E+04  0.23025488902E+04 0.  0.
        5    1    3    3  502    0 -0.74444038894E+03  0.17994920621E+03 -0.19640070181E+03  0.79067599886E+03  0.46999998093E+01 0.  1.
       -5    1    3    3    0  502  0.74444038894E+03 -0.17994920621E+03  0.19765908949E+04  0.21197893446E+04  0.46999998093E+01 0. -1.
</event>
<event>
 5   0  0.2962279E-05  0.2329001E+04  0.7818609E-02  0.8466573E-01
        1   -1    0    0  501    0  0.00000000000E+00  0.00000000000E+00  0.12841165225E+04  0.12841165226E+04  0.50400001928E-02 0. -1.
       -1   -1    0    0    0  501  0.00000000000E+00  0.00000000000E+00 -0.10560270189E+04  0.10560270189E+04  0.50400001928E-02 0.  1.
    10030    2    1    2    0    0  0.00000000000E+00  0.00000000000E+00  0.22808950363E+03  0.23401435415E+04  0.23290012823E+04 0.  0.
        1    1    3    3  502    0  0.56373657474E+03  0.10187316078E+04  0.13532931516E+03  0.11721463381E+04  0.50400001928E-02 0. -1.
       -1    1    3    3    0  502 -0.56373657474E+03 -0.10187316078E+04  0.92760188465E+02  0.11679972033E+04  0.50400001928E-02 0.  1.
</event>
<event>
 5   0  0.6676612E-05  0.2291683E+04  0.7818609E-02  0.8481207E-01
        2   -1    0    0  501    0  0.00000000000E+00  0.00000000000E+00  0.17639900316E+04  0.17639900316E+04  0.25500000920E-02 0. -1.
       -2   -1    0    0    0  501  0.00000000000E+00  0.00000000000E+00 -0.74430874296E+03  0.74430874296E+03  0.25500000920E-02 0.  1.
    10030    2    1    2    0    0  0.00000000000E+00  0.00000000000E+00  0.10196812886E+04  0.25082987746E+04  0.22916834014E+04 0.  0.
        2    1    3    3  502    0 -0.58402495117E+03  0.80205303856E+03 -0.11755938866E+03  0.99909680718E+03  0.25500000920E-02 0.  1.
       -2    1    3    3    0  502  0.58402495117E+03 -0.80205303856E+03  0.11372406773E+04  0.15092019674E+04  0.25500000920E-02 0. -1.
</event>
<event>
 5   0  0.2962279E-05  0.2298437E+04  0.7818609E-02  0.8478538E-01
        1   -1    0    0  501    0  0.00000000000E+00  0.00000000000E+00  0.16652611622E+04  0.16652611622E+04  0.50400001928E-02 0.  1.
       -1   -1    0    0    0  501  0.00000000000E+00  0.00000000000E+00 -0.79309071551E+03  0.79309071552E+03  0.50400001928E-02 0. -1.
    10030    2    1    2    0    0  0.00000000000E+00  0.00000000000E+00  0.87217044673E+03  0.24583518778E+04  0.22984370052E+04 0.  0.
        1    1    3    3  502    0 -0.58832689450E+03  0.93163291389E+03  0.86815605184E+02  0.11052625798E+04  0.50400001928E-02 0.  1.
       -1    1    3    3    0  502  0.58832689450E+03 -0.93163291389E+03  0.78535484154E+03  0.13530892979E+04  0.50400001928E-02 0. -1.
</event>
<event>
 5   0  0.2342500E-05  0.2289011E+04  0.7818609E-02  0.8482267E-01
       -4   -1    0    0    0  501  0.00000000000E+00  0.00000000000E+00  0.67257927930E+03  0.67258047834E+03  0.12699999809E+01 0. -1.
        4   -1    0    0  501    0  0.00000000000E+00  0.00000000000E+00 -0.19475624997E+04  0.19475629138E+04  0.12699999809E+01 0.  1.
    10030    2    1    2    0    0  0.00000000000E+00  0.00000000000E+00 -0.12749832204E+04  0.26201433921E+04  0.22890105249E+04 0.  0.
        4    1    3    3  502    0 -0.47246437835E+03  0.10370724773E+04 -0.75835388493E+03  0.13688842682E+04  0.12699999809E+01 0.  1.
       -4    1    3    3    0  502  0.47246437835E+03 -0.10370724773E+04 -0.51662933546E+03  0.12512591239E+04  0.12699999809E+01 0. -1.
</event>
<event>
 5   0  0.2982385E-05  0.2304573E+04  0.7818609E-02  0.8476120E-01
       -1   -1    0    0    0  501  0.00000000000E+00  0.00000000000E+00  0.80642671115E+03  0.80642671117E+03  0.50400001928E-02 0. -1.
        1   -1    0    0  501    0  0.00000000000E+00  0.00000000000E+00 -0.16464781662E+04  0.16464781662E+04  0.50400001928E-02 0.  1.
    10030    2    1    2    0    0  0.00000000000E+00  0.00000000000E+00 -0.84005145500E+03  0.24529048773E+04  0.23045728216E+04 0.  0.
        4    1    3    3  502    0 -0.82161397967E+03  0.75921803358E+03 -0.71403080614E+03  0.13271409718E+04  0.12699999809E+01 0. -1.
       -4    1    3    3    0  502  0.82161397967E+03 -0.75921803358E+03 -0.12602064886E+03  0.11257639055E+04  0.12699999809E+01 0.  1.
</event>
<event>
 5   0  0.6814789E-05  0.2254239E+04  0.7818609E-02  0.8496186E-01
        2   -1    0    0  501    0  0.00000000000E+00  0.00000000000E+00  0.12572609589E+04  0.12572609589E+04  0.25500000920E-02 0. -1.
       -2   -1    0    0    0  501  0.00000000000E+00  0.00000000000E+00 -0.10104490866E+04  0.10104490866E+04  0.25500000920E-02 0.  1.
    10030    2    1    2    0    0  0.00000000000E+00  0.00000000000E+00  0.24681187224E+03  0.22677100455E+04  0.22542388405E+04 0.  0.
        1    1    3    3  502    0 -0.11413366667E+03 -0.44359734349E+03  0.11594112720E+04  0.12466112444E+04  0.50400001928E-02 0. -1.
       -1    1    3    3    0  502  0.11413366667E+03  0.44359734349E+03 -0.91259939979E+03  0.10210988011E+04  0.50400001928E-02 0.  1.
</event>
<event>
 5   0  0.6468758E-05  0.2287428E+04  0.7818609E-02  0.8482895E-01
       -2   -1    0    0    0  501  0.00000000000E+00  0.00000000000E+00  0.15840446044E+04  0.15840446044E+04  0.25500000920E-02 0. -1.
        2   -1    0    0  501    0  0.00000000000E+00  0.00000000000E+00 -0.82578579371E+03  0.82578579372E+03  0.25500000920E-02 0.  1.
    10030    2    1    2    0    0  0.00000000000E+00  0.00000000000E+00  0.75825881069E+03  0.24098303981E+04  0.22874278401E+04 0.  0.
        3    1    3    3  502    0  0.19821136093E+03  0.51227797358E+03 -0.67772910702E+03  0.87237217891E+03  0.10100000352E+00 0.  1.
       -3    1    3    3    0  502 -0.19821136093E+03 -0.51227797358E+03  0.14359879177E+04  0.15374582192E+04  0.10100000352E+00 0. -1.
</event>
<event>
 5   0  0.3006265E-05  0.2116421E+04  0.7818609E-02  0.8554044E-01
        1   -1    0    0  501    0  0.00000000000E+00  0.00000000000E+00  0.18078762724E+04  0.18078762724E+04  0.50400001928E-02 0.  1.
       -1   -1    0    0    0  501  0.00000000000E+00  0.00000000000E+00 -0.61940590025E+03  0.61940590027E+03  0.50400001928E-02 0. -1.
    10030    2    1    2    0    0  0.00000000000E+00  0.00000000000E+00  0.11884703721E+04  0.24272821727E+04  0.21164207805E+04 0.  0.
        2    1    3    3  502    0 -0.42954538792E+03 -0.54572621323E+03  0.15099337129E+04  0.16619946322E+04  0.25500000920E-02 0.  1.
       -2    1    3    3    0  502  0.42954538792E+03  0.54572621323E+03 -0.32146334079E+03  0.76528754045E+03  0.25500000920E-02 0. -1.
</event>
<event>
 5   0  0.2944089E-05  0.2308718E+04  0.7818609E-02  0.8474492E-01
        1   -1    0    0  501    0  0.00000000000E+00  0.00000000000E+00  0.82820994923E+03  0.82820994924E+03  0.50400001928E-02 0. -1.
       -1   -1    0    0    0  501  0.00000000000E+00  0.00000000000E+00 -0.16089450816E+04  0.16089450817E+04  0.50400001928E-02 0.  1.
    10030    2    1    2    0    0  0.00000000000E+00  0.00000000000E+00 -0.78073513242E+03  0.24371550309E+04  0.23087176739E+04 0.  0.
        5    1    3    3  502    0  0.97350561239E+03  0.26058517823E+03  0.20389240578E+03  0.10282081577E+04  0.46999998093E+01 0. -1.
       -5    1    3    3    0  502 -0.97350561239E+03 -0.26058517823E+03 -0.98462753820E+03  0.14089468732E+04  0.46999998093E+01 0.  1.
</event>
<event>
 5   0  0.6495405E-05  0.2277209E+04  0.7818609E-02  0.8486962E-01
       -2   -1    0    0    0  501  0.00000000000E+00  0.00000000000E+00  0.51846484870E+03  0.51846484871E+03  0.25500000920E-02 0. -1.
        2   -1    0    0  501    0  0.00000000000E+00  0.00000000000E+00 -0.25004985475E+04  0.25004985475E+04  0.25500000920E-02 0.  1.
    10030    2    1    2    0    0  0.00000000000E+00  0.00000000000E+00 -0.19820336988E+04  0.30189633962E+04  0.22772093458E+04 0.  0.
        5    1    3    3  502    0  0.22566660135E+03 -0.11121586158E+04 -0.86824321461E+03  0.14288773815E+04  0.46999998093E+01 0.  1.
       -5    1    3    3    0  502 -0.22566660135E+03  0.11121586158E+04 -0.11137904842E+04  0.15900860148E+04  0.46999998093E+01 0. -1.
</event>
<event>
 5   0  0.6814789E-05  0.2252997E+04  0.7818609E-02  0.8496688E-01
        2   -1    0    0  501    0  0.00000000000E+00  0.00000000000E+00  0.96567435109E+03  0.96567435109E+03  0.25500000920E-02 0. -1.
       -2   -1    0    0    0  501  0.00000000000E+00  0.00000000000E+00 -0.13141060381E+04  0.13141060381E+04  0.25500000920E-02 0.  1.
    10030    2    1    2    0    0  0.00000000000E+00  0.00000000000E+00 -0.34843168698E+03  0.22797803892E+04  0.22529966672E+04 0.  0.
        1    1    3    3  502    0  0.42522551028E+03 -0.31218220999E+03  0.83296814353E+03  0.98595658880E+03  0.50400001928E-02 0. -1.
       -1    1    3    3    0  502 -0.42522551028E+03  0.31218220999E+03 -0.11813998305E+04  0.12938238004E+04  0.50400001928E-02 0.  1.
</event>
<event>
 5   0  0.2342500E-05  0.2316225E+04  0.7818609E-02  0.8471551E-01
       -3   -1    0    0    0  501  0.00000000000E+00  0.00000000000E+00  0.14013955899E+04  0.14013955935E+04  0.10100000352E+00 0. -1.
        3   -1    0    0  501    0  0.00000000000E+00  0.00000000000E+00 -0.95706357259E+03  0.95706357792E+03  0.10100000352E+00 0.  1.
    10030    2    1    2    0    0  0.00000000000E+00  0.00000000000E+00  0.44433201728E+03  0.23584591714E+04  0.23162251017E+04 0.  0.
        2    1    3    3  502    0 -0.24193811464E+03 -0.11193708086E+04  0.39764416318E+03  0.12122895442E+04  0.25500000920E-02 0. -1.
       -2    1    3    3    0  502  0.24193811464E+03  0.11193708086E+04  0.46687854091E+02  0.11461696272E+04  0.25500000920E-02 0.  1.
</event>
<event>
 5   0  0.2982385E-05  0.2318992E+04  0.7818609E-02  0.8470470E-01
        1   -1    0    0  501    0  0.00000000000E+00  0.00000000000E+00  0.17428111559E+04  0.17428111559E+04  0.50400001928E-02 0.  1.
       -1   -1    0    0    0  501  0.00000000000E+00  0.00000000000E+00 -0.77141544819E+03  0.77141544821E+03  0.50400001928E-02 0. -1.
    10030    2    1    2    0    0  0.00000000000E+00  0.00000000000E+00  0.97139570769E+03  0.25142266041E+04  0.23189924096E+04 0.  0.
        4    1    3    3  502    0  0.70653621142E+03 -0.90782318770E+03  0.32823461272E+03  0.11962758595E+04  0.12699999809E+01 0. -1.
       -4    1    3    3    0  502 -0.70653621142E+03  0.90782318770E+03  0.64316109498E+03  0.13179507446E+04  0.12699999809E+01 0.  1.
</event>
<event>
 5   0  0.6702421E-05  0.2302691E+04  0.7818609E-02  0.8476861E-01
       -2   -1    0    0    0  501  0.00000000000E+00  0.00000000000E+00  0.61535220466E+03  0.61535220466E+03  0.25500000920E-02 0.  1.
        2   -1    0    0  501    0  0.00000000000E+00  0.00000000000E+00 -0.21542084231E+04  0.21542084231E+04  0.25500000920E-02 0. -1.
    10030    2    1    2    0    0  0.00000000000E+00  0.00000000000E+00 -0.15388562184E+04  0.27695606277E+04  0.23026913840E+04 0.  0.
        4    1    3    3  502    0 -0.90300200806E+03  0.25423614712E+03 -0.15722546644E+04  0.18308563537E+04  0.12699999809E+01 0. -1.
       -4    1    3    3    0  502  0.90300200806E+03 -0.25423614712E+03  0.33398446011E+02  0.93870427407E+03  0.12699999809E+01 0.  1.
</event>
<event>
 5   0  0.6468758E-05  0.2279140E+04  0.7818609E-02  0.8486192E-01
        2   -1    0    0  501    0  0.00000000000E+00  0.00000000000E+00  0.24501925677E+04  0.24501925677E+04  0.25500000920E-02 0.  1.
       -2   -1    0    0    0  501  0.00000000000E+00  0.00000000000E+00 -0.53000704367E+03  0.53000704368E+03  0.25500000920E-02 0. -1.
    10030    2    1    2    0    0  0.00000000000E+00  0.00000000000E+00  0.19201855240E+04  0.29801996114E+04  0.22791395914E+04 0.  0.
        3    1    3    3  502    0 -0.52820351768E+03  0.20394252584E+03 -0.33306058418E+03  0.65690248353E+03  0.10100000352E+00 0. -1.
       -3    1    3    3    0  502  0.52820351768E+03 -0.20394252584E+03  0.22532461082E+04  0.23232971279E+04  0.10100000352E+00 0.  1.
</event>
<event>
 5   0  0.6495405E-05  0.2544760E+04  0.7818609E-02  0.8387211E-01
        2   -1    0    0  501    0  0.00000000000E+00  0.00000000000E+00  0.25044192116E+04  0.25044192116E+04  0.25500000920E-02 0.  1.
       -2   -1    0    0    0  501  0.00000000000E+00  0.00000000000E+00 -0.64643762577E+03  0.64643762578E+03  0.25500000920E-02 0. -1.
    10030    2    1    2    0    0  0.00000000000E+00  0.00000000000E+00  0.18579815858E+04  0.31508568374E+04  0.25447599565E+04 0.  0.
        5    1    3    3  502    0 -0.21307544095E+02  0.45906601795E+03  0.23980591680E+04  0.24417013502E+04  0.46999998093E+01 0.  1.
       -5    1    3    3    0  502  0.21307544095E+02 -0.45906601795E+03 -0.54007758216E+03  0.70915548720E+03  0.46999998093E+01 0. -1.
</event>
<event>
 5   0  0.6495405E-05  0.2306044E+04  0.7818609E-02  0.8475542E-01
       -2   -1    0    0    0  501  0.00000000000E+00  0.00000000000E+00  0.10494514956E+04  0.10494514956E+04  0.25500000920E-02 0.  1.
        2   -1    0    0  501    0  0.00000000000E+00  0.00000000000E+00 -0.12668135266E+04  0.12668135266E+04  0.25500000920E-02 0. -1.
    10030    2    1    2    0    0  0.00000000000E+00  0.00000000000E+00 -0.21736203099E+03  0.23162650222E+04  0.23060436684E+04 0.  0.
        5    1    3    3  502    0 -0.36555572191E+03  0.93774718609E+03 -0.67370124950E+03  0.12111549176E+04  0.46999998093E+01 0. -1.
       -5    1    3    3    0  502  0.36555572191E+03 -0.93774718609E+03  0.45633921852E+03  0.11051101046E+04  0.46999998093E+01 0.  1.
</event>
<event>
 5   0  0.6495405E-05  0.1779511E+04  0.7818609E-02  0.8717272E-01
       -2   -1    0    0    0  501  0.00000000000E+00  0.00000000000E+00  0.42185977487E+03  0.42185977488E+03  0.25500000920E-02 0. -1.
        2   -1    0    0  501    0  0.00000000000E+00  0.00000000000E+00 -0.18766062740E+04  0.18766062740E+04  0.25500000920E-02 0.  1.
    10030    2    1    2    0    0  0.00000000000E+00  0.00000000000E+00 -0.14547464991E+04  0.22984660488E+04  0.17795108320E+04 0.  0.
        5    1    3    3  502    0  0.82167256869E+03  0.31443637418E+03 -0.55589015122E+03  0.10406978398E+04  0.46999998093E+01 0.  1.
       -5    1    3    3    0  502 -0.82167256869E+03 -0.31443637418E+03 -0.89885634787E+03  0.12577682090E+04  0.46999998093E+01 0. -1.
</event>
<event>
 5   0  0.2944089E-05  0.2224018E+04  0.7818609E-02  0.8508497E-01
       -1   -1    0    0    0  501  0.00000000000E+00  0.00000000000E+00  0.12152539408E+04  0.12152539408E+04  0.50400001928E-02 0.  1.
        1   -1    0    0  501    0  0.00000000000E+00  0.00000000000E+00 -0.10175357454E+04  0.10175357454E+04  0.50400001928E-02 0. -1.
    10030    2    1    2    0    0  0.00000000000E+00  0.00000000000E+00  0.19771819537E+03  0.22327896863E+04  0.22240182774E+04 0.  0.
        5    1    3    3  502    0  0.86891673153E+03 -0.68883055784E+03  0.18308521316E+03  0.11238532418E+04  0.46999998093E+01 0. -1.
       -5    1    3    3    0  502 -0.86891673153E+03  0.68883055784E+03  0.14632982203E+02  0.11089364445E+04  0.46999998093E+01 0.  1.
</event>
<event>
 5   0  0.6814789E-05  0.2326869E+04  0.7818609E-02  0.8467402E-01
        2   -1    0    0  501    0  0.00000000000E+00  0.00000000000E+00  0.18087038263E+04  0.18087038263E+04  0.25500000920E-02 0. -1.
       -2   -1    0    0    0  501  0.00000000000E+00  0.00000000000E+00 -0.74836994491E+03  0.74836994492E+03  0.25500000920E-02 0.  1.
    10030    2    1    2    0    0  0.00000000000E+00  0.00000000000E+00  0.10603338814E+04  0.25570737712E+04  0.23268687826E+04 0.  0.
        1    1    3    3  502    0 -0.57140091695E+03  0.98148235515E+03  0.80768398222E+03  0.13936140199E+04  0.50400001928E-02 0. -1.
       -1    1    3    3    0  502  0.57140091695E+03 -0.98148235515E+03  0.25264989919E+03  0.11634597513E+04  0.50400001928E-02 0.  1.
</event>
<event>
 5   0  0.3006265E-05  0.2229043E+04  0.7818609E-02  0.8506436E-01
       -1   -1    0    0    0  501  0.00000000000E+00  0.00000000000E+00  0.10729713249E+04  0.10729713250E+04  0.50400001928E-02 0.  1.
        1   -1    0    0  501    0  0.00000000000E+00  0.00000000000E+00 -0.11576805087E+04  0.11576805087E+04  0.50400001928E-02 0. -1.
    10030    2    1    2    0    0  0.00000000000E+00  0.00000000000E+00 -0.84709183744E+02  0.22306518337E+04  0.22290428343E+04 0.  0.
        2    1    3    3  502    0 -0.87385808303E+03 -0.68705917252E+03 -0.12290948887E+03  0.11183849956E+04  0.25500000920E-02 0.  1.
       -2    1    3    3    0  502  0.87385808303E+03  0.68705917252E+03  0.38200305122E+02  0.11122668381E+04  0.25500000920E-02 0. -1.
</event>
<event>
 5   0  0.3006265E-05  0.2285593E+04  0.7818609E-02  0.8483623E-01
        1   -1    0    0  501    0  0.00000000000E+00  0.00000000000E+00  0.25816479738E+04  0.25816479738E+04  0.50400001928E-02 0.  1.
       -1   -1    0    0    0  501  0.00000000000E+00  0.00000000000E+00 -0.50587227718E+03  0.50587227720E+03  0.50400001928E-02 0. -1.
    10030    2    1    2    0    0  0.00000000000E+00  0.00000000000E+00  0.20757756967E+04  0.30875202510E+04  0.22855932617E+04 0.  0.
        2    1    3    3  502    0  0.83086185096E+03  0.13892436605E+03  0.20810755993E+04  0.22451073571E+04  0.25500000920E-02 0.  1.
       -2    1    3    3    0  502 -0.83086185096E+03 -0.13892436605E+03 -0.52999026774E+01  0.84241289392E+03  0.25500000920E-02 0. -1.
</event>
<event>
 5   0  0.3118614E-05  0.2287694E+04  0.7818609E-02  0.8482789E-01
        1   -1    0    0  501    0  0.00000000000E+00  0.00000000000E+00  0.28926594407E+04  0.28926594407E+04  0.50400001928E-02 0. -1.
       -1   -1    0    0    0  501  0.00000000000E+00  0.00000000000E+00 -0.45231232795E+03  0.45231232798E+03  0.50400001928E-02 0.  1.
    10030    2    1    2    0    0  0.00000000000E+00  0.00000000000E+00  0.24403471127E+04  0.33449717686E+04  0.22876936208E+04 0.  0.
        3    1    3    3  502    0 -0.20389787230E+03 -0.14652540102E+03  0.28518679543E+04  0.28628997318E+04  0.10100000352E+00 0. -1.
       -3    1    3    3    0  502  0.20389787230E+03  0.14652540102E+03 -0.41152084157E+03  0.48207203685E+03  0.10100000352E+00 0.  1.
</event>
<event>
 5   0  0.6814789E-05  0.2329759E+04  0.7818609E-02  0.8466279E-01
        2   -1    0    0  501    0  0.00000000000E+00  0.00000000000E+00  0.29695007012E+04  0.29695007012E+04  0.25500000920E-02 0. -1.
       -2   -1    0    0    0  501  0.00000000000E+00  0.00000000000E+00 -0.45696059052E+03  0.45696059052E+03  0.25500000920E-02 0.  1.
    10030    2    1    2    0    0  0.00000000000E+00  0.00000000000E+00  0.25125401107E+04  0.34264612917E+04  0.23297594674E+04 0.  0.
        1    1    3    3  502    0  0.70748177503E+03  0.87270119658E+03  0.17091205436E+04  0.20452948132E+04  0.50400001928E-02 0. -1.
       -1    1    3    3    0  502 -0.70748177503E+03 -0.87270119658E+03  0.80341956712E+03  0.13811664785E+04  0.50400001928E-02 0.  1.
</event>
<event>
 5   0  0.2982385E-05  0.1819685E+04  0.7818609E-02  0.8695901E-01
       -1   -1    0    0    0  501  0.00000000000E+00  0.00000000000E+00  0.90178438194E+03  0.90178438196E+03  0.50400001928E-02 0.  1.
        1   -1    0    0  501    0  0.00000000000E+00  0.00000000000E+00 -0.91797299510E+03  0.91797299511E+03  0.50400001928E-02 0. -1.
    10030    2    1    2    0    0  0.00000000000E+00  0.00000000000E+00 -0.16188613154E+02  0.18197573771E+04  0.18196853685E+04 0.  0.
        4    1    3    3  502    0  0.19408379528E+03  0.79513270988E+03 -0.40548586276E+03  0.91341389507E+03  0.12699999809E+01 0. -1.
       -4    1    3    3    0  502 -0.19408379528E+03 -0.79513270988E+03  0.38929724961E+03  0.90634348200E+03  0.12699999809E+01 0.  1.
</event>
<event>
 5   0  0.2982385E-05  0.2285697E+04  0.7818609E-02  0.8483582E-01
        1   -1    0    0  501    0  0.00000000000E+00  0.00000000000E+00  0.15206941784E+04  0.15206941784E+04  0.50400001928E-02 0. -1.
       -1   -1    0    0    0  501  0.00000000000E+00  0.00000000000E+00 -0.85888555557E+03  0.85888555559E+03  0.50400001928E-02 0.  1.
    10030    2    1    2    0    0  0.00000000000E+00  0.00000000000E+00  0.66180862282E+03  0.23795797340E+04  0.22856966240E+04 0.  0.
        4    1    3    3  502    0  0.75212200741E+03  0.64352543490E+03  0.92558293395E+03  0.13551818623E+04  0.12699999809E+01 0. -1.
       -4    1    3    3    0  502 -0.75212200741E+03 -0.64352543490E+03 -0.26377431113E+03  0.10243978717E+04  0.12699999809E+01 0.  1.
</event>
<event>
 5   0  0.2944089E-05  0.2280854E+04  0.7818609E-02  0.8485508E-01
        1   -1    0    0  501    0  0.00000000000E+00  0.00000000000E+00  0.10803625495E+04  0.10803625496E+04  0.50400001928E-02 0. -1.
       -1   -1    0    0    0  501  0.00000000000E+00  0.00000000000E+00 -0.12038312803E+04  0.12038312804E+04  0.50400001928E-02 0.  1.
    10030    2    1    2    0    0  0.00000000000E+00  0.00000000000E+00 -0.12346873080E+03  0.22841938299E+04  0.22808544287E+04 0.  0.
        5    1    3    3  502    0 -0.49340077812E+03 -0.41658145804E+03 -0.10030934153E+04  0.11929806909E+04  0.46999998093E+01 0.  1.
       -5    1    3    3    0  502  0.49340077812E+03  0.41658145804E+03  0.87962468453E+03  0.10912131390E+04  0.46999998093E+01 0. -1.
</event>
<event>
 5   0  0.6676612E-05  0.2342634E+04  0.7818609E-02  0.8461298E-01
       -2   -1    0    0    0  501  0.00000000000E+00  0.00000000000E+00  0.15404046162E+04  0.15404046162E+04  0.25500000920E-02 0.  1.
        2   -1    0    0  501    0  0.00000000000E+00  0.00000000000E+00 -0.89066420147E+03  0.89066420147E+03  0.25500000920E-02 0. -1.
    10030    2    1    2    0    0  0.00000000000E+00  0.00000000000E+00  0.64974041473E+03  0.24310688177E+04  0.23426337720E+04 0.  0.
        2    1    3    3  502    0 -0.32484768358E+03 -0.11098304682E+04  0.51827512506E+03  0.12672248384E+04  0.25500000920E-02 0. -1.
       -2    1    3    3    0  502  0.32484768358E+03  0.11098304682E+04  0.13146528967E+03  0.11638439793E+04  0.25500000920E-02 0.  1.
</event>
<event>
 5   0  0.6702421E-05  0.2321617E+04  0.7818609E-02  0.8469446E-01
        2   -1    0    0  501    0  0.00000000000E+00  0.00000000000E+00  0.25845050685E+04  0.25845050685E+04  0.25500000920E-02 0.  1.
       -2   -1    0    0    0  501  0.00000000000E+00  0.00000000000E+00 -0.52136718751E+03  0.52136718752E+03  0.25500000920E-02 0. -1.
    10030    2    1    2    0    0  0.00000000000E+00  0.00000000000E+00  0.20631378810E+04  0.31058722560E+04  0.23216167976E+04 0.  0.
        4    1    3    3  502    0  0.85962214516E+03  0.77952572427E+03  0.99224704261E+03  0.15268157694E+04  0.12699999809E+01 0.  1.
       -4    1    3    3    0  502 -0.85962214516E+03 -0.77952572427E+03  0.10708908383E+04  0.15790564866E+04  0.12699999809E+01 0. -1.
</event>
<event>
 5   0  0.6495405E-05  0.2325395E+04  0.7818609E-02  0.8467975E-01
        2   -1    0    0  501    0  0.00000000000E+00  0.00000000000E+00  0.19818562507E+04  0.19818562507E+04  0.25500000920E-02 0. -1.
       -2   -1    0    0    0  501  0.00000000000E+00  0.00000000000E+00 -0.68212064875E+03  0.68212064876E+03  0.25500000920E-02 0.  1.
    10030    2    1    2    0    0  0.00000000000E+00  0.00000000000E+00  0.12997356020E+04  0.26639768995E+04  0.23253946517E+04 0.  0.
        5    1    3    3  502    0 -0.33720162181E+03  0.27835006102E+02  0.19241992282E+04  0.19537257948E+04  0.46999998093E+01 0. -1.
       -5    1    3    3    0  502  0.33720162181E+03 -0.27835006102E+02 -0.62446362621E+03  0.71025110473E+03  0.46999998093E+01 0.  1.
</event>
<event>
 5   0  0.6468758E-05  0.2307314E+04  0.7818609E-02  0.8475043E-01
        2   -1    0    0  501    0  0.00000000000E+00  0.00000000000E+00  0.17666128751E+04  0.17666128751E+04  0.25500000920E-02 0.  1.
       -2   -1    0    0    0  501  0.00000000000E+00  0.00000000000E+00 -0.75337617403E+03  0.75337617404E+03  0.25500000920E-02 0. -1.
    10030    2    1    2    0    0  0.00000000000E+00  0.00000000000E+00  0.10132367010E+04  0.25199890491E+04  0.23073136317E+04 0.  0.
        3    1    3    3  502    0 -0.62467492396E+03  0.96405950497E+03  0.62269008281E+03  0.13066646238E+04  0.10100000352E+00 0.  1.
       -3    1    3    3    0  502  0.62467492396E+03 -0.96405950497E+03  0.39054661822E+03  0.12133244253E+04  0.10100000352E+00 0. -1.
</event>
<event>
 5   0  0.6495405E-05  0.2285910E+04  0.7818609E-02  0.8483497E-01
       -2   -1    0    0    0  501  0.00000000000E+00  0.00000000000E+00  0.16515720262E+04  0.16515720262E+04  0.25500000920E-02 0.  1.
        2   -1    0    0  501    0  0.00000000000E+00  0.00000000000E+00 -0.79097131554E+03  0.79097131554E+03  0.25500000920E-02 0. -1.
    10030    2    1    2    0    0  0.00000000000E+00  0.00000000000E+00  0.86060071063E+03  0.24425433417E+04  0.22859099705E+04 0.  0.
        5    1    3    3  502    0  0.10265123489E+04  0.42271101972E+03  0.13980442987E+03  0.11189189324E+04  0.46999998093E+01 0. -1.
       -5    1    3    3    0  502 -0.10265123489E+04 -0.42271101972E+03  0.72079628077E+03  0.13236244093E+04  0.46999998093E+01 0.  1.
</event>
<event>
 5   0  0.6676612E-05  0.2329962E+04  0.7818609E-02  0.8466200E-01
        2   -1    0    0  501    0  0.00000000000E+00  0.00000000000E+00  0.18487620695E+04  0.18487620695E+04  0.25500000920E-02 0.  1.
       -2   -1    0    0    0  501  0.00000000000E+00  0.00000000000E+00 -0.73410234106E+03  0.73410234107E+03  0.25500000920E-02 0. -1.
    10030    2    1    2    0    0  0.00000000000E+00  0.00000000000E+00  0.11146597284E+04  0.25828644105E+04  0.23299618566E+04 0.  0.
        2    1    3    3  502    0 -0.25391533926E+03  0.74005886499E+03  0.15141645070E+04  0.17043633056E+04  0.25500000920E-02 0.  1.
       -2    1    3    3    0  502  0.25391533926E+03 -0.74005886499E+03 -0.39950477864E+03  0.87850110491E+03  0.25500000920E-02 0. -1.
</event>
<event>
 5   0  0.2962279E-05  0.2309827E+04  0.7818609E-02  0.8474056E-01
        1   -1    0    0  501    0  0.00000000000E+00  0.00000000000E+00  0.12975759913E+04  0.12975759914E+04  0.50400001928E-02 0.  1.
       -1   -1    0    0    0  501  0.00000000000E+00  0.00000000000E+00 -0.10279362294E+04  0.10279362294E+04  0.50400001928E-02 0. -1.
    10030    2    1    2    0    0  0.00000000000E+00  0.00000000000E+00  0.26963976198E+03  0.23255122207E+04  0.23098271553E+04 0.  0.
        1    1    3    3  502    0 -0.50629274488E+03 -0.29518461375E+03 -0.86710574698E+03  0.10465842901E+04  0.50400001928E-02 0. -1.
       -1    1    3    3    0  502  0.50629274488E+03  0.29518461375E+03  0.11367455090E+04  0.12789279307E+04  0.50400001928E-02 0.  1.
</event>
<event>
 5   0  0.2982385E-05  0.2323529E+04  0.7818609E-02  0.8468701E-01
       -1   -1    0    0    0  501  0.00000000000E+00  0.00000000000E+00  0.48591150072E+03  0.48591150074E+03  0.50400001928E-02 0.  1.
        1   -1    0    0  501    0  0.00000000000E+00  0.00000000000E+00 -0.27776600843E+04  0.27776600843E+04  0.50400001928E-02 0. -1.
    10030    2    1    2    0    0  0.00000000000E+00  0.00000000000E+00 -0.22917485836E+04  0.32635715850E+04  0.23235291951E+04 0.  0.
        4    1    3    3  502    0  0.35670414427E+03  0.17004253883E+03  0.38861568007E+03  0.55423467164E+03  0.12699999809E+01 0.  1.
       -4    1    3    3    0  502 -0.35670414427E+03 -0.17004253883E+03 -0.26803642636E+04  0.27093369134E+04  0.12699999809E+01 0. -1.
</event>
<event>
 5   0  0.6702421E-05  0.2303091E+04  0.7818609E-02  0.8476704E-01
        2   -1    0    0  501    0  0.00000000000E+00  0.00000000000E+00  0.23019744577E+04  0.23019744577E+04  0.25500000920E-02 0. -1.
       -2   -1    0    0    0  501  0.00000000000E+00  0.00000000000E+00 -0.57605181094E+03  0.57605181094E+03  0.25500000920E-02 0.  1.
    10030    2    1    2    0    0  0.00000000000E+00  0.00000000000E+00  0.17259226468E+04  0.28780262687E+04  0.23030905802E+04 0.  0.
        4    1    3    3  502    0 -0.70234709180E+03 -0.66942082686E+03  0.16379770951E+04  0.19037820930E+04  0.12699999809E+01 0. -1.
       -4    1    3    3    0  502  0.70234709180E+03  0.66942082686E+03  0.87945551698E+02  0.97424417564E+03  0.12699999809E+01 0.  1.
</event>
<event>
 5   0  0.6702421E-05  0.2288429E+04  0.7818609E-02  0.8482498E-01
       -2   -1    0    0    0  501  0.00000000000E+00  0.00000000000E+00  0.78634942112E+03  0.78634942112E+03  0.25500000920E-02 0. -1.
        2   -1    0    0  501    0  0.00000000000E+00  0.00000000000E+00 -0.16649422837E+04  0.16649422838E+04  0.25500000920E-02 0.  1.
    10030    2    1    2    0    0  0.00000000000E+00  0.00000000000E+00 -0.87859286263E+03  0.24512917049E+04  0.22884286321E+04 0.  0.
        4    1    3    3  502    0 -0.29481856187E+03 -0.12527891260E+03 -0.16159305634E+04  0.16473754852E+04  0.12699999809E+01 0.  1.
       -4    1    3    3    0  502  0.29481856187E+03  0.12527891260E+03  0.73733770081E+03  0.80391621971E+03  0.12699999809E+01 0. -1.
</event>
<event>
 5   0  0.3006265E-05  0.2313741E+04  0.7818609E-02  0.8472523E-01
       -1   -1    0    0    0  501  0.00000000000E+00  0.00000000000E+00  0.10711924766E+04  0.10711924766E+04  0.50400001928E-02 0. -1.
        1   -1    0    0  501    0  0.00000000000E+00  0.00000000000E+00 -0.12494012998E+04  0.12494012998E+04  0.50400001928E-02 0.  1.
    10030    2    1    2    0    0  0.00000000000E+00  0.00000000000E+00 -0.17820882318E+03  0.23205937764E+04  0.23137409298E+04 0.  0.
        2    1    3    3  502    0 -0.45069121049E+03 -0.74947464603E+03  0.67044595931E+03  0.11019676023E+04  0.25500000920E-02 0. -1.
       -2    1    3    3    0  502  0.45069121049E+03  0.74947464603E+03 -0.84865478249E+03  0.12186261741E+04  0.25500000920E-02 0.  1.
</event>
<event>
 5   0  0.3006265E-05  0.2334459E+04  0.7818609E-02  0.8464457E-01
        1   -1    0    0  501    0  0.00000000000E+00  0.00000000000E+00  0.21087488834E+04  0.21087488834E+04  0.50400001928E-02 0.  1.
       -1   -1    0    0    0  501  0.00000000000E+00  0.00000000000E+00 -0.64608203229E+03  0.64608203231E+03  0.50400001928E-02 0. -1.
    10030    2    1    2    0    0  0.00000000000E+00  0.00000000000E+00  0.14626668511E+04  0.27548309157E+04  0.23344590502E+04 0.  0.
        2    1    3    3  502    0  0.68588524847E+03 -0.70973083750E+03 -0.39836833508E+01  0.98700167452E+03  0.25500000920E-02 0. -1.
       -2    1    3    3    0  502 -0.68588524847E+03  0.70973083750E+03  0.14666505345E+04  0.17678292412E+04  0.25500000920E-02 0.  1.
</event>
<event>
 5   0  0.6676612E-05  0.2323510E+04  0.7818609E-02  0.8468709E-01
        2   -1    0    0  501    0  0.00000000000E+00  0.00000000000E+00  0.20651647625E+04  0.20651647625E+04  0.25500000920E-02 0. -1.
       -2   -1    0    0    0  501  0.00000000000E+00  0.00000000000E+00 -0.65354323530E+03  0.65354323531E+03  0.25500000920E-02 0.  1.
    10030    2    1    2    0    0  0.00000000000E+00  0.00000000000E+00  0.14116215272E+04  0.27187079978E+04  0.23235098109E+04 0.  0.
        2    1    3    3  502    0  0.10720407219E+04  0.15689741852E+03  0.21522987025E+03  0.11046320683E+04  0.25500000920E-02 0.  1.
       -2    1    3    3    0  502 -0.10720407219E+04 -0.15689741852E+03  0.11963916569E+04  0.16140759295E+04  0.25500000920E-02 0. -1.
</event>
<event>
 5   0  0.6468758E-05  0.1904136E+04  0.7818609E-02  0.8652800E-01
        2   -1    0    0  501    0  0.00000000000E+00  0.00000000000E+00  0.13775698333E+04  0.13775698333E+04  0.25500000920E-02 0. -1.
       -2   -1    0    0    0  501  0.00000000000E+00  0.00000000000E+00 -0.65799446898E+03  0.65799446899E+03  0.25500000920E-02 0.  1.
    10030    2    1    2    0    0  0.00000000000E+00  0.00000000000E+00  0.71957536428E+03  0.20355643023E+04  0.19041358470E+04 0.  0.
        3    1    3    3  502    0 -0.72660478844E+03 -0.61359168650E+03  0.31217062053E+03  0.10009494407E+04  0.10100000352E+00 0. -1.
       -3    1    3    3    0  502  0.72660478844E+03  0.61359168650E+03  0.40740474375E+03  0.10346148616E+04  0.10100000352E+00 0.  1.
</event>
<event>
 5   0  0.6676612E-05  0.2283822E+04  0.7818609E-02  0.8484327E-01
        2   -1    0    0  501    0  0.00000000000E+00  0.00000000000E+00  0.17001493068E+04  0.17001493068E+04  0.25500000920E-02 0. -1.
       -2   -1    0    0    0  501  0.00000000000E+00  0.00000000000E+00 -0.76696860527E+03  0.76696860527E+03  0.25500000920E-02 0.  1.
    10030    2    1    2    0    0  0.00000000000E+00  0.00000000000E+00  0.93318070152E+03  0.24671179121E+04  0.22838223596E+04 0.  0.
        2    1    3    3  502    0 -0.57670655883E+03  0.87262023144E+02 -0.59391078829E+03  0.83242725817E+03  0.25500000920E-02 0.  1.
       -2    1    3    3    0  502  0.57670655883E+03 -0.87262023144E+02  0.15270914898E+04  0.16346906539E+04  0.25500000920E-02 0. -1.
</event>
<event>
 5   0  0.6814789E-05  0.2249348E+04  0.7818609E-02  0.8498165E-01
       -2   -1    0    0    0  501  0.00000000000E+00  0.00000000000E+00  0.11553357960E+04  0.11553357960E+04  0.25500000920E-02 0.  1.
        2   -1    0    0  501    0  0.00000000000E+00  0.00000000000E+00 -0.10948255349E+04  0.10948255349E+04  0.25500000920E-02 0. -1.
    10030    2    1    2    0    0  0.00000000000E+00  0.00000000000E+00  0.60510261129E+02  0.22501613309E+04  0.22493475772E+04 0.  0.
        1    1    3    3  502    0 -0.28574404784E+03 -0.10779889456E+04 -0.11533549921E+03  0.11211655119E+04  0.50400001928E-02 0.  1.
       -1    1    3    3    0  502  0.28574404784E+03  0.10779889456E+04  0.17584576034E+03  0.11289958189E+04  0.50400001928E-02 0. -1.
</event>
<event>
 5   0  0.2944089E-05  0.2325324E+04  0.7818609E-02  0.8468003E-01
        1   -1    0    0  501    0  0.00000000000E+00  0.00000000000E+00  0.14751490385E+04  0.14751490385E+04  0.50400001928E-02 0. -1.
       -1   -1    0    0    0  501  0.00000000000E+00  0.00000000000E+00 -0.91637033742E+03  0.91637033743E+03  0.50400001928E-02 0.  1.
    10030    2    1    2    0    0  0.00000000000E+00  0.00000000000E+00  0.55877870109E+03  0.23915193759E+04  0.23253239105E+04 0.  0.
        5    1    3    3  502    0 -0.45610907900E+03  0.67365879349E+03  0.11336420775E+04  0.13953559087E+04  0.46999998093E+01 0. -1.
       -5    1    3    3    0  502  0.45610907900E+03 -0.67365879349E+03 -0.57486337641E+03  0.99616346727E+03  0.46999998093E+01 0.  1.
</event>
<event>
 5   0  0.6495405E-05  0.2278189E+04  0.7818609E-02  0.8486571E-01
        2   -1    0    0  501    0  0.00000000000E+00  0.00000000000E+00  0.18983162954E+04  0.18983162954E+04  0.25500000920E-02 0. -1.
       -2   -1    0    0    0  501  0.00000000000E+00  0.00000000000E+00 -0.68351966774E+03  0.68351966775E+03  0.25500000920E-02 0.  1.
    10030    2    1    2    0    0  0.00000000000E+00  0.00000000000E+00  0.12147966276E+04  0.25818359631E+04  0.22781892138E+04 0.  0.
        5    1    3    3  502    0 -0.99826201274E+03 -0.52936379246E+03  0.77069101825E+03  0.13677499064E+04  0.46999998093E+01 0. -1.
       -5    1    3    3    0  502  0.99826201274E+03  0.52936379246E+03  0.44410560937E+03  0.12140860567E+04  0.46999998093E+01 0.  1.
</event>
<event>
 5   0  0.6702421E-05  0.2282801E+04  0.7818609E-02  0.8484733E-01
       -2   -1    0    0    0  501  0.00000000000E+00  0.00000000000E+00  0.57809616379E+03  0.57809616379E+03  0.25500000920E-02 0.  1.
        2   -1    0    0  501    0  0.00000000000E+00  0.00000000000E+00 -0.22535961768E+04  0.22535961768E+04  0.25500000920E-02 0. -1.
    10030    2    1    2    0    0  0.00000000000E+00  0.00000000000E+00 -0.16755000130E+04  0.28316923406E+04  0.22828011780E+04 0.  0.
        4    1    3    3  502    0  0.50474707139E+03  0.81538235649E+03 -0.69899001772E+02  0.96151207829E+03  0.12699999809E+01 0.  1.
       -4    1    3    3    0  502 -0.50474707139E+03 -0.81538235649E+03 -0.16056010113E+04  0.18701802623E+04  0.12699999809E+01 0. -1.
</event>
<event>
 5   0  0.6676612E-05  0.2233102E+04  0.7818609E-02  0.8504775E-01
       -2   -1    0    0    0  501  0.00000000000E+00  0.00000000000E+00  0.54905450979E+03  0.54905450979E+03  0.25500000920E-02 0. -1.
        2   -1    0    0  501    0  0.00000000000E+00  0.00000000000E+00 -0.22706044696E+04  0.22706044696E+04  0.25500000920E-02 0.  1.
    10030    2    1    2    0    0  0.00000000000E+00  0.00000000000E+00 -0.17215499599E+04  0.28196589794E+04  0.22331015418E+04 0.  0.
        2    1    3    3  502    0 -0.10009708166E+04  0.38178775395E+03 -0.12580254161E+04  0.16523717537E+04  0.25500000920E-02 0.  1.
       -2    1    3    3    0  502  0.10009708166E+04 -0.38178775395E+03 -0.46352454377E+03  0.11672872258E+04  0.25500000920E-02 0. -1.
</event>
<event>
 5   0  0.3118614E-05  0.2305550E+04  0.7818609E-02  0.8475736E-01
        1   -1    0    0  501    0  0.00000000000E+00  0.00000000000E+00  0.14605028932E+04  0.14605028932E+04  0.50400001928E-02 0.  1.
       -1   -1    0    0    0  501  0.00000000000E+00  0.00000000000E+00 -0.90988541449E+03  0.90988541451E+03  0.50400001928E-02 0. -1.
    10030    2    1    2    0    0  0.00000000000E+00  0.00000000000E+00  0.55061747872E+03  0.23703883077E+04  0.23055500692E+04 0.  0.
        3    1    3    3  502    0 -0.81565556344E+02  0.24643674601E+03  0.14300631857E+04  0.14534320538E+04  0.10100000352E+00 0.  1.
       -3    1    3    3    0  502  0.81565556344E+02 -0.24643674601E+03 -0.87944570701E+03  0.91695625389E+03  0.10100000352E+00 0. -1.
</event>
<event>
 5   0  0.2944089E-05  0.2322749E+04  0.7818609E-02  0.8469005E-01
       -1   -1    0    0    0  501  0.00000000000E+00  0.00000000000E+00  0.53187718424E+03  0.53187718426E+03  0.50400001928E-02 0.  1.
        1   -1    0    0  501    0  0.00000000000E+00  0.00000000000E+00 -0.25359060227E+04  0.25359060227E+04  0.50400001928E-02 0. -1.
    10030    2    1    2    0    0  0.00000000000E+00  0.00000000000E+00 -0.20040288384E+04  0.30677832069E+04  0.23227488499E+04 0.  0.
        5    1    3    3  502    0 -0.28516624242E+03 -0.11257750039E+04 -0.99025156342E+03  0.15262075200E+04  0.46999998093E+01 0.  1.
       -5    1    3    3    0  502  0.28516624242E+03  0.11257750039E+04 -0.10137772750E+04  0.15415756869E+04  0.46999998093E+01 0. -1.
</event>
<event>
 5   0  0.6814789E-05  0.2357091E+04  0.7818609E-02  0.8455745E-01
       -2   -1    0    0    0  501  0.00000000000E+00  0.00000000000E+00  0.11028436842E+04  0.11028436842E+04  0.25500000920E-02 0.  1.
        2   -1    0    0  501    0  0.00000000000E+00  0.00000000000E+00 -0.12594439312E+04  0.12594439312E+04  0.25500000920E-02 0. -1.
    10030    2    1    2    0    0  0.00000000000E+00  0.00000000000E+00 -0.15660024701E+03  0.23622876154E+04  0.23570912456E+04 0.  0.
        1    1    3    3  502    0 -0.18052070520E+03 -0.35562802333E+03 -0.11897584413E+04  0.12548243561E+04  0.50400001928E-02 0. -1.
       -1    1    3    3    0  502  0.18052070520E+03  0.35562802333E+03  0.10331581943E+04  0.11074632592E+04  0.50400001928E-02 0.  1.
</event>
<event>
 5   0  0.6495405E-05  0.2315081E+04  0.7818609E-02  0.8471998E-01
       -2   -1    0    0    0  501  0.00000000000E+00  0.00000000000E+00  0.73041527096E+03  0.73041527096E+03  0.25500000920E-02 0.  1.
        2   -1    0    0  501    0  0.00000000000E+00  0.00000000000E+00 -0.18344365502E+04  0.18344365502E+04  0.25500000920E-02 0. -1.
    10030    2    1    2    0    0  0.00000000000E+00  0.00000000000E+00 -0.11040212792E+04  0.25648518211E+04  0.23150813980E+04 0.  0.
        5    1    3    3  502    0 -0.42893313904E+03 -0.94751511833E+03  0.10846653017E+02  0.10401481996E+04  0.46999998093E+01 0.  1.
       -5    1    3    3    0  502  0.42893313904E+03  0.94751511833E+03 -0.11148679322E+04  0.15247036216E+04  0.46999998093E+01 0. -1.
</event>
<event>
 5   0  0.6495405E-05  0.2306835E+04  0.7818609E-02  0.8475231E-01
       -2   -1    0    0    0  501  0.00000000000E+00  0.00000000000E+00  0.75434721332E+03  0.75434721333E+03  0.25500000920E-02 0.  1.
        2   -1    0    0  501    0  0.00000000000E+00  0.00000000000E+00 -0.17636070230E+04  0.17636070230E+04  0.25500000920E-02 0. -1.
    10030    2    1    2    0    0  0.00000000000E+00  0.00000000000E+00 -0.10092598096E+04  0.25179542363E+04  0.23068350987E+04 0.  0.
        5    1    3    3  502    0 -0.48565832794E+03 -0.12718035487E+03 -0.16380823916E+04  0.17132935726E+04  0.46999998093E+01 0. -1.
       -5    1    3    3    0  502  0.48565832794E+03  0.12718035487E+03  0.62882258196E+03  0.80466066372E+03  0.46999998093E+01 0.  1.
</event>
<event>
 5   0  0.2982385E-05  0.2288849E+04  0.7818609E-02  0.8482331E-01
        1   -1    0    0  501    0  0.00000000000E+00  0.00000000000E+00  0.62585362852E+03  0.62585362854E+03  0.50400001928E-02 0.  1.
       -1   -1    0    0    0  501  0.00000000000E+00  0.00000000000E+00 -0.20926735566E+04  0.20926735567E+04  0.50400001928E-02 0. -1.
    10030    2    1    2    0    0  0.00000000000E+00  0.00000000000E+00 -0.14668199281E+04  0.27185271852E+04  0.22888489149E+04 0.  0.
        4    1    3    3  502    0  0.12727143670E+02 -0.42699013979E+03  0.52760867796E+03  0.67886308606E+03  0.12699999809E+01 0.  1.
       -4    1    3    3    0  502 -0.12727143670E+02  0.42699013979E+03 -0.19944286061E+04  0.20396640991E+04  0.12699999809E+01 0. -1.
</event>
<event>
 5   0  0.2982385E-05  0.2288169E+04  0.7818609E-02  0.8482601E-01
        1   -1    0    0  501    0  0.00000000000E+00  0.00000000000E+00  0.62183341209E+03  0.62183341211E+03  0.50400001928E-02 0. -1.
       -1   -1    0    0    0  501  0.00000000000E+00  0.00000000000E+00 -0.21049517243E+04  0.21049517244E+04  0.50400001928E-02 0.  1.
    10030    2    1    2    0    0  0.00000000000E+00  0.00000000000E+00 -0.14831183123E+04  0.27267851365E+04  0.22881689737E+04 0.  0.
        4    1    3    3  502    0  0.58377872942E+03 -0.91642446807E+03 -0.11684038369E+04  0.15955565015E+04  0.12699999809E+01 0.  1.
       -4    1    3    3    0  502 -0.58377872942E+03  0.91642446807E+03 -0.31471447537E+03  0.11312286349E+04  0.12699999809E+01 0. -1.
</event>
<event>
 5   0  0.3006265E-05  0.2339889E+04  0.7818609E-02  0.8462357E-01
       -1   -1    0    0    0  501  0.00000000000E+00  0.00000000000E+00  0.11971969869E+04  0.11971969869E+04  0.50400001928E-02 0. -1.
        1   -1    0    0  501    0  0.00000000000E+00  0.00000000000E+00 -0.11433124728E+04  0.11433124728E+04  0.50400001928E-02 0.  1.
    10030    2    1    2    0    0  0.00000000000E+00  0.00000000000E+00  0.53884514088E+02  0.23405094597E+04  0.23398890978E+04 0.  0.
        2    1    3    3  502    0 -0.14731010781E+03  0.95375097418E+03 -0.63461729122E+03  0.11550239370E+04  0.25500000920E-02 0.  1.
       -2    1    3    3    0  502  0.14731010781E+03 -0.95375097418E+03  0.68850180531E+03  0.11854855227E+04  0.25500000920E-02 0. -1.
</event>
<event>
 5   0  0.6814789E-05  0.2325378E+04  0.7818609E-02  0.8467982E-01
        2   -1    0    0  501    0  0.00000000000E+00  0.00000000000E+00  0.15597659151E+04  0.15597659151E+04  0.25500000920E-02 0.  1.
       -2   -1    0    0    0  501  0.00000000000E+00  0.00000000000E+00 -0.86669751339E+03  0.86669751339E+03  0.25500000920E-02 0. -1.
    10030    2    1    2    0    0  0.00000000000E+00  0.00000000000E+00  0.69306840175E+03  0.24264634285E+04  0.23253775952E+04 0.  0.
        1    1    3    3  502    0 -0.75157670939E+03  0.74674113741E+03 -0.15319498767E+03  0.10704945496E+04  0.50400001928E-02 0. -1.
       -1    1    3    3    0  502  0.75157670939E+03 -0.74674113741E+03  0.84626338941E+03  0.13559688790E+04  0.50400001928E-02 0.  1.
</event>
<event>
 5   0  0.6495405E-05  0.2365201E+04  0.7818609E-02  0.8452648E-01
        2   -1    0    0  501    0  0.00000000000E+00  0.00000000000E+00  0.21179243617E+04  0.21179243617E+04  0.25500000920E-02 0.  1.
       -2   -1    0    0    0  501  0.00000000000E+00  0.00000000000E+00 -0.66033692541E+03  0.66033692542E+03  0.25500000920E-02 0. -1.
    10030    2    1    2    0    0  0.00000000000E+00  0.00000000000E+00  0.14575874363E+04  0.27782612871E+04  0.23652007621E+04 0.  0.
        5    1    3    3  502    0 -0.10054589197E+04  0.61719031549E+03  0.82458311004E+03  0.14393856051E+04  0.46999998093E+01 0. -1.
       -5    1    3    3    0  502  0.10054589197E+04 -0.61719031549E+03  0.63300432623E+03  0.13388756820E+04  0.46999998093E+01 0.  1.
</event>
<event>
 5   0  0.6468758E-05  0.2317639E+04  0.7818609E-02  0.8470999E-01
       -2   -1    0    0    0  501  0.00000000000E+00  0.00000000000E+00  0.10055696640E+04  0.10055696640E+04  0.25500000920E-02 0.  1.
        2   -1    0    0  501    0  0.00000000000E+00  0.00000000000E+00 -0.13354246102E+04  0.13354246102E+04  0.25500000920E-02 0. -1.
    10030    2    1    2    0    0  0.00000000000E+00  0.00000000000E+00 -0.32985494626E+03  0.23409942742E+04  0.23176388645E+04 0.  0.
        3    1    3    3  502    0 -0.27979331015E+03  0.47271661006E+03  0.86570635329E+03  0.10252769334E+04  0.10100000352E+00 0.  1.
       -3    1    3    3    0  502  0.27979331015E+03 -0.47271661006E+03 -0.11955612995E+04  0.13157173408E+04  0.10100000352E+00 0. -1.
</event>
<event>
 5   0  0.2982385E-05  0.2236634E+04  0.7818609E-02  0.8503333E-01
       -1   -1    0    0    0  501  0.00000000000E+00  0.00000000000E+00  0.76085536028E+03  0.76085536030E+03  0.50400001928E-02 0.  1.
        1   -1    0    0  501    0  0.00000000000E+00  0.00000000000E+00 -0.16437203125E+04  0.16437203125E+04  0.50400001928E-02 0. -1.
    10030    2    1    2    0    0  0.00000000000E+00  0.00000000000E+00 -0.88286495217E+03  0.24045756728E+04  0.22366344454E+04 0.  0.
        4    1    3    3  502    0  0.61397785372E+03  0.93469563578E+03 -0.44428930535E+03  0.12033367509E+04  0.12699999809E+01 0.  1.
       -4    1    3    3    0  502 -0.61397785372E+03 -0.93469563578E+03 -0.43857564682E+03  0.12012389218E+04  0.12699999809E+01 0. -1.
</event>
<event>
 5   0  0.6814789E-05  0.2338568E+04  0.7818609E-02  0.8462868E-01
        2   -1    0    0  501    0  0.00000000000E+00  0.00000000000E+00  0.13702295921E+04  0.13702295921E+04  0.25500000920E-02 0. -1.
       -2   -1    0    0    0  501  0.00000000000E+00  0.00000000000E+00 -0.99780708150E+03  0.99780708151E+03  0.25500000920E-02 0.  1.
    10030    2    1    2    0    0  0.00000000000E+00  0.00000000000E+00  0.37242251056E+03  0.23680366736E+04  0.23385677585E+04 0.  0.
        1    1    3    3  502    0 -0.48185043352E+02 -0.11563210336E+04  0.35512048886E+03  0.12105827906E+04  0.50400001928E-02 0.  1.
       -1    1    3    3    0  502  0.48185043352E+02  0.11563210336E+04  0.17302021702E+02  0.11574538830E+04  0.50400001928E-02 0. -1.
</event>
<event>
 5   0  0.2982385E-05  0.2141465E+04  0.7818609E-02  0.8543194E-01
       -1   -1    0    0    0  501  0.00000000000E+00  0.00000000000E+00  0.10227479709E+04  0.10227479709E+04  0.50400001928E-02 0.  1.
        1   -1    0    0  501    0  0.00000000000E+00  0.00000000000E+00 -0.11209684540E+04  0.11209684540E+04  0.50400001928E-02 0. -1.
    10030    2    1    2    0    0  0.00000000000E+00  0.00000000000E+00 -0.98220483130E+02  0.21437164249E+04  0.21414651170E+04 0.  0.
        4    1    3    3  502    0 -0.44484372760E+03 -0.20207273578E+03 -0.10028695859E+04  0.11155574175E+04  0.12699999809E+01 0. -1.
       -4    1    3    3    0  502  0.44484372760E+03  0.20207273578E+03  0.90464910277E+03  0.10281590074E+04  0.12699999809E+01 0.  1.
</event>
<event>
 5   0  0.6468758E-05  0.2325313E+04  0.7818609E-02  0.8468007E-01
        2   -1    0    0  501    0  0.00000000000E+00  0.00000000000E+00  0.21361276500E+04  0.21361276501E+04  0.25500000920E-02 0. -1.
       -2   -1    0    0    0  501  0.00000000000E+00  0.00000000000E+00 -0.63281348548E+03  0.63281348548E+03  0.25500000920E-02 0.  1.
    10030    2    1    2    0    0  0.00000000000E+00  0.00000000000E+00  0.15033141646E+04  0.27689411355E+04  0.23253132122E+04 0.  0.
        3    1    3    3  502    0 -0.68470379950E+03 -0.91535284098E+03  0.49882891574E+03  0.12472050408E+04  0.10100000352E+00 0. -1.
       -3    1    3    3    0  502  0.68470379950E+03  0.91535284098E+03  0.10044852488E+04  0.15217360947E+04  0.10100000352E+00 0.  1.
</event>
<event>
 5   0  0.6702421E-05  0.2348799E+04  0.7818609E-02  0.8458925E-01
       -2   -1    0    0    0  501  0.00000000000E+00  0.00000000000E+00  0.26927595644E+04  0.26927595644E+04  0.25500000920E-02 0. -1.
        2   -1    0    0  501    0  0.00000000000E+00  0.00000000000E+00 -0.51219380230E+03  0.51219380231E+03  0.25500000920E-02 0.  1.
    10030    2    1    2    0    0  0.00000000000E+00  0.00000000000E+00  0.21805657621E+04  0.32049533667E+04  0.23487994891E+04 0.  0.
        4    1    3    3  502    0 -0.42776099162E+03  0.32326235536E+03  0.25160034452E+04  0.25724993616E+04  0.12699999809E+01 0. -1.
       -4    1    3    3    0  502  0.42776099162E+03 -0.32326235536E+03 -0.33543768314E+03  0.63245400506E+03  0.12699999809E+01 0.  1.
</event>
<event>
 5   0  0.2962279E-05  0.2174374E+04  0.7818609E-02  0.8529171E-01
        1   -1    0    0  501    0  0.00000000000E+00  0.00000000000E+00  0.10878503944E+04  0.10878503944E+04  0.50400001928E-02 0. -1.
       -1   -1    0    0    0  501  0.00000000000E+00  0.00000000000E+00 -0.10865236854E+04  0.10865236854E+04  0.50400001928E-02 0.  1.
    10030    2    1    2    0    0  0.00000000000E+00  0.00000000000E+00  0.13267090388E+01  0.21743740798E+04  0.21743736750E+04 0.  0.
        1    1    3    3  502    0  0.84000405438E+03  0.46614204247E+03 -0.50833576233E+03  0.10868764706E+04  0.50400001928E-02 0.  1.
       -1    1    3    3    0  502 -0.84000405438E+03 -0.46614204247E+03  0.50966247137E+03  0.10874976091E+04  0.50400001928E-02 0. -1.
</event>
<event>
 5   0  0.6814789E-05  0.2518106E+04  0.7818609E-02  0.8396563E-01
        2   -1    0    0  501    0  0.00000000000E+00  0.00000000000E+00  0.13150023003E+04  0.13150023003E+04  0.25500000920E-02 0.  1.
       -2   -1    0    0    0  501  0.00000000000E+00  0.00000000000E+00 -0.12054845984E+04  0.12054845984E+04  0.25500000920E-02 0. -1.
    10030    2    1    2    0    0  0.00000000000E+00  0.00000000000E+00  0.10951770191E+03  0.25204868987E+04  0.25181064472E+04 0.  0.
        1    1    3    3  502    0  0.73475685087E+03  0.34621567422E+03  0.10176880816E+04  0.13020836972E+04  0.50400001928E-02 0.  1.
       -1    1    3    3    0  502 -0.73475685087E+03 -0.34621567422E+03 -0.90817037969E+03  0.12184032015E+04  0.50400001928E-02 0. -1.
</event>
<event>
 5   0  0.2944089E-05  0.2307931E+04  0.7818609E-02  0.8474801E-01
       -1   -1    0    0    0  501  0.00000000000E+00  0.00000000000E+00  0.79493907728E+03  0.79493907729E+03  0.50400001928E-02 0.  1.
        1   -1    0    0  501    0  0.00000000000E+00  0.00000000000E+00 -0.16751419707E+04  0.16751419707E+04  0.50400001928E-02 0. -1.
    10030    2    1    2    0    0  0.00000000000E+00  0.00000000000E+00 -0.88020289345E+03  0.24700810480E+04  0.23079305124E+04 0.  0.
        5    1    3    3  502    0  0.10172569917E+04  0.38912500488E+03 -0.32020533514E+02  0.10896226233E+04  0.46999998093E+01 0.  1.
       -5    1    3    3    0  502 -0.10172569917E+04 -0.38912500488E+03 -0.84818235993E+03  0.13804584247E+04  0.46999998093E+01 0. -1.
</event>
<event>
 5   0  0.2944089E-05  0.2322816E+04  0.7818609E-02  0.8468979E-01
        1   -1    0    0  501    0  0.00000000000E+00  0.00000000000E+00  0.90487359441E+03  0.90487359442E+03  0.50400001928E-02 0.  1.
       -1   -1    0    0    0  501  0.00000000000E+00  0.00000000000E+00 -0.14906709661E+04  0.14906709661E+04  0.50400001928E-02 0. -1.
    10030    2    1    2    0    0  0.00000000000E+00  0.00000000000E+00 -0.58579737167E+03  0.23955445605E+04  0.23228162176E+04 0.  0.
        5    1    3    3  502    0 -0.49176099386E+03  0.42034230354E+03 -0.12876349676E+04  0.14410213139E+04  0.46999998093E+01 0. -1.
       -5    1    3    3    0  502  0.49176099386E+03 -0.42034230354E+03  0.70183759596E+03  0.95452324662E+03  0.46999998093E+01 0.  1.
</event>
<event>
 5   0  0.2982385E-05  0.2320732E+04  0.7818609E-02  0.8469791E-01
        1   -1    0    0  501    0  0.00000000000E+00  0.00000000000E+00  0.19144942515E+04  0.19144942515E+04  0.50400001928E-02 0. -1.
       -1   -1    0    0    0  501  0.00000000000E+00  0.00000000000E+00 -0.70329253273E+03  0.70329253275E+03  0.50400001928E-02 0.  1.
    10030    2    1    2    0    0  0.00000000000E+00  0.00000000000E+00  0.12112017188E+04  0.26177867843E+04  0.23207322216E+04 0.  0.
        4    1    3    3  502    0  0.57854884501E+03  0.95265852652E+03  0.24153297362E+03  0.11404458884E+04  0.12699999809E+01 0.  1.
       -4    1    3    3    0  502 -0.57854884501E+03 -0.95265852652E+03  0.96966874515E+03  0.14773408958E+04  0.12699999809E+01 0. -1.
</event>
<event>
 5   0  0.3118614E-05  0.2292235E+04  0.7818609E-02  0.8480989E-01
        1   -1    0    0  501    0  0.00000000000E+00  0.00000000000E+00  0.23232278100E+04  0.23232278100E+04  0.50400001928E-02 0.  1.
       -1   -1    0    0    0  501  0.00000000000E+00  0.00000000000E+00 -0.56541399922E+03  0.56541399925E+03  0.50400001928E-02 0. -1.
    10030    2    1    2    0    0  0.00000000000E+00  0.00000000000E+00  0.17578138108E+04  0.28886418093E+04  0.22922351775E+04 0.  0.
        3    1    3    3  502    0  0.86579882586E+03  0.58027874573E+03  0.14796527197E+04  0.18098903864E+04  0.10100000352E+00 0.  1.
       -3    1    3    3    0  502 -0.86579882586E+03 -0.58027874573E+03  0.27816109112E+03  0.10787514229E+04  0.10100000352E+00 0. -1.
</event>
<event>
 5   0  0.3118614E-05  0.2285873E+04  0.7818609E-02  0.8483512E-01
       -1   -1    0    0    0  501  0.00000000000E+00  0.00000000000E+00  0.52163097978E+03  0.52163097980E+03  0.50400001928E-02 0. -1.
        1   -1    0    0  501    0  0.00000000000E+00  0.00000000000E+00 -0.25042676542E+04  0.25042676542E+04  0.50400001928E-02 0.  1.
    10030    2    1    2    0    0  0.00000000000E+00  0.00000000000E+00 -0.19826366744E+04  0.30258986340E+04  0.22858727787E+04 0.  0.
        3    1    3    3  502    0  0.72945312120E+02  0.82826338806E+03  0.46751502493E+02  0.83278266777E+03  0.10100000352E+00 0. -1.
       -3    1    3    3    0  502 -0.72945312120E+02 -0.82826338806E+03 -0.20293881769E+04  0.21931159662E+04  0.10100000352E+00 0.  1.
</event>
<event>
 5   0  0.2982385E-05  0.2313665E+04  0.7818609E-02  0.8472553E-01
        1   -1    0    0  501    0  0.00000000000E+00  0.00000000000E+00  0.78642907817E+03  0.78642907819E+03  0.50400001928E-02 0. -1.
       -1   -1    0    0    0  501  0.00000000000E+00  0.00000000000E+00 -0.17016941645E+04  0.17016941645E+04  0.50400001928E-02 0.  1.
    10030    2    1    2    0    0  0.00000000000E+00  0.00000000000E+00 -0.91526508636E+03  0.24881232427E+04  0.23136652940E+04 0.  0.
        4    1    3    3  502    0  0.24611477593E+03 -0.10236153639E+04  0.57999795217E+02  0.10543844106E+04  0.12699999809E+01 0. -1.
       -4    1    3    3    0  502 -0.24611477593E+03  0.10236153639E+04 -0.97326488158E+03  0.14337388321E+04  0.12699999809E+01 0.  1.
</event>
<event>
 5   0  0.3118614E-05  0.2289659E+04  0.7818609E-02  0.8482010E-01
        1   -1    0    0  501    0  0.00000000000E+00  0.00000000000E+00  0.84931048905E+03  0.84931048906E+03  0.50400001928E-02 0. -1.
       -1   -1    0    0    0  501  0.00000000000E+00  0.00000000000E+00 -0.15431746117E+04  0.15431746117E+04  0.50400001928E-02 0.  1.
    10030    2    1    2    0    0  0.00000000000E+00  0.00000000000E+00 -0.69386412267E+03  0.23924851008E+04  0.22896588254E+04 0.  0.
        3    1    3    3  502    0 -0.81627254458E+03 -0.12857430830E+03 -0.11748549102E+04  0.14363552102E+04  0.10100000352E+00 0. -1.
       -3    1    3    3    0  502  0.81627254458E+03  0.12857430830E+03  0.48099078749E+03  0.95612989057E+03  0.10100000352E+00 0.  1.
</event>
<event>
 5   0  0.2962279E-05  0.2293337E+04  0.7818609E-02  0.8480553E-01
       -1   -1    0    0    0  501  0.00000000000E+00  0.00000000000E+00  0.74881346325E+03  0.74881346327E+03  0.50400001928E-02 0.  1.
        1   -1    0    0  501    0  0.00000000000E+00  0.00000000000E+00 -0.17559097011E+04  0.17559097011E+04  0.50400001928E-02 0. -1.
    10030    2    1    2    0    0  0.00000000000E+00  0.00000000000E+00 -0.10070962379E+04  0.25047231644E+04  0.22933371531E+04 0.  0.
        1    1    3    3  502    0  0.86287751148E+03 -0.49207520907E+03 -0.11291962563E+04  0.15039214729E+04  0.50400001928E-02 0.  1.
       -1    1    3    3    0  502 -0.86287751148E+03  0.49207520907E+03  0.12210001848E+03  0.10008016915E+04  0.50400001928E-02 0. -1.
</event>
<event>
 5   0  0.2944089E-05  0.2315847E+04  0.7818609E-02  0.8471699E-01
        1   -1    0    0  501    0  0.00000000000E+00  0.00000000000E+00  0.12478851817E+04  0.12478851817E+04  0.50400001928E-02 0. -1.
       -1   -1    0    0    0  501  0.00000000000E+00  0.00000000000E+00 -0.10744471250E+04  0.10744471250E+04  0.50400001928E-02 0.  1.
    10030    2    1    2    0    0  0.00000000000E+00  0.00000000000E+00  0.17343805669E+03  0.23223323067E+04  0.23158468393E+04 0.  0.
        5    1    3    3  502    0 -0.27053918504E+03  0.25533994458E+03  0.11863182662E+04  0.12432871980E+04  0.46999998093E+01 0. -1.
       -5    1    3    3    0  502  0.27053918504E+03 -0.25533994458E+03 -0.10128802095E+04  0.10790451087E+04  0.46999998093E+01 0.  1.
</event>
<event>
 5   0  0.6468758E-05  0.2307658E+04  0.7818609E-02  0.8474908E-01
       -2   -1    0    0    0  501  0.00000000000E+00  0.00000000000E+00  0.85110518489E+03  0.85110518490E+03  0.25500000920E-02 0. -1.
        2   -1    0    0  501    0  0.00000000000E+00  0.00000000000E+00 -0.15642266635E+04  0.15642266635E+04  0.25500000920E-02 0.  1.
    10030    2    1    2    0    0  0.00000000000E+00  0.00000000000E+00 -0.71312147858E+03  0.24153318484E+04  0.23076580541E+04 0.  0.
        3    1    3    3  502    0 -0.24680121922E+03  0.82931327774E+03 -0.11554916959E+04  0.14435485527E+04  0.10100000352E+00 0.  1.
       -3    1    3    3    0  502  0.24680121922E+03 -0.82931327774E+03  0.44237021730E+03  0.97178329570E+03  0.10100000352E+00 0. -1.
</event>
<event>
 5   0  0.6676612E-05  0.2313899E+04  0.7818609E-02  0.8472461E-01
        2   -1    0    0  501    0  0.00000000000E+00  0.00000000000E+00  0.17597397396E+04  0.17597397396E+04  0.25500000920E-02 0. -1.
       -2   -1    0    0    0  501  0.00000000000E+00  0.00000000000E+00 -0.76064243404E+03  0.76064243404E+03  0.25500000920E-02 0.  1.
    10030    2    1    2    0    0  0.00000000000E+00  0.00000000000E+00  0.99909730551E+03  0.25203821736E+04  0.23138994955E+04 0.  0.
        2    1    3    3  502    0  0.66903787449E+03 -0.94382975915E+03  0.48831171825E+03  0.12557366865E+04  0.25500000920E-02 0. -1.
       -2    1    3    3    0  502 -0.66903787449E+03  0.94382975915E+03  0.51078558727E+03  0.12646454871E+04  0.25500000920E-02 0.  1.
</event>
<event>
 5   0  0.2944089E-05  0.2303599E+04  0.7818609E-02  0.8476503E-01
       -1   -1    0    0    0  501  0.00000000000E+00  0.00000000000E+00  0.91715579127E+03  0.91715579128E+03  0.50400001928E-02 0. -1.
        1   -1    0    0  501    0  0.00000000000E+00  0.00000000000E+00 -0.14464744386E+04  0.14464744386E+04  0.50400001928E-02 0.  1.
    10030    2    1    2    0    0  0.00000000000E+00  0.00000000000E+00 -0.52931864735E+03  0.23636302299E+04  0.23035992779E+04 0.  0.
        5    1    3    3  502    0  0.14172638857E+03  0.94498560705E+03  0.39516655228E+03  0.10340516722E+04  0.46999998093E+01 0. -1.
       -5    1    3    3    0  502 -0.14172638857E+03 -0.94498560705E+03 -0.92448519963E+03  0.13295785577E+04  0.46999998093E+01 0.  1.
</event>
<event>
 5   0  0.6468758E-05  0.2305112E+04  0.7818609E-02  0.8475908E-01
       -2   -1    0    0    0  501  0.00000000000E+00  0.00000000000E+00  0.64518538966E+03  0.64518538966E+03  0.25500000920E-02 0. -1.
        2   -1    0    0  501    0  0.00000000000E+00  0.00000000000E+00 -0.20589205789E+04  0.20589205789E+04  0.25500000920E-02 0.  1.
    10030    2    1    2    0    0  0.00000000000E+00  0.00000000000E+00 -0.14137351892E+04  0.27041059685E+04  0.23051121239E+04 0.  0.
        3    1    3    3  502    0  0.21301523035E+03  0.49954594843E+03 -0.18994249929E+04  0.19755346003E+04  0.10100000352E+00 0.  1.
       -3    1    3    3    0  502 -0.21301523035E+03 -0.49954594843E+03  0.48568980373E+03  0.72857136823E+03  0.10100000352E+00 0. -1.
</event>
<event>
 5   0  0.6814789E-05  0.2336610E+04  0.7818609E-02  0.8463624E-01
       -2   -1    0    0    0  501  0.00000000000E+00  0.00000000000E+00  0.77938271284E+03  0.77938271284E+03  0.25500000920E-02 0.  1.
        2   -1    0    0  501    0  0.00000000000E+00  0.00000000000E+00 -0.17513053573E+04  0.17513053573E+04  0.25500000920E-02 0. -1.
    10030    2    1    2    0    0  0.00000000000E+00  0.00000000000E+00 -0.97192264445E+03  0.25306880701E+04  0.23366104685E+04 0.  0.
        1    1    3    3  502    0 -0.78380648828E+03  0.45487358603E+03 -0.12845475084E+04  0.15720448122E+04  0.50400001928E-02 0. -1.
       -1    1    3    3    0  502  0.78380648828E+03 -0.45487358603E+03  0.31262486394E+03  0.95864325790E+03  0.50400001928E-02 0.  1.
</event>
<event>
 5   0  0.6702421E-05  0.1697450E+04  0.7818609E-02  0.8762820E-01
        2   -1    0    0  501    0  0.00000000000E+00  0.00000000000E+00  0.13962735638E+04  0.13962735638E+04  0.25500000920E-02 0.  1.
       -2   -1    0    0    0  501  0.00000000000E+00  0.00000000000E+00 -0.51589759036E+03  0.51589759037E+03  0.25500000920E-02 0. -1.
    10030    2    1    2    0    0  0.00000000000E+00  0.00000000000E+00  0.88037597341E+03  0.19121711541E+04  0.16974500488E+04 0.  0.
        4    1    3    3  502    0  0.29393366077E+03 -0.11355428027E+03 -0.44756039541E+03  0.54736047714E+03  0.12699999809E+01 0. -1.
       -4    1    3    3    0  502 -0.29393366077E+03  0.11355428027E+03  0.13279363688E+04  0.13648106770E+04  0.12699999809E+01 0.  1.
</event>
<event>
 5   0  0.6676612E-05  0.2292593E+04  0.7818609E-02  0.8480847E-01
       -2   -1    0    0    0  501  0.00000000000E+00  0.00000000000E+00  0.15676040554E+04  0.15676040554E+04  0.25500000920E-02 0.  1.
        2   -1    0    0  501    0  0.00000000000E+00  0.00000000000E+00 -0.83821886449E+03  0.83821886450E+03  0.25500000920E-02 0. -1.
    10030    2    1    2    0    0  0.00000000000E+00  0.00000000000E+00  0.72938519089E+03  0.24058229199E+04  0.22925926732E+04 0.  0.
        2    1    3    3  502    0 -0.95975086242E+03 -0.58061531138E+03  0.11689565803E+03  0.11277856412E+04  0.25500000920E-02 0.  1.
       -2    1    3    3    0  502  0.95975086242E+03  0.58061531138E+03  0.61248953286E+03  0.12780372786E+04  0.25500000920E-02 0. -1.
</event>
<event>
 5   0  0.2944089E-05  0.2298703E+04  0.7818609E-02  0.8478433E-01
        1   -1    0    0  501    0  0.00000000000E+00  0.00000000000E+00  0.16583118457E+04  0.16583118457E+04  0.50400001928E-02 0. -1.
       -1   -1    0    0    0  501  0.00000000000E+00  0.00000000000E+00 -0.79659868063E+03  0.79659868064E+03  0.50400001928E-02 0.  1.
    10030    2    1    2    0    0  0.00000000000E+00  0.00000000000E+00  0.86171316505E+03  0.24549105263E+04  0.22987031373E+04 0.  0.
        5    1    3    3  502    0  0.14809223864E+03  0.11359980079E+04  0.33202517149E+03  0.11927638448E+04  0.46999998093E+01 0.  1.
       -5    1    3    3    0  502 -0.14809223864E+03 -0.11359980079E+04  0.52968799356E+03  0.12621466815E+04  0.46999998093E+01 0. -1.
</event>
<event>
 5   0  0.6676612E-05  0.2305279E+04  0.7818609E-02  0.8475842E-01
       -2   -1    0    0    0  501  0.00000000000E+00  0.00000000000E+00  0.41076875826E+03  0.41076875827E+03  0.25500000920E-02 0.  1.
        2   -1    0    0  501    0  0.00000000000E+00  0.00000000000E+00 -0.32343704279E+04  0.32343704279E+04  0.25500000920E-02 0. -1.
    10030    2    1    2    0    0  0.00000000000E+00  0.00000000000E+00 -0.28236016696E+04  0.36451391861E+04  0.23052794403E+04 0.  0.
        2    1    3    3  502    0 -0.27735810690E+03  0.71089441373E+03 -0.45830013843E+02  0.76445979430E+03  0.25500000920E-02 0.  1.
       -2    1    3    3    0  502  0.27735810690E+03 -0.71089441373E+03 -0.27777716558E+04  0.28806793918E+04  0.25500000920E-02 0. -1.
</event>
<event>
 5   0  0.2944089E-05  0.2296612E+04  0.7818609E-02  0.8479258E-01
       -1   -1    0    0    0  501  0.00000000000E+00  0.00000000000E+00  0.54783010457E+03  0.54783010459E+03  0.50400001928E-02 0.  1.
        1   -1    0    0  501    0  0.00000000000E+00  0.00000000000E+00 -0.24069627544E+04  0.24069627544E+04  0.50400001928E-02 0. -1.
    10030    2    1    2    0    0  0.00000000000E+00  0.00000000000E+00 -0.18591326498E+04  0.29547928590E+04  0.22966119894E+04 0.  0.
        5    1    3    3  502    0 -0.53355986332E+03 -0.89039925940E+03 -0.15612895568E+04  0.18748717661E+04  0.46999998093E+01 0. -1.
       -5    1    3    3    0  502  0.53355986332E+03  0.89039925940E+03 -0.29784309298E+03  0.10799210929E+04  0.46999998093E+01 0.  1.
</event>
<event>
 5   0  0.3006265E-05  0.2302914E+04  0.7818609E-02  0.8476773E-01
        1   -1    0    0  501    0  0.00000000000E+00  0.00000000000E+00  0.15404961521E+04  0.15404961521E+04  0.50400001928E-02 0.  1.
       -1   -1    0    0    0  501  0.00000000000E+00  0.00000000000E+00 -0.86066658030E+03  0.86066658031E+03  0.50400001928E-02 0. -1.
    10030    2    1    2    0    0  0.00000000000E+00  0.00000000000E+00  0.67982957178E+03  0.24011627324E+04  0.23029142886E+04 0.  0.
        2    1    3    3  502    0 -0.95233096906E+03  0.14947566600E+03  0.99652434537E+03  0.13864840498E+04  0.25500000920E-02 0.  1.
       -2    1    3    3    0  502  0.95233096906E+03 -0.14947566600E+03 -0.31669477359E+03  0.10146786826E+04  0.25500000920E-02 0. -1.
</event>
<event>
 5   0  0.3006265E-05  0.2299551E+04  0.7818609E-02  0.8478098E-01
        1   -1    0    0  501    0  0.00000000000E+00  0.00000000000E+00  0.15445956823E+04  0.15445956823E+04  0.50400001928E-02 0. -1.
       -1   -1    0    0    0  501  0.00000000000E+00  0.00000000000E+00 -0.85587678797E+03  0.85587678798E+03  0.50400001928E-02 0.  1.
    10030    2    1    2    0    0  0.00000000000E+00  0.00000000000E+00  0.68871889434E+03  0.24004724703E+04  0.22995509051E+04 0.  0.
        2    1    3    3  502    0  0.78647241923E+03 -0.75404681921E+03  0.72770660828E+03  0.13102222634E+04  0.25500000920E-02 0. -1.
       -2    1    3    3    0  502 -0.78647241923E+03  0.75404681921E+03 -0.38987713935E+02  0.10902502069E+04  0.25500000920E-02 0.  1.
</event>
<event>
 5   0  0.2982385E-05  0.2320160E+04  0.7818609E-02  0.8470015E-01
        1   -1    0    0  501    0  0.00000000000E+00  0.00000000000E+00  0.28335265406E+04  0.28335265406E+04  0.50400001928E-02 0. -1.
       -1   -1    0    0    0  501  0.00000000000E+00  0.00000000000E+00 -0.47495068300E+03  0.47495068302E+03  0.50400001928E-02 0.  1.
    10030    2    1    2    0    0  0.00000000000E+00  0.00000000000E+00  0.23585758576E+04  0.33084772236E+04  0.23201597926E+04 0.  0.
        4    1    3    3  502    0 -0.84998955537E+03 -0.55542377424E+03  0.19793647924E+04  0.22246043261E+04  0.12699999809E+01 0. -1.
       -4    1    3    3    0  502  0.84998955537E+03  0.55542377424E+03  0.37921106521E+03  0.10838728976E+04  0.12699999809E+01 0.  1.
</event>
<event>
 5   0  0.6814789E-05  0.2333594E+04  0.7818609E-02  0.8464792E-01
       -2   -1    0    0    0  501  0.00000000000E+00  0.00000000000E+00  0.96612294632E+03  0.96612294632E+03  0.25500000920E-02 0.  1.
        2   -1    0    0  501    0  0.00000000000E+00  0.00000000000E+00 -0.14091529874E+04  0.14091529874E+04  0.25500000920E-02 0. -1.
    10030    2    1    2    0    0  0.00000000000E+00  0.00000000000E+00 -0.44303004111E+03  0.23752759338E+04  0.23335938259E+04 0.  0.
        1    1    3    3  502    0  0.74729390546E+03 -0.20116129778E+03 -0.11103251727E+04  0.13534164319E+04  0.50400001928E-02 0. -1.
       -1    1    3    3    0  502 -0.74729390546E+03  0.20116129778E+03  0.66729513162E+03  0.10218595019E+04  0.50400001928E-02 0.  1.
</event>
<event>
 5   0  0.6702421E-05  0.2310437E+04  0.7818609E-02  0.8473817E-01
       -2   -1    0    0    0  501  0.00000000000E+00  0.00000000000E+00  0.40290492216E+03  0.40290492216E+03  0.25500000920E-02 0.  1.
        2   -1    0    0  501    0  0.00000000000E+00  0.00000000000E+00 -0.33122709150E+04  0.33122709150E+04  0.25500000920E-02 0. -1.
    10030    2    1    2    0    0  0.00000000000E+00  0.00000000000E+00 -0.29093659928E+04  0.37151758371E+04  0.23104374090E+04 0.  0.
        4    1    3    3  502    0  0.40949869015E+03  0.61340103959E+02 -0.31888438277E+04  0.32156147711E+04  0.12699999809E+01 0. -1.
       -4    1    3    3    0  502 -0.40949869015E+03 -0.61340103959E+02  0.27947783491E+03  0.49956106603E+03  0.12699999809E+01 0.  1.
</event>
<event>
 5   0  0.3118614E-05  0.2268302E+04  0.7818609E-02  0.8490525E-01
       -1   -1    0    0    0  501  0.00000000000E+00  0.00000000000E+00  0.13911729572E+04  0.13911729573E+04  0.50400001928E-02 0. -1.
        1   -1    0    0  501    0  0.00000000000E+00  0.00000000000E+00 -0.92461426967E+03  0.92461426969E+03  0.50400001928E-02 0.  1.
    10030    2    1    2    0    0  0.00000000000E+00  0.00000000000E+00  0.46655868757E+03  0.23157872269E+04  0.22683018916E+04 0.  0.
        3    1    3    3  502    0  0.42274319215E+03 -0.98319791640E+03  0.61651530433E+03  0.12351036718E+04  0.10100000352E+00 0.  1.
       -3    1    3    3    0  502 -0.42274319215E+03  0.98319791640E+03 -0.14995661676E+03  0.10806835552E+04  0.10100000352E+00 0. -1.
</event>
<event>
 5   0  0.6468758E-05  0.2009130E+04  0.7818609E-02  0.8602364E-01
       -2   -1    0    0    0  501  0.00000000000E+00  0.00000000000E+00  0.13158028044E+04  0.13158028044E+04  0.25500000920E-02 0. -1.
        2   -1    0    0  501    0  0.00000000000E+00  0.00000000000E+00 -0.76694715180E+03  0.76694715181E+03  0.25500000920E-02 0.  1.
    10030    2    1    2    0    0  0.00000000000E+00  0.00000000000E+00  0.54885565262E+03  0.20827499562E+04  0.20091303723E+04 0.  0.
        3    1    3    3  502    0  0.71239305905E+03  0.14338389235E+03  0.99344862642E+03  0.12308545790E+04  0.10100000352E+00 0. -1.
       -3    1    3    3    0  502 -0.71239305905E+03 -0.14338389235E+03 -0.44459297380E+03  0.85189537721E+03  0.10100000352E+00 0.  1.
</event>
<event>
 5   0  0.3118614E-05  0.2361472E+04  0.7818609E-02  0.8454070E-01
        1   -1    0    0  501    0  0.00000000000E+00  0.00000000000E+00  0.17524503880E+04  0.17524503880E+04  0.50400001928E-02 0. -1.
       -1   -1    0    0    0  501  0.00000000000E+00  0.00000000000E+00 -0.79553614575E+03  0.79553614576E+03  0.50400001928E-02 0.  1.
    10030    2    1    2    0    0  0.00000000000E+00  0.00000000000E+00  0.95691424228E+03  0.25479865338E+04  0.23614721064E+04 0.  0.
        3    1    3    3  502    0  0.24263297665E+02 -0.95269813722E+03  0.12305899355E+04  0.15564620290E+04  0.10100000352E+00 0. -1.
       -3    1    3    3    0  502 -0.24263297665E+02  0.95269813722E+03 -0.27367569322E+03  0.99152450476E+03  0.10100000352E+00 0.  1.
</event>
<event>
 5   0  0.3006265E-05  0.2458289E+04  0.7818609E-02  0.8417998E-01
        1   -1    0    0  501    0  0.00000000000E+00  0.00000000000E+00  0.18278017435E+04  0.18278017435E+04  0.50400001928E-02 0.  1.
       -1   -1    0    0    0  501  0.00000000000E+00  0.00000000000E+00 -0.82656427505E+03  0.82656427506E+03  0.50400001928E-02 0. -1.
    10030    2    1    2    0    0  0.00000000000E+00  0.00000000000E+00  0.10012374685E+04  0.26543660186E+04  0.24582885291E+04 0.  0.
        2    1    3    3  502    0 -0.70948259490E+03  0.89431925369E+03  0.99261956356E+03  0.15127676880E+04  0.25500000920E-02 0.  1.
       -2    1    3    3    0  502  0.70948259490E+03 -0.89431925369E+03  0.86179048980E+01  0.11415983305E+04  0.25500000920E-02 0. -1.
</event>
<event>
 5   0  0.6676612E-05  0.2303408E+04  0.7818609E-02  0.8476578E-01
        2   -1    0    0  501    0  0.00000000000E+00  0.00000000000E+00  0.14729670448E+04  0.14729670448E+04  0.25500000920E-02 0.  1.
       -2   -1    0    0    0  501  0.00000000000E+00  0.00000000000E+00 -0.90051060226E+03  0.90051060226E+03  0.25500000920E-02 0. -1.
    10030    2    1    2    0    0  0.00000000000E+00  0.00000000000E+00  0.57245644254E+03  0.23734776471E+04  0.23034082926E+04 0.  0.
        2    1    3    3  502    0 -0.67112891870E+03  0.45921749732E+03  0.11265908659E+04  0.13894249582E+04  0.25500000920E-02 0.  1.
       -2    1    3    3    0  502  0.67112891870E+03 -0.45921749732E+03 -0.55413442333E+03  0.98405268888E+03  0.25500000920E-02 0. -1.
</event>
<event>
 5   0  0.2944089E-05  0.2196204E+04  0.7818609E-02  0.8520010E-01
        1   -1    0    0  501    0  0.00000000000E+00  0.00000000000E+00  0.21631409534E+04  0.21631409534E+04  0.50400001928E-02 0.  1.
       -1   -1    0    0    0  501  0.00000000000E+00  0.00000000000E+00 -0.55744293198E+03  0.55744293201E+03  0.50400001928E-02 0. -1.
    10030    2    1    2    0    0  0.00000000000E+00  0.00000000000E+00  0.16056980214E+04  0.27205838854E+04  0.21962036658E+04 0.  0.
        5    1    3    3  502    0  0.31094347540E+02  0.10966331978E+04  0.74429429887E+03  0.13257327492E+04  0.46999998093E+01 0. -1.
       -5    1    3    3    0  502 -0.31094347540E+02 -0.10966331978E+04  0.86140372252E+03  0.13948511362E+04  0.46999998093E+01 0.  1.
</event>
<event>
 5   0  0.2962279E-05  0.2293025E+04  0.7818609E-02  0.8480676E-01
       -1   -1    0    0    0  501  0.00000000000E+00  0.00000000000E+00  0.11838654170E+04  0.11838654170E+04  0.50400001928E-02 0.  1.
        1   -1    0    0  501    0  0.00000000000E+00  0.00000000000E+00 -0.11103381714E+04  0.11103381714E+04  0.50400001928E-02 0. -1.
    10030    2    1    2    0    0  0.00000000000E+00  0.00000000000E+00  0.73527245621E+02  0.22942035884E+04  0.22930250433E+04 0.  0.
        1    1    3    3  502    0 -0.73514884653E+03  0.70153281981E+03  0.56797797477E+03  0.11641267558E+04  0.50400001928E-02 0.  1.
       -1    1    3    3    0  502  0.73514884653E+03 -0.70153281981E+03 -0.49445072915E+03  0.11300768325E+04  0.50400001928E-02 0. -1.
</event>
<event>
 5   0  0.6702421E-05  0.2276025E+04  0.7818609E-02  0.8487435E-01
       -2   -1    0    0    0  501  0.00000000000E+00  0.00000000000E+00  0.44899060858E+03  0.44899060859E+03  0.25500000920E-02 0. -1.
        2   -1    0    0  501    0  0.00000000000E+00  0.00000000000E+00 -0.28844080471E+04  0.28844080471E+04  0.25500000920E-02 0.  1.
    10030    2    1    2    0    0  0.00000000000E+00  0.00000000000E+00 -0.24354174386E+04  0.33333986557E+04  0.22760247138E+04 0.  0.
        4    1    3    3  502    0 -0.38065502341E+03 -0.70744978514E+03 -0.37218500417E+02  0.80422029010E+03  0.12699999809E+01 0. -1.
       -4    1    3    3    0  502  0.38065502341E+03  0.70744978514E+03 -0.23981989381E+04  0.25291783656E+04  0.12699999809E+01 0.  1.
</event>
<event>
 5   0  0.2962279E-05  0.2115105E+04  0.7818609E-02  0.8554618E-01
        1   -1    0    0  501    0  0.00000000000E+00  0.00000000000E+00  0.13226797409E+04  0.13226797410E+04  0.50400001928E-02 0.  1.
       -1   -1    0    0    0  501  0.00000000000E+00  0.00000000000E+00 -0.84556934146E+03  0.84556934148E+03  0.50400001928E-02 0. -1.
    10030    2    1    2    0    0  0.00000000000E+00  0.00000000000E+00  0.47711039948E+03  0.21682490824E+04  0.21151051393E+04 0.  0.
        1    1    3    3  502    0 -0.33753253336E+02 -0.61375947010E+03  0.11207458652E+04  0.12782453847E+04  0.50400001928E-02 0.  1.
       -1    1    3    3    0  502  0.33753253336E+02  0.61375947010E+03 -0.64363546567E+03  0.89000369772E+03  0.50400001928E-02 0. -1.
</event>
<event>
 5   0  0.6702421E-05  0.2303913E+04  0.7818609E-02  0.8476380E-01
        2   -1    0    0  501    0  0.00000000000E+00  0.00000000000E+00  0.25944125868E+04  0.25944125868E+04  0.25500000920E-02 0. -1.
       -2   -1    0    0    0  501  0.00000000000E+00  0.00000000000E+00 -0.51148521024E+03  0.51148521025E+03  0.25500000920E-02 0.  1.
    10030    2    1    2    0    0  0.00000000000E+00  0.00000000000E+00  0.20829273766E+04  0.31058977971E+04  0.23039129041E+04 0.  0.
        4    1    3    3  502    0 -0.81706810689E+03  0.13934100917E+03 -0.37001890119E+02  0.82969088275E+03  0.12699999809E+01 0.  1.
       -4    1    3    3    0  502  0.81706810689E+03 -0.13934100917E+03  0.21199292667E+04  0.22762069143E+04  0.12699999809E+01 0. -1.
</event>
<event>
 5   0  0.6495405E-05  0.2278462E+04  0.7818609E-02  0.8486462E-01
        2   -1    0    0  501    0  0.00000000000E+00  0.00000000000E+00  0.11879895446E+04  0.11879895446E+04  0.25500000920E-02 0. -1.
       -2   -1    0    0    0  501  0.00000000000E+00  0.00000000000E+00 -0.10924736353E+04  0.10924736353E+04  0.25500000920E-02 0.  1.
    10030    2    1    2    0    0  0.00000000000E+00  0.00000000000E+00  0.95515909296E+02  0.22804631799E+04  0.22784619869E+04 0.  0.
        5    1    3    3  502    0  0.30148458685E+03 -0.18821246102E+03 -0.10355550543E+04  0.10948576378E+04  0.46999998093E+01 0.  1.
       -5    1    3    3    0  502 -0.30148458685E+03  0.18821246102E+03  0.11310709636E+04  0.11856055420E+04  0.46999998093E+01 0. -1.
</event>
<event>
 5   0  0.2982385E-05  0.2694284E+04  0.7818609E-02  0.8336862E-01
       -1   -1    0    0    0  501  0.00000000000E+00  0.00000000000E+00  0.11071349049E+04  0.11071349049E+04  0.50400001928E-02 0. -1.
        1   -1    0    0  501    0  0.00000000000E+00  0.00000000000E+00 -0.16391786750E+04  0.16391786750E+04  0.50400001928E-02 0.  1.
    10030    2    1    2    0    0  0.00000000000E+00  0.00000000000E+00 -0.53204377011E+03  0.27463135798E+04  0.26942842659E+04 0.  0.
        4    1    3    3  502    0 -0.82815761587E+03  0.14090122388E+03 -0.13394933875E+04  0.15811205962E+04  0.12699999809E+01 0.  1.
       -4    1    3    3    0  502  0.82815761587E+03 -0.14090122388E+03  0.80744961739E+03  0.11651929836E+04  0.12699999809E+01 0. -1.
</event>
<event>
 5   0  0.6495405E-05  0.2318346E+04  0.7818609E-02  0.8470722E-01
        2   -1    0    0  501    0  0.00000000000E+00  0.00000000000E+00  0.11243057766E+04  0.11243057766E+04  0.25500000920E-02 0. -1.
       -2   -1    0    0    0  501  0.00000000000E+00  0.00000000000E+00 -0.11951217903E+04  0.11951217903E+04  0.25500000920E-02 0.  1.
    10030    2    1    2    0    0  0.00000000000E+00  0.00000000000E+00 -0.70816013713E+02  0.23194275669E+04  0.23183462490E+04 0.  0.
        5    1    3    3  502    0 -0.11413050611E+04 -0.13765475868E+03 -0.18425295946E+03  0.11642582695E+04  0.46999998093E+01 0.  1.
       -5    1    3    3    0  502  0.11413050611E+04  0.13765475868E+03  0.11343694575E+03  0.11551692974E+04  0.46999998093E+01 0. -1.
</event>
<event>
 5   0  0.3006265E-05  0.2291443E+04  0.7818609E-02  0.8481303E-01
        1   -1    0    0  501    0  0.00000000000E+00  0.00000000000E+00  0.12135050358E+04  0.12135050358E+04  0.50400001928E-02 0. -1.
       -1   -1    0    0    0  501  0.00000000000E+00  0.00000000000E+00 -0.10817240432E+04  0.10817240433E+04  0.50400001928E-02 0.  1.
    10030    2    1    2    0    0  0.00000000000E+00  0.00000000000E+00  0.13178099254E+03  0.22952290790E+04  0.22914428414E+04 0.  0.
        2    1    3    3  502    0  0.82810390981E+03  0.77579617283E+03  0.22446122527E+03  0.11567189066E+04  0.25500000920E-02 0. -1.
       -2    1    3    3    0  502 -0.82810390981E+03 -0.77579617283E+03 -0.92680232732E+02  0.11385101724E+04  0.25500000920E-02 0.  1.
</event>
<event>
 5   0  0.6676612E-05  0.2355663E+04  0.7818609E-02  0.8456292E-01
       -2   -1    0    0    0  501  0.00000000000E+00  0.00000000000E+00  0.88653014948E+03  0.88653014948E+03  0.25500000920E-02 0.  1.
        2   -1    0    0  501    0  0.00000000000E+00  0.00000000000E+00 -0.15648508368E+04  0.15648508368E+04  0.25500000920E-02 0. -1.
    10030    2    1    2    0    0  0.00000000000E+00  0.00000000000E+00 -0.67832068736E+03  0.24513809863E+04  0.23556633429E+04 0.  0.
        2    1    3    3  502    0  0.80650968276E+03 -0.66818405011E+03 -0.89990574918E+03  0.13808541381E+04  0.25500000920E-02 0. -1.
       -2    1    3    3    0  502 -0.80650968276E+03  0.66818405011E+03  0.22158506182E+03  0.10705268483E+04  0.25500000920E-02 0.  1.
</event>
<event>
 5   0  0.2944089E-05  0.2311409E+04  0.7818609E-02  0.8473436E-01
        1   -1    0    0  501    0  0.00000000000E+00  0.00000000000E+00  0.18979198482E+04  0.18979198482E+04  0.50400001928E-02 0.  1.
       -1   -1    0    0    0  501  0.00000000000E+00  0.00000000000E+00 -0.70374538476E+03  0.70374538478E+03  0.50400001928E-02 0. -1.
    10030    2    1    2    0    0  0.00000000000E+00  0.00000000000E+00  0.11941744634E+04  0.26016652330E+04  0.23114085176E+04 0.  0.
        5    1    3    3  502    0 -0.65338361542E+03 -0.47280473433E+03  0.15287863937E+04  0.17284861565E+04  0.46999998093E+01 0.  1.
       -5    1    3    3    0  502  0.65338361542E+03  0.47280473433E+03 -0.33461193026E+03  0.87317907646E+03  0.46999998093E+01 0. -1.
</event>
</LesHouchesEvents>
